Membrane in water
40347
    1TMC1    C1    1   3.849   3.536  11.377  0.8310  0.2844  0.0125
    1TMC1    C2    2   3.932   3.599  11.291 -0.3337  0.0761  0.9697
    1TMC1    C3    3   3.888   3.630  11.164 -0.0924  0.4052 -0.1052
    1TMC1    C4    4   3.729   3.483  11.336 -0.2276  0.4378 -0.4648
    1TMC1    C5    5   3.685   3.520  11.215  0.2017  0.2755  0.0826
    1TMC1    C6    6   3.758   3.598  11.123 -0.5658  0.2968 -0.2710
    1TMC1     C    7   3.898   3.490  11.501  0.9022  0.4056  0.8480
    1TMC1     O    8   3.814   3.455  11.585 -0.4563 -0.6025 -0.3208
    1TMC1     H    9   4.030   3.639  11.317  1.2430 -2.0662 -1.6564
    1TMC1    H1   10   3.658   3.444  11.408  0.9478 -0.9329 -0.0569
    1TMC1    H2   11   3.722   3.613  11.022 -1.3581  0.5876  0.0495
    1TMC1    C7   12   3.554   3.477  11.178 -0.7494 -0.3577  0.0361
    1TMC1    C8   13   3.976   3.700  11.077 -0.0706 -0.7006 -0.0856
    1TMC1    O1   14   3.500   3.543  11.092 -0.1605 -0.1859  0.1322
    1TMC1    O2   15   4.071   3.762  11.124 -0.3795  0.9142  0.1008
    1TMC1    O3   16   3.542   3.348  11.202 -0.1781 -0.3036 -0.4999
    1TMC1    H3   17   3.620   3.304  11.241 -0.4149 -0.9203 -0.7232
    1TMC1    O5   18   3.918   3.718  10.953 -0.2551  0.7355 -0.5524
    1TMC1    H5   19   3.859   3.647  10.920  2.4733 -2.6897  1.8860
    2MPD2     C   20   4.252   3.436  11.865 -0.0602 -0.4419  0.0573
    2MPD2    C1   21   4.120   3.411  11.870 -0.2140  0.5599  0.1016
    2MPD2    C2   22   4.042   3.444  11.758  0.1270 -0.4516 -0.2110
    2MPD2    C3   23   4.102   3.486  11.637  0.1620 -0.8566  0.1260
    2MPD2    C4   24   4.239   3.510  11.637 -0.3133 -0.6416  0.4727
    2MPD2    C5   25   4.320   3.484  11.749 -0.0720  0.2345 -0.1642
    2MPD2     H   26   3.935   3.431  11.769  0.1202  0.6246  0.9294
    2MPD2    H1   27   4.293   3.556  11.555  0.2284 -2.7693 -0.3713
    2MPD2    H2   28   4.313   3.425  11.954  0.0515  0.3600  0.0818
    2MPD2    H3   29   4.423   3.516  11.754  0.0103  0.3118 -2.4308
    2MPD2     N   30   4.030   3.521  11.520  0.3645  0.3902 -0.6117
    2MPD2    H5   31   4.083   3.558  11.442  0.5369 -0.7522 -1.0312
    2MPD2    N1   32   4.060   3.346  11.981  0.5817  0.2549 -0.4706
    2MPD2    H7   33   3.959   3.347  11.984  0.5798 -0.7905 -0.3423
    3TMC1    C1   34   3.535   3.732  10.521 -0.8049  0.1023  0.6791
    3TMC1    C2   35   3.615   3.849  10.544 -0.2644 -0.1700 -0.1830
    3TMC1    C3   36   3.689   3.895  10.434  0.3711 -1.0603 -0.5370
    3TMC1    C4   37   3.520   3.682  10.394  0.2105 -0.2365  0.3678
    3TMC1    C5   38   3.607   3.725  10.294 -0.7896 -0.1975  0.4572
    3TMC1    C6   39   3.689   3.837  10.316  0.3722 -1.0376 -0.9843
    3TMC1     C   40   3.428   3.690  10.617 -0.5536  0.6003  0.0815
    3TMC1     O   41   3.360   3.591  10.586 -0.8989  0.1114 -0.1492
    3TMC1     H   42   3.632   3.878  10.648  1.3349 -1.2533 -0.1454
    3TMC1    H1   43   3.457   3.594  10.392  1.1840 -0.9368  0.3976
    3TMC1    H2   44   3.745   3.887  10.237  1.8822 -1.8317 -0.4164
    3TMC1    C7   45   3.558   3.709  10.152 -0.0367 -0.6997  0.6478
    3TMC1    C8   46   3.762   4.016  10.464  0.7085 -0.4619  0.2141
    3TMC1    O1   47   3.446   3.748  10.118 -0.4994  0.7434 -0.2717
    3TMC1    O2   48   3.699   4.105  10.518  0.4403  0.5669 -0.2744
    3TMC1    O3   49   3.669   3.737  10.085  0.6129 -0.2035 -0.4144
    3TMC1    H3   50   3.748   3.709  10.136  1.5173 -1.3073 -2.4160
    3TMC1    O5   51   3.852   4.047  10.366  0.2935  0.0179  0.0659
    3TMC1    H5   52   3.896   3.967  10.333  1.2002  0.9419 -0.9560
    4MPD2     C   53   3.045   3.845  10.923 -0.1625 -0.0863 -0.7308
    4MPD2    C1   54   3.125   3.960  10.894  0.0007  0.8900  0.7382
    4MPD2    C2   55   3.244   3.931  10.819  0.3630 -0.2789  0.4860
    4MPD2    C3   56   3.280   3.808  10.769 -0.3660 -0.3974  0.0422
    4MPD2    C4   57   3.195   3.699  10.805 -0.0640  0.5188  0.1870
    4MPD2    C5   58   3.082   3.723  10.880  0.1825 -0.1345 -0.0727
    4MPD2     H   59   3.309   4.014  10.790  1.2671 -1.7302 -1.6059
    4MPD2    H1   60   3.217   3.596  10.779 -0.7489  1.0834 -2.6519
    4MPD2    H2   61   2.957   3.856  10.986  0.9877  1.4797  0.6269
    4MPD2    H3   62   3.031   3.636  10.918 -1.7396  0.5610 -1.0129
    4MPD2     N   63   3.396   3.795  10.703 -0.4664 -0.3959  0.1743
    4MPD2    H5   64   3.442   3.886  10.703 -2.7039  0.7434  2.9548
    4MPD2    N1   65   3.106   4.094  10.936  0.6651  0.1303  0.4538
    4MPD2    H7   66   3.181   4.154  10.902  0.5839  1.2609  2.3158
    5TCq1    O1   67   2.761   1.131  10.566  0.4038 -0.1615  0.9455
    5TCq1    C1   68   2.670   1.182  10.650  0.7978  0.6027 -0.3029
    5TCq1    O2   69   2.593   1.271  10.625  0.2897  0.3307  0.3622
    5TCq1    C2   70   2.694   1.115  10.785  0.0869  0.4531 -0.2625
    5TCq1    C3   71   2.591   1.052  10.854 -0.3456  0.2735  0.0464
    5TCq1    C4   72   2.619   0.982  10.974 -0.0632  0.2909  0.0871
    5TCq1    C5   73   2.750   0.951  11.007 -0.6154 -0.1299 -0.2609
    5TCq1    C6   74   2.853   1.010  10.930 -0.1636 -0.4649  0.4846
    5TCq1    C7   75   2.828   1.084  10.816 -0.8097 -0.2314  0.1642
    5TCq1    C8   76   2.993   0.985  10.955 -0.5576  0.3342  0.7225
    5TCq1    O4   77   3.080   0.980  10.865 -0.4504 -0.4620 -0.0458
    5TCq1    C9   78   2.511   0.950  11.066  0.1753  0.4735  0.0868
    5TCq1    O5   79   2.396   0.984  11.023 -0.3344  0.3929 -0.8748
    5TCq1    O6   80   2.540   0.905  11.180 -0.3080  0.0687  1.0253
    5TCq1    H1   81   2.787   1.044  10.604 -1.9390 -0.7390  1.2342
    5TCq1    H2   82   2.487   1.086  10.853  0.6411  3.3657  0.5068
    5TCq1    H3   83   2.762   0.880  11.088 -2.8780  1.5351  1.5472
    5TCq1    H4   84   2.907   1.142  10.770 -1.0371 -1.3586 -1.6453
    6MPD2     C   85   3.149   0.937  11.290  0.9605  0.4893  0.3582
    6MPD2    C1   86   3.136   0.946  11.152 -0.5944  0.1996  0.3462
    6MPD2    C2   87   3.251   0.912  11.083  0.0526 -0.8129 -0.5929
    6MPD2    C3   88   3.367   0.877  11.147  0.3022 -0.0187 -0.0026
    6MPD2    C4   89   3.381   0.888  11.280 -0.2860 -1.4020  0.3789
    6MPD2    C5   90   3.265   0.900  11.357  0.4412 -0.0319 -0.0286
    6MPD2     H   91   3.251   0.904  10.975 -1.1135  0.3591 -0.6773
    6MPD2    H1   92   3.471   0.875  11.340 -0.3874 -3.0081  0.1855
    6MPD2    H2   93   3.064   0.954  11.355  0.0532 -0.4934 -0.5761
    6MPD2    H3   94   3.269   0.914  11.464  1.4444 -2.2133  0.2282
    6MPD2     N   95   3.473   0.822  11.067  0.7169  0.2140  0.0653
    6MPD2    H5   96   3.444   0.811  10.970  1.7467 -1.2366 -0.0774
    6MPD2    N1   97   3.011   0.973  11.093 -0.4653 -0.1977  0.6132
    6MPD2    H7   98   2.932   1.003  11.149  0.8686 -0.2252  2.4766
    7TCq1    O1   99   0.471   0.174  12.969 -0.3077  0.5657 -0.3257
    7TCq1    C1  100   0.479   0.070  13.055 -0.4716 -0.9063 -0.9207
    7TCq1    O2  101   0.504   4.691  13.030  0.7345 -0.4356  0.0969
    7TCq1    C2  102   0.530   0.120  13.177 -0.5417  0.2672  0.1575
    7TCq1    C3  103   0.485   0.245  13.218  0.0782  0.2306  0.2303
    7TCq1    C4  104   0.545   0.286  13.335  0.2384  0.6147  0.2401
    7TCq1    C5  105   0.636   0.217  13.407 -0.0321 -0.4060  0.0809
    7TCq1    C6  106   0.683   0.099  13.353 -0.0992  0.5654  0.0038
    7TCq1    C7  107   0.629   0.048  13.235  0.3318 -0.4719  0.1654
    7TCq1    C8  108   0.774   0.011  13.429 -0.1509 -0.5714 -0.5452
    7TCq1    O4  109   0.811   4.648  13.365  0.0594 -0.2561 -0.5213
    7TCq1    C9  110   0.508   0.416  13.392 -0.2110 -0.4080  1.3861
    7TCq1    O5  111   0.429   0.488  13.327  0.3222 -0.5583  0.2083
    7TCq1    O6  112   0.607   0.462  13.463 -0.0917  0.7498  0.2619
    7TCq1    H1  113   0.486   0.263  13.008  0.5174 -0.3390  1.4396
    7TCq1    H2  114   0.404   0.298  13.170  0.2022 -2.5754 -3.1441
    7TCq1    H3  115   0.676   0.253  13.501  1.9156  0.7364 -1.1949
    7TCq1    H4  116   0.657   4.688  13.197  1.3432  0.7746 -2.2713
    8MPD2     C  117   0.932   4.569  13.881 -0.4104 -1.1108 -0.1179
    8MPD2    C1  118   0.911   4.497  13.765  0.0561  0.0242  0.4011
    8MPD2    C2  119   0.854   4.564  13.660  0.1576 -0.1162  0.2613
    8MPD2    C3  120   0.842   4.699  13.670  0.5055 -0.0690 -0.0466
    8MPD2    C4  121   0.860   0.026  13.791 -0.4744 -0.6940  0.1313
    8MPD2    C5  122   0.898   4.697  13.900 -0.5949  0.3847  0.2464
    8MPD2     H  123   0.811   4.515  13.573 -0.7255  1.5355 -0.2334
    8MPD2    H1  124   0.858   0.133  13.807 -1.1301 -0.6647 -0.1657
    8MPD2    H2  125   0.980   4.525  13.967  0.4338 -1.2276 -0.6441
    8MPD2    H3  126   0.910   0.019  13.990 -1.1001  1.4345 -0.3918
    8MPD2     N  127   0.790   0.043  13.561 -0.9704  0.1214 -0.1064
    8MPD2    H5  128   0.744   0.130  13.585  0.9620  0.9696  0.5234
    8MPD2    N1  129   0.933   4.361  13.765  0.4573 -0.0575 -0.4644
    8MPD2    H7  130   0.954   4.316  13.853 -1.3939  1.3453  0.6930
    9TMC1    C1  131   4.370   4.016  11.152  1.0160  0.4256  0.4854
    9TMC1    C2  132   4.354   3.894  11.203 -0.3946  0.3193  0.0168
    9TMC1    C3  133   4.458   3.808  11.190  0.0012  0.0160  0.0193
    9TMC1    C4  134   4.492   4.056  11.103  0.6272 -0.5983 -0.1343
    9TMC1    C5  135   4.587   3.962  11.085 -0.3721  0.0235  0.2277
    9TMC1    C6  136   4.579   3.839  11.132 -0.5815 -0.2453  0.2565
    9TMC1     C  137   4.255   4.113  11.143  0.5313  0.2026  0.2609
    9TMC1     O  138   4.282   4.229  11.116 -0.1119  0.3490  0.0994
    9TMC1     H  139   4.260   3.861  11.245 -0.5981 -1.0239 -1.5022
    9TMC1    H1  140   4.511   4.159  11.075  0.0870 -0.3761  0.3396
    9TMC1    H2  141   4.662   3.772  11.147  0.8619  1.9459  2.0793
    9TMC1    C7  142   4.711   4.015  11.031  0.4569 -0.2541  0.7581
    9TMC1    C8  143   4.426   3.668  11.206  0.0757  0.6413 -0.4508
    9TMC1    O1  144   0.039   4.105  11.079 -0.6220 -0.5239 -0.6038
    9TMC1    O2  145   4.477   3.587  11.133  0.1414 -0.4240 -0.4165
    9TMC1    O3  146   0.018   3.911  10.954 -0.1085 -0.4573 -0.5824
    9TMC1    H3  147   4.678   3.858  10.924 -2.6252  3.0782 -0.3053
    9TMC1    O5  148   4.400   3.658  11.337  0.7711 -0.1179 -0.5706
    9TMC1    H5  149   4.370   3.743  11.376 -0.2152 -1.2024  1.0720
   10MPD2     C  150   4.009   4.269  11.176 -0.6195 -0.7405  0.1461
   10MPD2    C1  151   4.009   4.131  11.174 -0.2790 -0.7131 -0.0698
   10MPD2    C2  152   3.901   4.064  11.226 -0.4277 -0.6255 -0.0308
   10MPD2    C3  153   3.796   4.136  11.284  0.3109 -0.1519  0.6577
   10MPD2    C4  154   3.802   4.274  11.285 -0.2886 -0.6262  0.5138
   10MPD2    C5  155   3.899   4.336  11.221  0.2693 -0.7049 -0.0690
   10MPD2     H  156   3.906   3.956  11.228  1.0937 -0.6066 -2.8057
   10MPD2    H1  157   3.725   4.340  11.322  1.9130  0.2987  3.4643
   10MPD2    H2  158   4.090   4.335  11.149  0.0523 -1.2430  0.9479
   10MPD2    H3  159   3.906   4.444  11.213 -3.4695 -0.5195 -0.7083
   10MPD2     N  160   3.689   4.084  11.350 -0.6435 -0.3688  0.2548
   10MPD2    H5  161   3.620   4.144  11.393  0.5752  0.6068  0.8280
   10MPD2    N1  162   4.130   4.056  11.149  0.3859 -0.6765  0.1846
   10MPD2    H7  163   4.128   3.954  11.152  0.6656 -0.6956 -0.2557
   11TCq1    O1  164   4.461   3.639  14.528 -0.2588  0.2307 -0.1051
   11TCq1    C1  165   4.387   3.619  14.417 -0.5737 -0.3194  0.0531
   11TCq1    O2  166   4.397   3.515  14.353  0.7328 -0.1474  0.0234
   11TCq1    C2  167   4.259   3.666  14.441  0.4620  0.4715 -0.0505
   11TCq1    C3  168   4.250   3.770  14.522  0.4656 -0.4184 -0.0767
   11TCq1    C4  169   4.123   3.784  14.584  0.8865 -0.0865 -0.0620
   11TCq1    C5  170   4.014   3.709  14.558 -0.2606  0.0955 -0.0651
   11TCq1    C6  171   4.029   3.607  14.470  1.1859 -0.7152  0.1213
   11TCq1    C7  172   4.154   3.578  14.419 -0.0948  0.0799 -0.0923
   11TCq1    C8  173   3.918   3.511  14.463 -0.2846 -0.1585  0.3112
   11TCq1    O4  174   3.823   3.531  14.535  0.4128  0.0128  0.3884
   11TCq1    C9  175   4.116   3.873  14.700  0.3792 -0.1338  1.0020
   11TCq1    O5  176   4.001   3.904  14.732 -0.0188 -0.1066 -0.4412
   11TCq1    O6  177   4.218   3.896  14.766  0.2471  0.1498  0.9124
   11TCq1    H1  178   4.443   3.724  14.574 -1.6643  0.2370 -0.6489
   11TCq1    H2  179   4.336   3.828  14.553 -2.0976  1.8657  2.6472
   11TCq1    H3  180   3.918   3.721  14.607 -1.1435 -1.4601 -1.4498
   11TCq1    H4  181   4.178   3.486  14.367 -1.0684 -0.1373 -0.1721
   12MPD2     C  182   3.754   3.271  14.446  0.2282 -0.0919 -0.5966
   12MPD2    C1  183   3.858   3.296  14.360  0.3904  0.5225 -0.1986
   12MPD2    C2  184   3.872   3.214  14.250 -0.0423  0.4405 -0.3273
   12MPD2    C3  185   3.780   3.111  14.223  0.2878 -0.4181 -0.3905
   12MPD2    C4  186   3.671   3.089  14.302 -0.6882  0.3592 -0.2470
   12MPD2    C5  187   3.663   3.164  14.417 -0.3669 -0.1608  0.8101
   12MPD2     H  188   3.944   3.248  14.177  1.1349 -3.3530 -0.9316
   12MPD2    H1  189   3.600   3.010  14.279  0.0381 -1.2101  2.9261
   12MPD2    H2  190   3.734   3.331  14.534  2.9915  2.2509 -1.5659
   12MPD2    H3  191   3.581   3.143  14.485 -0.9094  0.7595  0.4418
   12MPD2     N  192   3.785   3.034  14.104  0.1365 -0.2828 -0.1372
   12MPD2    H5  193   3.737   2.945  14.097 -0.9732  0.4054 -1.4567
   12MPD2    N1  194   3.946   3.406  14.376  0.1979 -0.2488  0.0831
   12MPD2    H7  195   4.032   3.415  14.323 -1.9502  2.5895 -2.8994
   13TCq1    O1  196   4.249   3.835  10.688  0.0049  0.7261 -0.3604
   13TCq1    C1  197   4.225   3.700  10.709  0.4093 -0.1569 -0.0423
   13TCq1    O2  198   4.277   3.623  10.790 -0.6298  0.0999  0.0907
   13TCq1    C2  199   4.108   3.661  10.634 -0.6143  0.1603  0.6729
   13TCq1    C3  200   4.088   3.712  10.510 -0.8470  0.5136 -0.0347
   13TCq1    C4  201   3.993   3.669  10.426 -0.0987 -0.8476 -0.3924
   13TCq1    C5  202   3.902   3.578  10.477  0.1720 -0.0907  0.0439
   13TCq1    C6  203   3.913   3.540  10.608 -0.1626 -0.1674 -0.4211
   13TCq1    C7  204   4.013   3.583  10.690 -0.4823  0.1934  0.1936
   13TCq1    C8  205   3.805   3.480  10.684 -0.4043  1.0129 -0.2403
   13TCq1    O4  206   3.792   3.536  10.794 -0.7397 -0.6689  0.2053
   13TCq1    C9  207   3.985   3.722  10.291 -0.8972  0.5506  0.6873
   13TCq1    O5  208   3.905   3.667  10.210 -0.0870  0.0799 -0.8642
   13TCq1    O6  209   4.012   3.847  10.282 -0.1692 -0.0124  0.5238
   13TCq1    H1  210   4.162   3.873  10.664 -0.6229 -0.9373 -0.7221
   13TCq1    H2  211   4.157   3.776  10.457 -1.5720  1.1852 -0.1701
   13TCq1    H3  212   3.808   3.562  10.426  0.2068  0.1472 -0.0945
   13TCq1    H4  213   4.037   3.552  10.791  1.6085  2.1139  0.2774
   14MPD2     C  214   3.535   3.255  10.555  0.1863  0.0315  0.1300
   14MPD2    C1  215   3.601   3.338  10.651 -0.8552 -0.7462  0.1567
   14MPD2    C2  216   3.549   3.365  10.776 -0.0876  0.4787 -0.5725
   14MPD2    C3  217   3.419   3.320  10.806  0.6805 -0.0089  0.1368
   14MPD2    C4  218   3.357   3.242  10.708 -0.3504  1.0461 -0.0857
   14MPD2    C5  219   3.413   3.207  10.583 -0.6868 -0.1374  0.3913
   14MPD2     H  220   3.598   3.428  10.850  0.0250  0.4242 -0.5993
   14MPD2    H1  221   3.252   3.218  10.715 -0.4664  0.9084 -2.6359
   14MPD2    H2  222   3.575   3.250  10.455  1.8868 -0.4505  0.8324
   14MPD2    H3  223   3.363   3.154  10.503 -1.5512  1.3252 -0.0342
   14MPD2     N  224   3.349   3.336  10.932 -0.0613  0.2570 -0.5582
   14MPD2    H5  225   3.401   3.403  10.988  2.3173 -1.1934 -1.0386
   14MPD2    N1  226   3.727   3.389  10.611 -0.0120  0.0436  0.5755
   14MPD2    H7  227   3.760   3.371  10.517 -0.3383  0.5519  0.3632
   15TCq1    O1  228   0.239   2.570   1.169  0.6745 -1.0509  0.2875
   15TCq1    C1  229   0.129   2.514   1.116 -0.4861 -0.3554 -0.0845
   15TCq1    O2  230   0.104   2.495   0.999 -0.2039  0.1899  0.3980
   15TCq1    C2  231   0.105   2.408   1.213 -0.3401 -0.3115  0.0815
   15TCq1    C3  232   0.094   2.439   1.344 -0.4869 -0.1186  0.0554
   15TCq1    C4  233   0.052   2.349   1.433 -0.3436  0.7297 -0.3223
   15TCq1    C5  234   0.025   2.225   1.387  0.3486 -0.5565  0.3935
   15TCq1    C6  235   0.031   2.188   1.257 -0.0984 -0.6663 -0.3468
   15TCq1    C7  236   0.071   2.283   1.160 -0.4361  0.8362 -0.6347
   15TCq1    C8  237   0.056   2.051   1.215 -0.8177 -0.8124 -0.1757
   15TCq1    O4  238   0.111   2.033   1.108  0.6908  0.2281  0.3026
   15TCq1    C9  239   0.049   2.390   1.574  0.3360 -0.0302  0.1649
   15TCq1    O5  240   0.056   2.515   1.596 -0.3852 -0.3283 -0.2609
   15TCq1    O6  241   0.043   2.302   1.669  0.5536  0.6122 -0.2310
   15TCq1    H1  242   0.240   2.559   1.266  4.5099 -1.8066  0.1791
   15TCq1    H2  243   0.146   2.528   1.380  2.1533 -1.0876 -1.3643
   15TCq1    H3  244   4.737   2.153   1.464 -0.8041 -0.4238  0.1397
   15TCq1    H4  245   0.069   2.274   1.052  1.9306 -0.7600 -0.5410
   16MPD2     C  246   4.678   1.723   1.361  0.1109 -0.3277  0.2464
   16MPD2    C1  247   0.016   1.812   1.287 -0.2922 -0.0754  0.0861
   16MPD2    C2  248   0.112   1.754   1.212  0.1716 -0.0272 -0.6669
   16MPD2    C3  249   0.124   1.618   1.204  0.2217  0.4107  0.9150
   16MPD2    C4  250   0.047   1.536   1.279 -0.5962 -0.6996  0.5288
   16MPD2    C5  251   4.679   1.589   1.348 -0.0541 -0.3666  0.4538
   16MPD2     H  252   0.184   1.819   1.164 -1.1304  1.1435 -1.0571
   16MPD2    H1  253   0.050   1.428   1.269  2.5397 -0.4946 -0.6064
   16MPD2    H2  254   4.619   1.759   1.444  1.5998  1.4190  0.5352
   16MPD2    H3  255   4.611   1.521   1.398  1.0002  1.2227  4.0843
   16MPD2     N  256   0.236   1.572   1.118 -0.0351  0.0782 -0.7334
   16MPD2    H5  257   0.280   1.647   1.067  0.3331  0.2134 -0.2051
   16MPD2    N1  258   4.737   1.953   1.299  0.2316 -0.3038 -0.1698
   16MPD2    H7  259   4.669   1.984   1.368 -0.3539 -0.0125 -0.8762
   17TMC1    C1  260   3.115   2.703  10.259  0.0514  0.2883  0.3369
   17TMC1    C2  261   3.115   2.702  10.394  0.5516  0.5274  0.6070
   17TMC1    C3  262   3.045   2.602  10.452 -0.0736 -0.0325  0.6065
   17TMC1    C4  263   3.016   2.649  10.179  0.1915  0.4983 -0.2363
   17TMC1    C5  264   2.945   2.556  10.244  0.2005  0.1758  0.2601
   17TMC1    C6  265   2.957   2.525  10.378 -0.4170 -0.3032 -0.1867
   17TMC1     C  266   3.212   2.781  10.184 -0.1081  0.4201  0.3808
   17TMC1     O  267   3.191   2.809  10.067 -0.6385 -0.1446 -0.3056
   17TMC1     H  268   3.173   2.778  10.445  2.0029  0.9986 -1.7585
   17TMC1    H1  269   3.021   2.648  10.071 -1.1406 -0.5399 -0.2772
   17TMC1    H2  270   2.899   2.444  10.421 -1.8348  0.8847  0.1518
   17TMC1    C7  271   2.832   2.503  10.167  0.1187 -0.2545 -0.3071
   17TMC1    C8  272   3.043   2.577  10.597 -0.2774  0.3943  0.2943
   17TMC1    O1  273   2.735   2.457  10.229  0.7624 -0.1228 -0.7916
   17TMC1    O2  274   2.960   2.519  10.666 -0.6034  0.8733 -0.2974
   17TMC1    O3  275   2.896   2.435  10.065 -0.0075  0.0337 -0.1502
   17TMC1    H3  276   2.983   2.474  10.044 -0.4048  0.8135 -0.3376
   17TMC1    O5  277   3.172   2.578  10.634  0.1905 -0.2754 -0.0453
   17TMC1    H5  278   3.237   2.613  10.569  0.8480 -1.3427  0.0404
   18MPD2     C  279   3.435   2.954  10.100 -0.8789  0.2935  0.0657
   18MPD2    C1  280   3.425   2.897  10.225  0.0337  0.1594 -0.0179
   18MPD2    C2  281   3.530   2.916  10.318 -1.0552  0.0193  0.4468
   18MPD2    C3  282   3.634   3.006  10.287  0.5168 -0.4686 -0.0885
   18MPD2    C4  283   3.640   3.068  10.164 -0.1844 -0.2075 -0.0474
   18MPD2    C5  284   3.546   3.030  10.073 -0.2346  0.2606  0.7902
   18MPD2     H  285   3.535   2.858  10.409  1.5805 -1.2486 -0.5050
   18MPD2    H1  286   3.719   3.140  10.146 -1.2797  2.0840  4.3751
   18MPD2    H2  287   3.367   2.938  10.017 -0.9782 -1.5232  0.4920
   18MPD2    H3  288   3.560   3.064   9.971 -1.0463 -2.7170 -0.3224
   18MPD2     N  289   3.745   3.040  10.365 -0.4948  0.6863  0.2566
   18MPD2    H5  290   3.809   3.110  10.330  1.4470 -0.7755  0.9032
   18MPD2    N1  291   3.318   2.816  10.259  0.0035  0.0820  0.6461
   18MPD2    H7  292   3.333   2.768  10.347  0.3462  1.7765  1.4979
   19TMC2    C1  293   0.531   3.341  14.134 -0.5934  0.1321  0.0141
   19TMC2    C2  294   0.464   3.432  14.058  0.5092  1.1101  1.0155
   19TMC2    C3  295   0.341   3.391  14.016  0.0845 -0.6877 -0.4164
   19TMC2    C4  296   0.481   3.219  14.176  0.2831  0.2749  0.1123
   19TMC2    C5  297   0.349   3.198  14.154  0.3686 -0.9244 -0.4905
   19TMC2    C6  298   0.283   3.275  14.062  0.6680  0.1007  0.2613
   19TMC2     C  299   0.677   3.368  14.147  0.1459 -0.5695 -0.2309
   19TMC2     O  300   0.710   3.468  14.081 -0.6688  0.3257 -0.7747
   19TMC2     H  301   0.512   3.522  14.020 -2.2585  1.4832 -1.6799
   19TMC2    H1  302   0.539   3.140  14.220  1.8402 -0.4892 -3.3093
   19TMC2    H2  303   0.186   3.251  14.021  1.2499  0.8434 -1.5343
   19TMC2    C7  304   0.283   3.070  14.188 -0.2049  0.9708 -0.1629
   19TMC2    C8  305   0.248   3.477  13.932  0.2732  0.1818  0.1075
   19TMC2    O1  306   0.354   2.973  14.219  0.0398 -0.2876  0.0666
   19TMC2    O2  307   0.297   3.573  13.879  0.3258 -0.4548  0.6779
   19TMC2    O5  308   0.134   3.483  14.006 -0.5788 -0.4495  0.2871
   19TMC2    H5  309   0.111   3.401  14.055 -1.5832 -0.7904 -0.7697
   20MPD2     C  310   0.959   3.408  14.228  0.2566 -0.8810  0.5988
   20MPD2    C1  311   0.888   3.292  14.241 -0.4601  0.5960  0.0708
   20MPD2    C2  312   0.950   3.183  14.297 -0.7951 -0.7655  0.2251
   20MPD2    C3  313   1.082   3.187  14.328  0.3363  0.0768 -0.1259
   20MPD2    C4  314   1.152   3.304  14.309 -0.1657 -0.2339 -0.2399
   20MPD2    C5  315   1.095   3.411  14.253 -0.3651  0.1033  0.5013
   20MPD2     H  316   0.888   3.096  14.313 -0.0998 -1.4235 -0.7272
   20MPD2    H1  317   1.257   3.309  14.336  0.0153  1.0686 -1.1985
   20MPD2    H2  318   0.911   3.502  14.203  0.8398  0.1255  3.3052
   20MPD2    H3  319   1.146   3.503  14.227 -2.2971  1.1835  0.5372
   20MPD2     N  320   1.146   3.083  14.396  0.3776 -0.4561  0.6767
   20MPD2    H5  321   1.245   3.096  14.417  0.3899 -0.1874  0.4524
   20MPD2    N1  322   0.749   3.275  14.213  0.3940  0.3760  0.6248
   20MPD2    H7  323   0.715   3.187  14.250 -0.7650  0.8154  0.5850
   21TMC2    C1  324   2.578   3.165  14.504  0.0828 -0.4592  0.1870
   21TMC2    C2  325   2.517   3.044  14.516  0.2177  0.3044 -0.1242
   21TMC2    C3  326   2.415   3.040  14.609 -1.4396 -0.3377 -0.2037
   21TMC2    C4  327   2.533   3.277  14.575 -0.5312 -0.1410 -0.7644
   21TMC2    C5  328   2.431   3.259  14.666  0.2176  0.5039  0.3779
   21TMC2    C6  329   2.367   3.142  14.676  0.2113  0.4494  0.2490
   21TMC2     C  330   2.717   3.163  14.469  0.5069 -0.7663  0.7291
   21TMC2     O  331   2.787   3.063  14.467 -0.0331  0.0211  0.1898
   21TMC2     H  332   2.549   2.960  14.455 -0.1855 -0.0346  0.1278
   21TMC2    H1  333   2.578   3.375  14.569 -2.5076  0.7238 -1.3047
   21TMC2    H2  334   2.275   3.133  14.732 -0.3820 -1.6019 -1.0659
   21TMC2    C7  335   2.389   3.361  14.752  0.4056  0.1606 -0.5201
   21TMC2    C8  336   2.342   2.914  14.615  0.9663  0.0244  0.3816
   21TMC2    O1  337   2.341   3.335  14.861 -0.3830 -0.6295 -0.2878
   21TMC2    O2  338   2.346   2.828  14.528 -0.0310 -0.4340 -0.2772
   21TMC2    O5  339   2.310   2.877  14.742 -0.2124  0.2799 -0.6399
   21TMC2    H5  340   2.334   2.940  14.814 -0.5018  0.5560 -0.7832
   22MPD2     C  341   3.157   3.408  14.460 -0.5204  0.0916  0.2778
   22MPD2    C1  342   3.121   3.300  14.530 -0.4228 -0.1410 -0.5625
   22MPD2    C2  343   2.992   3.262  14.516 -0.0107  0.1803 -0.2399
   22MPD2    C3  344   2.892   3.327  14.440  0.3047 -0.5488 -0.8885
   22MPD2    C4  345   2.939   3.431  14.365 -0.3180  0.1073 -0.0223
   22MPD2    C5  346   3.069   3.465  14.370  0.5017 -0.1391  0.4766
   22MPD2     H  347   2.966   3.184  14.587  0.8225  0.3036  0.1996
   22MPD2    H1  348   2.871   3.497  14.312  0.4867 -1.4141 -2.9314
   22MPD2    H2  349   3.255   3.448  14.480 -0.0668 -0.4714 -0.8068
   22MPD2    H3  350   3.093   3.555  14.315  1.1811 -0.3948  0.3447
   22MPD2     N  351   2.755   3.292  14.444 -0.0794  0.7392  0.0472
   22MPD2    H5  352   2.689   3.355  14.400 -1.1239  0.0287  0.5796
   22MPD2    N1  353   3.207   3.236  14.621  0.1098 -0.2521 -0.1750
   22MPD2    H7  354   3.160   3.172  14.685  0.8114  0.5352  1.1081
   23TMC2    C1  355   4.001   4.607  14.884 -0.2153  0.6071 -0.5473
   23TMC2    C2  356   3.936   4.725  14.906  0.9320 -0.2026 -0.4905
   23TMC2    C3  357   3.806   4.728  14.879 -0.6250 -0.0133  0.0017
   23TMC2    C4  358   3.926   4.495  14.837  0.3607 -0.2418 -0.6264
   23TMC2    C5  359   3.787   4.504  14.821  0.2252  0.9409  0.8574
   23TMC2    C6  360   3.730   4.629  14.837 -0.2603  0.3866 -0.1009
   23TMC2     C  361   4.143   4.600  14.889  0.0313 -0.1328  0.1822
   23TMC2     O  362   4.195   4.495  14.923  0.1803  0.9499 -0.2919
   23TMC2     H  363   3.989   0.075  14.943 -1.9462  2.3066 -2.1935
   23TMC2    H1  364   3.974   4.399  14.824  1.2605  0.2158 -0.6408
   23TMC2    H2  365   3.625   4.647  14.822  0.2112  1.8945 -1.5817
   23TMC2    C7  366   3.714   4.396  14.749 -0.1357 -0.5447 -0.0647
   23TMC2    C8  367   3.766   0.126  14.864  0.1273 -0.0373  0.1629
   23TMC2    O1  368   3.760   4.284  14.759  0.1859 -0.0282 -0.2068
   23TMC2    O2  369   3.847   0.220  14.856  0.3266 -0.1515  0.4542
   23TMC2    O5  370   3.641   0.137  14.893  0.0755 -0.3805 -0.6437
   23TMC2    H5  371   3.601   0.056  14.932 -2.4753  0.6259 -1.2263
   24MPD2     C  372   4.607   0.089  14.836  0.0799 -0.7068 -0.1052
   24MPD2    C1  373   4.582   4.703  14.895  0.1081  0.0555  0.4080
   24MPD2    C2  374   4.447   4.657  14.891  0.3068  0.2415  0.0101
   24MPD2    C3  375   4.341   0.001  14.839  0.0345 -0.5723 -0.3626
   24MPD2    C4  376   4.378   0.121  14.782  0.2282 -0.2695 -0.7513
   24MPD2    C5  377   4.510   0.156  14.777  0.4143  0.1018 -0.7218
   24MPD2     H  378   4.421   4.563  14.937  1.2272 -0.3001 -0.5594
   24MPD2    H1  379   4.305   0.185  14.733 -0.0551  0.7183  0.9615
   24MPD2    H2  380   4.705   0.134  14.840  0.2510 -1.0974  0.1590
   24MPD2    H3  381   4.520   0.257  14.739  2.0308  0.6365  1.0831
   24MPD2     N  382   4.199   4.713  14.840  0.1797  0.1036 -0.4734
   24MPD2    H5  383   4.146   0.051  14.799 -0.1186 -0.8401 -1.8334
   24MPD2    N1  384   4.686   4.619  14.954 -0.2206 -0.2926  0.0949
   24MPD2    H7  385   4.653   4.534  14.998 -1.5660 -0.1901 -0.7325
   25TMC2    C1  386   2.987   2.521  11.459 -0.2647  0.0330  0.3434
   25TMC2    C2  387   2.945   2.614  11.371  0.6484 -0.6448 -0.0066
   25TMC2    C3  388   2.811   2.657  11.394  0.4385  0.5993 -0.3482
   25TMC2    C4  389   2.906   2.470  11.562  0.0215  0.1427  0.4719
   25TMC2    C5  390   2.787   2.535  11.585 -0.8159  0.9980 -0.6246
   25TMC2    C6  391   2.736   2.631  11.509  0.8813 -0.3630 -0.0759
   25TMC2     C  392   3.124   2.466  11.441 -0.1662 -0.0480 -0.3518
   25TMC2     O  393   3.220   2.531  11.401 -0.2767  0.2632 -0.6679
   25TMC2     H  394   3.006   2.644  11.286 -3.2098  1.0439 -2.1339
   25TMC2    H1  395   2.932   2.388  11.628  0.8686 -0.5181 -0.6717
   25TMC2    H2  396   2.637   2.676  11.518  1.3907  0.1312  3.1105
   25TMC2    C7  397   2.704   2.463  11.680 -0.5598  0.0892 -0.3450
   25TMC2    C8  398   2.738   2.723  11.293  0.4117 -0.1395  0.3664
   25TMC2    O1  399   2.770   2.409  11.767 -0.2386 -0.2847 -0.2058
   25TMC2    O2  400   2.621   2.701  11.275 -0.4709  0.0753  0.7453
   25TMC2    O5  401   2.817   2.789  11.202 -0.0334  0.2043  0.3632
   25TMC2    H5  402   2.909   2.801  11.233  0.5347  0.9537 -1.6233
   26MPD2     C  403   3.438   2.058  11.441  0.5244 -0.7385 -0.3031
   26MPD2    C1  404   3.317   2.013  11.462 -0.5639 -0.4449 -0.1848
   26MPD2    C2  405   3.217   2.105  11.494 -0.7352 -0.5619  0.1401
   26MPD2    C3  406   3.242   2.239  11.494 -0.3351  0.1707 -0.0217
   26MPD2    C4  407   3.369   2.280  11.485  0.1499 -0.0096 -0.4133
   26MPD2    C5  408   3.468   2.189  11.455  0.5236 -0.2093 -1.1180
   26MPD2     H  409   3.120   2.068  11.523 -1.2321  1.3193  0.9143
   26MPD2    H1  410   3.396   2.385  11.496  1.3254 -0.2672 -0.8318
   26MPD2    H2  411   3.519   1.992  11.409  2.6780  1.5716  0.3493
   26MPD2    H3  412   3.568   2.230  11.445  0.5324 -0.0489 -0.4255
   26MPD2     N  413   3.128   2.329  11.477 -0.7256  0.0443 -1.0012
   26MPD2    H5  414   3.041   2.278  11.493 -1.7124  1.9193 -0.3487
   26MPD2    N1  415   3.287   1.875  11.451 -0.8654  0.2644  0.5250
   26MPD2    H7  416   3.365   1.811  11.439 -0.3374  0.8410  0.8486
   27TMC2    C1  417   1.971   4.371  11.945 -0.5925  0.8929  0.0814
   27TMC2    C2  418   2.065   4.443  11.876 -0.4093 -0.1880  0.0941
   27TMC2    C3  419   2.192   4.431  11.930 -0.3570 -0.7433 -0.5004
   27TMC2    C4  420   1.997   4.274  12.036 -0.1206  0.7143  0.0123
   27TMC2    C5  421   2.125   4.261  12.077  0.3197  0.4215  0.4245
   27TMC2    C6  422   2.224   4.343  12.032  0.1704  0.9000 -0.6369
   27TMC2     C  423   1.832   4.420  11.931 -0.4403 -0.5803 -0.5096
   27TMC2     O  424   1.806   4.475  11.826  0.5310  0.5252  0.0808
   27TMC2     H  425   2.038   4.525  11.811 -0.1467  0.0700  0.3070
   27TMC2    H1  426   1.923   4.201  12.064 -1.1289  1.7734  0.1067
   27TMC2    H2  427   2.327   4.320  12.057  0.9056  3.4335 -1.3588
   27TMC2    C7  428   2.146   4.195  12.202 -0.3947  0.3058  0.4329
   27TMC2    C8  429   2.294   4.507  11.865 -0.0056 -0.2106  0.6311
   27TMC2    O1  430   2.090   4.087  12.221  0.4231 -0.2677  0.2188
   27TMC2    O2  431   2.294   4.521  11.742 -0.8375 -0.1416  0.2193
   27TMC2    O5  432   2.382   4.551  11.954  0.3376  0.3433  0.2490
   27TMC2    H5  433   2.347   4.536  12.045 -2.8335  0.0265 -1.0188
   28MPD2     C  434   1.364   4.521  12.102  0.4500 -0.7731  0.3622
   28MPD2    C1  435   1.421   4.432  12.193 -0.0868 -0.3368 -0.4509
   28MPD2    C2  436   1.548   4.390  12.165 -0.4994  0.3611 -0.3929
   28MPD2    C3  437   1.617   4.431  12.054  0.1441  0.3526 -0.0894
   28MPD2    C4  438   1.547   4.498  11.957 -0.3731  0.7916  0.3999
   28MPD2    C5  439   1.425   4.556  11.985  0.4364 -0.6470 -0.1126
   28MPD2     H  440   1.603   4.326  12.233 -2.3278  0.3141  1.0102
   28MPD2    H1  441   1.605   4.543  11.878  0.2706  1.1659  1.0842
   28MPD2    H2  442   1.268   4.569  12.118  1.9490  2.7000 -0.9970
   28MPD2    H3  443   1.368   4.617  11.916  1.8005  1.2749  0.4754
   28MPD2     N  444   1.756   4.387  12.039 -0.0900 -0.4043  0.0155
   28MPD2    H5  445   1.805   4.347  12.118  0.0382  1.3153  0.8031
   28MPD2    N1  446   1.340   4.394  12.300  0.8533 -0.4749 -0.2931
   28MPD2    H7  447   1.250   4.439  12.309  0.9263 -0.6479  1.2643
   29TMC2    C1  448   1.736   1.758  14.134  0.0770 -0.2954  0.6539
   29TMC2    C2  449   1.830   1.761  14.234  1.0268  0.4843  0.0656
   29TMC2    C3  450   1.834   1.873  14.310 -0.7225  0.2839 -0.1769
   29TMC2    C4  451   1.646   1.859  14.113  0.0803 -0.5600  0.7740
   29TMC2    C5  452   1.663   1.966  14.199 -0.1029  0.2633 -0.3294
   29TMC2    C6  453   1.747   1.972  14.304  0.0464 -0.1535  0.9006
   29TMC2     C  454   1.710   1.633  14.070 -0.5514  0.3741 -0.5007
   29TMC2     O  455   1.775   1.541  14.118 -0.3107  0.0797  0.4081
   29TMC2     H  456   1.898   1.679  14.257 -1.2478 -0.7585  2.3459
   29TMC2    H1  457   1.587   1.862  14.022 -1.2057 -0.7992  1.5855
   29TMC2    H2  458   1.762   2.054  14.373 -1.4104  0.2152  0.7796
   29TMC2    C7  459   1.565   2.077  14.175 -0.4789  0.4637  0.3899
   29TMC2    C8  460   1.903   1.875  14.435 -0.3364 -0.1257  0.1058
   29TMC2    O1  461   1.507   2.081  14.065 -0.2037  0.6319  0.1636
   29TMC2    O2  462   1.970   1.969  14.479 -0.0590  0.2544  0.9395
   29TMC2    O5  463   1.879   1.751  14.495 -0.0709 -0.0492 -0.3770
   29TMC2    H5  464   1.804   1.705  14.450  0.9401 -2.2624  0.2055
   30MPD2     C  465   1.403   1.320  13.810 -0.9660 -0.0894 -0.1344
   30MPD2    C1  466   1.494   1.292  13.906  0.1610 -0.2434 -0.2896
   30MPD2    C2  467   1.562   1.399  13.961  0.2395  0.1145  0.7529
   30MPD2    C3  468   1.546   1.527  13.909  0.1017 -0.2305 -0.1501
   30MPD2    C4  469   1.450   1.557  13.818 -0.1808  0.2762  0.0755
   30MPD2    C5  470   1.376   1.453  13.770  0.0961  0.3100 -0.0501
   30MPD2     H  471   1.631   1.376  14.041  1.3398 -0.7913 -0.4430
   30MPD2    H1  472   1.427   1.655  13.778 -0.2627  0.4732  0.6099
   30MPD2    H2  473   1.344   1.241  13.766 -1.7136  1.0352 -1.1526
   30MPD2    H3  474   1.301   1.474  13.696 -0.4757 -1.1311  0.1270
   30MPD2     N  475   1.610   1.643  13.964  0.2292 -0.1811 -0.0069
   30MPD2    H5  476   1.574   1.732  13.932 -2.1980 -0.9126  0.7203
   30MPD2    N1  477   1.518   1.163  13.953  0.0979 -0.5353  0.6419
   30MPD2    H7  478   1.575   1.163  14.038  0.8620  1.5411  0.1248
   31TMC2    C1  479   3.687   0.757  15.181  0.0522  0.0685  0.5175
   31TMC2    C2  480   3.558   0.724  15.146 -0.6730  1.0994 -0.2199
   31TMC2    C3  481   3.475   0.681  15.242 -0.2587 -0.4860  0.0113
   31TMC2    C4  482   3.729   0.744  15.312  0.7252 -1.0346 -0.2111
   31TMC2    C5  483   3.652   0.681  15.402  0.3995  0.4501 -0.2800
   31TMC2    C6  484   3.519   0.649  15.369 -0.4982 -0.7107  0.1230
   31TMC2     C  485   3.778   0.804  15.073 -0.1742  0.2190 -0.2612
   31TMC2     O  486   3.736   0.805  14.956  0.2055  0.3750 -0.8013
   31TMC2     H  487   3.537   0.739  15.041  1.8595  0.2135 -0.8538
   31TMC2    H1  488   3.826   0.772  15.350  0.5151  0.3748 -0.7031
   31TMC2    H2  489   3.457   0.591  15.436 -1.1748 -1.2199 -0.9294
   31TMC2    C7  490   3.717   0.650  15.525 -0.2917 -0.0080  0.2612
   31TMC2    C8  491   3.342   0.639  15.208 -0.1537  0.1372  0.1535
   31TMC2    O1  492   3.832   0.612  15.520  0.2604 -0.2075 -0.2074
   31TMC2    O2  493   3.272   0.581  15.290  0.0603  0.7115 -0.5347
   31TMC2    O5  494   3.324   0.629  15.072  0.0838  0.4546  0.0289
   31TMC2    H5  495   3.355   0.707  15.022  0.2582  0.8016  0.6747
   32MPD2     C  496   4.256   0.949  14.927  0.8288  0.4543 -0.0599
   32MPD2    C1  497   4.136   0.944  14.855  0.2435 -0.3089  0.1949
   32MPD2    C2  498   4.027   0.897  14.921  0.4446  0.6532 -0.0443
   32MPD2    C3  499   4.022   0.854  15.052 -0.1357  0.6526  0.7153
   32MPD2    C4  500   4.140   0.871  15.123 -0.1403  0.9209 -0.7874
   32MPD2    C5  501   4.259   0.914  15.057  0.6404  0.2543  0.2987
   32MPD2     H  502   3.936   0.890  14.862  0.7026  0.1411 -0.3768
   32MPD2    H1  503   4.152   0.834  15.225  0.0857 -1.0689 -1.5263
   32MPD2    H2  504   4.352   0.981  14.888  1.2015  0.2621  0.7098
   32MPD2    H3  505   4.352   0.932  15.111 -0.3860  1.5469  1.6399
   32MPD2     N  506   3.908   0.811  15.125 -0.1529  0.1206 -0.4232
   32MPD2    H5  507   3.922   0.805  15.226 -1.8743 -2.2281 -0.3114
   32MPD2    N1  508   4.131   0.983  14.721 -0.2722  0.2423 -0.2221
   32MPD2    H7  509   4.216   1.010  14.671  1.4565  0.1989  2.7383
   33TMC2    C1  510   4.308   3.788  10.028  0.3133 -0.5827  0.7289
   33TMC2    C2  511   4.181   3.827  10.002  0.4308  0.9867 -0.0978
   33TMC2    C3  512   4.154   3.962   9.974  0.0996  0.6943 -0.0887
   33TMC2    C4  513   4.409   3.881  10.026  0.1811  0.2469  0.3311
   33TMC2    C5  514   4.386   4.014   9.996  0.5982 -0.4388  0.1555
   33TMC2    C6  515   4.257   4.055   9.960 -0.4866  0.1781 -0.2394
   33TMC2     C  516   4.321   3.671  10.113  0.1677  0.7270 -0.2184
   33TMC2     O  517   4.248   3.580  10.094 -0.5110 -0.4133  0.1987
   33TMC2     H  518   4.103   3.756  10.028  0.8453  0.7387  0.4841
   33TMC2    H1  519   4.513   3.864  10.052  0.3791  2.4089  0.9460
   33TMC2    H2  520   4.225   4.155   9.933 -0.8400 -0.4092 -1.9534
   33TMC2    C7  521   4.501   4.104   9.990 -0.3044 -0.1389 -0.3863
   33TMC2    C8  522   4.022   4.011   9.968  0.3083 -0.2663 -0.4724
   33TMC2    O1  523   4.613   4.051   9.993 -0.8371  0.5048  0.4358
   33TMC2    O2  524   3.988   4.103   9.899  0.2296  0.8398  0.6758
   33TMC2    O5  525   3.942   3.945  10.049  0.5052 -0.2151  0.0854
   33TMC2    H5  526   3.980   3.893  10.123 -1.7909 -2.2647 -0.1515
   34MPD2     C  527   4.439   3.472  10.568 -0.5589 -0.0437  0.6334
   34MPD2    C1  528   4.333   3.432  10.485 -0.6763  0.3129 -0.0511
   34MPD2    C2  529   4.315   3.513  10.371  0.1856  0.0983 -0.0570
   34MPD2    C3  530   4.397   3.626  10.345  0.6985 -0.0660 -0.1149
   34MPD2    C4  531   4.485   3.672  10.438  0.7804  0.0375 -0.8224
   34MPD2    C5  532   4.498   3.600  10.549 -0.1856 -0.9367 -0.8124
   34MPD2     H  533   4.241   3.493  10.294 -0.2028 -0.6453  0.5114
   34MPD2    H1  534   4.547   3.761  10.437  1.0192 -0.1356 -1.8319
   34MPD2    H2  535   4.457   3.432  10.667 -0.0141 -1.0841  0.1170
   34MPD2    H3  536   4.565   3.630  10.629 -0.3362  2.0175 -1.8004
   34MPD2     N  537   4.399   3.699  10.224 -0.1153  0.1570  0.1105
   34MPD2    H5  538   4.463   3.777  10.218 -1.1106  1.0493  0.9472
   34MPD2    N1  539   4.242   3.332  10.530  0.4021  0.2148  0.3092
   34MPD2    H7  540   4.260   3.285  10.617 -2.4161  0.9337  1.2658
   35TMC2    C1  541   0.684   0.111  11.263  0.6467 -0.3425 -0.7027
   35TMC2    C2  542   0.590   0.178  11.187  0.0412 -0.6840  0.5706
   35TMC2    C3  543   0.470   0.197  11.235  0.3797  0.4867 -0.3432
   35TMC2    C4  544   0.648   0.066  11.386 -0.3891  0.1826 -0.3694
   35TMC2    C5  545   0.522   0.090  11.438 -0.0945  0.5866 -1.1187
   35TMC2    C6  546   0.430   0.157  11.361 -0.0771  0.4795  0.7680
   35TMC2     C  547   0.808   0.074  11.196 -0.0809  0.5397  0.1733
   35TMC2     O  548   0.843   0.134  11.097  0.6505 -0.4401 -0.3106
   35TMC2     H  549   0.616   0.200  11.084 -1.3431  0.7356  0.5319
   35TMC2    H1  550   0.719   0.006  11.443 -1.8186  0.6223  1.8639
   35TMC2    H2  551   0.329   0.170  11.398 -0.2026  2.2689 -0.1811
   35TMC2    C7  552   0.490   0.018  11.562 -0.3551 -1.0950 -0.8172
   35TMC2    C8  553   0.407   0.319  11.209  0.4978 -0.0291  0.3502
   35TMC2    O1  554   0.584   4.692  11.607 -0.6714 -0.1068  0.1254
   35TMC2    O2  555   0.283   0.325  11.214 -0.3001  0.6663 -0.3168
   35TMC2    O5  556   0.487   0.408  11.268  0.6754  0.6567 -0.6468
   35TMC2    H5  557   0.582   0.386  11.257  0.7271  0.3746  0.3096
   36MPD2     C  558   1.298   4.664  11.273  0.7126 -0.5562  0.1992
   36MPD2    C1  559   1.211   4.569  11.322 -0.7459  0.9106 -0.7137
   36MPD2    C2  560   1.076   4.573  11.287 -0.3144 -0.0367  0.7341
   36MPD2    C3  561   1.019   4.684  11.226 -0.3634  0.1287 -0.4074
   36MPD2    C4  562   1.108   0.040  11.178 -0.2062 -0.0041  0.1244
   36MPD2    C5  563   1.244   0.027  11.197 -0.0725 -0.1905 -1.4474
   36MPD2     H  564   1.008   4.497  11.326 -0.7094 -0.8028 -1.3839
   36MPD2    H1  565   1.068   0.128  11.129  1.4145  0.3642 -0.5217
   36MPD2    H2  566   1.401   4.669  11.308  0.2180  0.4342  1.5127
   36MPD2    H3  567   1.306   0.104  11.151 -0.4836  0.8760 -0.2142
   36MPD2     N  568   0.882   4.714  11.254 -0.2533  0.2106  0.1670
   36MPD2    H5  569   0.839   4.645  11.316 -2.3878  1.9991  0.6989
   36MPD2    N1  570   1.262   4.457  11.403  0.6282 -0.8378 -0.2309
   36MPD2    H7  571   1.357   4.467  11.435  0.4450  1.3332 -0.3912
   37TMC2    C1  572   2.355   0.140  11.879 -0.4571 -0.0566 -0.4345
   37TMC2    C2  573   2.232   0.108  11.821  0.0640 -0.4011  0.0406
   37TMC2    C3  574   2.231   0.119  11.687  0.8333 -0.1318 -0.0373
   37TMC2    C4  575   2.470   0.172  11.809  0.6146  0.3929 -0.7522
   37TMC2    C5  576   2.457   0.164  11.671 -0.3094 -0.1671 -0.2538
   37TMC2    C6  577   2.342   0.143  11.612  0.2406 -0.5672 -0.0166
   37TMC2     C  578   2.353   0.128  12.025 -0.7944  0.7530 -0.5791
   37TMC2     O  579   2.246   0.136  12.087 -0.2842  0.6780  0.1167
   37TMC2     H  580   2.138   0.111  11.875 -1.1202 -0.4015 -1.9878
   37TMC2    H1  581   2.567   0.184  11.854 -0.7084 -1.3307  2.5468
   37TMC2    H2  582   2.318   0.159  11.508  1.0297 -1.8155 -0.3910
   37TMC2    C7  583   2.561   0.098  11.609  0.8217  0.6169  0.1421
   37TMC2    C8  584   2.094   0.108  11.633 -0.0022  0.1302  0.0493
   37TMC2    O1  585   2.670   0.114  11.661  0.3246  0.0677 -0.1483
   37TMC2    O2  586   2.022   0.022  11.680  0.3792  0.1014  0.0277
   37TMC2    O5  587   2.054   0.225  11.585  0.0585  0.0518 -0.0419
   37TMC2    H5  588   2.128   0.287  11.565 -0.1726  0.0184 -1.0121
   38MPD2     C  589   2.605   0.047  12.466 -0.0800  0.5619 -0.6494
   38MPD2    C1  590   2.695   0.039  12.361  0.8393 -0.0722  0.3987
   38MPD2    C2  591   2.648   0.068  12.236  0.1604 -0.0603 -0.3188
   38MPD2    C3  592   2.511   0.098  12.205  0.0643 -0.1298  0.2234
   38MPD2    C4  593   2.427   0.113  12.312  0.2637  0.1688 -0.4076
   38MPD2    C5  594   2.476   0.090  12.435 -0.0625 -0.3208 -0.8249
   38MPD2     H  595   2.708   0.062  12.146 -0.8123  1.0681 -1.0270
   38MPD2    H1  596   2.320   0.127  12.307  0.6321  3.3651  0.7115
   38MPD2    H2  597   2.634   0.049  12.570  0.9263 -0.2471 -0.9215
   38MPD2    H3  598   2.410   0.097  12.521  1.2589 -0.0120  0.1802
   38MPD2     N  599   2.481   0.101  12.069  0.1229 -0.3597  0.5261
   38MPD2    H5  600   2.559   0.075  12.009  1.9598 -0.0697  2.7835
   38MPD2    N1  601   2.827   4.733  12.372 -0.1504  0.2821 -0.4725
   38MPD2    H7  602   2.877   4.735  12.284 -1.0240 -0.6280 -0.9734
   39TMC2    C1  603   1.060   1.410   1.091 -0.6939 -0.1128  0.1383
   39TMC2    C2  604   1.042   1.507   1.184 -0.6823 -0.2052  0.7063
   39TMC2    C3  605   1.093   1.631   1.166  0.0847 -0.2609 -0.2338
   39TMC2    C4  606   1.127   1.443   0.973  0.6121  0.2383 -0.1229
   39TMC2    C5  607   1.186   1.565   0.957  0.6726  0.3104  0.1916
   39TMC2    C6  608   1.175   1.658   1.054  0.5608  0.1190 -0.2782
   39TMC2     C  609   0.958   1.309   1.085  0.0475  0.2894  0.3297
   39TMC2     O  610   0.845   1.340   1.122 -0.2203  0.3594  0.2386
   39TMC2     H  611   0.985   1.473   1.269  0.1379  2.2225  2.2196
   39TMC2    H1  612   1.146   1.377   0.889  1.2865  1.7262 -1.1342
   39TMC2    H2  613   1.207   1.762   1.053 -0.3970  0.4326  0.9646
   39TMC2    C7  614   1.267   1.588   0.835 -0.1461 -0.0215 -0.6644
   39TMC2    C8  615   1.131   1.695   1.288 -0.2105  0.0389 -0.2674
   39TMC2    O1  616   1.294   1.494   0.760 -0.6356 -0.0350  0.3012
   39TMC2    O2  617   1.222   1.773   1.280 -0.3343  0.1172  0.4188
   39TMC2    O5  618   1.031   1.699   1.384 -0.6992 -0.4436 -0.1112
   39TMC2    H5  619   0.955   1.642   1.359 -2.4435  0.4322  3.2874
   40MPD2     C  620   0.987   0.980   0.925 -0.5300 -0.3360  0.4636
   40MPD2    C1  621   0.928   1.075   1.004 -0.1400  0.0105  0.2473
   40MPD2    C2  622   0.788   1.053   1.038 -0.3637  0.2141  0.4249
   40MPD2    C3  623   0.726   0.930   1.007 -0.0482 -0.1447  0.0368
   40MPD2    C4  624   0.794   0.831   0.938  0.1579 -0.0964  0.4653
   40MPD2    C5  625   0.924   0.857   0.903  0.2600  0.8152 -0.5516
   40MPD2     H  626   0.744   1.136   1.091 -1.9572 -0.1302 -0.3714
   40MPD2    H1  627   0.739   0.750   0.890 -0.2531  1.4035 -1.5581
   40MPD2    H2  628   1.088   0.997   0.889 -1.3846 -0.2787 -1.9197
   40MPD2    H3  629   0.983   0.796   0.836 -0.5808  0.5208 -1.0253
   40MPD2     N  630   0.588   0.903   1.019 -0.8470 -0.4726 -0.2329
   40MPD2    H5  631   0.547   0.830   0.960 -0.3750 -1.7735  1.0577
   40MPD2    N1  632   1.003   1.195   1.026 -0.3644 -0.0275  0.2300
   40MPD2    H7  633   1.103   1.203   1.014 -0.4873 -0.2536 -0.8909
   41TMC2    C1  634   4.522   0.283  13.590  0.5416 -0.8701 -0.0090
   41TMC2    C2  635   4.487   0.307  13.459 -0.4303 -0.3383  0.1458
   41TMC2    C3  636   4.584   0.272  13.366 -0.4090  0.1162  0.2278
   41TMC2    C4  637   4.651   0.248  13.629  0.0259 -0.3822  0.3075
   41TMC2    C5  638   0.004   0.224  13.529 -0.1188 -0.3089  0.1270
   41TMC2    C6  639   4.712   0.248  13.397  0.0023 -0.1355 -0.5729
   41TMC2     C  640   4.412   0.296  13.687  0.1119  0.0153  0.1696
   41TMC2     O  641   4.296   0.276  13.646 -0.3287 -0.1747  0.5924
   41TMC2     H  642   4.384   0.324  13.430  0.0691  1.0251 -0.8163
   41TMC2    H1  643   4.669   0.220  13.732 -0.6051  1.6707  0.9765
   41TMC2    H2  644   0.044   0.200  13.329  0.0844 -1.0367  0.1425
   41TMC2    C7  645   0.133   0.167  13.572 -0.4596  0.1579  0.4913
   41TMC2    C8  646   4.552   0.296  13.234  0.1369  0.2541  0.0541
   41TMC2    O1  647   0.169   0.182  13.688 -0.2050  0.1497 -0.1290
   41TMC2    O2  648   4.438   0.285  13.191 -0.3245 -0.8553  0.3948
   41TMC2    O5  649   4.655   0.359  13.177 -0.3359  0.4344  0.5132
   41TMC2    H5  650   4.735   0.364  13.234 -2.0171  1.0980  2.8215
   42MPD2     C  651   4.270   0.328  13.954 -0.5659  0.0329  0.2060
   42MPD2    C1  652   4.403   0.355  13.929 -0.2500  0.8525 -0.2081
   42MPD2    C2  653   4.481   0.416  14.030  0.0957  0.4782 -0.0995
   42MPD2    C3  654   4.430   0.442  14.150 -0.2886  0.1024 -0.2813
   42MPD2    C4  655   4.299   0.422  14.176  0.0264 -0.1637 -0.2317
   42MPD2    C5  656   4.221   0.367  14.078 -0.8265  0.0059  0.3397
   42MPD2     H  657   4.586   0.433  14.008  0.1284  0.1960 -0.1598
   42MPD2    H1  658   4.250   0.440  14.271 -0.7344 -0.0364 -0.6433
   42MPD2    H2  659   4.209   0.277  13.880 -0.2314 -1.8222  1.2046
   42MPD2    H3  660   4.124   0.327  14.107 -1.2864  0.7129 -0.2210
   42MPD2     N  661   4.506   0.493  14.265 -0.6237  0.4989  0.3541
   42MPD2    H5  662   4.460   0.486  14.355 -0.7401  2.1530  0.4219
   42MPD2    N1  663   4.471   0.331  13.809 -0.0424 -0.1277  0.6482
   42MPD2    H7  664   4.568   0.358  13.815  0.0115 -0.2958  0.5047
   43TMC2    C1  665   1.570   2.940   0.735  0.0786  1.2377  0.2780
   43TMC2    C2  666   1.476   2.876   0.817  0.0393 -0.1893  0.0464
   43TMC2    C3  667   1.496   2.886   0.951 -0.1198 -0.2346  0.3307
   43TMC2    C4  668   1.684   3.004   0.785  0.2264 -0.2293  0.2347
   43TMC2    C5  669   1.698   3.016   0.925  0.1108  0.3234  0.5705
   43TMC2    C6  670   1.595   2.967   1.001  0.8449  0.6196  0.3000
   43TMC2     C  671   1.551   2.928   0.592  0.0458  0.2085 -0.1052
   43TMC2     O  672   1.465   2.852   0.552 -0.3377  0.3646 -0.4272
   43TMC2     H  673   1.385   2.831   0.780  0.3239 -1.7498  1.2262
   43TMC2    H1  674   1.763   3.035   0.719 -0.3902  2.4651  0.7644
   43TMC2    H2  675   1.599   2.974   1.110 -0.3832  1.6624  0.2757
   43TMC2    C7  676   1.831   3.047   0.977  0.0062  0.0549 -0.1026
   43TMC2    C8  677   1.391   2.844   1.041 -0.1690 -0.4654 -0.2469
   43TMC2    O1  678   1.921   3.067   0.896  0.5425 -0.8100 -0.1153
   43TMC2    O2  679   1.376   2.893   1.153  0.0937 -0.4532  0.0634
   43TMC2    O5  680   1.393   2.708   1.017 -0.0841  0.0574  0.0281
   43TMC2    H5  681   1.428   2.680   0.930  2.0129  2.8415 -0.0236
   44MPD2     C  682   1.699   3.099   0.132  0.4923 -0.6632 -0.2215
   44MPD2    C1  683   1.668   2.971   0.173 -0.0394  0.2903  0.4460
   44MPD2    C2  684   1.622   2.960   0.301  0.4490  0.0212  0.1269
   44MPD2    C3  685   1.630   3.062   0.391  0.1235 -0.2677  0.1837
   44MPD2    C4  686   1.662   3.186   0.345 -0.6419 -0.1779  0.6632
   44MPD2    C5  687   1.694   3.202   0.214  0.4914 -0.0826 -0.4755
   44MPD2     H  688   1.591   2.864   0.341  1.5095 -0.7816 -0.9880
   44MPD2    H1  689   1.684   3.264   0.417  0.7095 -1.0950  1.2371
   44MPD2    H2  690   1.736   3.119   0.032  0.5701  2.9115  0.5411
   44MPD2    H3  691   1.741   3.292   0.174 -0.6707 -0.1175 -1.9310
   44MPD2     N  692   1.600   3.042   0.530 -0.2976  0.5572  0.0207
   44MPD2    H5  693   1.641   3.111   0.592  0.7130  0.0427 -0.0722
   44MPD2    N1  694   1.680   2.856   0.088  0.2640 -0.1491 -0.0819
   44MPD2    H7  695   1.637   2.768   0.112 -0.7034  0.4376  0.3253
   45TMC2    C1  696   2.785   4.661   9.764 -0.0002  0.2205 -0.0344
   45TMC2    C2  697   2.831   4.542   9.809  0.0533 -0.4005 -1.0298
   45TMC2    C3  698   2.894   4.546   9.927  0.0550  0.7129 -0.0323
   45TMC2    C4  699   2.789   0.033   9.846 -0.3194 -0.2356 -0.3165
   45TMC2    C5  700   2.862   0.028   9.966  0.7262 -0.0799 -0.1865
   45TMC2    C6  701   2.924   4.655  10.000  0.1346  0.0640 -0.1308
   45TMC2     C  702   2.681   4.658   9.663 -0.1885  0.0718 -0.2979
   45TMC2     O  703   2.635   4.547   9.643 -0.0355 -0.2929 -1.0477
   45TMC2     H  704   2.813   4.446   9.762  0.0227 -1.2002  0.6144
   45TMC2    H1  705   2.750   0.126   9.805 -0.1495  0.5322  1.2782
   45TMC2    H2  706   2.980   4.646  10.092  0.5167 -0.6372 -0.4393
   45TMC2    C7  707   2.937   0.147   9.989  0.1021  0.5829 -0.1500
   45TMC2    C8  708   2.943   4.418   9.979 -0.4805  0.0012  0.4281
   45TMC2    O1  709   2.873   0.247  10.021  0.0873 -0.3633 -0.2028
   45TMC2    O2  710   3.032   4.408  10.061 -0.4437 -0.1456  0.0026
   45TMC2    O5  711   2.832   4.341   9.962  0.5446 -0.2842 -0.5906
   45TMC2    H5  712   2.822   4.269  10.028 -0.6875 -0.5412 -1.0494
   46MPD2     C  713   2.468   4.686   9.461  0.6727  0.8295 -0.5746
   46MPD2    C1  714   2.506   0.053   9.539  0.0788 -0.1811 -0.2152
   46MPD2    C2  715   2.436   0.171   9.527  0.4569  0.2138  0.1252
   46MPD2    C3  716   2.318   0.186   9.459 -0.2412 -0.4605 -0.5251
   46MPD2    C4  717   2.279   0.076   9.380 -0.1168 -0.6907 -0.9269
   46MPD2    C5  718   2.355   4.705   9.380 -0.1725 -0.3946 -0.3316
   46MPD2     H  719   2.463   0.255   9.590 -2.5790  1.2118  0.0879
   46MPD2    H1  720   2.190   0.079   9.317 -0.1811  2.1383 -0.7218
   46MPD2    H2  721   2.520   4.592   9.450 -1.9563 -0.5945 -1.0454
   46MPD2    H3  722   2.328   4.624   9.313 -1.2159 -1.6624  1.5909
   46MPD2     N  723   2.259   0.308   9.476 -0.0963  0.6405 -0.3651
   46MPD2    H5  724   2.294   0.370   9.548 -1.7381  0.2001  0.8100
   46MPD2    N1  725   2.615   0.040   9.632 -0.5936 -0.5094  0.2325
   46MPD2    H7  726   2.644   0.128   9.672 -0.8353 -0.2791 -0.0985
   47TMC2    C1  727   0.792   1.570   9.760 -0.0634 -0.4498 -0.8001
   47TMC2    C2  728   0.790   1.704   9.750  0.2662  0.2001 -0.3032
   47TMC2    C3  729   0.706   1.759   9.658  0.3272  0.4869 -0.8929
   47TMC2    C4  730   0.716   1.500   9.687  0.0143 -0.1006 -0.3108
   47TMC2    C5  731   0.618   1.556   9.608  0.5654 -0.4480  0.7110
   47TMC2    C6  732   0.605   1.693   9.590  0.5116 -0.2291  0.7255
   47TMC2     C  733   0.882   1.512   9.858  0.7771  0.2451  0.2061
   47TMC2     O  734   0.925   1.593   9.936 -0.1719  0.2199  0.1794
   47TMC2     H  735   0.869   1.755   9.805  2.0960 -0.6772 -2.1099
   47TMC2    H1  736   0.689   1.398   9.714  0.0462 -0.7900 -2.8588
   47TMC2    H2  737   0.548   1.742   9.512  0.5676 -0.1055  0.7612
   47TMC2    C7  738   0.518   1.470   9.537  0.1471 -0.4571  0.4409
   47TMC2    C8  739   0.718   1.902   9.616 -0.0075 -0.0415  0.5713
   47TMC2    O1  740   0.538   1.351   9.536  0.2263 -0.1194 -0.5067
   47TMC2    O2  741   0.683   1.946   9.507 -0.6365  0.3699 -0.3320
   47TMC2    O5  742   0.779   1.974   9.718  0.3455 -0.5171 -0.3544
   47TMC2    H5  743   0.764   1.939   9.809  1.8854 -0.3342 -0.0322
   48MPD2     C  744   1.093   1.366   9.993  0.0998  0.0262 -0.1173
   48MPD2    C1  745   0.995   1.302   9.919 -0.3938 -0.2328 -0.7839
   48MPD2    C2  746   0.982   1.161   9.926 -0.4405  0.0606 -0.7806
   48MPD2    C3  747   1.064   1.089  10.013 -0.1395 -0.1455 -0.1080
   48MPD2    C4  748   1.157   1.160  10.091  0.9167  0.1935  0.0109
   48MPD2    C5  749   1.166   1.291  10.085  0.1122 -0.4308 -0.3028
   48MPD2     H  750   0.919   1.113   9.853 -1.9788  2.1472 -0.8318
   48MPD2    H1  751   1.228   1.112  10.158  0.7707  2.0469  1.4854
   48MPD2    H2  752   1.106   1.474   9.994 -0.3675  0.1162 -1.9361
   48MPD2    H3  753   1.241   1.344  10.142 -0.6794  2.3445 -1.8519
   48MPD2     N  754   1.050   0.949  10.023 -0.9625  0.3253 -0.2770
   48MPD2    H5  755   0.977   0.912   9.964  0.4323 -2.4225 -0.2619
   48MPD2    N1  756   0.910   1.373   9.840 -0.9225 -0.1877 -0.1780
   48MPD2    H7  757   0.852   1.321   9.775 -1.2730 -1.4599  1.1572
   49TMC2    C1  758   3.513   4.105  10.161  0.0655 -0.6220  0.8095
   49TMC2    C2  759   3.614   4.197  10.181  0.7113  0.2512 -0.1041
   49TMC2    C3  760   3.694   4.220  10.072 -0.7256 -0.6742 -0.1323
   49TMC2    C4  761   3.491   4.039  10.042  0.1161  0.1972 -0.5243
   49TMC2    C5  762   3.583   4.058   9.945  0.4066 -0.3882 -0.3214
   49TMC2    C6  763   3.682   4.151   9.953  0.0092  0.0908 -0.0457
   49TMC2     C  764   3.418   4.096  10.264 -0.3488  0.1590  0.4235
   49TMC2     O  765   3.428   4.179  10.353 -0.2868  0.2401  0.0169
   49TMC2     H  766   3.639   4.260  10.265  1.1210 -0.7321  0.5168
   49TMC2    H1  767   3.409   3.968  10.035  1.5140 -1.4787  0.0008
   49TMC2    H2  768   3.741   4.180   9.867 -1.5650  2.2183 -0.4134
   49TMC2    C7  769   3.579   3.970   9.825  0.3163 -0.0436 -0.4323
   49TMC2    C8  770   3.778   4.337  10.071 -0.2190 -0.3560  0.2919
   49TMC2    O1  771   3.650   4.004   9.732  0.0391 -0.9238 -0.5659
   49TMC2    O2  772   3.760   4.418  10.159 -0.1594  0.7589 -0.2098
   49TMC2    O5  773   3.887   4.330   9.991  0.4413  0.1010 -0.4199
   49TMC2    H5  774   3.890   4.246   9.941 -0.3017 -0.0212 -0.2511
   50MPD2     C  775   3.166   4.025  10.427  0.3850  0.0543  0.2891
   50MPD2    C1  776   3.231   3.940  10.338  0.0915  0.4184 -0.0771
   50MPD2    C2  777   3.183   3.805  10.339  0.3581 -0.2726  0.3991
   50MPD2    C3  778   3.083   3.760  10.423 -0.5668  0.3491 -0.2772
   50MPD2    C4  779   3.018   3.853  10.503  0.8405  0.6493  0.7130
   50MPD2    C5  780   3.061   3.982  10.507  0.6231 -0.4072  0.4133
   50MPD2     H  781   3.243   3.739  10.278 -1.2043 -0.6709 -0.6918
   50MPD2    H1  782   2.934   3.825  10.565  0.8014 -2.0189 -0.5481
   50MPD2    H2  783   3.210   4.121  10.452  1.1375 -0.4835  1.0463
   50MPD2    H3  784   3.006   4.042  10.579  1.5612  0.0289  0.7658
   50MPD2     N  785   3.035   3.630  10.436 -0.2764  0.2787 -0.2796
   50MPD2    H5  786   2.956   3.621  10.500  0.9428 -0.0889  1.1646
   50MPD2    N1  787   3.346   3.975  10.264  0.5905  0.1562 -0.1614
   50MPD2    H7  788   3.378   3.903  10.199 -1.2756 -0.5438 -0.2927
   51TMC2    C1  789   3.854   0.305   1.531  0.1154  0.8891 -0.3059
   51TMC2    C2  790   3.968   0.300   1.604 -0.6855 -0.4694  0.2311
   51TMC2    C3  791   3.977   0.393   1.702 -0.1513  0.2382  0.4852
   51TMC2    C4  792   3.752   0.395   1.550 -0.3881  0.1388  0.1735
   51TMC2    C5  793   3.767   0.487   1.648 -0.8660 -0.0878 -0.3872
   51TMC2    C6  794   3.882   0.489   1.732 -0.5634  0.3517  0.1341
   51TMC2     C  795   3.827   0.209   1.423  0.5456 -0.3666 -0.7371
   51TMC2     O  796   3.716   0.201   1.376 -0.8979 -0.9461 -0.1489
   51TMC2     H  797   4.048   0.228   1.590 -1.0281 -1.0174  1.1271
   51TMC2    H1  798   3.667   0.399   1.482 -0.7953  0.8463  0.7202
   51TMC2    H2  799   3.906   0.562   1.809 -0.0034 -1.6142  1.8068
   51TMC2    C7  800   3.706   0.618   1.620 -0.3502 -0.1204  0.3986
   51TMC2    C8  801   4.097   0.373   1.779 -0.2797 -0.1477 -0.8108
   51TMC2    O1  802   3.622   0.631   1.531 -0.2902 -0.0470 -0.5762
   51TMC2    O2  803   4.139   0.268   1.822 -0.1736  0.7164  0.0694
   51TMC2    O5  804   4.181   0.476   1.750 -0.1211  0.1057 -0.2247
   51TMC2    H5  805   4.144   0.526   1.675  1.3274  0.6018 -0.5999
   52MPD2     C  806   4.001   4.679   1.026  0.9548 -0.2048 -0.1831
   52MPD2    C1  807   3.881   4.736   1.051  0.5825  0.5430  0.0849
   52MPD2    C2  808   3.859   0.067   1.163  0.1250 -0.3817 -0.3344
   52MPD2    C3  809   3.960   0.086   1.255 -0.2057 -0.1246 -0.5486
   52MPD2    C4  810   4.079   0.028   1.235 -0.7696 -0.3079 -0.3454
   52MPD2    C5  811   4.099   4.693   1.118 -0.0075 -0.0212  0.1135
   52MPD2     H  812   3.759   0.109   1.169  0.1374 -0.3857 -0.0850
   52MPD2    H1  813   4.152   0.025   1.315 -0.0682  0.1150 -0.9779
   52MPD2    H2  814   4.031   4.614   0.944 -1.8347  0.2666 -1.5768
   52MPD2    H3  815   4.195   4.646   1.103 -0.8258 -1.6694  0.0301
   52MPD2     N  816   3.939   0.157   1.375  0.6530  0.3163 -0.0717
   52MPD2    H5  817   4.022   0.182   1.427 -0.2825  2.6061  0.3580
   52MPD2    N1  818   3.773   4.729   0.961  0.5511  0.2638 -0.0528
   52MPD2    H7  819   3.685   0.034   0.990  1.5456  2.1990  0.1271
   53TMC2    C1  820   3.171   4.468  11.540 -0.0515  0.1161  0.7858
   53TMC2    C2  821   3.293   4.436  11.491  0.4179 -0.2762 -0.3902
   53TMC2    C3  822   3.404   4.486  11.548 -0.5259  0.8090  0.3773
   53TMC2    C4  823   3.156   4.549  11.653 -0.1012 -0.7388  0.1903
   53TMC2    C5  824   3.274   4.595  11.710 -0.1094 -0.6754  0.9921
   53TMC2    C6  825   3.399   4.559  11.665 -0.6485  0.5486 -0.3220
   53TMC2     C  826   3.051   4.432  11.463 -0.2539  0.1306  0.3558
   53TMC2     O  827   3.060   4.363  11.363  0.5101 -0.1305 -0.4960
   53TMC2     H  828   3.299   4.379  11.399  0.2528  0.5317 -0.9016
   53TMC2    H1  829   3.062   4.574  11.701  0.0495  0.9057 -0.3397
   53TMC2    H2  830   3.486   4.607  11.709 -0.2072  0.0568 -0.6668
   53TMC2    C7  831   3.267   4.689  11.824  0.3737  0.0153  0.7030
   53TMC2    C8  832   3.529   4.418  11.509 -0.0146 -0.1179 -0.0385
   53TMC2    O1  833   3.155   0.003  11.840 -0.6856 -0.4834 -0.1925
   53TMC2    O2  834   3.520   4.313  11.449 -0.7136 -0.0128  0.4367
   53TMC2    O5  835   3.616   4.430  11.611 -0.2975 -0.0648 -0.4980
   53TMC2    H5  836   3.613   4.498  11.682 -3.5598 -0.8722  0.1501
   54MPD2     C  837   2.775   4.423  11.374 -0.1134  0.2419 -0.0533
   54MPD2    C1  838   2.826   4.529  11.444 -0.4102 -0.0000 -0.0146
   54MPD2    C2  839   2.750   4.636  11.487  0.4599 -0.3966  0.5787
   54MPD2    C3  840   2.617   4.649  11.449  0.0602 -0.0787 -0.7374
   54MPD2    C4  841   2.565   4.551  11.368  0.3479  0.3324 -0.1734
   54MPD2    C5  842   2.642   4.437  11.335  0.7760  0.1907  0.1840
   54MPD2     H  843   2.809   4.704  11.548 -0.1829  1.7367 -1.1698
   54MPD2    H1  844   2.463   4.564  11.334  0.6919  1.7587 -0.6722
   54MPD2    H2  845   2.835   4.343  11.332  0.0755 -0.2769  1.2105
   54MPD2    H3  846   2.581   4.362  11.285  0.6094  0.0388  0.6191
   54MPD2     N  847   2.524   0.003  11.513 -0.3580  1.3592  0.6357
   54MPD2    H5  848   2.429   4.733  11.480 -0.6674 -2.1637  2.3801
   54MPD2    N1  849   2.955   4.521  11.493 -0.5329  0.1298 -0.1711
   54MPD2    H7  850   2.977   4.591  11.563 -0.0542 -0.5781  0.3906
   55TMC2    C1  851   4.683   2.508  17.551  0.1708  0.0900  0.2906
   55TMC2    C2  852   4.683   2.512  17.414 -0.1850  0.0179  1.1567
   55TMC2    C3  853   4.665   2.397  17.346 -0.4700  0.4153  0.0636
   55TMC2    C4  854   4.660   2.395  17.621  0.9113 -0.3154 -0.5801
   55TMC2    C5  855   4.644   2.280  17.547 -0.7832  0.2263  0.3044
   55TMC2    C6  856   4.639   2.281  17.407  0.4984  0.5580  0.1642
   55TMC2     C  857   4.651   2.624  17.632  0.4735 -0.2979 -0.7761
   55TMC2     O  858   4.591   2.599  17.739 -0.4365  0.8384  0.4584
   55TMC2     H  859   4.683   2.607  17.362  0.9104 -0.9085 -0.5279
   55TMC2    H1  860   4.681   2.397  17.727  0.5646 -0.8891 -0.5031
   55TMC2    H2  861   4.635   2.190  17.348 -1.6681 -1.1661  2.9889
   55TMC2    C7  862   4.618   2.147  17.608  0.4014 -0.4370  0.3072
   55TMC2    C8  863   4.655   2.400  17.204  0.5955  0.0915  0.3497
   55TMC2    O1  864   4.632   2.044  17.544  0.1342  0.1034  0.0025
   55TMC2    O2  865   4.714   2.489  17.138 -0.2359  0.0055 -0.3545
   55TMC2    O5  866   4.552   2.328  17.166  0.3202  0.6987  0.8659
   55TMC2    H5  867   4.512   2.276  17.240 -2.9279  4.6243  1.8940
   56MPD2     C  868   4.696   2.978  17.552  0.0688 -0.6715 -0.4609
   56MPD2    C1  869   4.646   2.869  17.617 -0.3096 -0.8226 -0.7590
   56MPD2    C2  870   4.552   2.893  17.718 -0.2566  0.4872  0.2471
   56MPD2    C3  871   4.519   3.024  17.747 -0.9486 -0.3427  0.3113
   56MPD2    C4  872   4.562   3.127  17.679 -0.7890 -0.0960 -0.3844
   56MPD2    C5  873   4.652   3.101  17.577  0.2079 -0.1144 -0.0378
   56MPD2     H  874   4.510   2.814   0.031  1.2194  1.9535  3.1830
   56MPD2    H1  875   4.544   3.232  17.695  3.5022  0.6412 -0.2877
   56MPD2    H2  876   0.040   2.958  17.483  3.5185  3.0702  2.5113
   56MPD2    H3  877   4.677   3.182  17.509 -1.4558 -0.8693 -1.5606
   56MPD2     N  878   4.449   3.040   0.123 -0.5868 -0.0598 -0.2100
   56MPD2    H5  879   4.421   2.959   0.178  0.9235 -0.1194  0.4629
   56MPD2    N1  880   4.697   2.741  17.580 -0.0427  0.1432 -0.8728
   56MPD2    H7  881   0.026   2.739  17.504  1.1097 -2.4812  0.1723
   57TMC2    C1  882   3.512   3.621  14.225  0.6890  0.4492 -0.2502
   57TMC2    C2  883   3.461   3.497  14.253 -0.9558  0.4843 -0.7879
   57TMC2    C3  884   3.509   3.392  14.185 -0.5612 -0.1029 -0.4033
   57TMC2    C4  885   3.613   3.638  14.139 -0.2079 -0.2891 -0.7762
   57TMC2    C5  886   3.655   3.529  14.063  0.0067  0.3052  0.1782
   57TMC2    C6  887   3.602   3.401  14.091  0.0013 -0.6179 -0.0320
   57TMC2     C  888   3.411   3.712  14.196 -0.0398  0.2125  0.3008
   57TMC2     O  889   3.420   3.774  14.090  0.2163 -0.7180 -0.4088
   57TMC2     H  890   3.368   3.493  14.309 -1.5818 -2.6528 -2.0385
   57TMC2    H1  891   3.661   3.734  14.129 -0.9585  0.1354 -0.2208
   57TMC2    H2  892   3.627   3.306  14.045  0.8923 -1.7783  2.8304
   57TMC2    C7  893   3.789   3.544  13.996  0.0394  0.0818  0.0591
   57TMC2    C8  894   3.424   3.278  14.168 -0.9596  0.4796 -0.6746
   57TMC2    O1  895   3.847   3.648  14.032 -0.4451  0.3248 -0.5933
   57TMC2    O2  896   3.423   3.202  14.070 -0.3948  0.1721  0.1475
   57TMC2    O5  897   3.388   3.233  14.297 -0.3115 -0.0795  0.0884
   57TMC2    H5  898   3.416   3.298  14.366  1.9820 -1.0023  0.0102
   58MPD2     C  899   2.978   3.964  14.307 -0.3288 -0.0199 -0.8978
   58MPD2    C1  900   3.035   3.927  14.186 -0.3011  0.9989 -0.5909
   58MPD2    C2  901   3.156   3.865  14.182  0.5978 -0.0172  0.7642
   58MPD2    C3  902   3.222   3.837  14.299 -0.8689  0.6506  0.1876
   58MPD2    C4  903   3.170   3.872  14.420 -0.0315 -0.8366 -0.1705
   58MPD2    C5  904   3.047   3.935  14.422 -0.3004 -0.1058 -0.4110
   58MPD2     H  905   3.195   3.842  14.083 -1.3093  1.2571 -0.3082
   58MPD2    H1  906   3.218   3.843  14.514  0.0842 -1.2972 -0.3706
   58MPD2    H2  907   2.888   4.023  14.320  0.4842  0.5493  2.1481
   58MPD2    H3  908   3.001   3.953  14.519  1.4680  0.5142  0.3026
   58MPD2     N  909   3.337   3.752  14.307  0.4720  0.4224  0.9138
   58MPD2    H5  910   3.377   3.732  14.398  0.8317  0.3792  0.7455
   58MPD2    N1  911   2.981   3.940  14.062 -0.3602  0.3640  1.0019
   58MPD2    H7  912   3.040   3.903  13.988  0.5294  0.3042  1.7440
   59TMC2    C1  913   1.070   3.804  12.803  0.0217  0.1789 -0.8642
   59TMC2    C2  914   0.954   3.766  12.749 -0.6329 -1.0062  0.1185
   59TMC2    C3  915   0.934   3.734  12.618  0.4627 -0.6170 -0.2408
   59TMC2    C4  916   1.177   3.831  12.715  0.5963 -0.0242  0.6383
   59TMC2    C5  917   1.153   3.825  12.576  0.3295 -0.1897  0.1110
   59TMC2    C6  918   1.042   3.761  12.528 -0.6247  0.2094  0.0431
   59TMC2     C  919   1.050   3.904  12.899 -0.1618 -0.5224 -0.2006
   59TMC2     O  920   0.941   3.961  12.907 -0.8531  0.1953  0.6543
   59TMC2     H  921   0.869   3.755  12.816 -0.4563 -0.8448  0.3714
   59TMC2    H1  922   1.273   3.867  12.748  0.7852 -0.6859  0.8081
   59TMC2    H2  923   1.035   3.740  12.422 -2.5592 -0.4741  0.2901
   59TMC2    C7  924   1.269   3.867  12.489 -0.0090  0.3613  0.0381
   59TMC2    C8  925   0.832   3.631  12.601 -0.4753  0.0920  0.4855
   59TMC2    O1  926   1.374   3.885  12.552  0.0516 -0.7721 -0.6518
   59TMC2    O2  927   0.794   3.577  12.706  0.1216 -0.6792 -0.2219
   59TMC2    O5  928   0.871   3.559  12.496 -0.7209  0.1015 -0.2999
   59TMC2    H5  929   0.864   3.612  12.413 -0.8079  1.2266  0.4220
   60MPD2     C  930   1.100   4.076  13.148 -0.2362  0.0284 -0.2898
   60MPD2    C1  931   1.180   3.970  13.103 -0.4112  0.2284 -0.3164
   60MPD2    C2  932   1.288   3.923  13.178  0.5626  1.2590 -0.6607
   60MPD2    C3  933   1.330   3.996  13.289  0.9648 -0.0249  0.0365
   60MPD2    C4  934   1.249   4.096  13.326  0.1052  0.3214  0.2620
   60MPD2    C5  935   1.137   4.138  13.260  0.2209  0.1365 -0.2566
   60MPD2     H  936   1.352   3.843  13.143 -0.6387  1.4727 -3.2941
   60MPD2    H1  937   1.277   4.166  13.404  0.4161  1.5863 -0.9845
   60MPD2    H2  938   1.024   4.121  13.084  1.3778  0.7605 -1.6911
   60MPD2    H3  939   1.082   4.229  13.280 -0.1149  0.1193 -1.1056
   60MPD2     N  940   1.458   3.987  13.348 -0.0158 -0.0501 -0.7084
   60MPD2    H5  941   1.484   4.053  13.420 -2.8839  1.5100 -1.1145
   60MPD2    N1  942   1.163   3.903  12.977 -0.3610  0.2529 -0.0646
   60MPD2    H7  943   1.236   3.839  12.948 -0.0591  1.4107 -1.8780
   61TMC2    C1  944   0.619   0.078  15.207 -0.1794 -0.2482  0.8807
   61TMC2    C2  945   0.611   0.036  15.335 -0.0983  0.2250 -0.2661
   61TMC2    C3  946   0.528   0.097  15.421  0.2295  0.3506  0.1712
   61TMC2    C4  947   0.550   0.192  15.168  0.7291 -0.5396 -0.0320
   61TMC2    C5  948   0.477   0.254  15.263  0.3191 -0.0602 -0.3601
   61TMC2    C6  949   0.464   0.213  15.397  0.1743 -0.2791 -0.3324
   61TMC2     C  950   0.721   0.015  15.123  0.3848  0.5418 -0.1905
   61TMC2     O  951   0.767   4.638  15.149  0.3561 -0.4890 -0.3104
   61TMC2     H  952   0.671   4.688  15.365 -0.8629 -0.7121 -1.3728
   61TMC2    H1  953   0.540   0.212  15.062  0.1890  1.1745  0.3356
   61TMC2    H2  954   0.429   0.278  15.476  0.1107 -0.4605 -0.2109
   61TMC2    C7  955   0.453   0.392  15.225  0.0910  0.2763 -0.1708
   61TMC2    C8  956   0.543   0.081  15.564 -0.7546 -0.6265  0.4427
   61TMC2    O1  957   0.514   0.429  15.128 -0.6059  0.3547  0.3664
   61TMC2    O2  958   0.581   0.181  15.622  0.4449  0.8209  0.4988
   61TMC2    O5  959   0.569   4.686  15.591 -0.3239 -0.5887  0.0833
   61TMC2    H5  960   0.535   4.630  15.519 -0.4837  0.3028 -0.5450
   62MPD2     C  961   0.937   0.006  14.912 -0.5475  0.2866  0.0344
   62MPD2    C1  962   0.880   0.115  14.961 -1.0797  0.5609  0.3823
   62MPD2    C2  963   0.924   0.234  14.917  0.7716  0.3023  0.9111
   62MPD2    C3  964   1.031   0.247  14.833  0.8733  0.2264 -0.5244
   62MPD2    C4  965   1.090   0.137  14.780 -0.3063  0.0483  0.3053
   62MPD2    C5  966   1.037   0.021  14.821 -0.5842  0.0215 -0.0673
   62MPD2     H  967   0.874   0.315  14.970  2.1160  2.8922 -1.8235
   62MPD2    H1  968   1.178   0.144  14.718  0.1664 -0.5189  0.9198
   62MPD2    H2  969   0.908   4.641  14.935 -0.0423 -0.2993 -1.9497
   62MPD2    H3  970   1.086   4.668  14.786 -2.2219 -0.5114 -0.9672
   62MPD2     N  971   1.068   0.381  14.807 -1.1401 -0.7287 -0.7301
   62MPD2    H5  972   0.999   0.452  14.827  1.3608  0.9048  2.1736
   62MPD2    N1  973   0.769   0.119  15.056  0.3615 -0.7376  0.1189
   62MPD2    H7  974   0.728   0.207  15.087  1.2017 -0.3273  0.0782
   63TMC2    C1  975   0.295   0.711  10.759  0.5369  1.1137  0.6402
   63TMC2    C2  976   0.367   0.727  10.872  0.0047  0.5093  0.4870
   63TMC2    C3  977   0.488   0.775  10.859 -0.2258 -0.5578  0.8749
   63TMC2    C4  978   0.340   0.741  10.631  0.3384  0.0931 -0.2864
   63TMC2    C5  979   0.462   0.801  10.619 -0.0284  0.6167 -0.0985
   63TMC2    C6  980   0.538   0.812  10.735 -0.3851 -0.5220  0.3580
   63TMC2     C  981   0.172   0.647  10.772  0.1868  1.0109 -0.5804
   63TMC2     O  982   0.110   0.672  10.872 -1.1300 -0.1495  0.2620
   63TMC2     H  983   0.339   0.679  10.965 -1.4626  1.8146  0.7353
   63TMC2    H1  984   0.266   0.741  10.552 -0.2657 -1.3839  0.2738
   63TMC2    H2  985   0.631   0.868  10.734 -0.8258  0.1768 -1.6205
   63TMC2    C7  986   0.454   0.909  10.515 -0.1219  0.1904 -0.4408
   63TMC2    C8  987   0.595   0.772  10.959  0.5166 -0.7256  0.1006
   63TMC2    O1  988   0.398   0.883  10.412  0.4264 -0.0444 -0.0414
   63TMC2    O2  989   0.661   0.872  10.984 -0.6312  0.0668  0.1265
   63TMC2    O5  990   0.578   0.661  11.035  0.0349 -0.1006 -0.2868
   63TMC2    H5  991   0.554   0.579  10.986 -2.5653  0.8324 -0.6053
   64MPD2     C  992   4.556   0.300  10.629 -0.4367  0.5955 -0.3131
   64MPD2    C1  993   4.659   0.300  10.541 -0.0285 -0.4863 -1.0730
   64MPD2    C2  994   0.023   0.394  10.563  0.2393  0.7483  0.0494
   64MPD2    C3  995   0.027   0.480  10.670 -0.0593  0.6447  0.4338
   64MPD2    C4  996   4.667   0.474  10.767 -1.1219 -0.1241 -0.0058
   64MPD2    C5  997   4.565   0.386  10.735 -0.0382  0.1857 -0.0614
   64MPD2     H  998   0.112   0.391  10.501 -1.1682 -0.1023 -1.9488
   64MPD2    H1  999   4.673   0.531  10.859  0.5197 -1.2360  0.5652
   64MPD2    H2 1000   4.469   0.235  10.630  0.2921 -0.3550 -0.1624
   64MPD2    H3 1001   4.486   0.361  10.806  0.7867 -1.4544  0.2964
   64MPD2     N 1002   0.138   0.565  10.670 -0.2655  0.5300  0.0176
   64MPD2    H5 1003   0.194   0.570  10.585 -0.2040 -0.3612  0.0012
   64MPD2    N1 1004   4.679   0.196  10.454  0.6430 -0.0892 -0.2529
   64MPD2    H7 1005   0.036   0.185  10.419  1.0393 -0.3292  0.8977
   65TMC2    C1 1006   1.422   0.033  15.589 -0.1178  0.3904  0.5099
   65TMC2    C2 1007   1.475   4.708  15.484  0.2309  0.0838 -0.8124
   65TMC2    C3 1008   1.428   0.007  15.358  0.5732  0.2319  0.1491
   65TMC2    C4 1009   1.340   0.137  15.578  0.3457 -0.5754 -0.3640
   65TMC2    C5 1010   1.307   0.182  15.456 -0.3557  0.2799 -0.2365
   65TMC2    C6 1011   1.346   0.114  15.344  0.2865  0.2777 -0.1412
   65TMC2     C 1012   1.378   4.680  15.701 -0.4503 -0.2673 -0.2361
   65TMC2     O 1013   1.323   4.725  15.794  0.3008 -0.4552 -0.0606
   65TMC2     H 1014   1.522   4.610  15.487  1.4634  0.7361  1.1241
   65TMC2    H1 1015   1.310   0.187  15.669  0.3601  0.2613 -0.8220
   65TMC2    H2 1016   1.335   0.158  15.246  1.8063  1.5703  0.2618
   65TMC2    C7 1017   1.249   0.316  15.439 -0.2568  0.1086 -0.3668
   65TMC2    C8 1018   1.482   4.683  15.238  0.7256 -0.0956  0.9742
   65TMC2    O1 1019   1.256   0.375  15.331 -0.3602  0.6797  0.2106
   65TMC2    O2 1020   1.579   4.614  15.224  0.4685 -0.0405  0.2842
   65TMC2    O5 1021   1.365   4.639  15.179 -0.8055  0.0116 -0.0017
   65TMC2    H5 1022   1.285   4.669  15.229 -0.7970 -0.2938  0.1977
   66MPD2     C 1023   1.260   4.444  15.846  0.2568 -0.6427 -0.3834
   66MPD2    C1 1024   1.330   4.434  15.730  0.3339 -0.0270 -0.2259
   66MPD2    C2 1025   1.357   4.307  15.679 -0.0038  0.3289  0.2618
   66MPD2    C3 1026   1.315   4.187  15.735  0.4266  0.1009 -0.1600
   66MPD2    C4 1027   1.241   4.201  15.850 -0.1618 -0.3763 -0.2279
   66MPD2    C5 1028   1.218   4.323  15.904  0.4770  0.4871 -0.4259
   66MPD2     H 1029   1.427   4.296  15.598 -0.2821  1.1709 -0.0963
   66MPD2    H1 1030   1.215   4.117  15.913  2.3366 -1.7109 -0.9784
   66MPD2    H2 1031   1.235   4.538  15.893  0.0290 -1.1385  0.5052
   66MPD2    H3 1032   1.170   4.327  16.001 -1.3545  0.9188 -1.3630
   66MPD2     N 1033   1.328   4.059  15.687 -0.0075  0.4130 -0.0367
   66MPD2    H5 1034   1.282   3.984  15.737 -0.9964  0.6722 -0.5479
   66MPD2    N1 1035   1.376   4.549  15.657  0.1904  0.1172 -0.6261
   66MPD2    H7 1036   1.410   4.535  15.562 -0.6130  1.1524 -1.0716
   67TMC2    C1 1037   1.332   4.077  14.532  0.5428 -0.2287 -0.2983
   67TMC2    C2 1038   1.316   4.195  14.595  0.3040 -0.2069 -0.1956
   67TMC2    C3 1039   1.402   4.233  14.692  0.2639 -0.0469 -0.5811
   67TMC2    C4 1040   1.445   3.992  14.550  0.1359  1.2636  0.5650
   67TMC2    C5 1041   1.531   4.037  14.646 -1.0259 -0.3161  0.0423
   67TMC2    C6 1042   1.512   4.151  14.719 -0.2515  0.1952  0.3324
   67TMC2     C 1043   1.233   4.040  14.443 -0.1966 -0.6343  0.1961
   67TMC2     O 1044   1.128   4.103  14.456 -0.4040  0.7959  0.0014
   67TMC2     H 1045   1.239   4.264  14.563 -0.7702 -0.7127  1.2727
   67TMC2    H1 1046   1.463   3.904  14.490 -1.3736  0.4038  1.3989
   67TMC2    H2 1047   1.579   4.186  14.797  0.7781  1.6667 -1.2264
   67TMC2    C7 1048   1.643   3.959  14.685 -0.4887  0.3229 -0.3586
   67TMC2    C8 1049   1.377   4.344  14.784  0.8428 -1.1144  0.2045
   67TMC2    O1 1050   1.696   3.897  14.594 -0.2883 -0.2248 -0.7264
   67TMC2    O2 1051   1.448   4.440  14.801  0.6090  0.8818  0.5667
   67TMC2    O5 1052   1.277   4.319  14.865 -0.2176 -0.4296 -0.1081
   67TMC2    H5 1053   1.234   4.231  14.862  0.1343 -0.5664 -1.0978
   68MPD2     C 1054   1.226   3.802  14.153 -0.1020  0.0381 -0.3327
   68MPD2    C1 1055   1.171   3.877  14.257  0.0590  0.2510  0.3138
   68MPD2    C2 1056   1.033   3.905  14.249  0.3782 -0.3334  0.1329
   68MPD2    C3 1057   0.954   3.852  14.153 -0.6278  0.2013 -0.4137
   68MPD2    C4 1058   1.014   3.775  14.056 -0.4577  0.8370  0.4716
   68MPD2    C5 1059   1.151   3.756  14.047 -0.1209  0.0360  0.1767
   68MPD2     H 1060   0.984   3.959  14.329 -0.9466 -0.3185 -0.6931
   68MPD2    H1 1061   0.958   3.727  13.976  1.1324 -1.6553  0.8674
   68MPD2    H2 1062   1.328   3.768  14.153  0.1565  0.8726 -3.3577
   68MPD2    H3 1063   1.197   3.696  13.970  0.3950 -0.5558  0.9546
   68MPD2     N 1064   0.810   3.874  14.143 -0.0861 -0.2514  0.3475
   68MPD2    H5 1065   0.763   3.828  14.066  0.9878  1.6343 -1.4374
   68MPD2    N1 1066   1.261   3.939  14.348  0.1998  0.6082  0.6121
   68MPD2    H7 1067   1.356   3.904  14.342  0.0914  0.6402 -1.2249
   69TMC2    C1 1068   3.740   0.321  12.156  0.5105 -0.6545 -0.2770
   69TMC2    C2 1069   3.617   0.350  12.117 -0.5586  0.2990 -0.3334
   69TMC2    C3 1070   3.586   0.333  11.989 -0.0604 -0.0149 -0.7352
   69TMC2    C4 1071   3.825   0.256  12.073 -0.8883 -0.2285 -0.3034
   69TMC2    C5 1072   3.788   0.237  11.942 -0.1159 -0.0046  0.8500
   69TMC2    C6 1073   3.669   0.278  11.897  0.5919 -0.5398 -0.2877
   69TMC2     C 1074   3.763   0.334  12.299  0.5948  0.2586 -0.2698
   69TMC2     O 1075   3.661   0.341  12.367  0.5495 -0.3725  0.6003
   69TMC2     H 1076   3.555   0.405  12.188 -0.5485 -1.1662  0.8178
   69TMC2    H1 1077   3.920   0.212  12.103 -0.1323  0.8117 -1.1469
   69TMC2    H2 1078   3.638   0.285  11.793 -0.1154 -1.8563 -0.1723
   69TMC2    C7 1079   3.865   0.141  11.871 -0.2786 -0.3601  0.2385
   69TMC2    C8 1080   3.454   0.372  11.943 -0.5007 -0.0367 -0.1032
   69TMC2    O1 1081   3.972   0.115  11.921 -0.1818  0.0140  0.2592
   69TMC2    O2 1082   3.400   0.331  11.836 -0.2118 -0.1825  0.9890
   69TMC2    O5 1083   3.443   0.498  11.989  0.3228  0.1726 -0.1562
   69TMC2    H5 1084   3.507   0.519  12.060  0.8139 -2.5953  0.2262
   70MPD2     C 1085   4.076   0.313  12.486  0.0653 -0.8719 -0.4829
   70MPD2    C1 1086   3.937   0.305  12.473  0.8227  0.6875  0.2323
   70MPD2    C2 1087   3.856   0.266  12.576  0.1530  0.4390  0.0759
   70MPD2    C3 1088   3.919   0.247  12.698 -0.7264  0.1449  0.8343
   70MPD2    C4 1089   4.055   0.262  12.706 -0.6199 -0.0283  0.5360
   70MPD2    C5 1090   4.137   0.303  12.606 -0.2983  0.1023 -0.6300
   70MPD2     H 1091   3.757   0.227  12.554  0.8011 -1.0376 -0.2027
   70MPD2    H1 1092   4.101   0.229  12.798 -0.6435  1.6212  1.1469
   70MPD2    H2 1093   4.125   0.340  12.394 -2.2570  3.4667 -0.4431
   70MPD2    H3 1094   4.242   0.326  12.621 -0.9940  2.1732  1.0226
   70MPD2     N 1095   3.856   0.188  12.810 -0.2488 -0.4181 -0.1557
   70MPD2    H5 1096   3.913   0.162  12.890 -1.1726  0.4722  0.7995
   70MPD2    N1 1097   3.891   0.315  12.342 -0.4585  0.0921 -0.1912
   70MPD2    H7 1098   3.964   0.306  12.271 -1.5977 -0.6082 -1.2788
   71TMC2    C1 1099   4.540   0.496   1.285  0.6427  0.0160  0.4175
   71TMC2    C2 1100   4.617   0.540   1.394 -0.0185  0.1306  0.4460
   71TMC2    C3 1101   4.540   0.555   1.505  0.1238  0.6534  0.1082
   71TMC2    C4 1102   4.402   0.482   1.289  0.1659  1.2617 -0.2528
   71TMC2    C5 1103   4.330   0.513   1.404  0.6270  0.1781 -0.6221
   71TMC2    C6 1104   4.406   0.549   1.514  0.3897  0.0134 -0.0793
   71TMC2     C 1105   4.619   0.480   1.162 -0.6794  0.1541 -0.7653
   71TMC2     O 1106   0.003   0.494   1.167 -0.2355 -0.0967 -0.5361
   71TMC2     H 1107   4.725   0.550   1.388 -0.1995  2.1663  0.6542
   71TMC2    H1 1108   4.349   0.480   1.195  0.3467  0.9650 -0.3503
   71TMC2    H2 1109   4.355   0.581   1.605 -0.9911 -0.8185 -0.5601
   71TMC2    C7 1110   4.186   0.525   1.412 -0.7263 -0.1461 -0.0961
   71TMC2    C8 1111   4.614   0.586   1.627 -0.4165 -0.1713 -0.1123
   71TMC2    O1 1112   4.127   0.559   1.513 -0.1612  0.1852  0.0786
   71TMC2    O2 1113   4.571   0.567   1.736 -0.0525  0.3659  0.6374
   71TMC2    O5 1114   4.690   0.691   1.596 -0.2021  0.0925 -0.3050
   71TMC2    H5 1115   4.715   0.713   1.504  1.5290 -2.8621 -0.5483
   72MPD2     C 1116   4.628   0.354   0.660 -0.3208 -0.0726 -0.0814
   72MPD2    C1 1117   4.720   0.420   0.730  0.3828 -0.2262  0.1137
   72MPD2    C2 1118   4.692   0.445   0.868  0.1373 -0.2616 -0.1978
   72MPD2    C3 1119   4.578   0.391   0.928  0.5337 -0.2393  0.6093
   72MPD2    C4 1120   4.483   0.333   0.849  0.4734  0.4682 -0.2609
   72MPD2    C5 1121   4.509   0.320   0.716  0.5155  0.8144  0.3432
   72MPD2     H 1122   0.029   0.500   0.925 -0.6185 -0.0799  0.5994
   72MPD2    H1 1123   4.387   0.297   0.885 -0.9320 -0.0355 -4.5585
   72MPD2    H2 1124   4.647   0.340   0.554  1.2845  0.0158  0.1956
   72MPD2    H3 1125   4.431   0.271   0.661  0.2642  0.2125  1.2295
   72MPD2     N 1126   4.544   0.422   1.064 -0.0400  0.7836  0.1508
   72MPD2    H5 1127   4.447   0.420   1.096  0.1489  2.5058  0.8340
   72MPD2    N1 1128   0.107   0.457   0.677  0.0693  0.1238 -0.5600
   72MPD2    H7 1129   0.169   0.515   0.734  2.9187 -2.1273 -1.3618
   73TMC2    C1 1130   0.627   2.759  13.987  0.0254 -0.3076 -0.1268
   73TMC2    C2 1131   0.558   2.753  14.105 -0.5512  0.3573  0.0439
   73TMC2    C3 1132   0.618   2.688  14.211 -0.3726  0.6579 -0.0704
   73TMC2    C4 1133   0.748   2.702  13.977  0.5183 -0.1748 -0.2047
   73TMC2    C5 1134   0.811   2.634  14.082 -0.2467 -0.3516 -0.4945
   73TMC2    C6 1135   0.739   2.623  14.202  0.2325  0.5814 -0.5515
   73TMC2     C 1136   0.644   2.898  13.947  0.4690  0.1314  0.0399
   73TMC2     O 1137   0.764   2.933  13.946  0.0621  0.1865 -0.3664
   73TMC2     H 1138   0.461   2.798  14.121  0.0988  0.8360  2.6775
   73TMC2    H1 1139   0.799   2.732  13.886 -1.1451  0.8323 -0.8092
   73TMC2    H2 1140   0.782   2.562  14.281 -0.3952  2.0494  0.9277
   73TMC2    C7 1141   0.951   2.665  14.108 -0.3084 -0.5280 -0.5605
   73TMC2    C8 1142   0.558   2.680  14.339 -0.2188  0.1852 -0.0010
   73TMC2    O1 1143   1.017   2.591  14.180 -0.5515 -0.0474 -0.0966
   73TMC2    O2 1144   0.589   2.590  14.417 -0.4122  0.1033 -0.3142
   73TMC2    O5 1145   0.441   2.751  14.336  0.5017 -0.2826  0.1718
   73TMC2    H5 1146   0.434   2.816  14.262  1.5942  0.1326  0.4304
   74MPD2     C 1147   0.558   3.326  13.670  0.2916  0.2328 -0.6530
   74MPD2    C1 1148   0.678   3.273  13.717 -0.2170  0.5028 -0.6869
   74MPD2    C2 1149   0.665   3.152  13.786  0.0622  0.4757 -0.0709
   74MPD2    C3 1150   0.545   3.081  13.806  1.2103  0.6156  0.3973
   74MPD2    C4 1151   0.433   3.140  13.759  0.0776 -0.6373  0.6613
   74MPD2    C5 1152   0.440   3.262  13.688  0.4544  0.3342 -0.1801
   74MPD2     H 1153   0.757   3.112  13.826  0.8268  1.7788 -0.5038
   74MPD2    H1 1154   0.337   3.096  13.783 -1.3309  1.1803 -1.6532
   74MPD2    H2 1155   0.559   3.424  13.622  0.8439 -0.0535 -1.2217
   74MPD2    H3 1156   0.352   3.309  13.646  0.7001  1.1939  0.2505
   74MPD2     N 1157   0.537   2.961  13.888 -0.0667 -0.1097 -0.1632
   74MPD2    H5 1158   0.446   2.917  13.895 -0.7586  1.3864  0.2772
   74MPD2    N1 1159   0.792   3.359  13.718  0.5827  0.2146 -0.0317
   74MPD2    H7 1160   0.788   3.451  13.677  2.2611  0.1335 -0.3362
   75TMC2    C1 1161   0.592   3.949  14.184  0.2231  0.0975 -0.2241
   75TMC2    C2 1162   0.499   4.007  14.267  0.3419  0.6636  0.1691
   75TMC2    C3 1163   0.373   4.056  14.230 -0.1293  0.0505  0.3985
   75TMC2    C4 1164   0.553   3.947  14.051 -0.7313 -0.8100  0.2951
   75TMC2    C5 1165   0.436   3.995  14.006  0.2844 -0.3060 -0.7996
   75TMC2    C6 1166   0.343   4.048  14.093  0.4662 -0.0413  0.5465
   75TMC2     C 1167   0.729   3.941  14.225 -0.2148 -0.1135 -0.3899
   75TMC2     O 1168   0.755   4.023  14.314  0.0681 -0.1642 -0.2627
   75TMC2     H 1169   0.516   4.018  14.374  2.2487 -0.8243  0.0151
   75TMC2    H1 1170   0.630   3.927  13.978 -1.2954 -0.6656 -0.3368
   75TMC2    H2 1171   0.253   4.088  14.048 -0.0237 -1.5617  0.1717
   75TMC2    C7 1172   0.417   3.993  13.866  0.2564 -0.1512 -0.0173
   75TMC2    C8 1173   0.327   4.166  14.308  0.4772 -0.1038  0.4465
   75TMC2    O1 1174   0.488   3.917  13.799  0.0112  0.0640  0.2339
   75TMC2    O2 1175   0.401   4.222  14.388  0.3480 -0.2206  0.0477
   75TMC2    O5 1176   0.222   4.225  14.252 -0.0278  0.0452  0.0726
   75TMC2    H5 1177   0.171   4.164  14.194 -2.1410  0.0438  1.9418
   76TMC2    C1 1178   0.016   4.042  12.048 -0.0064 -0.1422 -0.4216
   76TMC2    C2 1179   4.703   3.945  11.959  0.6576  0.1368 -0.1173
   76TMC2    C3 1180   4.634   3.838  12.014 -0.2225 -0.0625 -0.1688
   76TMC2    C4 1181   0.008   4.038  12.186  0.2762 -0.2207  0.0886
   76TMC2    C5 1182   4.680   3.931  12.229  0.3763  0.4998  0.2976
   76TMC2    C6 1183   4.632   3.828  12.150 -0.9309 -0.0935  0.1389
   76TMC2     C 1184   0.067   4.159  11.979 -0.1424 -0.5133  0.0424
   76TMC2     O 1185   0.048   4.267  12.032  0.3840 -0.2272  0.1786
   76TMC2     H 1186   4.690   3.960  11.852 -4.4032  0.9676  0.6180
   76TMC2    H1 1187   0.040   4.120  12.248  1.4262 -0.3602 -0.3201
   76TMC2    H2 1188   4.593   3.738  12.198 -0.7269  0.3361  1.1206
   76TMC2    C7 1189   4.643   3.918  12.371  0.2789  0.0810 -0.2415
   76TMC2    C8 1190   4.547   3.758  11.928 -0.3036  1.2428 -0.0591
   76TMC2    O1 1191   4.578   3.824  12.409  0.1108  0.3357  0.1164
   76TMC2    O2 1192   4.500   3.654  11.972  0.3053 -0.2666 -0.0584
   76TMC2    O5 1193   4.481   3.845  11.854 -0.3823  0.0636  1.0170
   76TMC2    H5 1194   4.513   3.938  11.849  0.3845 -0.3360 -1.8788
   77MPD2     C 1195   0.238   4.394  11.571  0.1398  0.2798 -0.4230
   77MPD2    C1 1196   0.123   4.414  11.649  0.0731  0.2108  0.3230
   77MPD2    C2 1197   0.089   4.323  11.744 -0.1840  0.2982 -0.4786
   77MPD2    C3 1198   0.167   4.216  11.768  0.1015 -0.2044 -0.4561
   77MPD2    C4 1199   0.281   4.198  11.695 -0.1322 -0.3252  0.2965
   77MPD2    C5 1200   0.320   4.286  11.596  0.1921  0.0056  0.6591
   77MPD2     H 1201   4.732   4.325  11.797  0.8658  0.1383  1.4125
   77MPD2    H1 1202   0.329   4.103  11.712  0.5968  0.3070  1.8242
   77MPD2    H2 1203   0.261   4.460  11.488 -1.0556  1.0113 -0.1560
   77MPD2    H3 1204   0.404   4.264  11.531  0.4875 -0.0751  1.0741
   77MPD2     N 1205   0.140   4.125  11.872 -0.1236 -0.0240  0.2811
   77MPD2    H5 1206   0.166   4.027  11.860  2.4577  0.6662  0.2622
   77MPD2    N1 1207   0.025   4.507  11.619  0.1979 -0.8667 -0.7630
   77MPD2    H7 1208   4.684   4.482  11.677  1.5524 -1.7313  0.6803
   78TMC2    C1 1209   0.039   0.131   1.092  0.8903 -0.2544 -0.5338
   78TMC2    C2 1210   0.011   0.083   0.969 -0.4718 -0.5099  1.2048
   78TMC2    C3 1211   0.111   0.106   0.881 -0.4043 -0.2052  0.4399
   78TMC2    C4 1212   0.139   0.219   1.125 -0.5364 -0.0709  0.0121
   78TMC2    C5 1213   0.220   0.257   1.021 -0.4571 -0.2850 -0.4250
   78TMC2    C6 1214   0.215   0.194   0.898  0.0168 -0.3740  0.1896
   78TMC2     C 1215   4.670   0.106   1.194 -0.7082 -0.3455  0.2318
   78TMC2     O 1216   4.562   0.068   1.147 -0.4380  0.4812 -0.2387
   78TMC2     H 1217   4.663   0.020   0.947 -0.5317 -0.0913  0.2557
   78TMC2    H1 1218   0.146   0.255   1.227  0.3843  2.0987 -0.8280
   78TMC2    H2 1219   0.280   0.218   0.815  3.0836 -2.7890  1.8838
   78TMC2    C7 1220   0.308   0.373   1.028 -0.3818  0.2283  0.0753
   78TMC2    C8 1221   0.086   0.068   0.740  0.1268  0.6575 -0.2917
   78TMC2    O1 1222   0.411   0.369   0.965  0.4409 -0.5386 -0.1871
   78TMC2    O2 1223   0.135   0.128   0.645 -0.0799  0.3439 -0.2207
   78TMC2    O5 1224   0.060   4.675   0.745  0.1478 -0.1656  0.0069
   78TMC2    H5 1225   0.045   4.659   0.841  5.8118  1.6489  1.2282
   79MPD1     C 1226   4.439   0.215   1.639 -0.2772 -0.4885 -0.0694
   79MPD1    C1 1227   4.393   0.144   1.529 -0.7228 -0.6386 -0.0787
   79MPD1    C2 1228   4.471   0.120   1.416 -0.5571  0.0142  0.2882
   79MPD1    C3 1229   4.608   0.143   1.428  0.6132 -0.1153 -0.4710
   79MPD1    C4 1230   4.655   0.193   1.550  0.8093 -0.2574  0.3043
   79MPD1    C5 1231   4.575   0.235   1.652 -0.3545  0.1494 -0.2976
   79MPD1     H 1232   4.426   0.086   1.323 -1.7069 -0.6164  1.0800
   79MPD1    H1 1233   0.023   0.195   1.571  0.8621  2.7187 -0.3149
   79MPD1    H2 1234   4.379   0.255   1.720 -1.9126 -2.4255 -0.3223
   79MPD1    H3 1235   4.630   0.257   1.743 -0.3435  0.3016 -0.3408
   79MPD1     N 1236   4.704   0.136   1.322 -0.1156  0.2800 -0.0128
   79MPD1    H5 1237   0.062   0.159   1.349 -0.1227 -1.3065  1.3625
   79MPD1    N1 1238   4.252   0.115   1.527 -0.6225  0.6574 -0.1649
   79MPD1    H6 1239   4.239   0.022   1.488  3.6632 -0.0838  0.1136
   79MPD1    H7 1240   4.218   0.114   1.623  0.3859 -1.6940  0.1687
   80TMC2    C1 1241   2.842   4.028  11.708  0.3876 -0.3261 -0.5099
   80TMC2    C2 1242   2.767   4.049  11.592  0.2514  0.0400  0.2670
   80TMC2    C3 1243   2.673   3.956  11.560 -0.1876 -0.0240 -0.4276
   80TMC2    C4 1244   2.836   3.914  11.782  0.9750  0.9858 -0.5252
   80TMC2    C5 1245   2.736   3.822  11.751  0.5743  0.2625  0.2554
   80TMC2    C6 1246   2.661   3.847  11.637  0.0275 -0.1934 -0.3520
   80TMC2     C 1247   2.964   4.092  11.698  0.1864 -0.0144  0.3124
   80TMC2     O 1248   3.009   4.122  11.587  1.0257 -0.1295 -0.0230
   80TMC2     H 1249   2.773   4.141  11.535 -1.7558 -0.3391 -0.5284
   80TMC2    H1 1250   2.902   3.901  11.867  1.1814 -1.4099 -1.0424
   80TMC2    H2 1251   2.593   3.767  11.609 -0.9228 -0.0581  1.5759
   80TMC2    C7 1252   2.738   3.686  11.814 -0.0117 -0.1766 -0.2653
   80TMC2    C8 1253   2.596   3.966  11.438  0.2001  0.4586  0.0062
   80TMC2    O1 1254   2.643   3.614  11.774  0.6305 -0.0002 -0.1987
   80TMC2    O2 1255   2.489   3.905  11.426 -0.0365 -0.2313  0.5421
   80TMC2    O5 1256   2.650   4.058  11.349 -0.3483 -0.0547  0.6600
   80TMC2    H5 1257   2.745   4.076  11.368  0.3434 -2.1103 -0.7636
   81MPD2     C 1258   3.236   4.213  11.765 -0.0121  0.2930 -0.2199
   81MPD2    C1 1259   3.125   4.210  11.846  0.0691 -0.3078  0.1722
   81MPD2    C2 1260   3.128   4.291  11.959 -0.6625 -0.3056 -1.4787
   81MPD2    C3 1261   3.243   4.353  11.999  0.6221 -0.1425  0.4771
   81MPD2    C4 1262   3.354   4.332  11.924 -0.0122  0.4635 -0.5369
   81MPD2    C5 1263   3.350   4.273  11.802  0.2628 -0.2198  0.2067
   81MPD2     H 1264   3.038   4.301  12.017 -0.1027 -1.1941 -0.4727
   81MPD2    H1 1265   3.448   4.384  11.942  0.3950 -0.8923  1.3125
   81MPD2    H2 1266   3.246   4.155  11.675 -2.8383 -2.4492  1.2470
   81MPD2    H3 1267   3.441   4.276  11.744  0.3539  0.0153  0.3627
   81MPD2     N 1268   3.244   4.422  12.121 -0.0421  0.0638  0.7334
   81MPD2    H5 1269   3.329   4.448  12.168 -0.0878  1.7371 -0.1320
   81MPD2    N1 1270   3.002   4.138  11.825 -0.7978 -0.7046 -0.0154
   81MPD2    H7 1271   2.934   4.138  11.900 -1.6332 -1.6310 -0.7738
   82TMC2    C1 1272   1.959   3.312  11.435 -1.2463 -0.0781 -0.0045
   82TMC2    C2 1273   2.065   3.241  11.374 -0.1092 -0.1377 -0.3094
   82TMC2    C3 1274   2.061   3.106  11.394  0.2981 -0.1786 -0.2636
   82TMC2    C4 1275   1.862   3.253  11.518 -0.0901 -0.2778 -0.2106
   82TMC2    C5 1276   1.866   3.117  11.512 -0.2407  0.0225  0.0201
   82TMC2    C6 1277   1.964   3.034  11.456  0.5270  0.1010 -0.1709
   82TMC2     C 1278   1.932   3.451  11.407  0.5139  0.0476 -0.0959
   82TMC2     O 1279   1.985   3.504  11.306  0.4977 -0.7312 -0.7724
   82TMC2     H 1280   2.141   3.302  11.326 -0.3396  1.3499  1.2084
   82TMC2    H1 1281   1.771   3.303  11.548 -0.0737 -1.5244  1.9004
   82TMC2    H2 1282   1.964   2.926  11.458  1.4994  0.1323  1.0156
   82TMC2    C7 1283   1.771   3.055  11.608  0.8983 -0.0823 -0.6138
   82TMC2    C8 1284   2.170   3.022  11.350  0.4137 -0.2892 -0.1615
   82TMC2    O1 1285   1.682   3.123  11.656 -0.2020 -0.4339  1.0449
   82TMC2    O2 1286   2.161   2.900  11.329  0.3278  0.6562 -0.2777
   82TMC2    O5 1287   2.282   3.083  11.396  0.0258  0.1397 -0.0630
   82TMC2    H5 1288   2.270   3.180  11.397 -0.4763  0.0903 -1.4705
   83MPD2     C 1289   1.603   3.802  11.526 -0.3403  0.4930  0.4569
   83MPD2    C1 1290   1.632   3.749  11.397 -0.0347 -0.2781 -0.1511
   83MPD2    C2 1291   1.735   3.653  11.397  0.0905  0.0352 -0.0620
   83MPD2    C3 1292   1.800   3.616  11.514  0.1094 -0.3191  0.1922
   83MPD2    C4 1293   1.760   3.668  11.631 -0.0393  0.7630  0.9863
   83MPD2    C5 1294   1.666   3.762  11.638  0.1655  0.1106 -0.9994
   83MPD2     H 1295   1.773   3.606  11.308  0.8359 -0.8774  0.7363
   83MPD2    H1 1296   1.816   3.641  11.720  2.0852 -1.0218 -0.9118
   83MPD2    H2 1297   1.518   3.869  11.530  0.7408  1.8854  0.6494
   83MPD2    H3 1298   1.651   3.808  11.735 -1.6726  1.0168 -1.7002
   83MPD2     N 1299   1.890   3.515  11.521  0.3386 -0.1593 -0.1831
   83MPD2    H5 1300   1.900   3.467  11.610 -0.0276  1.0913  0.5333
   83MPD2    N1 1301   1.566   3.792  11.284 -0.7151  0.4881 -0.3260
   83MPD2    H7 1302   1.493   3.862  11.296 -1.2295  0.2539 -2.0386
   84TMC2    C1 1303   2.932   3.316  10.666  0.3466  0.4310 -0.2857
   84TMC2    C2 1304   2.931   3.192  10.608 -0.1858  0.0822 -0.4047
   84TMC2    C3 1305   2.979   3.189  10.477  1.4026 -0.1523  0.0440
   84TMC2    C4 1306   2.983   3.431  10.593 -0.0272 -0.6937 -0.7527
   84TMC2    C5 1307   3.031   3.409  10.468  0.7448 -0.2641  0.1351
   84TMC2    C6 1308   3.036   3.289  10.411 -0.9434 -0.0525  0.0166
   84TMC2     C 1309   2.868   3.346  10.796 -0.1327 -0.2950  0.1057
   84TMC2     O 1310   2.829   3.457  10.819 -0.2135  0.4522 -0.8999
   84TMC2     H 1311   2.885   3.101  10.646  0.7589 -0.3551 -0.3053
   84TMC2    H1 1312   3.009   3.516  10.654 -2.6655 -0.1651 -0.3582
   84TMC2    H2 1313   3.078   3.273  10.313  3.9978 -0.1710  2.1577
   84TMC2    C7 1314   3.095   3.517  10.393 -0.5082  0.6570  0.0252
   84TMC2    C8 1315   2.996   3.061  10.409 -0.3102  0.0358 -0.4963
   84TMC2    O1 1316   3.177   3.501  10.302  0.0950  0.2379  0.2096
   84TMC2    O2 1317   3.030   3.061  10.294  0.2945  0.1974  0.0258
   84TMC2    O5 1318   3.032   2.967  10.510 -0.5109  0.3922  0.5454
   84TMC2    H5 1319   3.045   2.988  10.604  1.3138 -2.4213  0.9409
   85TMC2    C1 1320   3.146   0.962  15.797  0.1427  0.2512  0.1055
   85TMC2    C2 1321   3.014   0.928  15.786  0.1426 -0.5351 -0.2474
   85TMC2    C3 1322   2.948   1.004  15.700 -0.7733  0.3942  0.3980
   85TMC2    C4 1323   3.203   1.073  15.730  1.5387  0.9610  0.4980
   85TMC2    C5 1324   3.133   1.130  15.632 -0.8500 -0.3657  0.5963
   85TMC2    C6 1325   2.998   1.101  15.621 -0.1963 -0.3743  0.0228
   85TMC2     C 1326   3.223   0.909  15.905  0.1255 -0.3025 -0.4773
   85TMC2     O 1327   3.323   0.977  15.944  0.5642 -0.2838 -0.1793
   85TMC2     H 1328   2.963   0.862  15.854 -2.1039  1.8247  0.3390
   85TMC2    H1 1329   3.309   1.096  15.730  1.5686  0.8552 -1.1548
   85TMC2    H2 1330   2.929   1.160  15.562  0.0158 -0.0944  0.0560
   85TMC2    C7 1331   3.195   1.246  15.561  0.2122 -0.0697 -0.5435
   85TMC2    C8 1332   2.812   0.956  15.668 -0.0994 -0.2966  1.0281
   85TMC2    O1 1333   3.304   1.296  15.590 -0.0446 -0.1074  0.5923
   85TMC2    O2 1334   2.733   1.035  15.621  0.2860  0.4009  0.0014
   85TMC2    O5 1335   2.832   0.830  15.630  0.1453  0.5691  0.0688
   85TMC2    H5 1336   2.756   0.798  15.577  0.3686  0.0465  0.0676
   86MPD2     C 1337   3.294   0.534  16.251 -0.5286 -0.4130  0.2382
   86MPD2    C1 1338   3.196   0.493  16.161 -0.2377  0.1405 -0.1631
   86MPD2    C2 1339   3.155   0.578  16.064  0.1455 -0.3233  0.6333
   86MPD2    C3 1340   3.219   0.695  16.041 -0.7138  0.4583 -0.1725
   86MPD2    C4 1341   3.315   0.742  16.128  0.6594  0.0722 -0.1636
   86MPD2    C5 1342   3.353   0.655  16.230 -0.0488  0.2835  0.8630
   86MPD2     H 1343   3.073   0.547  16.001 -0.5592  0.8524  0.9733
   86MPD2    H1 1344   3.371   0.834  16.122  0.9924  0.1000  3.4057
   86MPD2    H2 1345   3.321   0.478  16.340 -0.9254 -1.1818 -0.1277
   86MPD2    H3 1346   3.435   0.682  16.296 -0.2835 -0.3692  1.4290
   86MPD2     N 1347   3.170   0.782  15.937  0.5028  0.0229  0.1129
   86MPD2    H5 1348   3.085   0.750  15.891 -0.2062  1.8609  0.1313
   86MPD2    N1 1349   3.123   0.374  16.178 -0.2243 -0.2736 -0.6341
   86MPD2    H7 1350   3.051   0.359  16.107 -1.6702 -0.9248  0.9767
   87TMC2    C1 1351   0.670   3.770   0.702  0.1198 -0.7243 -0.0421
   87TMC2    C2 1352   0.571   3.705   0.630  0.0756  0.4848  0.0377
   87TMC2    C3 1353   0.449   3.746   0.653  0.1642  0.5981  0.1270
   87TMC2    C4 1354   0.642   3.885   0.778  0.9362 -0.1085 -0.1908
   87TMC2    C5 1355   0.512   3.923   0.792  0.1778 -0.1801 -0.9758
   87TMC2    C6 1356   0.410   3.853   0.727 -0.5100 -1.3466  0.3730
   87TMC2     C 1357   0.805   3.760   0.648  0.5546  0.3154  0.3256
   87TMC2     O 1358   0.863   3.865   0.620  0.0255 -0.1262 -0.4146
   87TMC2     H 1359   0.603   3.612   0.583 -0.3695  0.2463  0.2112
   87TMC2    H1 1360   0.727   3.940   0.817 -1.9961  2.9820  1.7842
   87TMC2    H2 1361   0.310   3.894   0.732 -0.1665 -0.6037  1.0954
   87TMC2    C7 1362   0.474   4.047   0.862 -0.5239  0.8727  0.1581
   87TMC2    C8 1363   0.332   3.665   0.602 -0.2967 -0.2364  0.2479
   87TMC2    O1 1364   0.352   4.078   0.850 -0.5983 -0.0574 -0.0751
   87TMC2    O2 1365   0.228   3.659   0.666 -0.4528  0.5398 -0.0137
   87TMC2    O5 1366   0.342   3.648   0.472 -0.0678 -0.1902 -0.1879
   87TMC2    H5 1367   0.429   3.681   0.440 -0.1402 -2.5973 -2.8622
   88MPD2     C 1368   0.682   4.266   1.061  0.2991 -0.5484  0.1146
   88MPD2    C1 1369   0.585   4.233   0.968 -0.0566  0.5487  0.0355
   88MPD2    C2 1370   0.517   4.337   0.901  0.0238 -0.0241  0.1228
   88MPD2    C3 1371   0.566   4.466   0.917  0.1832  0.2493 -0.2279
   88MPD2    C4 1372   0.671   4.498   1.002 -0.1650 -0.3060 -0.1663
   88MPD2    C5 1373   0.725   4.394   1.077  0.1296 -0.4431  0.5685
   88MPD2     H 1374   0.442   4.320   0.825 -0.0207 -0.1999  0.2052
   88MPD2    H1 1375   0.712   4.598   1.008 -0.6577 -0.0648 -0.8875
   88MPD2    H2 1376   0.725   4.187   1.122  1.0668  0.9221  1.4715
   88MPD2    H3 1377   0.806   4.417   1.146  1.6233 -0.3304 -1.2175
   88MPD2     N 1378   0.529   4.570   0.824 -0.1952 -0.3748 -0.1085
   88MPD2    H5 1379   0.599   4.643   0.826 -0.1257 -0.4390 -0.1903
   88MPD2    N1 1380   0.579   4.099   0.926  0.1183  0.3017  0.2208
   88MPD2    H7 1381   0.642   4.042   0.982  0.7559  1.0763  0.2915
   89TMC2    C1 1382   1.450   2.312   0.467  0.1155 -0.1565 -0.7140
   89TMC2    C2 1383   1.313   2.328   0.461 -0.6226  1.0813 -0.1141
   89TMC2    C3 1384   1.254   2.437   0.513 -0.6468 -0.1864 -0.3475
   89TMC2    C4 1385   1.534   2.407   0.520 -0.3235 -0.5504  0.0346
   89TMC2    C5 1386   1.469   2.513   0.577  0.0446 -0.2915  0.3276
   89TMC2    C6 1387   1.335   2.527   0.578 -0.1891 -0.3098 -0.0056
   89TMC2     C 1388   1.497   2.174   0.462 -1.4820  0.0847  0.0926
   89TMC2     O 1389   1.592   2.149   0.393  0.0294 -0.1136  0.0906
   89TMC2     H 1390   1.244   2.261   0.411 -0.1757  1.1798 -0.8704
   89TMC2    H1 1391   1.637   2.388   0.547 -0.9915 -1.2863  1.9907
   89TMC2    H2 1392   1.292   2.619   0.615  2.6201  0.3870  1.5484
   89TMC2    C7 1393   1.520   2.564   0.701  0.5174  0.0199 -0.4930
   89TMC2    C8 1394   1.108   2.439   0.545  0.0180 -0.0708  0.0781
   89TMC2    O1 1395   1.442   2.585   0.791  0.7109 -0.1023 -0.2524
   89TMC2    O2 1396   1.068   2.548   0.582 -0.1971  0.0301 -0.1409
   89TMC2    O5 1397   1.037   2.327   0.530  0.5917  0.2339  0.2311
   89TMC2    H5 1398   1.090   2.247   0.509  0.5290 -0.0980  1.3444
   90MPD2     C 1399   1.460   1.693   0.631 -0.0355 -0.5761  0.3089
   90MPD2    C1 1400   1.381   1.772   0.714 -0.3724  0.3894  0.3429
   90MPD2    C2 1401   1.371   1.904   0.681 -0.4954 -0.3256  0.0862
   90MPD2    C3 1402   1.450   1.963   0.582  1.0451  0.7973 -0.3531
   90MPD2    C4 1403   1.537   1.884   0.516 -0.4507  0.5447 -0.2757
   90MPD2    C5 1404   1.535   1.751   0.531  0.1798  0.7824  0.6038
   90MPD2     H 1405   1.300   1.973   0.726 -0.7951 -0.5566 -0.0313
   90MPD2    H1 1406   1.607   1.934   0.449  1.7536  0.4807  2.0085
   90MPD2    H2 1407   1.472   1.586   0.648  1.2919 -0.3887  0.5419
   90MPD2    H3 1408   1.601   1.694   0.467  0.3528  0.2655  1.2451
   90MPD2     N 1409   1.434   2.104   0.564 -0.2965  0.1037 -0.0162
   90MPD2    H5 1410   1.373   2.153   0.628 -1.1629 -2.2349  0.9612
   90MPD2    N1 1411   1.305   1.720   0.823 -0.6023 -0.5084 -0.2875
   90MPD2    H7 1412   1.265   1.787   0.887  2.4298  1.2752 -0.2456
   91TMC2    C1 1413   3.005   1.170  17.018 -0.3434 -0.1397  0.1878
   91TMC2    C2 1414   3.088   1.086  17.086 -0.2343 -0.4692  0.8662
   91TMC2    C3 1415   3.096   0.952  17.054  0.4941 -0.6009  0.4123
   91TMC2    C4 1416   2.951   1.126  16.897 -0.2438 -0.3272  0.8299
   91TMC2    C5 1417   2.960   0.993  16.866 -0.5592 -1.0667 -0.5203
   91TMC2    C6 1418   3.027   0.906  16.949 -0.0648 -0.5886 -0.3233
   91TMC2     C 1419   3.030   1.311  17.029  0.2329 -0.3119  0.5714
   91TMC2     O 1420   2.944   1.394  16.998 -0.1314 -1.0166  0.0039
   91TMC2     H 1421   3.141   1.113  17.176 -1.5427  2.9778  0.5829
   91TMC2    H1 1422   2.901   1.196  16.830 -0.3259 -3.7572 -2.6965
   91TMC2    H2 1423   3.024   0.799  16.932  1.0254 -0.7043  0.1986
   91TMC2    C7 1424   2.868   0.928  16.775  0.5306  0.3753  0.4557
   91TMC2    C8 1425   3.169   0.857  17.131  0.2986 -0.4563 -0.0378
   91TMC2    O1 1426   2.845   0.806  16.794 -0.1681 -0.6422 -0.5602
   91TMC2    O2 1427   3.135   0.743  17.129  0.1492  0.1169 -0.3038
   91TMC2    O5 1428   3.286   0.912  17.151  0.0749  0.4013  0.0269
   91TMC2    H5 1429   3.286   1.006  17.121  0.6914  0.7722  1.1775
   92MPD2     C 1430   3.173   1.578  17.030 -0.6351  0.1401 -0.0450
   92MPD2    C1 1431   3.232   1.458  17.020 -0.2770  0.8615  0.3922
   92MPD2    C2 1432   3.362   1.452  16.977 -0.8378  0.1284 -0.2381
   92MPD2    C3 1433   3.434   1.567  16.951 -0.2978  0.0489 -0.6718
   92MPD2    C4 1434   3.378   1.690  16.969  0.0493  0.3859  0.3456
   92MPD2    C5 1435   3.249   1.693  17.017  0.2565  0.9473  0.2376
   92MPD2     H 1436   3.412   1.358  16.958 -0.9845  0.3687 -1.8714
   92MPD2    H1 1437   3.427   1.785  16.951 -0.3338  0.6466  0.6946
   92MPD2    H2 1438   3.070   1.589  17.060 -0.6876 -1.0993  0.2142
   92MPD2    H3 1439   3.202   1.790  17.030 -0.2399  0.9393 -1.5783
   92MPD2     N 1440   3.571   1.550  16.903 -0.1699  0.0492 -0.1253
   92MPD2    H5 1441   3.598   1.457  16.872 -0.6951  0.1879 -1.0044
   92MPD2    N1 1442   3.164   1.331  17.032  0.1691 -0.4677 -0.1593
   92MPD2    H7 1443   3.225   1.250  17.021 -1.0119 -0.9408 -3.0034
   93TMC2    C1 1444   0.690   1.927  13.886  0.4137 -0.3811  0.0878
   93TMC2    C2 1445   0.620   2.040  13.927 -0.4510  0.1280  1.0285
   93TMC2    C3 1446   0.703   2.133  13.983  0.5568  0.5065 -0.4998
   93TMC2    C4 1447   0.827   1.931  13.876  0.3211  0.5063  0.3994
   93TMC2    C5 1448   0.898   2.024  13.936 -0.4093 -0.7124  0.2898
   93TMC2    C6 1449   0.840   2.132  13.988 -0.6401  0.0754  0.5467
   93TMC2     C 1450   0.616   1.824  13.811 -0.2626 -0.3751  0.1026
   93TMC2     O 1451   0.687   1.758  13.733 -0.4380  0.0006 -0.3823
   93TMC2     H 1452   0.512   2.043  13.939 -0.9469  0.3746 -3.5512
   93TMC2    H1 1453   0.884   1.852  13.827 -0.6257  1.6747 -2.5371
   93TMC2    H2 1454   0.897   2.206  14.042 -1.4562  0.9921  0.1552
   93TMC2    C7 1455   1.034   2.051  13.887  0.1506 -0.3474  0.2332
   93TMC2    C8 1456   0.649   2.258  14.027  0.3719 -0.2405 -0.1912
   93TMC2    O1 1457   1.110   1.956  13.886  0.2596 -0.2420  0.2723
   93TMC2    O2 1458   0.690   2.328  14.120 -0.3012  0.1678  1.0311
   93TMC2    O5 1459   0.572   2.303  13.924  0.2078 -0.1906  0.5102
   93TMC2    H5 1460   0.580   2.251  13.842  0.8061 -0.3141  0.6469
   94MPD2     C 1461   0.434   1.600  13.733 -0.3086 -0.2070  0.2875
   94MPD2    C1 1462   0.399   1.717  13.806 -0.4108 -0.2384 -0.8262
   94MPD2    C2 1463   0.265   1.721  13.849  0.7783 -0.4108  0.3140
   94MPD2    C3 1464   0.173   1.626  13.816 -0.8302 -0.2992 -0.6672
   94MPD2    C4 1465   0.209   1.518  13.735  0.3861  0.0540  0.3248
   94MPD2    C5 1466   0.335   1.512  13.692  0.5390  0.2903 -0.2199
   94MPD2     H 1467   0.225   1.803  13.908 -1.4059 -0.6599 -0.8433
   94MPD2    H1 1468   0.137   1.453  13.687  1.0553 -0.5835  0.1914
   94MPD2    H2 1469   0.534   1.586  13.693 -0.8702  0.7426 -1.4442
   94MPD2    H3 1470   0.359   1.426  13.629 -0.8376 -0.8078  0.7623
   94MPD2     N 1471   0.036   1.630  13.858 -0.2352 -0.9915 -1.0391
   94MPD2    H5 1472   4.712   1.560  13.818 -1.0887 -0.8849  0.0709
   94MPD2    N1 1473   0.490   1.815  13.850 -0.0192  0.0631 -0.3315
   94MPD2    H7 1474   0.451   1.885  13.912 -1.1227 -1.5394  0.7957
   95TMC2    C1 1475   0.745   3.348  16.044 -0.1888 -0.4644 -0.1780
   95TMC2    C2 1476   0.752   3.222  16.101  0.2731 -0.7554  0.7877
   95TMC2    C3 1477   0.672   3.195  16.203  0.1478  0.7976 -0.1451
   95TMC2    C4 1478   0.662   3.441  16.086 -0.1824  0.1563  0.3300
   95TMC2    C5 1479   0.576   3.402  16.188 -0.4367  0.4404  0.4307
   95TMC2    C6 1480   0.575   3.282  16.253  0.0871 -0.2424 -0.2853
   95TMC2     C 1481   0.825   3.398  15.941  0.2851  0.1256 -0.6523
   95TMC2     O 1482   0.822   3.521  15.925  0.4309 -0.0146 -0.1106
   95TMC2     H 1483   0.829   3.153  16.068  1.5450 -0.3062  2.8342
   95TMC2    H1 1484   0.648   3.539  16.042  2.3148  0.7814  0.9449
   95TMC2    H2 1485   0.508   3.263  16.336  1.2993  1.0513  0.9892
   95TMC2    C7 1486   0.495   3.506  16.256  0.0969 -0.1201 -0.2599
   95TMC2    C8 1487   0.644   3.055  16.224  0.2258 -0.3502 -0.1244
   95TMC2    O1 1488   0.473   3.603  16.185  0.5526  0.4040  0.2479
   95TMC2    O2 1489   0.627   3.027  16.340 -0.5029 -0.3785  0.0007
   95TMC2    O5 1490   0.581   3.018  16.113  0.2991 -0.3814 -0.5028
   95TMC2    H5 1491   0.568   3.087  16.044  0.6173  0.7906  0.5952
   96MPD2     C 1492   1.103   3.284  15.534  0.6019  0.2660  1.3880
   96MPD2    C1 1493   1.055   3.408  15.570  0.2584  0.2205  0.2422
   96MPD2    C2 1494   0.982   3.417  15.681  0.0072  0.5010  0.6878
   96MPD2    C3 1495   0.947   3.301  15.747  0.1220  0.8178 -0.5037
   96MPD2    C4 1496   0.984   3.180  15.704 -0.7147 -0.1713 -0.2031
   96MPD2    C5 1497   1.067   3.176  15.601 -0.3512 -0.0927 -0.3663
   96MPD2     H 1498   0.951   3.511  15.725  1.4688  1.3660 -0.1483
   96MPD2    H1 1499   0.962   3.097  15.770  0.6843 -0.3481  0.0437
   96MPD2    H2 1500   1.164   3.269  15.445 -1.0259 -1.2928  0.5383
   96MPD2    H3 1501   1.094   3.081  15.556  1.1781  1.0010 -1.7211
   96MPD2     N 1502   0.870   3.295  15.862 -0.0527  0.1664 -0.0800
   96MPD2    H5 1503   0.841   3.203  15.893 -0.5380 -0.3401 -2.0550
   96MPD2    N1 1504   1.113   3.517  15.500  0.2987  0.0599  0.1760
   96MPD2    H7 1505   1.189   3.490  15.438  0.5762  0.9945  0.1145
   97TMC2    C1 1506   2.599   1.736   0.018  0.0113  0.3607 -0.1896
   97TMC2    C2 1507   2.511   1.719  17.671 -0.2575 -0.3980 -0.3930
   97TMC2    C3 1508   2.522   1.790  17.561 -0.4261  0.1967  0.1996
   97TMC2    C4 1509   2.704   1.828   0.013 -0.2103 -0.2998  0.1880
   97TMC2    C5 1510   2.716   1.901  17.648  0.5484 -0.2250 -0.2605
   97TMC2    C6 1511   2.630   1.876  17.547 -0.1631  0.4689  0.6858
   97TMC2     C 1512   2.563   1.676   0.148  0.7967  0.6722 -0.0639
   97TMC2     O 1513   2.439   1.669   0.159  0.1248 -0.0808 -0.1587
   97TMC2     H 1514   2.429   1.649  17.681 -0.4949 -0.2559 -1.3683
   97TMC2    H1 1515   2.779   1.830   0.091 -1.2121 -1.1170  1.1925
   97TMC2    H2 1516   2.644   1.911  17.445  2.0789  0.8871  1.1396
   97TMC2    C7 1517   2.824   1.985  17.634  0.0669 -0.1637  0.6307
   97TMC2    C8 1518   2.462   1.735  17.442 -0.2710 -0.0072  0.0063
   97TMC2    O1 1519   2.910   1.987  17.723  0.8349  0.0025 -0.7153
   97TMC2    O2 1520   2.502   1.741  17.325 -0.2668 -0.4499  0.1752
   97TMC2    O5 1521   2.335   1.701  17.477 -0.0980 -0.1119 -0.1616
   97TMC2    H5 1522   2.309   1.707  17.572  0.3128  1.4033 -0.1472
   98MPD2     C 1523   2.609   1.387   0.563 -0.7182  0.8587  0.2902
   98MPD2    C1 1524   2.492   1.411   0.493  0.9489  0.2047  0.5821
   98MPD2    C2 1525   2.508   1.497   0.385 -0.4330 -0.0321 -0.3671
   98MPD2    C3 1526   2.633   1.546   0.342  0.2759  0.3634  0.2725
   98MPD2    C4 1527   2.747   1.494   0.403 -0.0036 -0.6546  0.7777
   98MPD2    C5 1528   2.734   1.428   0.515  0.2815  0.2184 -0.4268
   98MPD2     H 1529   2.426   1.534   0.325 -2.5358  0.0719  2.5807
   98MPD2    H1 1530   2.840   1.530   0.361 -0.4392 -0.7095 -0.2421
   98MPD2    H2 1531   2.619   1.328   0.653 -0.0277 -0.6921 -0.7991
   98MPD2    H3 1532   2.823   1.397   0.567 -0.7833  2.1472  2.5482
   98MPD2     N 1533   2.663   1.626   0.224  0.1827 -0.3964 -0.8119
   98MPD2    H5 1534   2.754   1.641   0.182 -0.9077  3.2164 -1.9217
   98MPD2    N1 1535   2.370   1.372   0.546 -0.4615 -0.2112  0.7140
   98MPD2    H7 1536   2.368   1.330   0.638 -1.5235 -1.1304  0.2799
   99TMC2    C1 1537   2.076   3.223   1.764 -0.2444  0.2340 -0.5247
   99TMC2    C2 1538   2.182   3.252   1.845 -0.0944 -0.7727  0.5358
   99TMC2    C3 1539   2.157   3.343   1.945  1.3770  0.1904 -0.1459
   99TMC2    C4 1540   1.955   3.281   1.780 -0.9732  0.5114  0.1630
   99TMC2    C5 1541   1.934   3.370   1.884  0.1493 -0.1514 -0.5425
   99TMC2    C6 1542   2.036   3.404   1.965  0.3249 -0.4035  0.0792
   99TMC2     C 1543   2.099   3.137   1.650  0.1854  0.3279 -0.4446
   99TMC2     O 1544   2.202   3.070   1.660 -0.0206  0.4180 -0.0473
   99TMC2     H 1545   2.280   3.208   1.834 -0.1245 -1.2467  2.1250
   99TMC2    H1 1546   1.870   3.252   1.719 -1.2615 -1.1691  1.3386
   99TMC2    H2 1547   2.021   3.481   2.040 -1.4078 -0.4368 -0.2321
   99TMC2    C7 1548   1.855   3.483   1.846 -0.4016 -0.0560 -0.5388
   99TMC2    C8 1549   2.276   3.385   2.017 -0.6382  0.4124 -0.0151
   99TMC2    O1 1550   1.914   3.592   1.849  0.1439 -0.2677  0.0863
   99TMC2    O2 1551   2.381   3.322   2.024  0.7915  0.7295  0.3635
   99TMC2    O5 1552   2.254   3.494   2.092 -0.3950 -0.2916  0.1282
   99TMC2    H5 1553   2.192   3.562   2.059 -2.4837 -1.9775  0.5839
  100MPD2     C 1554   2.154   3.067   1.375  0.1138 -0.3457 -0.4220
  100MPD2    C1 1555   2.033   3.110   1.417  0.1655  0.3536 -0.5772
  100MPD2    C2 1556   1.927   3.113   1.326 -0.1278  0.3424 -0.1326
  100MPD2    C3 1557   1.942   3.064   1.193 -0.6142  0.1280 -0.0299
  100MPD2    C4 1558   2.067   3.025   1.147 -0.4626  0.3154 -0.5695
  100MPD2    C5 1559   2.167   3.024   1.247 -0.8140 -0.1261  0.0754
  100MPD2     H 1560   1.827   3.148   1.349  0.1150 -0.3897  2.0155
  100MPD2    H1 1561   2.095   2.975   1.054  0.3292  3.9759 -2.2781
  100MPD2    H2 1562   2.244   3.067   1.435 -1.3610 -1.1262  1.7883
  100MPD2    H3 1563   2.262   2.978   1.219  0.4430  2.2833  0.4401
  100MPD2     N 1564   1.829   3.054   1.112  0.1324 -0.2976 -0.0460
  100MPD2    H5 1565   1.734   3.063   1.147  0.8207 -0.5782  1.8923
  100MPD2    N1 1566   2.015   3.163   1.543 -0.1277  0.2649 -0.5333
  100MPD2    H7 1567   1.948   3.239   1.553  0.1526  0.3923  0.3793
  101TMC2    C1 1568   2.410   4.620  13.334  0.4861 -0.3219 -0.1761
  101TMC2    C2 1569   2.423   4.626  13.467  0.2043  0.3714  0.2379
  101TMC2    C3 1570   2.551   4.678  13.499 -0.6675 -0.2682  0.0664
  101TMC2    C4 1571   2.489   4.688  13.243  0.1552 -0.4022  0.0564
  101TMC2    C5 1572   2.601   0.005  13.290 -0.4224 -0.6102  0.0250
  101TMC2    C6 1573   2.646   4.723  13.413  0.3758  0.1182  0.3079
  101TMC2     C 1574   2.315   4.523  13.292  0.6981  0.2487 -0.0220
  101TMC2     O 1575   2.212   4.515  13.360  0.1201  0.0491  0.2225
  101TMC2     H 1576   2.372   4.556  13.533 -2.7764  1.7071 -0.6731
  101TMC2    H1 1577   2.456   4.702  13.141 -1.1737 -0.5146  0.4681
  101TMC2    H2 1578   2.738   0.029  13.453  0.2817  1.2078 -0.6639
  101TMC2    C7 1579   2.676   0.083  13.192  0.2607  0.5127  0.3940
  101TMC2    C8 1580   2.606   4.631  13.625  0.0607  0.4718  0.1301
  101TMC2    O1 1581   2.629   0.103  13.081  0.0128  0.0495  0.3526
  101TMC2    O2 1582   2.726   4.614  13.640  0.5169 -0.8863  0.0901
  101TMC2    O5 1583   2.520   4.666  13.723 -0.5172 -0.3261 -0.1496
  101TMC2    H5 1584   2.444   4.722  13.698 -0.2359 -1.1384 -2.8604
  102MPD2     C 1585   2.319   4.270  13.020 -0.5242 -0.4147 -0.7345
  102MPD2    C1 1586   2.291   4.325  13.142 -0.1387  0.9482 -0.3115
  102MPD2    C2 1587   2.198   4.255  13.214  0.2317  0.0923 -0.2280
  102MPD2    C3 1588   2.140   4.133  13.177  0.5179 -0.6026 -0.4205
  102MPD2    C4 1589   2.177   4.081  13.048  1.4358 -0.2866  0.7940
  102MPD2    C5 1590   2.271   4.151  12.973 -0.0115 -0.4676 -0.1431
  102MPD2     H 1591   2.165   4.289  13.312  1.1624  0.8506 -0.1796
  102MPD2    H1 1592   2.130   3.993  13.004 -2.9486  1.8676  1.1696
  102MPD2    H2 1593   2.389   4.311  12.948 -0.0791  0.9615  0.4771
  102MPD2    H3 1594   2.282   4.122  12.869  0.9859 -1.3901  0.2152
  102MPD2     N 1595   2.051   4.070  13.264  0.2340 -0.0711  0.2632
  102MPD2    H5 1596   2.005   4.127  13.334  0.0318  0.5817 -0.3998
  102MPD2    N1 1597   2.353   4.442  13.184  0.2636 -0.3375 -0.1557
  102MPD2    H7 1598   2.443   4.454  13.139  1.2209  0.7122  2.0570
  103TMC2    C1 1599   0.406   4.252  12.891  0.2146 -0.8290 -0.0628
  103TMC2    C2 1600   0.532   4.273  12.850  0.4084 -0.4866  0.5215
  103TMC2    C3 1601   0.612   4.336  12.932  0.7377  0.6625 -0.1211
  103TMC2    C4 1602   0.352   4.298  13.005  0.2238  0.6809 -0.9959
  103TMC2    C5 1603   0.444   4.359  13.086  0.4735 -0.1267  0.3232
  103TMC2    C6 1604   0.573   4.380  13.053 -0.7925 -0.1867  0.0368
  103TMC2     C 1605   0.309   4.201  12.796  0.4925 -0.5377 -0.1680
  103TMC2     O 1606   0.315   4.253  12.683 -0.1321  0.0088  0.0786
  103TMC2     H 1607   0.559   4.259  12.746 -1.9236  0.3234 -0.2144
  103TMC2    H1 1608   0.246   4.298  13.025  0.7881 -1.6216  1.9801
  103TMC2    H2 1609   0.640   4.435  13.118  0.5386 -1.3192 -0.3504
  103TMC2    C7 1610   0.388   4.453  13.179  0.0571  0.1689 -0.1857
  103TMC2    C8 1611   0.748   4.294  12.902  0.5718 -0.1337  0.4715
  103TMC2    O1 1612   0.270   4.476  13.181  0.5017  0.2737  0.7624
  103TMC2    O2 1613   0.792   4.271  12.789 -0.2936 -0.2378 -0.4287
  103TMC2    O5 1614   0.825   4.278  13.010 -0.2296 -0.4233 -0.2119
  103TMC2    H5 1615   0.785   4.304  13.096 -0.5449 -2.3863  0.2411
  104MPD2     C 1616   0.071   3.923  12.864 -0.0411  0.0202  0.3136
  104MPD2    C1 1617   0.131   4.031  12.793  0.4418 -1.3323  0.5331
  104MPD2    C2 1618   0.103   4.042  12.661  0.0171  0.6180  0.0787
  104MPD2    C3 1619   0.015   3.966  12.594  0.2929  0.0231 -0.8604
  104MPD2    C4 1620   4.692   3.869  12.667 -0.3893  0.5369 -0.0203
  104MPD2    C5 1621   4.729   3.836  12.792  0.1478 -0.3328 -0.5130
  104MPD2     H 1622   0.150   4.122  12.605 -0.0895 -0.6310 -1.8132
  104MPD2    H1 1623   4.635   3.792  12.617  1.1912 -0.7139  0.1066
  104MPD2    H2 1624   0.080   3.893  12.968  1.0126 -1.8546 -0.3105
  104MPD2    H3 1625   4.697   3.741  12.834  0.2337  0.2800  0.9112
  104MPD2     N 1626   4.721   3.996  12.454  0.7848 -0.0003 -0.3958
  104MPD2    H5 1627   0.050   4.065  12.421  1.4341 -1.1058 -1.4401
  104MPD2    N1 1628   0.233   4.103  12.862 -0.0981  0.0384  0.1231
  104MPD2    H7 1629   0.247   4.089  12.962 -1.3341 -0.9617  0.1576
  105TMC2    C1 1630   1.578   3.728   0.019  0.0652  0.6765 -0.3751
  105TMC2    C2 1631   1.566   3.861   0.008 -0.2544  0.0808  0.8604
  105TMC2    C3 1632   1.456   3.909   0.078  0.7117 -0.0820  0.6509
  105TMC2    C4 1633   1.507   3.652   0.104  0.3006  0.2385  0.3483
  105TMC2    C5 1634   1.401   3.708   0.169  0.2144  0.2552 -0.2162
  105TMC2    C6 1635   1.367   3.841   0.154  0.1327 -0.2090 -0.5982
  105TMC2     C 1636   1.694   3.660  17.702  0.2375  0.1209 -0.6325
  105TMC2     O 1637   1.721   3.547  17.741 -0.7288  0.4201 -0.3294
  105TMC2     H 1638   1.635   3.920  17.696 -0.2442 -1.8301 -1.0208
  105TMC2    H1 1639   1.536   3.550   0.126  2.3126  0.7637  0.2079
  105TMC2    H2 1640   1.284   3.898   0.195  0.3680 -0.1029 -0.2705
  105TMC2    C7 1641   1.321   3.617   0.251  0.0508 -0.4285  0.0288
  105TMC2    C8 1642   1.436   4.054   0.063 -0.2918 -0.0293  0.1233
  105TMC2    O1 1643   1.372   3.506   0.250  0.4441  0.0927  0.5263
  105TMC2    O2 1644   1.391   4.135   0.143 -0.0393 -0.6129  0.6765
  105TMC2    O5 1645   1.427   4.076  17.673 -0.4371 -0.5690  0.3638
  105TMC2    H5 1646   1.442   3.996  17.617 -0.3558 -0.2600 -0.0588
  106MPD2     C 1647   1.929   3.517  17.270 -1.3732  0.3954  0.6163
  106MPD2    C1 1648   1.850   3.630  17.245 -0.1682 -0.6577  0.0507
  106MPD2    C2 1649   1.783   3.690  17.348  0.4412  0.1380 -1.0828
  106MPD2    C3 1650   1.788   3.636  17.478  0.2501 -0.8085 -0.2992
  106MPD2    C4 1651   1.884   3.540  17.502 -0.5580  0.4608 -0.1205
  106MPD2    C5 1652   1.953   3.488  17.400 -0.7855  0.0816 -0.4560
  106MPD2     H 1653   1.725   3.780  17.330  1.1992  0.4669 -1.8595
  106MPD2    H1 1654   1.908   3.499  17.600 -2.9552 -2.2382 -0.6732
  106MPD2    H2 1655   1.995   3.471  17.196 -1.1516  1.8396 -0.0785
  106MPD2    H3 1656   2.023   3.406  17.415 -2.5812 -1.5421 -1.0541
  106MPD2     N 1657   1.724   3.709  17.580 -0.3707  0.1991  0.1939
  106MPD2    H5 1658   1.670   3.793  17.560  0.7530  0.5803 -1.2434
  106MPD2    N1 1659   1.827   3.680  17.115 -0.1178  0.3032 -0.2433
  106MPD2    H7 1660   1.750   3.746  17.111  0.5416  1.0872  0.1687
  107TMC2    C1 1661   2.258   3.682  11.463 -0.4284 -0.8495 -0.4115
  107TMC2    C2 1662   2.229   3.762  11.354  0.2059 -0.2862  0.0059
  107TMC2    C3 1663   2.286   3.726  11.238 -0.5068  0.5782  0.0599
  107TMC2    C4 1664   2.343   3.573  11.457  0.4996 -0.0052  0.3275
  107TMC2    C5 1665   2.400   3.554  11.336  1.0292 -0.3670  0.0568
  107TMC2    C6 1666   2.374   3.627  11.225 -0.9333 -0.6200  0.6287
  107TMC2     C 1667   2.195   3.696  11.591 -0.6317  0.2690  0.7190
  107TMC2     O 1668   2.226   3.625  11.682  0.7008  0.0973  0.3750
  107TMC2     H 1669   2.160   3.845  11.360  1.3006  0.5716  0.5178
  107TMC2    H1 1670   2.352   3.500  11.536 -1.5594 -0.9164 -0.2913
  107TMC2    H2 1671   2.420   3.611  11.129 -0.5836  0.8830  0.5442
  107TMC2    C7 1672   2.460   3.424  11.311 -0.1872  0.0947  1.5897
  107TMC2    C8 1673   2.269   3.818  11.126 -0.3788  0.4873  0.2099
  107TMC2    O1 1674   2.388   3.336  11.364 -0.4778  0.3182 -0.5699
  107TMC2    O2 1675   2.287   3.777  11.012 -0.4061  0.1780  0.2130
  107TMC2    O5 1676   2.326   3.932  11.180  0.5468 -0.6894  0.1378
  107TMC2    H5 1677   2.337   3.922  11.277  0.9864  2.1422  0.3828
  108MPD2     C 1678   2.000   3.984  11.707  0.3069 -0.5801  0.2001
  108MPD2    C1 1679   2.044   3.863  11.712 -0.7128 -0.1674 -0.1857
  108MPD2    C2 1680   2.018   3.788  11.828 -0.2938  0.6534 -0.2439
  108MPD2    C3 1681   1.937   3.830  11.935  0.4773  0.3024 -0.6806
  108MPD2    C4 1682   1.878   3.955  11.919 -0.0550 -0.5062  0.3857
  108MPD2    C5 1683   1.916   4.033  11.807  0.0525 -0.1508 -0.2207
  108MPD2     H 1684   2.054   3.686  11.834 -0.3344  0.7600  1.7125
  108MPD2    H1 1685   1.819   3.991  12.003 -0.1506 -1.6415  0.8088
  108MPD2    H2 1686   2.014   4.055  11.626 -0.0873  0.5773  1.1366
  108MPD2    H3 1687   1.880   4.134  11.801  0.1737  0.0706  2.6480
  108MPD2     N 1688   1.916   3.759  12.049  0.0925  0.2252 -0.3744
  108MPD2    H5 1689   1.862   3.812  12.116  0.3777 -0.4397  0.3746
  108MPD2    N1 1690   2.120   3.817  11.601  0.2568  0.5614  0.0320
  108MPD2    H7 1691   2.130   3.872  11.516 -0.8701  0.0846 -0.3987
  109TMC2    C1 1692   1.450   1.515   1.539 -0.2089  0.0720 -0.5626
  109TMC2    C2 1693   1.493   1.602   1.632 -0.2711 -0.2330 -0.0245
  109TMC2    C3 1694   1.627   1.628   1.640  0.2009 -0.6030  0.1007
  109TMC2    C4 1695   1.539   1.449   1.462 -0.6406 -0.7333  0.1373
  109TMC2    C5 1696   1.678   1.472   1.487 -0.2225 -0.7726  0.1213
  109TMC2    C6 1697   1.726   1.563   1.578  0.0094 -0.9314 -0.1879
  109TMC2     C 1698   1.307   1.484   1.537  0.2943  0.1402 -0.5422
  109TMC2     O 1699   1.237   1.546   1.614 -0.0461 -0.2143  0.8617
  109TMC2     H 1700   1.424   1.656   1.696 -0.2518  0.4056 -0.5346
  109TMC2    H1 1701   1.510   1.373   1.390 -0.2126 -0.5829 -0.1954
  109TMC2    H2 1702   1.830   1.589   1.599 -0.0364 -1.4321  0.6577
  109TMC2    C7 1703   1.772   1.415   1.391 -0.2558 -0.4207  0.2139
  109TMC2    C8 1704   1.661   1.736   1.732 -0.2471 -0.6258 -0.6094
  109TMC2    O1 1705   1.726   1.326   1.320 -0.5221  0.0351 -0.1158
  109TMC2    O2 1706   1.768   1.746   1.791 -0.0772 -0.0229  0.1170
  109TMC2    O5 1707   1.608   1.848   1.671  0.1512 -0.1607 -0.1383
  109TMC2    H5 1708   1.521   1.831   1.628 -0.3759  0.3553  0.7210
  110MPD2     C 1709   0.941   1.167   1.417 -0.8664 -0.2806 -1.1220
  110MPD2    C1 1710   1.061   1.110   1.375 -0.5318  0.3628  0.1193
  110MPD2    C2 1711   1.173   1.183   1.396  0.9639 -0.7427  0.5344
  110MPD2    C3 1712   1.164   1.306   1.454 -0.5386  0.3478 -0.1014
  110MPD2    C4 1713   1.049   1.362   1.494 -0.2980  0.8058  0.0756
  110MPD2    C5 1714   0.933   1.287   1.481 -0.2551 -0.2497  0.2477
  110MPD2     H 1715   1.267   1.135   1.370  1.7682  0.6269  0.8647
  110MPD2    H1 1716   1.041   1.463   1.532 -0.3390  0.6616  0.4482
  110MPD2    H2 1717   0.844   1.129   1.388 -0.5382 -1.3988 -0.7585
  110MPD2    H3 1718   0.831   1.322   1.494 -0.2826 -0.5886  0.9398
  110MPD2     N 1719   1.292   1.364   1.468 -0.5170 -0.0245 -0.5701
  110MPD2    H5 1720   1.375   1.315   1.436 -0.1048  1.2004 -1.4029
  110MPD2    N1 1721   1.047   0.973   1.333 -0.7411 -0.7821 -0.0440
  110MPD2    H7 1722   0.958   0.927   1.350 -1.0680 -0.0437  0.2449
  111TMC2    C1 1723   1.995   0.568  11.784 -0.8692 -0.2786  0.4459
  111TMC2    C2 1724   1.914   0.473  11.834 -0.4769 -0.3085 -0.2911
  111TMC2    C3 1725   1.943   0.421  11.951  0.1614 -0.3953  0.4043
  111TMC2    C4 1726   2.122   0.588  11.839 -0.0268 -0.6168 -0.4523
  111TMC2    C5 1727   2.150   0.532  11.959  0.2217 -0.0955 -0.0205
  111TMC2    C6 1728   2.061   0.441  12.022 -0.1558  0.2715 -0.3172
  111TMC2     C 1729   1.957   0.631  11.658 -0.2337  0.2206  0.2235
  111TMC2     O 1730   2.057   0.682  11.604 -0.3346 -0.1834  0.2156
  111TMC2     H 1731   1.822   0.438  11.789  0.4919 -0.6274 -1.9936
  111TMC2    H1 1732   2.185   0.656  11.782 -1.2909  0.3508 -0.7206
  111TMC2    H2 1733   2.083   0.403  12.121 -0.4065  0.3556 -0.2288
  111TMC2    C7 1734   2.283   0.526  12.005  0.2381  0.3067  0.0543
  111TMC2    C8 1735   1.837   0.355  12.026 -0.4290 -0.3438 -0.0688
  111TMC2    O1 1736   2.296   0.475  12.115 -0.5150  0.0095  0.4922
  111TMC2    O2 1737   1.790   0.253  11.973  0.0367 -0.5306  0.9419
  111TMC2    O5 1738   1.824   0.394  12.151  0.0023 -0.4584 -0.2959
  111TMC2    H5 1739   1.882   0.471  12.169  0.7362 -1.5963  2.2354
  112MPD2     C 1740   1.668   0.743  11.259  0.1212  0.6745 -0.3398
  112MPD2    C1 1741   1.808   0.725  11.264 -0.3539  0.1107  0.0002
  112MPD2    C2 1742   1.869   0.686  11.383  0.6680 -0.3685  0.1874
  112MPD2    C3 1743   1.782   0.663  11.491  0.2089  1.1011 -0.1498
  112MPD2    C4 1744   1.645   0.673  11.487  0.3269  0.0716 -0.5268
  112MPD2    C5 1745   1.591   0.706  11.366  0.3250 -0.2323  1.0928
  112MPD2     H 1746   1.974   0.661  11.382  0.6441 -0.4687  0.0897
  112MPD2    H1 1747   1.586   0.651  11.576  1.2011  0.4149  0.1372
  112MPD2    H2 1748   1.602   0.768  11.177 -1.1347 -1.3344  0.0675
  112MPD2    H3 1749   1.483   0.704  11.362  0.4591 -0.5075 -3.3663
  112MPD2     N 1750   1.825   0.625  11.620 -0.9878  0.2111 -0.7259
  112MPD2    H5 1751   1.759   0.592  11.689  0.3370 -1.2733 -0.1615
  112MPD2    N1 1752   1.897   0.727  11.148  0.1765  0.2049 -0.2390
  112MPD2    H7 1753   1.996   0.718  11.169  0.0636  0.3338  0.3647
  113TMC2    C1 1754   0.038   2.803   0.468 -0.1218 -0.6851 -0.3220
  113TMC2    C2 1755   0.060   2.857   0.339  0.1269 -0.2333 -0.6646
  113TMC2    C3 1756   0.071   2.770   0.237 -0.2810 -0.6072 -0.5153
  113TMC2    C4 1757   0.008   2.671   0.493 -0.5937 -0.1395  0.2079
  113TMC2    C5 1758   0.025   2.593   0.378 -0.0134 -0.2177  0.3035
  113TMC2    C6 1759   0.059   2.636   0.254  0.0552  0.1602  0.6671
  113TMC2     C 1760   0.053   2.896   0.571 -1.2306 -0.0533  0.1883
  113TMC2     O 1761   0.004   3.009   0.552  0.1836 -0.5899  0.2373
  113TMC2     H 1762   0.077   2.964   0.337  1.3759 -0.4153  0.3031
  113TMC2    H1 1763   4.716   2.629   0.588 -2.3592  1.2444  0.2827
  113TMC2    H2 1764   0.084   2.569   0.172 -0.9425 -1.1252  1.4116
  113TMC2    C7 1765   0.000   2.458   0.387 -0.1424 -0.3883 -0.8185
  113TMC2    C8 1766   0.165   2.810   0.132  0.7499  0.1476 -0.0931
  113TMC2    O1 1767   4.707   2.406   0.281  0.2728 -0.0834  0.5903
  113TMC2    O2 1768   0.232   2.730   0.061 -0.5332  1.2710 -0.1775
  113TMC2    O5 1769   0.167   2.944   0.115 -0.5557 -0.6413  0.3184
  113TMC2    H5 1770   0.113   3.002   0.173 -0.2872 -0.1237  0.0518
  114MPD2     C 1771   0.261   3.031   1.024  1.4517 -0.0073  0.3258
  114MPD2    C1 1772   0.218   3.114   0.915 -0.5047 -0.1100  0.2042
  114MPD2    C2 1773   0.150   3.050   0.817 -0.3095 -0.3095  0.6717
  114MPD2    C3 1774   0.138   2.911   0.807  0.0058  0.2152 -0.1987
  114MPD2    C4 1775   0.192   2.833   0.912  0.0615 -0.7790 -0.5165
  114MPD2    C5 1776   0.244   2.893   1.024  0.1000 -0.4399  0.3135
  114MPD2     H 1777   0.110   3.103   0.731 -1.1818  0.3047  1.4590
  114MPD2    H1 1778   0.193   2.724   0.912  1.3567 -0.7725  2.7989
  114MPD2    H2 1779   0.300   3.077   1.113  0.0927 -0.1341  0.9911
  114MPD2    H3 1780   0.267   2.837   1.114  1.2569 -1.1130 -0.4030
  114MPD2     N 1781   0.098   2.841   0.690 -0.4332  0.3339  0.5291
  114MPD2    H5 1782   0.125   2.743   0.688  0.5794  0.6086  1.0557
  114MPD2    N1 1783   0.240   3.254   0.900 -0.9203 -0.1884  0.0255
  114MPD2    H7 1784   0.191   3.304   0.826 -0.2328 -0.1931 -0.4430
  115TMC2    C1 1785   1.459   1.026  17.444 -0.0419  0.2141  0.5329
  115TMC2    C2 1786   1.587   1.008  17.494 -0.4914  0.4052  0.4939
  115TMC2    C3 1787   1.672   1.114  17.504 -0.3082 -0.4131 -0.5620
  115TMC2    C4 1788   1.416   1.156  17.408 -0.1723  0.5958 -0.1784
  115TMC2    C5 1789   1.507   1.257  17.423  0.1355  0.1019 -0.5534
  115TMC2    C6 1790   1.634   1.234  17.467 -0.2764  0.4508 -0.0104
  115TMC2     C 1791   1.366   0.921  17.439  0.5440 -0.3656 -0.4462
  115TMC2     O 1792   1.419   0.815  17.458 -0.4696  0.4448 -0.0637
  115TMC2     H 1793   1.612   0.908  17.530  0.5675  0.4324 -0.1910
  115TMC2    H1 1794   1.317   1.181  17.374 -0.5566 -1.7273 -0.7949
  115TMC2    H2 1795   1.698   1.318  17.493 -0.2644  0.2196  0.7077
  115TMC2    C7 1796   1.465   1.385  17.368  0.0579 -0.4358  0.2445
  115TMC2    C8 1797   1.816   1.087  17.534 -0.1554 -0.1281 -0.1757
  115TMC2    O1 1798   1.357   1.387  17.316 -0.1704  0.1480 -0.1952
  115TMC2    O2 1799   1.859   1.002  17.613  0.0715  0.6126  0.0935
  115TMC2    O5 1800   1.891   1.176  17.465 -0.5581  0.2673  0.4552
  115TMC2    H5 1801   1.841   1.237  17.407 -0.1950 -1.6779 -1.8612
  116MPD2     C 1802   0.920   0.694  17.505 -0.1650  0.5456  0.4585
  116MPD2    C1 1803   1.029   0.657  17.432 -0.8525  0.2837 -0.9832
  116MPD2    C2 1804   1.129   0.742  17.408 -0.3676 -0.5162 -0.5427
  116MPD2    C3 1805   1.132   0.862  17.476  0.1525 -0.0941  0.8144
  116MPD2    C4 1806   1.027   0.895  17.559 -0.0528  0.3298 -0.4344
  116MPD2    C5 1807   0.920   0.818  17.568 -0.2338  0.4167  0.2620
  116MPD2     H 1808   1.206   0.716  17.336  1.0490  1.2480  0.3221
  116MPD2    H1 1809   1.029   0.993  17.606 -0.9992 -1.5585  3.4826
  116MPD2    H2 1810   0.830   0.635  17.508 -0.0275  0.3454  0.6269
  116MPD2    H3 1811   0.832   0.849  17.623  0.7259 -0.2847  2.2109
  116MPD2     N 1812   1.235   0.958  17.458 -0.0466 -0.3981  0.0745
  116MPD2    H5 1813   1.216   1.051  17.494  3.0314 -0.2353  1.2577
  116MPD2    N1 1814   1.025   0.528  17.373  0.6761 -0.5961  0.5554
  116MPD2    H7 1815   0.943   0.473  17.397 -1.0242  0.4940 -2.7227
  117TMC2    C1 1816   4.671   2.246  14.027  0.2046  0.5397 -0.0545
  117TMC2    C2 1817   0.034   2.161  14.008 -0.2313  0.7534  0.2439
  117TMC2    C3 1818   0.156   2.214  14.034 -0.5167  0.2019 -0.4769
  117TMC2    C4 1819   4.676   2.372  14.082 -0.1026 -0.1021 -0.9227
  117TMC2    C5 1820   0.062   2.413  14.114  0.4206  0.8185  0.0685
  117TMC2    C6 1821   0.172   2.336  14.095 -0.0709  0.7069  0.1213
  117TMC2     C 1822   4.549   2.202  13.966  0.0430 -0.3687 -0.2309
  117TMC2     O 1823   4.539   2.084  13.931 -0.3846  0.4844  0.1674
  117TMC2     H 1824   0.024   2.059  13.973 -1.1811  1.0389 -0.3138
  117TMC2    H1 1825   4.587   2.431  14.104 -1.1536 -2.2637  0.6462
  117TMC2    H2 1826   0.272   2.374  14.113 -0.3932  0.7981  1.7166
  117TMC2    C7 1827   0.091   2.544  14.163  0.6186  0.1831  0.8268
  117TMC2    C8 1828   0.264   2.124  14.043 -0.3829 -0.6363 -0.6421
  117TMC2    O1 1829   0.197   2.594  14.130 -0.3733 -0.5708 -0.6824
  117TMC2    O2 1830   0.356   2.135  14.123 -0.0245 -0.0700  0.3927
  117TMC2    O5 1831   0.243   2.024  13.959 -0.0698  0.2783 -0.1487
  117TMC2    H5 1832   0.164   2.032  13.901 -1.5395  0.2034  1.8386
  118MPD2     C 1833   4.601   2.798  14.315  0.1008  0.2735 -0.1268
  118MPD2    C1 1834   4.723   2.747  14.263 -0.2389  0.1216  0.4883
  118MPD2    C2 1835   0.088   2.839  14.235  0.3259  0.1199 -0.0949
  118MPD2    C3 1836   0.059   2.980  14.243 -0.3726 -0.4869 -0.2621
  118MPD2    C4 1837   4.675   3.022  14.297  1.2137  0.4488 -0.5154
  118MPD2    C5 1838   4.581   2.931  14.330 -0.6173  0.2404  0.4741
  118MPD2     H 1839   0.186   2.810  14.199  0.7330  0.6369  0.5807
  118MPD2    H1 1840   4.639   3.123  14.312  3.2342  1.0931  0.0236
  118MPD2    H2 1841   4.524   2.729  14.345  1.9499 -1.6289  0.2418
  118MPD2    H3 1842   4.478   2.962  14.347 -0.9673  0.5514 -2.2057
  118MPD2     N 1843   0.145   3.083  14.201  0.4994 -0.3250 -0.0834
  118MPD2    H5 1844   0.108   3.177  14.194  2.2188  0.4456  1.3190
  118MPD2    N1 1845   4.729   2.603  14.237 -0.2077  0.1502 -0.0741
  118MPD2    H7 1846   4.654   2.550  14.280  0.2815 -1.9154 -1.7782
  119TMC2    C1 1847   3.027   3.119  13.941  0.0722  0.0781 -0.4046
  119TMC2    C2 1848   3.107   3.074  14.043 -0.1226 -0.2669  0.2911
  119TMC2    C3 1849   3.033   3.019  14.149  0.3141  0.2391  0.4461
  119TMC2    C4 1850   2.888   3.125  13.951 -0.0290  0.1031  0.2083
  119TMC2    C5 1851   2.825   3.077  14.062  0.0123  0.0059  0.0991
  119TMC2    C6 1852   2.898   3.030  14.164  0.1207 -0.4136  0.0243
  119TMC2     C 1853   3.071   3.225  13.858 -0.5213  0.0466 -0.2706
  119TMC2     O 1854   2.991   3.256  13.773 -0.0314 -0.4952 -0.0426
  119TMC2     H 1855   3.214   3.056  14.041  0.3275  2.2619  1.4091
  119TMC2    H1 1856   2.824   3.157  13.869  0.0113 -1.3605 -0.3841
  119TMC2    H2 1857   2.853   3.005  14.259  0.0620  0.3089  0.1874
  119TMC2    C7 1858   2.698   3.135  14.082 -0.0741  0.1150 -0.4000
  119TMC2    C8 1859   3.104   2.958  14.260 -0.6845 -0.5046 -0.3642
  119TMC2    O1 1860   2.693   3.258  14.066  0.2778 -0.1752 -0.0830
  119TMC2    O2 1861   3.226   2.954  14.266 -0.2206  0.1394 -0.3957
  119TMC2    O5 1862   3.022   2.860  14.301 -0.4946 -0.0836 -0.4021
  119TMC2    H5 1863   2.925   2.870  14.286 -0.7931  0.2310  1.6625
  120MPD2     C 1864   3.320   3.670  13.759 -0.0552 -0.8083  0.2324
  120MPD2    C1 1865   3.184   3.636  13.756  0.1197  0.0644 -0.5007
  120MPD2    C2 1866   3.145   3.510  13.801 -0.1094  0.4296 -0.3935
  120MPD2    C3 1867   3.236   3.414  13.843  0.4405 -0.5829 -0.1758
  120MPD2    C4 1868   3.367   3.453  13.855  0.3099 -0.0457 -0.6713
  120MPD2    C5 1869   3.401   3.579  13.810 -0.3757  0.1643 -0.3822
  120MPD2     H 1870   3.042   3.478  13.802  0.5138 -1.4960  1.5720
  120MPD2    H1 1871   3.436   3.381  13.896 -0.2069 -0.3362 -0.3152
  120MPD2    H2 1872   3.359   3.770  13.748 -4.2907  0.8748  0.3797
  120MPD2    H3 1873   3.504   3.611  13.807 -0.0546 -1.0729 -2.0849
  120MPD2     N 1874   3.195   3.285  13.897 -0.0985  0.5290 -0.3607
  120MPD2    H5 1875   3.255   3.239  13.964  0.1633  0.6177 -0.5333
  120MPD2    N1 1876   3.091   3.730  13.705  0.1968  0.1514 -0.0517
  120MPD2    H7 1877   3.124   3.816  13.662  1.1831 -0.2455 -0.1110
  121TMC2    C1 1878   4.075   0.726  14.347  0.0720  0.3549  0.2092
  121TMC2    C2 1879   4.053   0.698  14.483  0.3206 -0.1021  0.0681
  121TMC2    C3 1880   3.926   0.661  14.510  0.2578  1.0663 -0.2138
  121TMC2    C4 1881   3.981   0.714  14.255  0.4219  0.3996 -0.1540
  121TMC2    C5 1882   3.863   0.661  14.289  0.6642 -0.5409  0.0588
  121TMC2    C6 1883   3.835   0.632  14.417 -0.0384  0.7360 -0.0218
  121TMC2     C 1884   4.203   0.787  14.315  0.1353 -0.3389  0.1410
  121TMC2     O 1885   4.273   0.798  14.418  0.4617  0.0303  0.7408
  121TMC2     H 1886   4.133   0.694  14.555 -0.0515  3.4159  0.6397
  121TMC2    H1 1887   4.002   0.741  14.152  0.4544  0.9715  0.0014
  121TMC2    H2 1888   3.737   0.604  14.456 -0.7815  1.7430 -1.1532
  121TMC2    C7 1889   3.749   0.678  14.201 -0.3482  0.0754 -0.2489
  121TMC2    C8 1890   3.912   0.573  14.626 -0.1939 -0.2152  0.4201
  121TMC2    O1 1891   3.758   0.755  14.109 -0.4388 -0.4642 -0.5141
  121TMC2    O2 1892   3.849   0.470  14.612  0.3409  0.3697 -0.7409
  121TMC2    O5 1893   3.915   0.655  14.731 -0.5645 -0.1384  0.7252
  121TMC2    H5 1894   3.939   0.748  14.709 -0.9977 -0.4575 -1.1035
  122MPD2     C 1895   4.477   0.858  14.211 -0.0245 -0.0227  0.2378
  122MPD2    C1 1896   4.364   0.863  14.137 -0.4280  0.3287  0.9954
  122MPD2    C2 1897   4.367   0.904  14.002 -0.0929  0.0035 -0.4220
  122MPD2    C3 1898   4.486   0.938  13.946 -0.1606 -0.4921 -0.1769
  122MPD2    C4 1899   4.601   0.934  14.018  0.2654 -0.3700 -1.5038
  122MPD2    C5 1900   4.591   0.898  14.148 -0.1470 -0.1445 -0.4230
  122MPD2     H 1901   4.274   0.886  13.948 -0.1516  0.8448 -0.5993
  122MPD2    H1 1902   4.692   0.983  13.985 -1.6609  2.3584 -2.7633
  122MPD2    H2 1903   4.482   0.848  14.319 -2.7181  3.8149  0.6892
  122MPD2    H3 1904   4.682   0.900  14.208 -0.5475  2.1105  0.1069
  122MPD2     N 1905   4.496   0.981  13.812 -0.0684 -0.0248  0.0992
  122MPD2    H5 1906   4.591   0.982  13.775 -0.1491 -0.9588 -0.1415
  122MPD2    N1 1907   4.232   0.826  14.186  0.9643 -0.0085 -0.0798
  122MPD2    H7 1908   4.150   0.827  14.126  1.6378  0.4719 -0.9815
  123TMC2    C1 1909   3.286   4.574  10.313 -0.1312  0.1943  0.2872
  123TMC2    C2 1910   3.377   4.659  10.372  0.5915 -0.0002  0.3923
  123TMC2    C3 1911   3.490   4.679  10.296  0.5051  0.9596 -0.9809
  123TMC2    C4 1912   3.320   4.491  10.216 -0.1838 -0.0951  0.2454
  123TMC2    C5 1913   3.428   4.512  10.139  0.1540 -0.2781 -0.1354
  123TMC2    C6 1914   3.513   4.610  10.181  0.1965 -0.0493  0.6486
  123TMC2     C 1915   3.171   4.549  10.403  0.0414  0.3340  0.4572
  123TMC2     O 1916   3.184   4.587  10.521  0.0888 -0.2928  0.5245
  123TMC2     H 1917   3.362   4.726  10.456  0.2168 -0.9131  1.0605
  123TMC2    H1 1918   3.255   4.406  10.199  1.8535 -1.3582 -1.2265
  123TMC2    H2 1919   3.602   4.646  10.131  0.0854 -1.6132 -0.6567
  123TMC2    C7 1920   3.434   4.443  10.009  0.6132  0.4311 -0.7073
  123TMC2    C8 1921   3.601   0.017  10.348  0.7464  0.2471 -0.3424
  123TMC2    O1 1922   3.357   4.352   9.997  0.3261 -0.0824 -0.0388
  123TMC2    O2 1923   3.686   0.077  10.281  0.2391 -0.2206  0.0346
  123TMC2    O5 1924   3.624   4.694  10.468  1.0125 -0.0484 -0.1562
  123TMC2    H5 1925   3.555   4.635  10.505  0.8513 -0.6207 -1.3604
  124MPD2     C 1926   2.751   4.277  10.527  0.1097 -0.0114  0.0145
  124MPD2    C1 1927   2.787   4.252  10.397  0.7711 -0.4203  0.4958
  124MPD2    C2 1928   2.898   4.308  10.341  1.5481  0.1080 -0.0886
  124MPD2    C3 1929   2.965   4.413  10.402 -0.0893  0.9125 -0.4488
  124MPD2    C4 1930   2.916   4.454  10.530  0.3726  0.3231  0.3294
  124MPD2    C5 1931   2.819   4.375  10.591  0.0900 -0.3126 -0.2629
  124MPD2     H 1932   2.938   4.279  10.244  0.7881  0.6628 -0.5743
  124MPD2    H1 1933   2.961   4.527  10.596  2.6402 -0.0526 -0.7753
  124MPD2    H2 1934   2.664   4.234  10.576  0.8964 -0.7118  0.7961
  124MPD2    H3 1935   2.804   4.385  10.698 -1.3555  1.8701 -0.6941
  124MPD2     N 1936   3.078   4.469  10.344 -0.3120  0.4389 -0.2974
  124MPD2    H5 1937   3.099   4.444  10.248  4.2149  1.5690  0.3873
  124MPD2    N1 1938   2.726   4.132  10.345 -0.0340  0.1095  0.3767
  124MPD2    H7 1939   2.672   4.077  10.411  1.0155 -1.1065  0.2215
  125TMC2    C1 1940   0.329   0.798   9.138  0.1791 -0.2020 -0.2908
  125TMC2    C2 1941   0.242   0.710   9.072  0.1216 -0.1479  0.5166
  125TMC2    C3 1942   0.112   0.753   9.068 -0.2477  0.5775 -1.3631
  125TMC2    C4 1943   0.289   0.910   9.198 -0.2333  0.0451 -0.0811
  125TMC2    C5 1944   0.159   0.954   9.167  0.4398  0.2489 -0.6574
  125TMC2    C6 1945   0.069   0.878   9.101  0.6962  0.1177  0.0405
  125TMC2     C 1946   0.468   0.781   9.152  0.0050  0.1668 -0.3076
  125TMC2     O 1947   0.535   0.879   9.178 -0.5223  0.9149 -0.5493
  125TMC2     H 1948   0.274   0.622   9.019  1.0970  0.3205  0.3283
  125TMC2    H1 1949   0.348   0.955   9.276 -1.2036  0.0245  0.6677
  125TMC2    H2 1950   4.712   0.908   9.059 -0.6283  0.4190  3.2238
  125TMC2    C7 1951   0.115   1.086   9.210  0.4239  0.1098  0.1589
  125TMC2    C8 1952   0.017   0.672   8.992  0.1288  0.3034 -0.1474
  125TMC2    O1 1953   0.001   1.117   9.181  0.4055 -0.3655  0.1358
  125TMC2    O2 1954   4.661   0.718   8.930 -0.1711 -0.6684 -0.6045
  125TMC2    O5 1955   0.028   0.536   9.015 -0.1178 -0.5506 -0.0025
  125TMC2    H5 1956   0.095   0.493   9.073  0.3355 -0.1256 -0.2136
  126MPD1     C 1957   0.912   0.528   9.157 -0.3010 -0.2787  0.6610
  126MPD1    C1 1958   0.810   0.437   9.161  0.2187 -0.3403 -0.2225
  126MPD1    C2 1959   0.678   0.477   9.162 -0.3471  1.0299 -0.1084
  126MPD1    C3 1960   0.647   0.610   9.154  0.4073  0.1767 -0.6297
  126MPD1    C4 1961   0.751   0.697   9.124 -0.0036 -0.0566 -0.1130
  126MPD1    C5 1962   0.885   0.661   9.135  0.5969 -0.3585  0.5254
  126MPD1     H 1963   0.599   0.405   9.176 -1.4041  2.0640 -0.6787
  126MPD1    H1 1964   0.737   0.801   9.098 -0.2830 -0.4411 -1.4780
  126MPD1    H2 1965   1.014   0.493   9.151 -0.8395 -1.4079 -1.8497
  126MPD1    H3 1966   0.965   0.733   9.126 -0.6702  0.9046 -0.8034
  126MPD1     N 1967   0.514   0.651   9.142 -0.7390  0.8191 -0.0483
  126MPD1    H5 1968   0.441   0.583   9.124  0.4304  0.0981 -2.0589
  126MPD1    N1 1969   0.841   0.300   9.171  0.0767 -0.3909  0.3481
  126MPD1    H6 1970   0.768   0.237   9.203 -0.5506  1.2266  2.1048
  126MPD1    H7 1971   0.921   0.290   9.233  1.5664 -2.6138 -1.9112
  127TMC2    C1 1972   0.663   4.486   9.919 -0.1337  0.2363 -0.2732
  127TMC2    C2 1973   0.684   4.418  10.034  0.0976 -0.0831 -0.4237
  127TMC2    C3 1974   0.583   4.381  10.108  0.1708 -0.4827  0.4907
  127TMC2    C4 1975   0.535   4.515   9.875 -0.3929  0.0927  0.6895
  127TMC2    C5 1976   0.434   4.456   9.943  0.5446  0.0771 -0.0420
  127TMC2    C6 1977   0.458   4.402  10.072 -0.0820  0.1229  0.0014
  127TMC2     C 1978   0.759   4.592   9.893  0.0226 -0.2005  0.3388
  127TMC2     O 1979   0.835   4.615   9.983 -0.0922 -0.5747  0.4517
  127TMC2     H 1980   0.784   4.401  10.073 -0.0527  0.7679  0.3214
  127TMC2    H1 1981   0.511   4.572   9.786 -2.6940  0.0978  1.3043
  127TMC2    H2 1982   0.376   4.355  10.124  0.5253  0.0319  0.8717
  127TMC2    C7 1983   0.294   4.496   9.914 -0.0632 -0.0098 -0.3545
  127TMC2    C8 1984   0.613   4.317  10.235 -0.0539 -0.5892  0.0467
  127TMC2    O1 1985   0.281   4.596   9.853 -0.0742  0.1399 -0.4797
  127TMC2    O2 1986   0.711   4.244  10.244 -0.2734 -0.0633 -0.2008
  127TMC2    O5 1987   0.503   4.317  10.307  0.2329 -0.0103 -0.1867
  127TMC2    H5 1988   0.437   4.388  10.296  1.4373  1.2737  0.9310
  128MPD2     C 1989   0.739   0.103   9.616 -0.2421 -0.1758 -0.3274
  128MPD2    C1 1990   0.786   0.052   9.739 -0.0357  0.3200 -0.1436
  128MPD2    C2 1991   0.852   0.134   9.826 -0.9351  0.2207 -0.8099
  128MPD2    C3 1992   0.891   0.258   9.790 -0.1178 -0.7542 -0.0148
  128MPD2    C4 1993   0.860   0.299   9.663  0.2898  0.0183  0.2098
  128MPD2    C5 1994   0.787   0.223   9.576  0.2667 -0.3043 -0.1418
  128MPD2     H 1995   0.884   0.094   9.922  1.4592 -1.1112 -2.1769
  128MPD2    H1 1996   0.862   0.401   9.625 -1.7302 -1.0088 -2.6349
  128MPD2    H2 1997   0.672   0.050   9.549 -0.3158 -0.5654  0.0563
  128MPD2    H3 1998   0.775   0.261   9.475 -0.3293 -1.3714 -0.4784
  128MPD2     N 1999   0.955   0.347   9.883 -0.0239 -0.1097  0.3927
  128MPD2    H5 2000   1.007   0.300   9.958 -3.2761 -2.6557  1.0478
  128MPD2    N1 2001   0.731   4.668   9.781  0.2809  0.3156  0.7330
  128MPD2    H7 2002   0.666   4.617   9.721  2.5294 -1.3225 -0.3022
  129TMC2    C1 2003   2.930   4.334   1.508 -0.4938 -0.5812 -0.1321
  129TMC2    C2 2004   3.051   4.267   1.513  0.0704  0.9680  0.3441
  129TMC2    C3 2005   3.051   4.141   1.574 -0.4669 -1.2586  1.2812
  129TMC2    C4 2006   2.814   4.278   1.550 -0.0813 -0.1491  0.8450
  129TMC2    C5 2007   2.821   4.157   1.612  0.3988  0.5182  0.0954
  129TMC2    C6 2008   2.936   4.087   1.630  0.1017  0.6718  0.1794
  129TMC2     C 2009   2.915   4.457   1.430  0.5587  0.2983 -0.0937
  129TMC2     O 2010   2.815   4.526   1.437 -0.5277 -0.2883 -0.1373
  129TMC2     H 2011   3.146   4.314   1.489 -0.4848  1.3120 -1.1993
  129TMC2    H1 2012   2.724   4.339   1.553  0.9886  1.4710 -0.3929
  129TMC2    H2 2013   2.943   3.983   1.659 -0.4946  0.8181  0.8565
  129TMC2    C7 2014   2.695   4.078   1.626  0.9928  0.4722  0.2634
  129TMC2    C8 2015   3.134   4.042   1.503  0.2977 -0.7059  0.1283
  129TMC2    O1 2016   2.603   4.111   1.553  0.3610  0.2268  0.2615
  129TMC2    O2 2017   3.087   3.937   1.460  0.2405 -0.2065 -0.0340
  129TMC2    O5 2018   3.244   4.108   1.460  0.1493  0.6116 -0.1902
  129TMC2    H5 2019   3.253   4.178   1.528  2.7186 -0.5378  0.6460
  130MPD2     C 2020   2.944   4.640   1.200  0.0824  0.0574 -0.8367
  130MPD2    C1 2021   3.043   4.549   1.233  0.0186  0.0274 -0.3393
  130MPD2    C2 2022   3.156   4.537   1.154 -0.0169 -0.2625  0.3914
  130MPD2    C3 2023   3.162   4.618   1.036 -0.3157 -0.5926  0.0726
  130MPD2    C4 2024   3.060   4.708   1.007  0.1544  0.0820  0.3352
  130MPD2    C5 2025   2.952   4.720   1.086 -0.1965  0.1953 -0.2385
  130MPD2     H 2026   3.239   4.470   1.175  0.3746 -0.2249 -1.0488
  130MPD2    H1 2027   3.077   0.052   0.936 -0.1786  0.1101  0.2890
  130MPD2    H2 2028   2.853   4.650   1.257  0.7842  0.8708  0.1636
  130MPD2    H3 2029   2.870   0.048   1.058  1.0160  1.1951 -1.4575
  130MPD2     N 2030   3.275   4.608   0.949 -0.2235 -0.1703 -0.3810
  130MPD2    H5 2031   3.343   4.539   0.978  0.3824  0.8673  0.7178
  130MPD2    N1 2032   3.024   4.462   1.343 -0.6104  0.1638  0.1463
  130MPD2    H7 2033   3.095   4.390   1.353 -1.8874 -1.1751 -0.3737
  131TMC2    C1 2034   2.815   4.174   9.264  0.3881 -0.3785  0.5472
  131TMC2    C2 2035   2.755   4.131   9.148 -0.2248 -0.8482 -0.2179
  131TMC2    C3 2036   2.712   4.228   9.061 -0.3624 -0.5615 -0.1944
  131TMC2    C4 2037   2.835   4.308   9.289 -0.2258 -0.5242 -0.0400
  131TMC2    C5 2038   2.789   4.402   9.205 -0.6901 -0.1401  0.0153
  131TMC2    C6 2039   2.725   4.361   9.084  0.4656  0.1216 -0.5089
  131TMC2     C 2040   2.826   4.079   9.382 -0.1985 -0.1664 -0.2777
  131TMC2     O 2041   2.873   4.127   9.484 -0.1434  0.0228  0.4574
  131TMC2     H 2042   2.747   4.026   9.122  1.6537 -0.7814 -1.0736
  131TMC2    H1 2043   2.887   4.334   9.380 -0.5719 -1.2670  0.3660
  131TMC2    H2 2044   2.679   4.428   9.012 -0.9379  1.0435  1.2389
  131TMC2    C7 2045   2.774   4.546   9.246 -0.2198 -0.9407  0.3910
  131TMC2    C8 2046   2.588   4.190   8.988  0.7300 -0.4246  0.3441
  131TMC2    O1 2047   2.697   4.612   9.178 -0.0245  0.6711  0.3882
  131TMC2    O2 2048   2.527   4.084   9.011  0.5653  0.2028 -0.0643
  131TMC2    O5 2049   2.539   4.289   8.909  0.3608 -0.7549 -0.6506
  131TMC2    H5 2050   2.610   4.339   8.863 -0.4972  0.6927 -0.4024
  132MPD2     C 2051   2.643   3.752   9.404  0.2113  0.6149 -0.5849
  132MPD2    C1 2052   2.722   3.855   9.454  0.2123 -0.3664  0.2943
  132MPD2    C2 2053   2.753   3.865   9.589  0.9846  0.7312 -0.2718
  132MPD2    C3 2054   2.711   3.769   9.677  0.3631  0.1395 -0.1759
  132MPD2    C4 2055   2.642   3.665   9.628  0.1163 -0.2864  0.6729
  132MPD2    C5 2056   2.604   3.658   9.491  0.1926 -0.4801  0.8769
  132MPD2     H 2057   2.825   3.938   9.624  2.7546 -0.6297 -1.0916
  132MPD2    H1 2058   2.576   3.610   9.693  0.4609 -2.4723 -0.8527
  132MPD2    H2 2059   2.616   3.755   9.299  0.8965  1.2513 -0.7390
  132MPD2    H3 2060   2.532   3.585   9.457  0.3713 -1.1454  1.9330
  132MPD2     N 2061   2.719   3.801   9.812  0.5492  0.0183  0.1058
  132MPD2    H5 2062   2.771   3.885   9.837 -0.1462  0.3211  0.5482
  132MPD2    N1 2063   2.772   3.951   9.356 -0.6135  1.1318  0.1476
  132MPD2    H7 2064   2.741   3.939   9.260 -3.1457 -0.9146  1.2439
  133TMC2    C1 2065   2.862   0.917   9.498  0.1195  0.1682 -0.5814
  133TMC2    C2 2066   2.929   1.037   9.489  0.0271 -0.1775  0.2593
  133TMC2    C3 2067   3.063   1.029   9.486  0.1202  0.1562 -0.8038
  133TMC2    C4 2068   2.922   0.793   9.509 -0.4136 -0.6664  0.3076
  133TMC2    C5 2069   3.063   0.790   9.506  0.4147  0.1894  0.1443
  133TMC2    C6 2070   3.132   0.907   9.495 -0.1039 -0.0247  0.2364
  133TMC2     C 2071   2.717   0.913   9.515 -0.6869  0.1531 -0.2128
  133TMC2     O 2072   2.656   0.805   9.513 -0.4608  0.1581 -0.0109
  133TMC2     H 2073   2.889   1.134   9.466  1.4363  0.6587  1.3451
  133TMC2    H1 2074   2.865   0.702   9.524 -4.3328  2.0632  2.1536
  133TMC2    H2 2075   3.240   0.909   9.499 -0.1656 -1.2355  2.1357
  133TMC2    C7 2076   3.125   0.658   9.475 -0.5969  0.0407  0.2425
  133TMC2    C8 2077   3.139   1.150   9.508 -0.0842 -0.1032  0.1476
  133TMC2    O1 2078   3.057   0.554   9.489  0.4889  0.7874  0.0968
  133TMC2    O2 2079   3.259   1.153   9.468  0.3313  0.0357 -0.7089
  133TMC2    O5 2080   3.084   1.221   9.607  0.0549  0.2008 -0.1648
  133TMC2    H5 2081   3.000   1.184   9.642 -0.1752 -0.8386 -1.8105
  134MPD2     C 2082   2.487   1.208   9.529  0.1187  0.4915  0.7893
  134MPD2    C1 2083   2.525   1.072   9.545 -0.8188 -0.1296  0.3517
  134MPD2    C2 2084   2.432   0.974   9.565  0.2194 -0.6080 -0.2166
  134MPD2    C3 2085   2.302   1.003   9.552  0.0994 -0.6316  0.3706
  134MPD2    C4 2086   2.263   1.132   9.530 -0.6427  0.8392  0.5884
  134MPD2    C5 2087   2.353   1.234   9.525  0.0155 -0.6388  0.5888
  134MPD2     H 2088   2.465   0.874   9.590  1.0826 -0.3367 -0.2583
  134MPD2    H1 2089   2.161   1.170   9.528 -0.1243  2.2854  1.8912
  134MPD2    H2 2090   2.563   1.284   9.517  0.3022  0.2293  0.2988
  134MPD2    H3 2091   2.323   1.338   9.513  2.2815 -0.0799 -0.2699
  134MPD2     N 2092   2.209   0.899   9.548  0.4035 -0.1048  0.8369
  134MPD2    H5 2093   2.125   0.928   9.500  0.9138 -1.8791 -1.1204
  134MPD2    N1 2094   2.663   1.042   9.532 -0.5049 -0.6451 -1.2288
  134MPD2    H7 2095   2.723   1.123   9.518 -0.4257 -0.4506  0.3189
  135TMC2    C1 2096   4.642   2.128   9.764  0.2504  0.4230  0.0997
  135TMC2    C2 2097   4.573   2.195   9.860  0.5416 -0.2722 -0.2159
  135TMC2    C3 2098   4.450   2.139   9.896 -0.2814  0.7334 -0.5176
  135TMC2    C4 2099   4.597   2.005   9.721  0.7675  0.4302 -0.5679
  135TMC2    C5 2100   4.472   1.957   9.756 -0.1142  0.3685  0.1240
  135TMC2    C6 2101   4.398   2.015   9.859 -0.0172 -0.1261  0.2747
  135TMC2     C 2102   0.022   2.195   9.698 -0.3648  0.2891 -0.1477
  135TMC2     O 2103   0.070   2.294   9.750 -0.1885  0.2592 -0.0985
  135TMC2     H 2104   4.603   2.293   9.895  0.2748  0.6448 -2.4938
  135TMC2    H1 2105   4.648   1.951   9.642  1.3006  0.6043 -0.3359
  135TMC2    H2 2106   4.305   1.971   9.892 -0.5837  0.6987 -0.2258
  135TMC2    C7 2107   4.433   1.824   9.701 -0.2362 -0.0832 -0.5234
  135TMC2    C8 2108   4.370   2.227   9.981 -0.0469  0.4184 -0.1171
  135TMC2    O1 2109   4.520   1.778   9.629  0.5421 -0.0971 -0.9629
  135TMC2    O2 2110   4.396   2.346   9.992 -0.0282 -0.1718 -0.8147
  135TMC2    O5 2111   4.329   2.146  10.091 -0.0743 -0.3390 -0.4147
  135TMC2    H5 2112   4.341   2.050  10.077 -1.6704 -0.4861 -0.7475
  136MPD2     C 2113   0.214   2.277   9.488 -0.1286  0.2549 -0.0671
  136MPD2    C1 2114   0.155   2.154   9.488  0.1493 -0.2157 -0.4759
  136MPD2    C2 2115   0.193   2.051   9.400  0.7169  0.1488  0.1117
  136MPD2    C3 2116   0.276   2.080   9.302  0.3212 -0.1685  0.0017
  136MPD2    C4 2117   0.339   2.197   9.301  0.1355 -0.2450 -0.1690
  136MPD2    C5 2118   0.302   2.297   9.385 -0.5736 -0.3885 -0.2210
  136MPD2     H 2119   0.155   1.950   9.413  1.8368 -0.3276 -0.2544
  136MPD2    H1 2120   0.415   2.214   9.226 -0.7730 -4.9718 -2.1506
  136MPD2    H2 2121   0.203   2.352   9.566  0.4846 -0.2217  0.4777
  136MPD2    H3 2122   0.356   2.390   9.390  0.3162 -0.9695  1.0583
  136MPD2     N 2123   0.328   1.980   9.220  0.8962  0.0721 -0.7037
  136MPD2    H5 2124   0.402   2.005   9.156  0.7713 -2.2301 -1.7604
  136MPD2    N1 2125   0.063   2.120   9.590 -0.0436 -0.4321 -0.3120
  136MPD2    H7 2126   0.025   2.029   9.568 -1.5151 -0.1650  1.1664
  137TMC2    C1 2127   3.966   0.006  10.595  0.1866 -0.3555  0.0624
  137TMC2    C2 2128   4.075   4.720  10.676  0.3145  0.6127 -0.7957
  137TMC2    C3 2129   4.177   4.644  10.621 -0.0852  0.3454 -0.4650
  137TMC2    C4 2130   3.961   4.712  10.462 -0.5261  0.6129  0.4826
  137TMC2    C5 2131   4.059   4.624  10.415  0.7637 -0.1686  0.3101
  137TMC2    C6 2132   4.171   4.601  10.492  0.2944  0.1936 -0.4949
  137TMC2     C 2133   3.913   0.142  10.625 -0.2993  0.2860  0.0021
  137TMC2     O 2134   3.960   0.196  10.725  0.1432  0.0655  0.3862
  137TMC2     H 2135   4.071   0.016  10.778 -1.1313  3.4544 -1.7936
  137TMC2    H1 2136   3.869   4.719  10.404 -1.4140  0.2614  1.8605
  137TMC2    H2 2137   4.257   4.557  10.442  2.5730  1.9359  1.8797
  137TMC2    C7 2138   4.077   4.622  10.269 -0.0922 -0.0274  0.0656
  137TMC2    C8 2139   4.310   4.647  10.680  0.7512  0.3314  0.0020
  137TMC2    O1 2140   4.182   4.579  10.225  0.0962 -0.2123 -0.1675
  137TMC2    O2 2141   4.399   4.567  10.652  0.3061  0.3722 -0.1386
  137TMC2    O5 2142   4.319   0.012  10.763  0.2379  0.0275 -0.4119
  137TMC2    H5 2143   4.272   0.094  10.738 -0.7239 -0.9420 -1.7850
  138MPD2     C 2144   3.616   0.333  10.523  0.3159  0.7477  0.5453
  138MPD2    C1 2145   3.743   0.318  10.573 -0.1014 -0.1623 -0.3279
  138MPD2    C2 2146   3.810   0.437  10.615  0.5209  0.8171 -0.0749
  138MPD2    C3 2147   3.748   0.557  10.615  0.3648  0.8271 -0.5374
  138MPD2    C4 2148   3.617   0.566  10.577 -0.4441 -0.0380 -0.2406
  138MPD2    C5 2149   3.554   0.452  10.530  0.3194  0.7071  0.3954
  138MPD2     H 2150   3.915   0.435  10.641 -0.5080 -0.7259  3.9088
  138MPD2    H1 2151   3.565   0.660  10.563 -1.4605 -0.2816  1.7952
  138MPD2    H2 2152   3.562   0.250  10.480  0.3705  1.1487 -0.3015
  138MPD2    H3 2153   3.453   0.450  10.491  0.8620  0.9689 -1.0294
  138MPD2     N 2154   3.823   0.663  10.654  0.2760  0.2262  0.1625
  138MPD2    H5 2155   3.924   0.650  10.650  0.0705 -2.2111  2.4000
  138MPD2    N1 2156   3.801   0.186  10.562 -0.3708  0.2955 -0.3051
  138MPD2    H7 2157   3.747   0.119  10.509 -1.2727  2.3199 -1.9507
  139TMC2    C1 2158   4.519   3.466  13.783  0.0485 -1.0344  1.1219
  139TMC2    C2 2159   4.634   3.529  13.747 -0.2748  0.1377  0.0626
  139TMC2    C3 2160   4.675   3.648  13.794 -0.1965  0.5939 -0.1255
  139TMC2    C4 2161   4.437   3.522  13.880  0.8119  0.4911  0.5350
  139TMC2    C5 2162   4.470   3.647  13.925 -0.0679  0.3494  0.6019
  139TMC2    C6 2163   4.591   3.711  13.885 -0.0813 -0.5549 -0.1199
  139TMC2     C 2164   4.525   3.322  13.764 -0.0158 -0.6589  0.6781
  139TMC2     O 2165   4.579   3.280  13.663 -0.4750 -0.0377 -0.0573
  139TMC2     H 2166   4.696   3.472  13.677 -1.4806 -0.8278 -0.2196
  139TMC2    H1 2167   4.338   3.482  13.902  0.1408  1.8177 -0.0327
  139TMC2    H2 2168   4.594   3.812  13.926  1.5810 -0.4599 -0.4782
  139TMC2    C7 2169   4.372   3.708  14.017  0.0112 -0.0010  0.4299
  139TMC2    C8 2170   0.056   3.709  13.732 -0.2840 -0.0685 -0.3717
  139TMC2    O1 2171   4.257   3.703  13.980 -0.6677  0.1961  0.0254
  139TMC2    O2 2172   0.101   3.653  13.633 -1.0201  0.1993  0.2149
  139TMC2    O5 2173   0.013   3.840  13.723  0.3155 -0.1485 -0.0550
  139TMC2    H5 2174   4.734   3.871  13.814  0.3976 -3.0567  0.9365
  140MPD2     C 2175   4.421   3.052  14.005  0.2778  0.1359  0.4873
  140MPD2    C1 2176   4.479   3.108  13.886  0.3758 -0.1740 -0.9479
  140MPD2    C2 2177   4.542   3.022  13.797 -0.2795  0.4470 -0.0451
  140MPD2    C3 2178   4.555   2.887  13.825 -0.0059 -0.0184  0.0436
  140MPD2    C4 2179   4.508   2.832  13.942  0.2063  0.2088  0.5608
  140MPD2    C5 2180   4.434   2.914  14.027 -0.2616  0.3154  0.3055
  140MPD2     H 2181   4.595   3.051  13.707 -0.6553 -0.7885 -0.6659
  140MPD2    H1 2182   4.532   2.735  13.983  1.3643 -0.0832 -0.8113
  140MPD2    H2 2183   4.387   3.123  14.080  0.1000 -0.1342  0.6643
  140MPD2    H3 2184   4.406   2.874  14.123 -0.7504  1.1250  0.5013
  140MPD2     N 2185   4.631   2.812  13.728 -0.3877  0.3369  0.1120
  140MPD2    H5 2186   4.670   2.850  13.643 -0.5583  1.3307  0.4663
  140MPD2    N1 2187   4.461   3.247  13.860 -0.5578 -0.2618 -0.4636
  140MPD2    H7 2188   4.407   3.298  13.929 -1.2302 -1.3162 -0.2157
  141TMC2    C1 2189   4.698   0.545  14.394  0.2039 -0.0741 -0.1257
  141TMC2    C2 2190   4.707   0.428  14.458 -0.0698 -0.2112 -0.2098
  141TMC2    C3 2191   0.061   0.426  14.562  0.0254 -1.0812  0.4839
  141TMC2    C4 2192   0.058   0.643  14.406 -1.1534  0.7094  0.3988
  141TMC2    C5 2193   0.146   0.633  14.510 -0.9399  0.2994  0.3075
  141TMC2    C6 2194   0.139   0.532  14.594  0.2303 -0.2542 -0.3648
  141TMC2     C 2195   4.636   0.548  14.258 -1.0400  0.6172  0.1836
  141TMC2     O 2196   4.712   0.563  14.161 -0.4104 -0.1939  0.0239
  141TMC2     H 2197   4.655   0.339  14.424 -2.8199  1.2957  0.1295
  141TMC2    H1 2198   0.069   0.723  14.333 -0.1336  1.1393  1.0266
  141TMC2    H2 2199   0.196   0.522  14.686 -0.7682  0.7546  0.3728
  141TMC2    C7 2200   0.226   0.751  14.532  0.4690 -0.3173  0.1646
  141TMC2    C8 2201   0.093   0.295  14.609 -0.0778  0.5685 -0.7985
  141TMC2    O1 2202   0.179   0.861  14.503 -0.1510  0.7004  0.0390
  141TMC2    O2 2203   0.022   0.199  14.586 -0.0680  0.4902 -0.2814
  141TMC2    O5 2204   0.223   0.287  14.582 -0.1132  0.0817  0.1645
  141TMC2    H5 2205   0.273   0.372  14.583  2.0790 -1.2348  1.1347
  142TMC2    C1 2206   3.136   3.818   9.508  0.3816  0.0577 -0.5916
  142TMC2    C2 2207   3.127   3.841   9.371 -0.1837 -0.3767 -0.1168
  142TMC2    C3 2208   3.182   3.956   9.320 -0.2602 -0.7232  0.2259
  142TMC2    C4 2209   3.187   3.916   9.585 -0.5459 -0.6379 -0.1725
  142TMC2    C5 2210   3.235   4.029   9.527 -0.3008  0.0140 -0.6346
  142TMC2    C6 2211   3.224   4.058   9.399 -0.0136 -0.0116 -0.1664
  142TMC2     C 2212   3.082   3.690   9.555  0.0692 -0.6423  0.1054
  142TMC2     O 2213   3.059   3.605   9.469  0.1962 -0.6779 -0.2218
  142TMC2     H 2214   3.085   3.772   9.299 -1.3061  0.3503 -0.1634
  142TMC2    H1 2215   3.217   3.884   9.684 -0.5237  3.5068  1.1785
  142TMC2    H2 2216   3.250   4.154   9.356 -1.6378 -0.5526 -2.3951
  142TMC2    C7 2217   3.310   4.114   9.617  0.1076  0.1424  0.2355
  142TMC2    C8 2218   3.135   3.989   9.185 -0.4869 -0.0884  0.6262
  142TMC2    O1 2219   3.276   4.110   9.734  0.0332 -0.0485  0.1346
  142TMC2    O2 2220   3.117   4.105   9.150  0.4038  0.4221 -0.0944
  142TMC2    O5 2221   3.150   3.875   9.111  0.0466 -0.3486 -1.3037
  142TMC2    H5 2222   3.194   3.806   9.165  2.2572  1.4928 -0.7685
  143MPD2     C 2223   2.998   3.392   9.957 -0.0976  0.3322  0.0333
  143MPD2    C1 2224   3.037   3.368   9.825  0.4521  0.6475  0.0909
  143MPD2    C2 2225   3.046   3.474   9.730 -0.3660 -1.3807  0.7061
  143MPD2    C3 2226   3.028   3.598   9.774 -0.2782  0.0405 -0.2966
  143MPD2    C4 2227   3.000   3.619   9.909  0.3752 -0.6241  0.1629
  143MPD2    C5 2228   2.978   3.522   9.999  0.2179 -0.1235 -0.5039
  143MPD2     H 2229   3.064   3.455   9.625 -2.2090 -0.1324  0.1578
  143MPD2    H1 2230   2.986   3.719   9.948  0.7689  0.0142 -1.3187
  143MPD2    H2 2231   2.986   3.302  10.017  0.9363 -0.0240 -0.2801
  143MPD2    H3 2232   2.950   3.543  10.102  1.5443  2.4930 -0.6810
  143MPD2     N 2233   3.040   3.708   9.685  0.5154 -0.5562  0.3252
  143MPD2    H5 2234   3.042   3.806   9.711  0.0206 -0.8055  1.3212
  143MPD2    N1 2235   3.047   3.230   9.780  0.1950 -0.2417 -0.0985
  143MPD2    H7 2236   3.025   3.158   9.848  0.2272 -0.3713 -0.2240
  144TMC2    C1 2237   0.514   2.367   1.045 -0.0585 -0.7569 -0.3279
  144TMC2    C2 2238   0.462   2.283   1.135 -0.5890 -0.1021 -0.0761
  144TMC2    C3 2239   0.513   2.275   1.258 -0.1822 -0.3679  0.3220
  144TMC2    C4 2240   0.628   2.436   1.071 -0.4855  0.4968 -0.0353
  144TMC2    C5 2241   0.686   2.418   1.201  0.3494 -0.1601 -0.3296
  144TMC2    C6 2242   0.625   2.340   1.300 -0.1442  0.0746  0.0378
  144TMC2     C 2243   0.442   2.372   0.922 -0.3310 -0.1193 -0.0506
  144TMC2     O 2244   0.382   2.271   0.896 -0.2477 -0.2091  0.1140
  144TMC2     H 2245   0.366   2.237   1.116 -0.6315 -0.3386  0.7226
  144TMC2    H1 2246   0.666   2.512   1.004  1.9392  0.0919  0.9106
  144TMC2    H2 2247   0.653   2.349   1.405  0.8203 -1.1888 -0.1060
  144TMC2    C7 2248   0.790   2.511   1.240  0.0532 -0.0954 -0.1314
  144TMC2    C8 2249   0.443   2.191   1.355  0.3367  0.3994  0.2239
  144TMC2    O1 2250   0.820   2.604   1.164  0.3701  0.7988 -0.1844
  144TMC2    O2 2251   0.340   2.134   1.337  0.1262  0.0891  0.0858
  144TMC2    O5 2252   0.549   2.126   1.415 -0.4702 -0.5967 -0.3781
  144TMC2    H5 2253   0.638   2.159   1.389 -0.6276  0.6579  0.6742
  145MPD2     C 2254   0.371   2.547   0.454 -0.2709 -0.5434 -0.0589
  145MPD2    C1 2255   0.355   2.421   0.505 -0.1007 -0.4869  0.3219
  145MPD2    C2 2256   0.379   2.405   0.637 -0.6836  0.2830  0.6024
  145MPD2    C3 2257   0.421   2.506   0.715  0.2370  0.3305  0.7535
  145MPD2    C4 2258   0.422   2.633   0.673 -0.2210 -0.1460 -0.2841
  145MPD2    C5 2259   0.393   2.647   0.540 -0.2566 -0.7125  0.4475
  145MPD2     H 2260   0.373   2.306   0.682  1.7315 -0.6567 -1.1244
  145MPD2    H1 2261   0.440   2.720   0.734  0.2977 -1.3934  1.3230
  145MPD2    H2 2262   0.346   2.569   0.351  0.8240  0.7888 -0.0398
  145MPD2    H3 2263   0.391   2.748   0.500  1.1350 -0.9011 -0.0991
  145MPD2     N 2264   0.458   2.488   0.846  0.6152  0.1314  0.2972
  145MPD2    H5 2265   0.492   2.567   0.900 -0.9125  1.9824 -1.4487
  145MPD2    N1 2266   0.326   2.307   0.432  0.1974  0.6537  0.4241
  145MPD2    H7 2267   0.332   2.216   0.476  0.9590  1.3650  1.7703
  146TMC2    C1 2268   2.395   0.960  12.208  0.9083 -0.2622  0.3610
  146TMC2    C2 2269   2.347   0.951  12.080  0.4592 -0.7619  0.3296
  146TMC2    C3 2270   2.431   0.890  11.993  0.0776 -0.2472 -0.1967
  146TMC2    C4 2271   2.507   0.896  12.256  0.7487  0.1558  0.0367
  146TMC2    C5 2272   2.576   0.822  12.160 -0.6039 -0.0115 -0.2979
  146TMC2    C6 2273   2.541   0.824  12.030  0.2973  0.5321  0.2812
  146TMC2     C 2274   2.318   1.039  12.304  0.1051  0.2476  0.1964
  146TMC2     O 2275   2.238   1.114  12.255 -0.3341  0.4111  0.2537
  146TMC2     H 2276   2.262   1.010  12.049  1.0060 -0.5564 -0.7794
  146TMC2    H1 2277   2.538   0.888  12.359  1.0297 -0.7599 -0.1161
  146TMC2    H2 2278   2.600   0.775  11.954  1.3678  0.4521  1.1621
  146TMC2    C7 2279   2.711   0.796  12.176  0.2608  0.2514  0.5120
  146TMC2    C8 2280   2.388   0.881  11.857  0.2548 -0.0426  0.3445
  146TMC2    O1 2281   2.790   0.838  12.093 -0.0184  0.4922 -0.1862
  146TMC2    O2 2282   2.421   0.783  11.787  0.7087  0.1907 -0.5014
  146TMC2    O5 2283   2.397   1.007  11.814 -0.4006 -0.3973  0.0265
  146TMC2    H5 2284   2.376   1.077  11.879 -0.2774 -0.1585 -0.1927
  147MPD2     C 2285   3.107   0.704  12.502 -0.3016 -0.5487  0.1095
  147MPD2    C1 2286   2.985   0.726  12.569 -0.0199  1.3992  0.1651
  147MPD2    C2 2287   2.865   0.731  12.501  0.3088 -0.2803 -0.2750
  147MPD2    C3 2288   2.859   0.738  12.363 -0.4371 -0.1103  0.1543
  147MPD2    C4 2289   2.984   0.740  12.301 -0.2289  0.6228  0.7438
  147MPD2    C5 2290   3.099   0.710  12.367  0.5991  0.1520  0.2369
  147MPD2     H 2291   2.773   0.736  12.558  0.8933  0.0037  0.6502
  147MPD2    H1 2292   3.000   0.750  12.194  1.0809 -0.2417  0.8597
  147MPD2    H2 2293   3.197   0.700  12.562 -0.0173 -1.1243 -0.3495
  147MPD2    H3 2294   3.190   0.708  12.309  0.1875 -3.4218 -0.2661
  147MPD2     N 2295   2.736   0.765  12.305 -0.0494 -0.1650 -0.3072
  147MPD2    H5 2296   2.654   0.736  12.358 -0.5237  1.9356  0.0930
  147MPD2    N1 2297   2.990   0.712  12.707 -0.7481  0.5612  0.5668
  147MPD2    H7 2298   3.081   0.708  12.752 -0.9540 -0.6895  0.8783
  148TMC2    C1 2299   2.391   0.040  10.588 -0.2314 -0.1292  0.5378
  148TMC2    C2 2300   2.506   0.097  10.635  0.2444 -0.2555  0.9112
  148TMC2    C3 2301   2.607   0.018  10.693 -0.2759  0.1050 -0.2733
  148TMC2    C4 2302   2.368   4.644  10.611 -0.4306  0.6305  0.7275
  148TMC2    C5 2303   2.472   4.570  10.659  0.3228 -0.0867 -0.0986
  148TMC2    C6 2304   2.592   4.623  10.695  0.5377 -0.3745 -0.5043
  148TMC2     C 2305   2.292   0.115  10.512  0.4804 -0.0369  0.3633
  148TMC2     O 2306   2.292   0.234  10.546  0.0676 -0.1128  0.5820
  148TMC2     H 2307   2.520   0.202  10.614 -0.0642 -0.4115 -0.0761
  148TMC2    H1 2308   2.276   4.591  10.590  0.3667 -0.5798  0.3202
  148TMC2    H2 2309   2.669   4.556  10.733 -0.6563 -1.1088  0.6357
  148TMC2    C7 2310   2.455   4.426  10.671  0.3927 -0.6846 -0.6522
  148TMC2    C8 2311   2.746   0.074  10.709  0.0614 -0.0680 -0.1317
  148TMC2    O1 2312   2.404   4.368  10.572  0.4260  0.4878 -0.0764
  148TMC2    O2 2313   2.841   0.017  10.766 -0.2021  0.1231 -0.3343
  148TMC2    O5 2314   2.746   0.172  10.619  0.1869 -0.5090 -0.3136
  148TMC2    H5 2315   2.665   0.190  10.568 -0.8143 -1.3699  0.9788
  149MPD2     C 2316   2.071   0.230  10.353 -0.0015  0.1822  0.2253
  149MPD2    C1 2317   2.124   0.099  10.337 -0.1709 -0.1608  0.5323
  149MPD2    C2 2318   2.075   0.029  10.229 -0.3082  0.1677  0.4664
  149MPD2    C3 2319   1.982   0.065  10.136  0.3983  0.3660  0.3034
  149MPD2    C4 2320   1.938   0.199  10.150  0.4399 -0.1361 -0.4719
  149MPD2    C5 2321   1.977   0.272  10.260 -0.1379  0.4047 -0.1783
  149MPD2     H 2322   2.104   4.662  10.227  2.3792  0.9004  0.3157
  149MPD2    H1 2323   1.852   0.232  10.092 -1.0004 -1.3040  0.9709
  149MPD2    H2 2324   2.094   0.299  10.434  0.0152  0.2720  0.1442
  149MPD2    H3 2325   1.948   0.377  10.258 -1.6096 -0.0134 -0.5897
  149MPD2     N 2326   1.925   4.724  10.039  0.0510 -0.2440 -0.3698
  149MPD2    H5 2327   1.848   0.027   9.986  1.7451  1.5868 -1.4161
  149MPD2    N1 2328   2.218   0.042  10.422  0.4383  0.0299  0.6714
  149MPD2    H7 2329   2.251   4.686  10.399 -2.5872 -0.2327 -2.6452
  150TMC2    C1 2330   3.935   4.009  12.397 -0.6477  0.5375 -0.2683
  150TMC2    C2 2331   4.024   4.003  12.291 -0.2027  0.0634  0.6223
  150TMC2    C3 2332   4.148   3.956  12.320  0.3539  0.3783  0.2253
  150TMC2    C4 2333   3.972   3.956  12.519 -0.6127 -0.3812  0.2729
  150TMC2    C5 2334   4.088   3.892  12.538 -0.6200  0.1354 -0.5363
  150TMC2    C6 2335   4.184   3.896  12.443  0.0848  0.4881  0.8111
  150TMC2     C 2336   3.792   4.015  12.378  0.3259 -1.1307  0.6729
  150TMC2     O 2337   3.730   4.043  12.480 -0.2908 -0.3249  0.1027
  150TMC2     H 2338   3.997   4.041  12.193  1.5160 -0.5305 -0.0811
  150TMC2    H1 2339   3.906   3.953  12.605 -0.4890  2.4808  0.4435
  150TMC2    H2 2340   4.286   3.861  12.455  0.1004  0.2634  0.0034
  150TMC2    C7 2341   4.129   3.867  12.677 -0.8066  0.2253 -0.0833
  150TMC2    C8 2342   4.253   3.970  12.221 -0.4603 -0.8745  0.5360
  150TMC2    O1 2343   4.054   3.902  12.767 -0.0766  0.6704  0.6238
  150TMC2    O2 2344   4.219   4.004  12.110 -0.2288  0.2688 -0.2258
  150TMC2    O5 2345   4.358   4.037  12.284  0.1045  0.2581  0.6227
  150TMC2    H5 2346   4.341   4.050  12.380  0.3720  1.7381  0.4653
  151MPD2     C 2347   3.350   3.914  12.133 -0.4555  0.1254 -0.6803
  151MPD2    C1 2348   3.451   3.933  12.040 -0.2541 -0.7576 -0.7033
  151MPD2    C2 2349   3.576   3.965  12.087  0.0639 -0.2161  0.3493
  151MPD2    C3 2350   3.603   3.990  12.222  0.4353 -0.3667  0.0044
  151MPD2    C4 2351   3.499   3.983  12.314  0.5297 -0.9171 -0.0008
  151MPD2    C5 2352   3.378   3.935  12.265 -0.3752  0.0476 -0.8365
  151MPD2     H 2353   3.661   3.978  12.021 -0.9429 -0.8492 -1.0767
  151MPD2    H1 2354   3.512   3.997  12.420  1.2251  2.9681 -0.5878
  151MPD2    H2 2355   3.251   3.877  12.105  0.2885 -0.2865 -2.7401
  151MPD2    H3 2356   3.300   3.930  12.341 -0.9987 -1.3487 -1.5847
  151MPD2     N 2357   3.741   4.004  12.249 -0.3066  0.2144 -0.7789
  151MPD2    H5 2358   3.811   4.011  12.177 -1.3089  4.0451 -1.4163
  151MPD2    N1 2359   3.424   3.911  11.901  0.3096 -0.5073  0.1129
  151MPD2    H7 2360   3.328   3.884  11.882  1.1257 -1.4230 -2.7589
  152TMC2    C1 2361   4.039   3.082  12.953  0.3280 -0.1982  0.3521
  152TMC2    C2 2362   4.103   3.018  12.857 -0.2556 -0.1316 -0.6610
  152TMC2    C3 2363   4.236   2.998  12.883 -0.0282 -0.8281  0.0580
  152TMC2    C4 2364   4.095   3.131  13.068  0.0183  0.5855 -0.1938
  152TMC2    C5 2365   4.233   3.128  13.081 -0.1894 -0.3883  0.4094
  152TMC2    C6 2366   4.301   3.056  12.987 -0.1029 -0.3268 -0.4655
  152TMC2     C 2367   3.903   3.113  12.914 -0.0012  0.0821  0.1634
  152TMC2     O 2368   3.877   3.236  12.901  0.1991  0.0755 -0.2230
  152TMC2     H 2369   4.058   3.009  12.759 -0.4619  4.0008 -0.9565
  152TMC2    H1 2370   4.037   3.195  13.134 -1.3118 -0.4818 -0.3272
  152TMC2    H2 2371   4.405   3.028  13.001 -0.2075 -1.5424 -2.0855
  152TMC2    C7 2372   4.296   3.196  13.195  0.6166  0.7273 -0.2330
  152TMC2    C8 2373   4.319   2.944  12.776  0.0648  0.2707  0.1805
  152TMC2    O1 2374   4.220   3.237  13.282  0.7816  0.2522  0.1337
  152TMC2    O2 2375   4.419   2.992  12.723 -0.3250 -0.4668  0.0816
  152TMC2    O5 2376   4.274   2.821  12.749 -0.0477  0.0601 -0.2085
  152TMC2    H5 2377   4.197   2.798  12.805  1.1507  0.6805  1.6865
  153MPD2     C 2378   3.672   2.878  12.774  0.6366 -0.4459 -0.1019
  153MPD2    C1 2379   3.705   2.995  12.831 -0.6124 -0.1315  0.5849
  153MPD2    C2 2380   3.620   3.107  12.825 -0.3178  0.3385 -0.1170
  153MPD2    C3 2381   3.507   3.109  12.748  0.7044  0.3861 -0.4879
  153MPD2    C4 2382   3.480   2.983  12.690  0.0131  0.7970 -0.4803
  153MPD2    C5 2383   3.558   2.877  12.697  0.2053  0.1350  0.1705
  153MPD2     H 2384   3.647   3.198  12.876  3.0358 -1.2508  0.9702
  153MPD2    H1 2385   3.392   2.960  12.631  1.1029  0.8286 -2.1108
  153MPD2    H2 2386   3.728   2.785  12.776 -0.2391 -0.9753 -0.2359
  153MPD2    H3 2387   3.529   2.782  12.654  0.4818  0.9739 -1.8548
  153MPD2     N 2388   3.425   3.225  12.726  0.5739 -0.1633 -0.9430
  153MPD2    H5 2389   3.434   3.308  12.784 -0.6234 -0.4636 -0.3297
  153MPD2    N1 2390   3.832   2.999  12.895  0.2772 -0.0450  0.7002
  153MPD2    H7 2391   3.882   2.912  12.908  0.5850  0.3600  2.2078
  154TMC2    C1 2392   0.688   3.472   0.066  0.3814  0.3990 -0.3340
  154TMC2    C2 2393   0.687   3.453   0.200 -0.3537 -0.3928  0.2587
  154TMC2    C3 2394   0.807   3.416   0.259  0.2411  0.0733  0.5336
  154TMC2    C4 2395   0.802   3.487  17.744  0.1655  0.8856  0.2334
  154TMC2    C5 2396   0.923   3.467   0.064 -0.3007  0.6568 -0.1765
  154TMC2    C6 2397   0.928   3.419   0.191 -0.5886 -0.2323  0.7361
  154TMC2     C 2398   0.556   3.513   0.020 -0.0255  0.7127  0.1546
  154TMC2     O 2399   0.478   3.527   0.110 -0.5661  0.6433 -0.1137
  154TMC2     H 2400   0.602   3.428   0.261 -1.4304  0.2329 -0.9951
  154TMC2    H1 2401   0.802   3.537  17.647  0.6470  2.3376  0.9732
  154TMC2    H2 2402   1.021   3.391   0.238 -0.8219 -2.9860 -0.4432
  154TMC2    C7 2403   1.050   3.460  17.739 -0.0173 -0.2163 -0.5541
  154TMC2    C8 2404   0.796   3.367   0.390  0.0075 -0.6144 -0.0564
  154TMC2    O1 2405   1.093   3.346  17.728 -0.3618  0.1971 -0.0250
  154TMC2    O2 2406   0.694   3.391   0.455  0.1296  0.4824 -0.7764
  154TMC2    O5 2407   0.891   3.268   0.415  0.0018 -0.2279  0.0136
  154TMC2    H5 2408   0.956   3.251   0.343  0.8497 -2.2074  1.2543
  155MPD2     C 2409   0.413   3.531  17.430 -0.3901  0.0860  0.8176
  155MPD2    C1 2410   0.421   3.555  17.567 -0.6298  0.2585 -0.4793
  155MPD2    C2 2411   0.330   3.645  17.628 -0.4855  0.6068 -0.5869
  155MPD2    C3 2412   0.213   3.680  17.565 -0.2176  0.4191 -0.4172
  155MPD2    C4 2413   0.208   3.656  17.429  0.3194  0.2096 -0.5337
  155MPD2    C5 2414   0.303   3.575  17.363 -0.0256 -0.0382  0.3908
  155MPD2     H 2415   0.332   3.665  17.735  0.2369  3.8873 -1.2132
  155MPD2    H1 2416   0.115   3.670  17.373  0.1411  1.1344  0.0052
  155MPD2    H2 2417   0.480   3.459  17.385 -3.0866  0.6964 -4.2508
  155MPD2    H3 2418   0.299   3.536  17.262 -1.2020 -1.6490  1.0535
  155MPD2     N 2419   0.122   3.751  17.643 -0.0726 -0.4696  1.2280
  155MPD2    H5 2420   0.162   3.781  17.732  0.5065 -1.3009  1.2433
  155MPD2    N1 2421   0.542   3.516  17.630  0.3598 -0.1140 -0.0649
  155MPD2    H7 2422   0.617   3.474  17.577  1.7481  2.9197 -0.5289
  156TMC2    C1 2423   4.104   1.475  11.525 -0.5173  1.1309 -0.4149
  156TMC2    C2 2424   4.038   1.357  11.538 -0.0434 -0.3014 -0.1938
  156TMC2    C3 2425   3.903   1.358  11.552  0.0757  0.1764 -0.2717
  156TMC2    C4 2426   4.047   1.594  11.559 -0.5485  0.3620 -0.3101
  156TMC2    C5 2427   3.913   1.594  11.582  0.2635  0.4945 -0.0060
  156TMC2    C6 2428   3.838   1.479  11.584  0.2051  0.3845  1.1874
  156TMC2     C 2429   4.243   1.477  11.533  0.6408 -0.5192 -0.1962
  156TMC2     O 2430   4.293   1.571  11.590  0.6027  0.3800  0.2411
  156TMC2     H 2431   4.083   1.260  11.520 -0.4796 -0.4065 -0.7119
  156TMC2    H1 2432   4.100   1.688  11.573 -1.0318  0.6357 -0.2895
  156TMC2    H2 2433   3.732   1.479  11.608 -0.5243  1.1324 -2.0627
  156TMC2    C7 2434   3.837   1.713  11.602 -0.2337 -0.0947 -0.0408
  156TMC2    C8 2435   3.826   1.236  11.566 -0.0982 -0.1709 -0.0052
  156TMC2    O1 2436   3.716   1.704  11.626  0.1938  0.9701 -0.3507
  156TMC2    O2 2437   3.706   1.240  11.556  0.3399 -0.3674  0.0872
  156TMC2    O5 2438   3.894   1.144  11.641  0.2267  0.1444 -0.5374
  156TMC2    H5 2439   3.989   1.158  11.664  0.0786 -0.3777  0.3549
  157MPD2     C 2440   4.479   1.221  11.438  0.4374 -0.8802 -0.3170
  157MPD2    C1 2441   4.428   1.318  11.520  1.2270 -0.1291  0.2562
  157MPD2    C2 2442   4.511   1.384  11.610 -0.3492 -0.8273  0.3984
  157MPD2    C3 2443   4.629   1.331  11.641 -0.3944  0.0273 -0.3990
  157MPD2    C4 2444   4.683   1.228  11.570 -0.4616  0.6372  0.3918
  157MPD2    C5 2445   4.608   1.171  11.469 -0.3627  0.1779 -0.5928
  157MPD2     H 2446   4.476   1.469  11.667  1.1175  0.5659 -0.7742
  157MPD2    H1 2447   0.049   1.201  11.589 -0.7406 -0.8289 -0.1008
  157MPD2    H2 2448   4.416   1.176  11.361 -0.3542 -2.7127  1.4150
  157MPD2    H3 2449   4.640   1.080  11.418  1.5400 -0.1841  1.2372
  157MPD2     N 2450   4.699   1.393  11.746  0.2997 -0.5848 -0.2159
  157MPD2    H5 2451   4.653   1.474  11.786 -0.7715 -1.1705 -0.2653
  157MPD2    N1 2452   4.293   1.354  11.502 -0.1194  0.6846 -0.0132
  157MPD2    H7 2453   4.246   1.311  11.422 -2.3030  2.1014  0.5253
  158TMC2    C1 2454   4.255   0.016  13.381  0.8232 -1.1288 -0.4336
  158TMC2    C2 2455   4.255   0.068  13.254 -0.1557 -0.0758  0.1404
  158TMC2    C3 2456   4.149   0.148  13.221 -0.7838 -0.2139 -0.2847
  158TMC2    C4 2457   4.152   0.040  13.473 -0.0996 -0.5551  0.4418
  158TMC2    C5 2458   4.044   0.113  13.436 -0.1755 -0.3265 -0.5211
  158TMC2    C6 2459   4.046   0.168  13.308  0.5316  0.6007 -0.0951
  158TMC2     C 2460   4.377   4.685  13.423  0.4598  0.5032 -0.7275
  158TMC2     O 2461   4.460   4.644  13.339 -0.3666 -0.0058 -0.1523
  158TMC2     H 2462   4.323   0.030  13.179 -0.6898 -1.8601  0.5562
  158TMC2    H1 2463   4.150   4.723  13.566 -0.6321  1.3723  1.5528
  158TMC2    H2 2464   3.956   0.209  13.265 -0.4617  0.0765  1.4934
  158TMC2    C7 2465   3.920   0.112  13.511  0.1955  0.0435  0.4676
  158TMC2    C8 2466   4.123   0.185  13.087 -0.0976 -0.2731  0.5254
  158TMC2    O1 2467   3.822   0.161  13.461  0.0171  0.3165  0.0732
  158TMC2    O2 2468   4.011   0.185  13.035 -0.6247  0.3510 -0.8445
  158TMC2    O5 2469   4.244   0.186  13.023  0.2992 -0.2139 -0.2581
  158TMC2    H5 2470   4.316   0.210  13.084  2.5471 -2.2172 -2.1172
  159MPD2     C 2471   4.691   4.538  13.815 -0.5167 -0.6382  0.0563
  159MPD2    C1 2472   4.596   4.629  13.863 -0.7193  0.3057 -0.6357
  159MPD2    C2 2473   4.499   4.686  13.775  0.2876  0.3083 -0.1198
  159MPD2    C3 2474   4.503   4.654  13.638  0.2889  0.0706  0.2689
  159MPD2    C4 2475   4.604   4.566  13.594  0.4153  0.5160 -0.2442
  159MPD2    C5 2476   4.687   4.506  13.680 -0.1307 -0.1871 -0.0033
  159MPD2     H 2477   4.427   0.018  13.816 -1.5088 -1.1529 -0.8250
  159MPD2    H1 2478   4.600   4.534  13.490  2.2360  0.7376 -0.3813
  159MPD2    H2 2479   0.026   4.499  13.886  2.1646  0.9403 -1.8316
  159MPD2    H3 2480   0.014   4.428  13.641 -1.4038  0.3273 -3.1427
  159MPD2     N 2481   4.392   4.698  13.561  0.0869 -0.2333  0.1165
  159MPD2    H5 2482   4.328   0.031  13.596  1.5061  2.6175 -2.9635
  159MPD2    N1 2483   4.595   4.661  14.004 -0.1154 -1.0200  0.4761
  159MPD2    H7 2484   4.674   4.634  14.063 -0.7573 -1.5337  1.0998
  160TMC2    C1 2485   4.036   2.774   0.830  0.1187 -0.0538 -0.1258
  160TMC2    C2 2486   3.936   2.684   0.831  0.1895 -0.2262 -0.0801
  160TMC2    C3 2487   3.961   2.570   0.896  0.5320 -1.1060  0.1440
  160TMC2    C4 2488   4.151   2.767   0.909 -0.2904 -0.2362  0.1825
  160TMC2    C5 2489   4.165   2.651   0.988 -0.2416  0.8652 -0.4827
  160TMC2    C6 2490   4.067   2.555   0.981  0.0231  0.3937 -0.0158
  160TMC2     C 2491   4.010   2.912   0.811 -1.0198  0.5611  0.2300
  160TMC2     O 2492   4.074   2.989   0.881 -0.1537 -0.4335 -0.1887
  160TMC2     H 2493   3.846   2.696   0.772  1.5158  0.9879 -1.8357
  160TMC2    H1 2494   4.232   2.837   0.895  1.5410 -1.8686  2.4926
  160TMC2    H2 2495   4.073   2.463   1.037 -1.5900  0.3225  0.0462
  160TMC2    C7 2496   4.272   2.630   1.082  0.4659  0.1189 -0.5773
  160TMC2    C8 2497   3.890   2.454   0.855 -1.2496  0.5503 -0.2495
  160TMC2    O1 2498   4.279   2.520   1.139  0.3457  0.4642  0.2219
  160TMC2    O2 2499   3.858   2.442   0.737  0.2067 -0.8432  0.3022
  160TMC2    O5 2500   3.872   2.360   0.952  0.3549 -0.1422  0.3433
  160TMC2    H5 2501   3.878   2.406   1.038 -0.2858  1.5727 -0.5362
  161MPD2     C 2502   3.952   3.176   0.718 -0.2167 -0.3022  0.6222
  161MPD2    C1 2503   3.866   3.075   0.700  0.2127 -0.0602  0.1616
  161MPD2    C2 2504   3.735   3.101   0.662  1.0168  0.0137  0.2908
  161MPD2    C3 2505   3.680   3.231   0.659 -0.0109  0.4160 -0.2083
  161MPD2    C4 2506   3.772   3.332   0.683  0.9240  0.0714  0.5570
  161MPD2    C5 2507   3.907   3.306   0.708  0.4624  0.3988 -0.2348
  161MPD2     H 2508   3.669   3.016   0.651  0.4483  0.6058 -0.7971
  161MPD2    H1 2509   3.737   3.433   0.700  2.4887  1.0559 -2.1138
  161MPD2    H2 2510   4.058   3.167   0.737 -0.1338 -0.3591  0.1225
  161MPD2    H3 2511   3.974   3.390   0.724 -0.6551  1.2555 -0.0272
  161MPD2     N 2512   3.540   3.263   0.649  0.6500  1.0762 -0.2112
  161MPD2    H5 2513   3.515   3.361   0.646 -1.2451  0.5795 -0.8138
  161MPD2    N1 2514   3.908   2.942   0.729  0.5465 -0.0259 -0.0905
  161MPD2    H7 2515   3.851   2.864   0.695  0.3443  0.9446 -2.0064
  162TMC2    C1 2516   1.463   4.560   1.087 -0.1723 -0.7140 -0.1313
  162TMC2    C2 2517   1.351   4.643   1.111 -0.4420 -0.0901  0.5218
  162TMC2    C3 2518   1.298   4.661   1.230 -0.0801 -0.1356  0.1985
  162TMC2    C4 2519   1.506   4.478   1.191 -0.2688 -0.3844 -0.2535
  162TMC2    C5 2520   1.424   4.480   1.309 -0.4502  0.1764 -0.3308
  162TMC2    C6 2521   1.324   4.574   1.328  0.5936  0.0787 -0.0395
  162TMC2     C 2522   1.530   4.546   0.961 -0.0943 -0.1803  0.6058
  162TMC2     O 2523   1.618   4.459   0.953  0.3298 -0.1125 -0.1055
  162TMC2     H 2524   1.298   4.698   1.034 -0.0857 -0.4360  0.0269
  162TMC2    H1 2525   1.596   4.416   1.184 -0.5674 -0.7600 -0.7227
  162TMC2    H2 2526   1.251   4.558   1.406  0.6007  2.2816  0.4180
  162TMC2    C7 2527   1.468   4.405   1.433  0.5236  0.5597  0.4558
  162TMC2    C8 2528   1.159   4.716   1.238 -0.3330  0.3829 -0.0688
  162TMC2    O1 2529   1.415   4.445   1.538  0.3883  0.6833  0.0157
  162TMC2    O2 2530   1.094   0.007   1.139  0.4043  0.0865  0.3298
  162TMC2    O5 2531   1.117   0.010   1.360 -0.3506 -0.0605  0.3489
  162TMC2    H5 2532   1.179   4.735   1.435  0.0038  0.7310  0.1806
  163MPD2     C 2533   1.629   4.697   0.478  0.5784  0.0988 -0.0655
  163MPD2    C1 2534   1.703   4.618   0.562  0.5069  0.2681  0.5650
  163MPD2    C2 2535   1.661   4.596   0.694 -0.5662  0.3453  0.1866
  163MPD2    C3 2536   1.556   4.666   0.746  0.0707  0.0638 -0.6288
  163MPD2    C4 2537   1.504   0.033   0.670  0.5365  0.0195 -0.1039
  163MPD2    C5 2538   1.539   0.046   0.535 -0.3054  0.7215 -0.2220
  163MPD2     H 2539   1.714   4.528   0.759  0.6359  2.3779  1.3219
  163MPD2    H1 2540   1.423   0.095   0.708 -0.0978  1.8315 -4.4188
  163MPD2    H2 2541   1.644   4.696   0.370 -0.7612 -2.5309 -0.2300
  163MPD2    H3 2542   1.477   0.099   0.464 -0.7528 -1.0142 -1.1220
  163MPD2     N 2543   1.487   4.641   0.873 -0.0598 -0.0834 -0.2188
  163MPD2    H5 2544   1.417   4.706   0.906 -0.0825 -0.4929  0.5325
  163MPD2    N1 2545   1.811   4.542   0.511 -0.1093 -0.0192 -0.6176
  163MPD2    H7 2546   1.826   4.550   0.411  1.5512 -2.4435 -0.5632
  164TMC2    C1 2547   3.020   4.292  11.019  0.3950 -0.1844  0.0439
  164TMC2    C2 2548   3.143   4.337  11.062 -0.0457 -0.3715 -0.7078
  164TMC2    C3 2549   3.152   4.473  11.087  0.4087  0.4131 -0.1835
  164TMC2    C4 2550   2.916   4.370  11.007 -0.5976 -0.2163  0.6640
  164TMC2    C5 2551   2.929   4.500  11.037  0.4447 -0.2916 -0.3148
  164TMC2    C6 2552   3.043   4.563  11.074 -0.0212 -0.3081  0.3594
  164TMC2     C 2553   3.002   4.148  10.997 -0.5232 -0.3697  0.2619
  164TMC2     O 2554   2.888   4.106  11.025  0.1705  0.6336 -0.3538
  164TMC2     H 2555   3.230   4.273  11.057  1.9138  2.4050 -2.3691
  164TMC2    H1 2556   2.819   4.329  10.981 -0.7014  0.3732  0.1230
  164TMC2    H2 2557   3.056   4.671  11.074 -0.5354 -0.2509 -0.3517
  164TMC2    C7 2558   2.812   4.588  11.033  0.1623 -0.2905 -0.1981
  164TMC2    C8 2559   3.279   4.518  11.130  0.7257 -0.0164 -0.4611
  164TMC2    O1 2560   2.708   4.537  10.992 -0.9163 -0.2358  0.4665
  164TMC2    O2 2561   3.387   4.458  11.121 -0.6269 -0.1026  0.2849
  164TMC2    O5 2562   3.236   4.593  11.231  0.3097  1.0684  0.3045
  164TMC2    H5 2563   3.143   4.620  11.220  0.3070  0.5507 -0.8908
  165TMC2    C1 2564   3.561   1.174   1.241 -0.0288  0.2830 -0.2774
  165TMC2    C2 2565   3.448   1.161   1.161 -0.2833  0.4678  0.3571
  165TMC2    C3 2566   3.427   1.268   1.074 -1.0185  0.6096 -0.5918
  165TMC2    C4 2567   3.647   1.278   1.236 -0.1145  0.2545 -0.6702
  165TMC2    C5 2568   3.620   1.387   1.154  0.0182  0.4783 -0.8677
  165TMC2    C6 2569   3.504   1.387   1.075  1.1795 -0.6402  0.3856
  165TMC2     C 2570   3.590   1.064   1.326  0.3236  0.4838  0.1617
  165TMC2     O 2571   3.558   0.948   1.301 -0.2746  0.3752  0.1421
  165TMC2     H 2572   3.375   1.081   1.162 -0.9113  1.0384  0.2344
  165TMC2    H1 2573   3.739   1.283   1.293  0.2639 -2.5144 -1.0181
  165TMC2    H2 2574   3.476   1.470   1.011  0.2347  0.5993  2.4069
  165TMC2    C7 2575   3.708   1.495   1.155 -0.4960 -0.8720 -0.5630
  165TMC2    C8 2576   3.320   1.262   0.984 -0.0699  0.2195  0.6045
  165TMC2    O1 2577   3.817   1.486   1.220  0.2726 -0.9924 -0.4773
  165TMC2    O2 2578   3.255   1.356   0.939  0.0201  0.6383  0.1016
  165TMC2    O5 2579   3.298   1.133   0.941 -0.0545  0.3394  0.8144
  165TMC2    H5 2580   3.357   1.062   0.974  0.6564  0.6868  0.2681
  166MPD2     C 2581   3.736   0.931   1.809  0.3185 -0.1566 -0.5698
  166MPD2    C1 2582   3.714   0.850   1.697 -0.5038  0.0069 -0.4821
  166MPD2    C2 2583   3.690   0.910   1.575  0.7120  0.1990  0.0541
  166MPD2    C3 2584   3.674   1.047   1.562 -0.8411 -0.7006  0.0829
  166MPD2    C4 2585   3.688   1.126   1.677  0.4089  0.3329  0.9874
  166MPD2    C5 2586   3.722   1.068   1.798 -0.8046  0.6925 -0.3529
  166MPD2     H 2587   3.688   0.855   1.482 -0.4964 -1.8704  1.3105
  166MPD2    H1 2588   3.684   1.234   1.671 -1.6410  0.3269  2.1573
  166MPD2    H2 2589   3.763   0.892   1.906  0.0462  1.2903  0.0808
  166MPD2    H3 2590   3.741   1.136   1.880 -0.9320 -0.3994  0.5748
  166MPD2     N 2591   3.636   1.118   1.444  0.3336 -0.5610 -0.1257
  166MPD2    H5 2592   3.642   1.218   1.459 -0.1053 -0.7351  1.1861
  166MPD2    N1 2593   3.734   0.710   1.716 -0.0707 -0.2345 -0.4631
  166MPD2    H7 2594   3.764   0.667   1.802 -0.0702  0.3420 -0.1736
  167TMC2    C1 2595   1.846   4.015  12.856  0.2767  0.5154 -0.0027
  167TMC2    C2 2596   1.713   4.022  12.889 -0.6798  0.1035 -0.7756
  167TMC2    C3 2597   1.647   3.908  12.912  0.1001 -0.1554 -0.0823
  167TMC2    C4 2598   1.911   3.893  12.840 -0.4156 -0.1235 -0.2597
  167TMC2    C5 2599   1.840   3.783  12.872 -0.3010 -0.0893  0.5447
  167TMC2    C6 2600   1.714   3.784  12.914  0.1051 -0.0864  0.2774
  167TMC2     C 2601   1.926   4.132  12.823 -0.6084 -0.8411  0.3304
  167TMC2     O 2602   1.882   4.236  12.867 -0.6425  0.4481 -0.0006
  167TMC2     H 2603   1.665   4.119  12.894 -1.8456 -0.4782 -0.7932
  167TMC2    H1 2604   2.019   3.892  12.837 -0.3967 -0.6172  0.8043
  167TMC2    H2 2605   1.652   3.698  12.939  1.5887 -0.5482  2.3766
  167TMC2    C7 2606   1.896   3.656  12.849  0.2308  0.4756 -0.1687
  167TMC2    C8 2607   1.507   3.912  12.911  0.2211  0.0124 -0.3735
  167TMC2    O1 2608   1.868   3.569  12.928  0.5885 -0.4467 -0.3790
  167TMC2    O2 2609   1.446   3.807  12.926 -0.3219  0.8286 -0.3715
  167TMC2    O5 2610   1.450   4.009  12.842  1.0947  0.5260  0.3086
  167TMC2    H5 2611   1.510   4.079  12.809  0.7802 -0.4838 -2.4228
  168MPD2     C 2612   2.094   4.340  12.700  0.2895 -0.2472 -0.5425
  168MPD2    C1 2613   2.056   4.222  12.630 -0.8817  1.4892  0.4465
  168MPD2    C2 2614   2.089   4.201  12.500 -0.0706 -0.4794  0.0232
  168MPD2    C3 2615   2.148   4.299  12.426 -0.1743  0.5673 -0.7211
  168MPD2    C4 2616   2.184   4.413  12.495  0.2242  0.1565  0.0178
  168MPD2    C5 2617   2.163   4.431  12.630 -0.3464 -0.4205  0.7585
  168MPD2     H 2618   2.059   4.106  12.458 -0.0201  0.4537 -2.1111
  168MPD2    H1 2619   2.246   4.489  12.450  0.1934 -1.4005 -2.6645
  168MPD2    H2 2620   2.076   4.352  12.806 -0.8884 -0.5910 -0.6986
  168MPD2    H3 2621   2.195   4.515  12.690  0.6652 -0.6565  0.5437
  168MPD2     N 2622   2.178   4.293  12.290 -0.4986 -0.3473  0.4241
  168MPD2    H5 2623   2.193   4.390  12.264 -1.7395  0.1088  1.4076
  168MPD2    N1 2624   1.987   4.122  12.701 -0.2683 -0.1235  0.0882
  168MPD2    H7 2625   1.973   4.038  12.647 -1.8142  1.7578 -2.4126
  169MPD1     C 2626   0.348   0.406   9.713  0.4350 -0.6320  0.0644
  169MPD1    C1 2627   0.419   0.308   9.767  0.5628  0.1678 -1.1807
  169MPD1    C2 2628   0.363   0.185   9.753 -0.0923 -0.8685  0.3945
  169MPD1    C3 2629   0.245   0.163   9.687  0.4592  0.1690  0.0628
  169MPD1    C4 2630   0.178   0.263   9.619  0.2212  1.5984 -0.4411
  169MPD1    C5 2631   0.229   0.384   9.645 -0.4969 -0.1288 -0.5028
  169MPD1     H 2632   0.403   0.107   9.816 -2.2613 -2.1526  0.1843
  169MPD1    H1 2633   0.086   0.260   9.561  0.1203  0.7219 -0.2222
  169MPD1    H2 2634   0.391   0.505   9.719 -0.0898 -0.3878 -0.2024
  169MPD1    H3 2635   0.167   0.466   9.610  1.4381  0.3259 -2.9148
  169MPD1     N 2636   0.192   0.038   9.668  0.0046  1.0434  1.7174
  169MPD1    H5 2637   0.248   4.694   9.688  0.2347  0.4646 -1.2585
  169MPD1    N1 2638   0.534   0.337   9.846  0.1482 -0.3594 -0.7121
  169MPD1    H6 2639   0.617   0.280   9.828 -0.1713 -1.2874  0.7471
  169MPD1    H7 2640   0.562   0.434   9.834 -1.8331  0.1423 -1.2838
  170MPD1     C 2641   2.361   1.883  12.682  0.3922  0.4570 -0.2603
  170MPD1    C1 2642   2.397   2.014  12.708  0.5002 -0.1885  0.1616
  170MPD1    C2 2643   2.484   2.034  12.814 -0.4688  0.2475  0.7641
  170MPD1    C3 2644   2.549   1.928  12.876 -0.1403 -0.6843  0.7807
  170MPD1    C4 2645   2.520   1.797  12.829  0.3404 -0.1232 -0.8931
  170MPD1    C5 2646   2.437   1.779  12.723  0.2051 -0.2769  0.0094
  170MPD1     H 2647   2.516   2.129  12.854  1.2722  0.7596 -1.9000
  170MPD1    H1 2648   2.570   1.709  12.868 -2.0177 -1.4572 -0.8893
  170MPD1    H2 2649   2.275   1.865  12.618  0.6288 -0.9666 -0.1667
  170MPD1    H3 2650   2.398   1.681  12.698 -0.4056 -0.0757  0.1645
  170MPD1     N 2651   2.642   1.963  12.976  0.5184  0.0738  0.3210
  170MPD1    H5 2652   2.662   2.062  12.981 -1.9614  0.6400 -1.1821
  170MPD1    N1 2653   2.334   2.126  12.652 -0.0410 -0.0838  0.1303
  170MPD1    H6 2654   2.270   2.096  12.578  0.4504  1.6369 -0.9835
  170MPD1    H7 2655   2.393   2.201  12.617  1.0007 -1.7812 -1.8070
  171MPD1     C 2656   2.155   3.143  15.524  0.1159  0.2165 -0.1659
  171MPD1    C1 2657   2.206   3.027  15.472  0.1601  0.2457 -0.7062
  171MPD1    C2 2658   2.120   2.922  15.459 -0.0319 -0.0491 -0.6301
  171MPD1    C3 2659   1.989   2.932  15.495 -0.3881  0.5747  0.2064
  171MPD1    C4 2660   1.948   3.046  15.554 -0.4866 -0.9111  0.2842
  171MPD1    C5 2661   2.026   3.158  15.566 -0.5448 -0.8130  0.4069
  171MPD1     H 2662   2.162   2.830  15.420  0.4683 -0.5203  1.0175
  171MPD1    H1 2663   1.845   3.061  15.583 -0.2705  1.0477  0.0631
  171MPD1    H2 2664   2.218   3.225  15.555 -0.8989  0.5906  0.9120
  171MPD1    H3 2665   1.990   3.250  15.610  1.4608 -0.5055  1.3993
  171MPD1     N 2666   1.894   2.836  15.460 -0.1788  0.0556 -0.9011
  171MPD1    H5 2667   1.796   2.856  15.480 -0.3018 -1.3498 -0.0712
  171MPD1    N1 2668   2.345   3.010  15.462 -0.0255 -0.5080  0.0153
  171MPD1    H6 2669   2.398   3.095  15.445  0.6720 -0.5611  1.9451
  171MPD1    H7 2670   2.361   2.952  15.379 -1.3587 -0.5088 -0.2406
  172MPD1     C 2671   1.099   2.123   1.308 -0.3159 -0.0290 -0.0340
  172MPD1    C1 2672   0.976   2.079   1.277  0.0086  0.1867  0.5817
  172MPD1    C2 2673   0.908   2.149   1.177 -0.4189  0.2014 -0.7734
  172MPD1    C3 2674   0.974   2.239   1.095 -0.3642 -0.0396  0.3637
  172MPD1    C4 2675   1.102   2.280   1.130 -0.6938 -0.0183 -0.2951
  172MPD1    C5 2676   1.164   2.222   1.239 -0.3268 -0.4972 -0.1172
  172MPD1     H 2677   0.805   2.121   1.161 -0.3418  0.4216 -1.6408
  172MPD1    H1 2678   1.161   2.354   1.076 -1.5647  1.0777  0.2669
  172MPD1    H2 2679   1.154   2.080   1.391 -2.6884  0.5183  1.7809
  172MPD1    H3 2680   1.261   2.252   1.276 -0.6734  1.2550 -0.6192
  172MPD1     N 2681   0.922   2.287   0.975 -0.3564 -0.2535  0.0964
  172MPD1    H5 2682   0.985   2.356   0.936  1.4751 -1.5517  0.6999
  172MPD1    N1 2683   0.915   2.001   1.369  0.3086 -0.2796  0.5547
  172MPD1    H6 2684   0.834   1.953   1.328 -0.1080  1.9228 -1.1966
  172MPD1    H7 2685   0.974   1.930   1.412 -0.7599 -0.8657  1.0893
  173MPD1     C 2686   2.530   2.377  13.222 -0.3477  0.7367 -0.2046
  173MPD1    C1 2687   2.580   2.344  13.351  0.9013 -0.1530  0.5085
  173MPD1    C2 2688   2.546   2.216  13.400 -0.3683  0.1754  0.0859
  173MPD1    C3 2689   2.480   2.124  13.323  0.0138  0.5892 -0.0945
  173MPD1    C4 2690   2.457   2.152  13.193 -1.0407 -0.4119 -0.4362
  173MPD1    C5 2691   2.479   2.279  13.148  0.5774  0.2016  0.0212
  173MPD1     H 2692   2.553   2.189  13.505  1.0267  0.5223  0.0897
  173MPD1    H1 2693   2.411   2.084  13.122  0.1178 -1.4228 -0.2123
  173MPD1    H2 2694   2.545   2.476  13.180  0.6006  0.5331 -0.3331
  173MPD1    H3 2695   2.458   2.301  13.044 -1.3018 -2.7838 -0.2371
  173MPD1     N 2696   2.431   2.006  13.381 -0.4044  0.6164  0.8391
  173MPD1    H5 2697   2.445   2.011  13.482  1.0753 -2.6452  0.7884
  173MPD1    N1 2698   2.613   2.445  13.439  0.0763 -0.8150 -0.0512
  173MPD1    H6 2699   2.677   2.413  13.512 -1.6473 -0.3477  1.6588
  173MPD1    H7 2700   2.641   2.537  13.406 -3.3572  1.2622  2.8770
  174MPD1     C 2701   2.075   1.005  13.365  0.2917 -0.3489  0.5665
  174MPD1    C1 2702   2.015   1.100  13.278  0.5443  0.7157 -0.8400
  174MPD1    C2 2703   2.029   1.229  13.321  0.4396 -0.1606  0.2948
  174MPD1    C3 2704   2.098   1.264  13.441 -0.1303 -0.1525  0.7253
  174MPD1    C4 2705   2.168   1.170  13.511 -0.4444 -0.2795 -0.1328
  174MPD1    C5 2706   2.154   1.040  13.476  0.5964 -0.0199 -0.1680
  174MPD1     H 2707   2.000   1.309  13.254 -0.8553  0.3239  1.4347
  174MPD1    H1 2708   2.233   1.195  13.595 -2.8307  0.0708  1.6030
  174MPD1    H2 2709   2.059   0.903  13.334  2.4378 -0.6229  0.3826
  174MPD1    H3 2710   2.205   0.957  13.523 -1.1847  0.1674  2.0794
  174MPD1     N 2711   2.126   1.394  13.487  0.4764 -0.0287 -0.0227
  174MPD1    H5 2712   2.187   1.402  13.567 -0.3380  1.1139  0.4866
  174MPD1    N1 2713   1.927   1.063  13.178 -0.2905  0.5659  0.3889
  174MPD1    H6 2714   1.922   1.135  13.106  0.7407  2.2400  1.9997
  174MPD1    H7 2715   1.949   0.975  13.130 -1.2831  1.3237 -1.4878
  175MPD1     C 2716   0.922   2.480  15.739 -0.1405  0.1290  0.7649
  175MPD1    C1 2717   0.801   2.554  15.731  0.6030  0.0997 -0.0792
  175MPD1    C2 2718   0.720   2.566  15.846  0.3038  1.1080 -0.2757
  175MPD1    C3 2719   0.757   2.509  15.967  0.5321  0.3074  0.3424
  175MPD1    C4 2720   0.871   2.429  15.968 -0.6320 -0.6854  1.0090
  175MPD1    C5 2721   0.949   2.417  15.858 -0.0665  0.0681 -0.4247
  175MPD1     H 2722   0.635   2.633  15.838  0.4848  1.2807 -0.7474
  175MPD1    H1 2723   0.897   2.374  16.058  1.7536 -1.2051  0.0011
  175MPD1    H2 2724   0.997   2.490  15.661 -0.7367  0.3910  0.2258
  175MPD1    H3 2725   1.045   2.367  15.868  0.2667  0.8423  0.1890
  175MPD1     N 2726   0.686   2.530  16.089 -0.2368 -0.0925  0.4766
  175MPD1    H5 2727   0.714   2.485  16.176 -0.6237 -0.8051  0.2314
  175MPD1    N1 2728   0.773   2.624  15.616  0.2796  0.8254  0.0149
  175MPD1    H6 2729   0.808   2.580  15.530  0.1573  0.8029 -0.0233
  175MPD1    H7 2730   0.678   2.658  15.604 -1.3666 -2.7811  3.0105
  176MPD1     C 2731   2.213   4.303  16.692 -0.1094 -0.2096  0.8864
  176MPD1    C1 2732   2.172   4.427  16.658 -0.2326 -0.4081 -0.2016
  176MPD1    C2 2733   2.169   4.524  16.756 -0.3379  0.1477  0.1919
  176MPD1    C3 2734   2.190   4.499  16.897 -0.2648 -0.5749  0.2826
  176MPD1    C4 2735   2.241   4.381  16.928  0.0475  0.5774  0.1550
  176MPD1    C5 2736   2.250   4.280  16.826  0.7631  0.6302  0.2984
  176MPD1     H 2737   2.143   4.625  16.729 -0.6471 -0.1537 -0.6598
  176MPD1    H1 2738   2.279   4.352  17.026  0.0659 -0.6234 -0.2130
  176MPD1    H2 2739   2.213   4.219  16.625  1.0931 -0.1593  0.8275
  176MPD1    H3 2740   2.278   4.179  16.854  0.5335 -0.0696 -1.9356
  176MPD1     N 2741   2.174   4.617  16.982  0.0472  0.0279 -0.2601
  176MPD1    H5 2742   2.150   4.704  16.937 -0.4886 -1.1265 -2.2327
  176MPD1    N1 2743   2.176   4.478  16.526 -0.1426 -0.0540 -0.0436
  176MPD1    H6 2744   2.103   4.549  16.517  1.5306  1.5266 -0.9651
  176MPD1    H7 2745   2.165   4.398  16.463  0.5080 -0.8497  0.8408
  177MPD1     C 2746   1.699   0.425  10.526  0.0678 -0.8004  0.4210
  177MPD1    C1 2747   1.600   0.495  10.595  0.5898 -0.1841  0.1470
  177MPD1    C2 2748   1.476   0.516  10.528  0.1835 -0.4386 -1.0032
  177MPD1    C3 2749   1.459   0.477  10.396 -0.8824  0.9387 -0.2790
  177MPD1    C4 2750   1.563   0.417  10.332 -0.4170 -0.2859 -0.5344
  177MPD1    C5 2751   1.684   0.389  10.392  0.3841  0.2917  0.0818
  177MPD1     H 2752   1.393   0.569  10.573  0.2678 -0.3192 -0.9863
  177MPD1    H1 2753   1.560   0.403  10.224 -0.4646 -0.2163 -0.5424
  177MPD1    H2 2754   1.786   0.385  10.576 -0.5622 -1.5895  0.8804
  177MPD1    H3 2755   1.778   0.348  10.356 -0.3658 -2.8959  1.7569
  177MPD1     N 2756   1.347   0.513  10.331 -0.1710  0.2301  0.2030
  177MPD1    H5 2757   1.284   0.573  10.383  1.1369  1.4196  0.4169
  177MPD1    N1 2758   1.611   0.518  10.730 -0.2967  0.2938 -0.3823
  177MPD1    H6 2759   1.709   0.530  10.755 -0.8766 -0.4199  2.2865
  177MPD1    H7 2760   1.545   0.584  10.770  0.1487  0.5549 -0.0813
  178MPD1     C 2761   2.601   1.148  16.922 -0.2140  0.6456  0.0118
  178MPD1    C1 2762   2.641   1.207  17.039  0.5511  0.0203 -0.0720
  178MPD1    C2 2763   2.665   1.129  17.148  0.7705  0.4045 -0.3333
  178MPD1    C3 2764   2.663   0.994  17.140 -0.2111 -1.4611  0.0809
  178MPD1    C4 2765   2.611   0.939  17.023 -1.0149 -0.1071  0.6193
  178MPD1    C5 2766   2.592   1.014  16.914 -0.4938 -0.1874  0.3252
  178MPD1     H 2767   2.691   1.179  17.241  3.6913  0.2774 -1.0837
  178MPD1    H1 2768   2.607   0.831  17.015  0.3764  0.0691 -2.3996
  178MPD1    H2 2769   2.591   1.204  16.830 -0.6290  1.6036  0.6320
  178MPD1    H3 2770   2.562   0.960  16.825 -0.2586 -1.7419  1.1861
  178MPD1     N 2771   2.692   0.908  17.245 -0.3778 -0.4712  0.0500
  178MPD1    H5 2772   2.671   0.809  17.238 -0.9582 -0.4799  1.9137
  178MPD1    N1 2773   2.648   1.348  17.047  0.0885  0.0589  0.4567
  178MPD1    H6 2774   2.744   1.372  17.071  1.6700 -1.4107 -4.6087
  178MPD1    H7 2775   2.631   1.390  16.956  0.3319 -0.6034  0.1134
  179MPD1     C 2776   3.330   3.807  15.684 -0.0244  0.3346  0.5921
  179MPD1    C1 2777   3.210   3.877  15.696 -0.0216 -0.0582 -0.4143
  179MPD1    C2 2778   3.101   3.813  15.752 -0.2251  0.5732  0.0525
  179MPD1    C3 2779   3.104   3.679  15.781 -0.0130  0.0558 -0.8366
  179MPD1    C4 2780   3.223   3.613  15.768  0.2605  0.1122  0.2323
  179MPD1    C5 2781   3.332   3.672  15.715  1.3577  0.0046 -0.1405
  179MPD1     H 2782   3.005   3.864  15.750 -0.7025 -0.2156  2.2691
  179MPD1    H1 2783   3.219   3.511  15.805 -0.8105 -0.5522 -1.7340
  179MPD1    H2 2784   3.416   3.849  15.632  0.4390 -1.5801 -0.1854
  179MPD1    H3 2785   3.418   3.607  15.704  0.5471 -1.0715 -0.0898
  179MPD1     N 2786   2.990   3.610  15.819  1.2602 -0.0147  0.0913
  179MPD1    H5 2787   3.007   3.511  15.834 -1.9925 -0.7244 -0.6955
  179MPD1    N1 2788   3.196   4.006  15.644  0.0585  0.6626  0.0003
  179MPD1    H6 2789   3.286   4.054  15.651 -0.5130  1.7993 -0.5326
  179MPD1    H7 2790   3.118   4.061  15.679 -0.8464  1.2189 -2.8971
  180MPD1     C 2791   1.570   0.384  15.209 -0.1349  0.5426 -0.1085
  180MPD1    C1 2792   1.508   0.409  15.087 -0.0798  0.0420 -0.3285
  180MPD1    C2 2793   1.583   0.414  14.979 -0.1544  0.3768 -0.0495
  180MPD1    C3 2794   1.726   0.422  14.983 -0.4215  0.9344  0.1063
  180MPD1    C4 2795   1.781   0.394  15.104 -0.0268  0.0176  0.8252
  180MPD1    C5 2796   1.707   0.374  15.214  0.5823  0.3223  0.0427
  180MPD1     H 2797   1.535   0.414  14.882 -1.0033 -0.0038  0.3674
  180MPD1    H1 2798   1.888   0.378  15.112 -0.1266 -0.2299  1.7199
  180MPD1    H2 2799   1.521   0.373  15.305 -1.0955 -1.3073 -0.8068
  180MPD1    H3 2800   1.753   0.350  15.309  0.9582  1.2305  0.0942
  180MPD1     N 2801   1.798   0.423  14.861 -0.0672 -0.2030 -0.5066
  180MPD1    H5 2802   1.746   0.408  14.775 -0.8316  0.0112 -0.0834
  180MPD1    N1 2803   1.365   0.388  15.086 -0.3763 -0.2150  1.2382
  180MPD1    H6 2804   1.313   0.433  15.011 -1.9443 -1.8866  1.3059
  180MPD1    H7 2805   1.312   0.396  15.172  3.9260 -2.2281  4.0659
  181MPD1     C 2806   4.186   2.611  10.135 -0.7281 -0.3157 -0.2015
  181MPD1    C1 2807   4.204   2.719  10.051 -0.0512  0.6372 -0.4309
  181MPD1    C2 2808   4.298   2.812  10.084 -0.3973  0.3201  0.3807
  181MPD1    C3 2809   4.381   2.783  10.197 -0.2966 -0.3938  1.0020
  181MPD1    C4 2810   4.370   2.668  10.272 -1.0820 -0.1177 -0.5394
  181MPD1    C5 2811   4.267   2.587  10.240 -0.4167  0.0519 -0.5345
  181MPD1     H 2812   4.297   2.908  10.034  0.7083  1.3996  2.4170
  181MPD1    H1 2813   4.432   2.645  10.357  0.8677 -0.0761 -1.9360
  181MPD1    H2 2814   4.116   2.530  10.121  0.0933 -0.8117 -1.4619
  181MPD1    H3 2815   4.253   2.498  10.300  0.1779 -0.8074 -1.6685
  181MPD1     N 2816   4.482   2.873  10.239 -0.3314 -0.0926  0.0029
  181MPD1    H5 2817   4.539   2.833  10.313 -0.7275  0.6136  0.6860
  181MPD1    N1 2818   4.105   2.744   9.958 -0.3811  0.7896  0.7706
  181MPD1    H6 2819   4.143   2.778   9.871  0.8553 -1.6395  0.3795
  181MPD1    H7 2820   4.063   2.661   9.917  2.9111 -0.6256  0.3134
  182MPD1     C 2821   4.227   0.909   1.619 -0.3952  0.9760 -0.7852
  182MPD1    C1 2822   4.356   0.880   1.568  0.3472  0.2299 -0.2589
  182MPD1    C2 2823   4.374   0.874   1.429 -1.4515  0.3684  0.2608
  182MPD1    C3 2824   4.264   0.880   1.351 -0.5410 -0.0828 -0.1499
  182MPD1    C4 2825   4.138   0.900   1.395 -0.1089 -0.1854 -0.3995
  182MPD1    C5 2826   4.119   0.915   1.530 -0.2677  0.3927 -0.0015
  182MPD1     H 2827   4.474   0.861   1.389 -1.4460  0.7166  0.1587
  182MPD1    H1 2828   4.057   0.922   1.326 -1.6514 -0.8647  1.2129
  182MPD1    H2 2829   4.221   0.923   1.726 -0.6782 -0.3353 -0.6236
  182MPD1    H3 2830   4.028   0.951   1.578 -1.6172 -0.5104 -1.9028
  182MPD1     N 2831   4.275   0.888   1.205  0.2362  0.9142 -0.1802
  182MPD1    H5 2832   4.195   0.905   1.145  0.6354  2.1124 -0.3751
  182MPD1    N1 2833   4.465   0.895   1.653 -0.3948  0.8919 -0.2770
  182MPD1    H6 2834   4.547   0.852   1.611 -1.0580 -0.7365  0.1040
  182MPD1    H7 2835   4.452   0.870   1.751  2.6186 -0.0681 -0.1224
  183MPD1     C 2836   1.372   3.058   8.889  0.0640  0.3587 -0.4071
  183MPD1    C1 2837   1.239   3.051   8.891 -0.2906 -0.0914 -0.7250
  183MPD1    C2 2838   1.176   3.030   9.018  0.0907 -0.2673 -0.0060
  183MPD1    C3 2839   1.249   3.003   9.134 -0.9820  0.2377 -0.5122
  183MPD1    C4 2840   1.385   2.985   9.120 -0.6841  0.8882 -0.1430
  183MPD1    C5 2841   1.443   3.022   9.006 -0.0131  0.9654  0.2666
  183MPD1     H 2842   1.068   3.032   9.018  0.0776 -0.1594 -3.3108
  183MPD1    H1 2843   1.446   2.971   9.208  1.4601  0.7250 -1.6562
  183MPD1    H2 2844   1.427   3.082   8.799  2.4675 -0.3341  0.8629
  183MPD1    H3 2845   1.551   3.021   9.008  0.0133  1.2727 -0.9722
  183MPD1     N 2846   1.182   3.004   9.261 -0.4304  0.0528  0.1945
  183MPD1    H5 2847   1.085   3.032   9.261  0.4342  3.0253  0.5641
  183MPD1    N1 2848   1.170   3.094   8.774  0.0182  0.2395 -0.0765
  183MPD1    H6 2849   1.218   3.058   8.692  0.6282  1.7125 -0.3547
  183MPD1    H7 2850   1.078   3.050   8.770 -1.9891  4.7180 -2.1643
  184MPD1     C 2851   0.251   0.713   9.507 -0.9296  0.1469  0.0778
  184MPD1    C1 2852   0.123   0.739   9.468 -0.1432 -0.2777  0.4377
  184MPD1    C2 2853   0.057   0.850   9.518  0.4097  0.5435 -0.0417
  184MPD1    C3 2854   0.132   0.944   9.582  0.3871  0.4799 -0.2711
  184MPD1    C4 2855   0.258   0.917   9.618 -0.0280 -0.1715  0.3496
  184MPD1    C5 2856   0.322   0.805   9.580 -0.1063  0.5018  0.2057
  184MPD1     H 2857   4.694   0.872   9.485  0.2896  0.0744  0.0215
  184MPD1    H1 2858   0.305   0.995   9.676  1.0618 -0.4184 -0.2010
  184MPD1    H2 2859   0.301   0.619   9.485 -1.1002 -0.1185  0.8415
  184MPD1    H3 2860   0.419   0.787   9.624 -1.1397 -1.5475  1.6432
  184MPD1     N 2861   0.082   1.068   9.631  0.5456  0.5643  0.1692
  184MPD1    H5 2862   0.155   1.132   9.663  0.6352  0.6449 -0.1997
  184MPD1    N1 2863   0.038   0.635   9.420  0.0070  0.8761 -0.4895
  184MPD1    H6 2864   0.083   0.568   9.358 -0.1403 -1.1017  1.5859
  184MPD1    H7 2865   4.698   0.671   9.363  0.5126  0.2873 -1.5340
  185MPD1     C 2866   3.993   1.241  10.147  0.3393 -0.5390 -0.0383
  185MPD1    C1 2867   4.099   1.328  10.183  0.7502  0.3541  0.1395
  185MPD1    C2 2868   4.201   1.349  10.094 -0.1950 -0.8968  0.5921
  185MPD1    C3 2869   4.206   1.284   9.969  1.1617  0.4520  0.5034
  185MPD1    C4 2870   4.099   1.204   9.935  1.0936  0.2026  0.5361
  185MPD1    C5 2871   3.994   1.185  10.022 -0.6269  0.5849  0.5730
  185MPD1     H 2872   4.279   1.415  10.128  0.0907  1.5892 -4.8096
  185MPD1    H1 2873   4.099   1.147   9.843 -0.3747  0.2904  0.4912
  185MPD1    H2 2874   3.915   1.208  10.214  0.2829  0.1246  0.2227
  185MPD1    H3 2875   3.922   1.107  10.002  1.4090 -1.1182 -0.0427
  185MPD1     N 2876   4.315   1.293   9.879 -0.0152  0.3023  0.4088
  185MPD1    H5 2877   4.322   1.227   9.803 -1.3977  2.4095 -1.5477
  185MPD1    N1 2878   4.108   1.393  10.312  0.0680  0.6170  0.1239
  185MPD1    H6 2879   4.171   1.472  10.298 -0.1953  0.6966 -0.5820
  185MPD1    H7 2880   4.021   1.433  10.347 -0.6638 -1.0275  0.1645
  186MPD1     C 2881   3.322   3.288  16.016 -0.2763  0.8223 -0.4202
  186MPD1    C1 2882   3.413   3.390  15.984  0.1009  0.0205 -0.8014
  186MPD1    C2 2883   3.387   3.513  16.044  0.2570  0.4490  0.3271
  186MPD1    C3 2884   3.280   3.542  16.123  0.4672  0.1535 -1.1764
  186MPD1    C4 2885   3.204   3.436  16.157 -0.5420 -0.0928  0.3272
  186MPD1    C5 2886   3.226   3.309  16.114 -0.3220 -0.7178 -0.3405
  186MPD1     H 2887   3.452   3.595  16.015  1.7277 -1.0200 -0.5357
  186MPD1    H1 2888   3.131   3.450  16.236  0.9992 -0.8594  1.8772
  186MPD1    H2 2889   3.330   3.190  15.969  0.7772 -0.1034  1.6795
  186MPD1    H3 2890   3.149   3.236  16.139 -0.1600  0.2714  3.0602
  186MPD1     N 2891   3.240   3.667  16.170  0.5910 -0.3219 -0.1374
  186MPD1    H5 2892   3.162   3.674  16.235  1.1670  0.4224  0.4821
  186MPD1    N1 2893   3.517   3.372  15.882 -0.3504  0.1177  0.3755
  186MPD1    H6 2894   3.530   3.273  15.863  1.3877  0.1587  1.4570
  186MPD1    H7 2895   3.604   3.423  15.896  1.1670 -2.5169  0.4870
  187MPD1     C 2896   2.691   1.359  17.702 -0.4527 -0.2812  0.2965
  187MPD1    C1 2897   2.557   1.333  17.722 -0.9313  0.4608 -0.0818
  187MPD1    C2 2898   2.471   1.312  17.618 -0.1532 -0.1544 -0.4626
  187MPD1    C3 2899   2.524   1.329  17.492  0.4778 -0.3645  0.0677
  187MPD1    C4 2900   2.655   1.368  17.470  0.3735 -0.4714 -0.3497
  187MPD1    C5 2901   2.737   1.385  17.577 -0.0420 -0.1709 -0.0214
  187MPD1     H 2902   2.364   1.310  17.635 -0.3140  0.0630 -1.4501
  187MPD1    H1 2903   2.698   1.387  17.372  2.4323  0.0663  0.6598
  187MPD1    H2 2904   2.752   1.361   0.044 -0.4271 -0.1572  0.2763
  187MPD1    H3 2905   2.843   1.406  17.562 -0.1719  0.8040  0.3917
  187MPD1     N 2906   2.442   1.315  17.377 -0.2144 -0.3510 -0.3466
  187MPD1    H5 2907   2.486   1.335  17.288  0.8021 -0.8306  0.0419
  187MPD1    N1 2908   2.513   1.310   0.107 -0.0573  0.6060 -0.3003
  187MPD1    H6 2909   2.414   1.332   0.113 -0.0915  0.3260  0.1629
  187MPD1    H7 2910   2.571   1.344   0.183  0.5298  0.3207 -0.6219
  188MPD1     C 2911   3.046   1.035  10.227  0.2212  0.5918  0.1872
  188MPD1    C1 2912   2.922   1.085  10.266 -0.1488  0.9361 -0.2879
  188MPD1    C2 2913   2.819   0.989  10.265 -0.0739  0.4154 -0.6102
  188MPD1    C3 2914   2.844   0.851  10.241  0.1328 -0.4812 -0.2597
  188MPD1    C4 2915   2.966   0.808  10.187  0.0151  0.3767  0.3109
  188MPD1    C5 2916   3.061   0.906  10.187  0.2329 -0.1459  0.1736
  188MPD1     H 2917   2.720   1.024  10.292 -1.1517 -3.3940  0.4440
  188MPD1    H1 2918   2.983   0.714  10.136 -0.5174 -0.7430  2.1817
  188MPD1    H2 2919   3.134   1.094  10.207  0.1839  0.4092 -0.4951
  188MPD1    H3 2920   3.164   0.898  10.155  0.9216 -3.7255  3.1864
  188MPD1     N 2921   2.748   0.751  10.248  0.1890  0.0896  0.1734
  188MPD1    H5 2922   2.779   0.657  10.224 -0.0684 -1.0782  4.3464
  188MPD1    N1 2923   2.897   1.223  10.285 -0.0510  0.7879  0.0189
  188MPD1    H6 2924   2.828   1.236  10.358  0.6168 -1.5086  1.0759
  188MPD1    H7 2925   2.984   1.274  10.299 -1.0768  2.2782  0.9525
  189MPD1     C 2926   4.010   1.822   0.252 -0.0879 -0.2975  0.4789
  189MPD1    C1 2927   3.965   1.819   0.119 -0.5594 -0.3771 -0.4814
  189MPD1    C2 2928   3.856   1.897   0.088  0.5279 -0.2767  0.1868
  189MPD1    C3 2929   3.803   1.988   0.176  0.3355  0.8867 -0.0281
  189MPD1    C4 2930   3.849   1.989   0.312 -0.1121  0.7355  0.1386
  189MPD1    C5 2931   3.956   1.909   0.341  0.2395  0.0540  0.6154
  189MPD1     H 2932   3.820   1.901  17.733  1.2707 -0.3131 -0.0799
  189MPD1    H1 2933   3.794   2.040   0.390 -1.1903  1.6810 -1.2486
  189MPD1    H2 2934   4.098   1.766   0.282 -1.6889 -3.2528 -0.4029
  189MPD1    H3 2935   3.994   1.902   0.443 -1.6493 -0.4036  1.2845
  189MPD1     N 2936   3.700   2.075   0.132  0.2186 -0.9692 -0.3277
  189MPD1    H5 2937   3.654   2.036   0.051  0.0185  0.9133 -1.1108
  189MPD1    N1 2938   4.012   1.718   0.037  0.1612  1.2485  0.1605
  189MPD1    H6 2939   4.019   1.743  17.686 -0.0256 -0.5790 -0.3287
  189MPD1    H7 2940   4.108   1.692   0.059 -1.1319 -1.5919  2.4853
  190MPD1     C 2941   2.209   0.415  15.263 -0.1704 -0.0572 -0.9242
  190MPD1    C1 2942   2.170   0.324  15.357  0.4488 -0.6599  0.0431
  190MPD1    C2 2943   2.270   0.290  15.450  0.5548 -0.4353  0.7278
  190MPD1    C3 2944   2.404   0.334  15.434  0.6356  0.2403 -0.2085
  190MPD1    C4 2945   2.426   0.420  15.327  0.3136 -0.4097  0.1565
  190MPD1    C5 2946   2.331   0.460  15.244 -0.1167 -0.6745 -0.2441
  190MPD1     H 2947   2.246   0.244  15.545 -0.6865 -1.0698  0.1112
  190MPD1    H1 2948   2.516   0.480  15.325  0.7922 -1.1238  0.2801
  190MPD1    H2 2949   2.128   0.464  15.210  0.7899  2.8453  0.3099
  190MPD1    H3 2950   2.352   0.535  15.169 -0.2540  1.5196  1.8910
  190MPD1     N 2951   2.507   0.279  15.520 -0.1751  0.0925  0.0725
  190MPD1    H5 2952   2.483   0.212  15.592  2.7737 -1.1334 -0.0950
  190MPD1    N1 2953   2.036   0.297  15.385  0.1138  0.5455  0.0560
  190MPD1    H6 2954   2.019   0.214  15.441  0.8117 -0.3046 -1.0068
  190MPD1    H7 2955   1.986   0.270  15.301 -1.7130  1.1028  0.9425
  191MPD1     C 2956   1.523   2.511  12.839  0.2138  0.3025 -0.2301
  191MPD1    C1 2957   1.475   2.638  12.817  0.3816  0.0079  0.0481
  191MPD1    C2 2958   1.521   2.705  12.702  0.1614 -0.3379 -0.1763
  191MPD1    C3 2959   1.617   2.652  12.618  0.4183  0.7151 -0.5690
  191MPD1    C4 2960   1.665   2.528  12.649 -0.5568  0.1871 -0.0676
  191MPD1    C5 2961   1.606   2.458  12.751 -0.1516  0.7993 -0.0148
  191MPD1     H 2962   1.479   2.799  12.668  1.0544 -0.7455 -2.4306
  191MPD1    H1 2963   1.749   2.474  12.607  1.3768  2.0575  1.4046
  191MPD1    H2 2964   1.482   2.449  12.918 -0.4363  1.3673  0.2646
  191MPD1    H3 2965   1.644   2.358  12.769  0.4215  1.2348  1.2009
  191MPD1     N 2966   1.661   2.718  12.497 -0.4954  0.3849  0.0676
  191MPD1    H5 2967   1.623   2.809  12.473 -1.2138 -0.1532 -0.8366
  191MPD1    N1 2968   1.372   2.689  12.895  0.2862 -0.7753  0.5400
  191MPD1    H6 2969   1.365   2.789  12.908 -0.3970 -0.6686 -0.6034
  191MPD1    H7 2970   1.380   2.645  12.986 -0.4811 -0.5626  0.7011
  192MPD1     C 2971   1.532   3.510  11.941 -0.3038 -0.2229 -0.4569
  192MPD1    C1 2972   1.443   3.429  12.011  0.3741 -0.6186  0.5846
  192MPD1    C2 2973   1.489   3.301  12.038  0.3849  0.7771 -0.3194
  192MPD1    C3 2974   1.622   3.266  12.019 -0.2017  0.4441 -0.1296
  192MPD1    C4 2975   1.712   3.353  11.973 -0.4399  0.3590 -0.6118
  192MPD1    C5 2976   1.665   3.477  11.930 -0.2339  0.3101  0.1183
  192MPD1     H 2977   1.423   3.235  12.093  0.5338  0.9430  0.0544
  192MPD1    H1 2978   1.819   3.340  11.965 -0.0129  4.2262 -0.9782
  192MPD1    H2 2979   1.503   3.608  11.904  0.4753  0.9874  2.1694
  192MPD1    H3 2980   1.726   3.550  11.878  0.4836 -0.6210 -0.3536
  192MPD1     N 2981   1.682   3.143  12.062  0.7897 -0.5991  0.8820
  192MPD1    H5 2982   1.782   3.133  12.054  0.8360 -0.0776  0.7859
  192MPD1    N1 2983   1.302   3.465  12.018  0.2828 -0.3315 -0.2162
  192MPD1    H6 2984   1.248   3.411  12.085  0.5085 -0.2982 -0.0067
  192MPD1    H7 2985   1.295   3.564  12.042 -1.6928  0.0719 -2.5075
  193MPD1     C 2986   1.233   2.261  16.417  0.7074 -0.0807 -0.0566
  193MPD1    C1 2987   1.245   2.398  16.425  0.0789  0.5581  0.3092
  193MPD1    C2 2988   1.335   2.451  16.515  0.7459  0.5322  1.0350
  193MPD1    C3 2989   1.413   2.362  16.590  0.3971  0.6406  0.0419
  193MPD1    C4 2990   1.406   2.224  16.570 -0.6698  0.3030  0.0863
  193MPD1    C5 2991   1.306   2.175  16.487 -0.2123  0.0285  0.2100
  193MPD1     H 2992   1.345   2.559  16.523  2.2949  0.6069 -1.8414
  193MPD1    H1 2993   1.473   2.151  16.613 -0.2268  0.6204 -0.0579
  193MPD1    H2 2994   1.151   2.214  16.363  0.1728  0.8711 -0.0602
  193MPD1    H3 2995   1.296   2.067  16.489 -1.3700  0.0931 -2.7612
  193MPD1     N 2996   1.514   2.401  16.686  0.7179  0.3441 -0.1561
  193MPD1    H5 2997   1.569   2.332  16.736 -0.0764 -0.0921  0.0984
  193MPD1    N1 2998   1.146   2.483  16.365 -0.1113 -0.3605  0.7887
  193MPD1    H6 2999   1.087   2.441  16.293 -0.6537  0.1143  0.9528
  193MPD1    H7 3000   1.185   2.572  16.335  2.0928 -1.4831  0.3798
  194MPD1     C 3001   3.529   0.113  17.187  0.0445  0.1548 -0.1825
  194MPD1    C1 3002   3.628   0.115  17.095 -0.4247  0.1936 -0.4746
  194MPD1    C2 3003   3.715   0.009  17.086 -0.0831  0.5278 -0.5011
  194MPD1    C3 3004   3.707   4.635  17.166 -0.0902 -0.1002  0.4908
  194MPD1    C4 3005   3.609   4.631  17.257  0.0744 -0.1305 -0.6702
  194MPD1    C5 3006   3.535   0.004  17.273  0.8268 -0.0363 -0.2481
  194MPD1     H 3007   3.794   0.011  17.011  1.2733  0.8471  0.9401
  194MPD1    H1 3008   3.604   4.547  17.325 -0.4480 -0.9038 -1.6634
  194MPD1    H2 3009   3.459   0.194  17.205 -0.7096 -0.3260 -0.9288
  194MPD1    H3 3010   3.456   4.735  17.347 -0.2822  1.4779 -1.3052
  194MPD1     N 3011   3.790   4.521  17.170  0.0380  0.1621  0.1469
  194MPD1    H5 3012   3.775   4.442  17.231 -2.8444 -0.9290 -1.9922
  194MPD1    N1 3013   3.653   0.235  17.021  0.9639 -0.7042 -0.6124
  194MPD1    H6 3014   3.689   0.222  16.927  1.7208 -0.9795 -0.2914
  194MPD1    H7 3015   3.570   0.292  17.017  2.2449  1.3167  1.2084
  195MPD1     C 3016   2.318   1.052   1.048 -0.1432  0.0861  0.2719
  195MPD1    C1 3017   2.185   1.041   0.997  0.0236  1.0149 -0.1254
  195MPD1    C2 3018   2.163   1.036   0.864 -0.4350  0.4599  0.6052
  195MPD1    C3 3019   2.263   1.026   0.772  0.2947  0.0011  0.0476
  195MPD1    C4 3020   2.395   1.028   0.816  0.2097  0.0558 -0.0307
  195MPD1    C5 3021   2.413   1.034   0.953  0.4881  0.0473  0.9263
  195MPD1     H 3022   2.060   1.016   0.836  0.5527  0.2267 -2.9191
  195MPD1    H1 3023   2.480   1.038   0.749 -0.4178  0.6682 -0.7268
  195MPD1    H2 3024   2.341   1.081   1.150  1.2904  1.2181 -0.3728
  195MPD1    H3 3025   2.512   1.045   0.995  1.8853 -0.8193 -2.0896
  195MPD1     N 3026   2.244   1.011   0.634 -0.3300 -0.9107  0.0642
  195MPD1    H5 3027   2.324   1.022   0.573 -1.8184  0.1852 -1.6926
  195MPD1    N1 3028   2.072   1.018   1.080  0.2146  0.8318 -0.1770
  195MPD1    H6 3029   2.078   1.048   1.178  0.5422  0.1045  0.0254
  195MPD1    H7 3030   1.985   1.057   1.043 -0.5132 -1.4154 -0.8287
  196MPD1     C 3031   0.389   0.281  17.462  0.7440 -0.3119 -0.3129
  196MPD1    C1 3032   0.444   0.396  17.523 -0.1519  0.2194  0.9344
  196MPD1    C2 3033   0.463   0.397  17.662  0.1991  0.5720 -0.6274
  196MPD1    C3 3034   0.414   0.298  17.743  0.4466  0.0809  0.1702
  196MPD1    C4 3035   0.355   0.189  17.682 -0.0529 -0.8398  0.4577
  196MPD1    C5 3036   0.355   0.178  17.541  0.7191 -0.0408  0.8892
  196MPD1     H 3037   0.509   0.488  17.696 -0.2706  0.2649  0.8185
  196MPD1    H1 3038   0.315   0.103  17.735 -0.9135  0.1615  1.4280
  196MPD1    H2 3039   0.368   0.281  17.355 -1.7274 -2.3472  0.1879
  196MPD1    H3 3040   0.318   0.082  17.505  0.8236 -0.3207  1.5254
  196MPD1     N 3041   0.415   0.307   0.139 -0.3100 -0.3001 -0.4577
  196MPD1    H5 3042   0.360   0.243   0.195  0.0962 -0.4339 -0.2065
  196MPD1    N1 3043   0.492   0.507  17.453  0.5039  0.1727  0.6124
  196MPD1    H6 3044   0.467   0.589  17.508 -0.1078  0.3735  0.0385
  196MPD1    H7 3045   0.451   0.499  17.360  1.2096 -1.8267  0.4713
  197MPD1     C 3046   4.539   4.064  17.232 -0.1606  0.0656 -0.0345
  197MPD1    C1 3047   4.554   3.954  17.153 -0.2759 -0.4951 -0.0304
  197MPD1    C2 3048   4.681   3.910  17.132 -0.2814  0.4382 -0.0176
  197MPD1    C3 3049   0.055   3.979  17.173 -0.1883  0.3962 -0.0870
  197MPD1    C4 3050   0.035   4.095  17.247  0.0162 -0.1054 -0.0197
  197MPD1    C5 3051   4.648   4.133  17.277 -0.6198 -0.5560  0.2902
  197MPD1     H 3052   4.692   3.813  17.086 -0.1706  0.0976  0.7157
  197MPD1    H1 3053   0.121   4.159  17.264 -0.2882  0.3563 -0.2120
  197MPD1    H2 3054   4.446   4.096  17.277  0.0922  0.2844  0.3337
  197MPD1    H3 3055   4.626   4.224  17.333 -2.2198 -0.6552 -0.1788
  197MPD1     N 3056   0.190   3.938  17.149 -0.3652 -0.1171  0.5190
  197MPD1    H5 3057   0.272   3.982  17.190 -0.6289  0.4146  0.4652
  197MPD1    N1 3058   4.441   3.871  17.136  0.0302 -0.0247 -0.6286
  197MPD1    H6 3059   4.463   3.816  17.053 -1.0646  0.0505 -0.9684
  197MPD1    H7 3060   4.356   3.923  17.116 -0.2460  0.1351  0.9969
  198MPD1     C 3061   1.794   1.599  15.704  0.1667 -0.3056  0.4215
  198MPD1    C1 3062   1.903   1.685  15.706 -0.0025  0.1688 -0.4976
  198MPD1    C2 3063   2.019   1.631  15.752  0.0724 -0.2270 -0.2072
  198MPD1    C3 3064   2.027   1.504  15.803 -0.6271 -1.1338 -0.1339
  198MPD1    C4 3065   1.916   1.427  15.803  0.4808 -0.8919 -0.2156
  198MPD1    C5 3066   1.803   1.474  15.750  0.4844 -0.1269  0.6564
  198MPD1     H 3067   2.112   1.688  15.752  0.1106 -0.2848 -1.4574
  198MPD1    H1 3068   1.908   1.328  15.847 -0.7821 -0.8134 -0.2574
  198MPD1    H2 3069   1.704   1.635  15.656  1.0341  1.2443 -0.0176
  198MPD1    H3 3070   1.721   1.402  15.743  0.3400  0.0120  0.9654
  198MPD1     N 3071   2.144   1.478  15.868  0.0311 -0.4771 -0.2626
  198MPD1    H5 3072   2.210   1.554  15.878 -2.2965  1.6865 -1.2508
  198MPD1    N1 3073   1.902   1.807  15.655  0.3082 -0.3035 -0.2966
  198MPD1    H6 3074   1.974   1.856  15.707 -1.4109  2.2175 -0.2726
  198MPD1    H7 3075   1.817   1.856  15.682  0.5501  0.4297 -0.8587
  199MPD1     C 3076   0.336   3.133  10.051 -0.5634 -0.0973 -0.1084
  199MPD1    C1 3077   0.247   3.053   9.981 -0.0471  0.2375  0.4668
  199MPD1    C2 3078   0.130   3.105   9.939  0.3806 -0.0552 -0.2459
  199MPD1    C3 3079   0.108   3.247   9.947  0.0468  0.7119  0.2768
  199MPD1    C4 3080   0.197   3.322  10.023  0.0814 -1.0657  0.8592
  199MPD1    C5 3081   0.301   3.262  10.080  0.5008 -0.2004  0.0514
  199MPD1     H 3082   0.058   3.028   9.910 -0.0978  0.7379 -1.1571
  199MPD1    H1 3083   0.174   3.426  10.042  1.9864 -0.4450 -0.1799
  199MPD1    H2 3084   0.432   3.098  10.088  0.0975  2.9244  0.9956
  199MPD1    H3 3085   0.368   3.317  10.145  1.0039 -0.9422  0.1558
  199MPD1     N 3086   4.723   3.307   9.916  0.0471  0.1537  0.2948
  199MPD1    H5 3087   4.714   3.403   9.946 -2.4322  0.0281 -0.0709
  199MPD1    N1 3088   0.280   2.914   9.970 -0.2586 -0.5115  0.5923
  199MPD1    H6 3089   0.222   2.859  10.033  1.6110  0.4348  3.1437
  199MPD1    H7 3090   0.377   2.898   9.999 -0.9094 -1.3988  2.2291
  200MPD1     C 3091   3.614   2.343  16.147  0.0958 -0.3096  0.1067
  200MPD1    C1 3092   3.557   2.253  16.055 -0.1896  0.3618 -0.0130
  200MPD1    C2 3093   3.604   2.255  15.929 -0.7140  0.0504  0.3401
  200MPD1    C3 3094   3.711   2.337  15.887  0.0685 -0.6344  0.3340
  200MPD1    C4 3095   3.770   2.426  15.979 -0.1329  0.4470  0.1997
  200MPD1    C5 3096   3.719   2.424  16.108  0.1371  1.2507  0.4542
  200MPD1     H 3097   3.561   2.193  15.851 -1.0661  0.0601  0.5275
  200MPD1    H1 3098   3.859   2.485  15.962 -1.0791  1.2566 -1.9279
  200MPD1    H2 3099   3.584   2.338  16.251  0.2560 -2.0180  0.0618
  200MPD1    H3 3100   3.767   2.487  16.182 -2.7250 -0.3027  3.6612
  200MPD1     N 3101   3.743   2.328  15.749 -0.5747  0.4899 -1.0250
  200MPD1    H5 3102   3.694   2.258  15.694 -2.8599  0.7483  0.6669
  200MPD1    N1 3103   3.440   2.187  16.081 -0.2933 -0.0458  0.2348
  200MPD1    H6 3104   3.429   2.101  16.028 -4.0142  1.5049 -1.5067
  200MPD1    H7 3105   3.442   2.156  16.178 -0.6471  0.0828  0.2835
  201MPD1     C 3106   1.488   2.080  13.105  0.2212 -0.0106 -0.9102
  201MPD1    C1 3107   1.596   1.999  13.093  0.1020 -0.3133 -0.0410
  201MPD1    C2 3108   1.586   1.860  13.104 -0.4161 -0.7165 -0.9215
  201MPD1    C3 3109   1.470   1.794  13.143  0.7489 -0.2751  0.4083
  201MPD1    C4 3110   1.358   1.882  13.153 -0.1061  0.2717  0.0236
  201MPD1    C5 3111   1.368   2.022  13.137 -0.0785  0.1189  0.7790
  201MPD1     H 3112   1.678   1.802  13.110 -0.9773 -1.2632  1.9754
  201MPD1    H1 3113   1.264   1.840  13.187  0.8242 -0.8862  1.1761
  201MPD1    H2 3114   1.479   2.188  13.104 -0.3351 -0.0584 -1.3642
  201MPD1    H3 3115   1.276   2.074  13.162 -0.2834  1.1584 -2.1844
  201MPD1     N 3116   1.469   1.654  13.175  0.2323 -0.6441 -0.0036
  201MPD1    H5 3117   1.560   1.608  13.174  1.0716  1.0258 -0.2383
  201MPD1    N1 3118   1.725   2.052  13.078 -0.5726 -0.2954  0.0007
  201MPD1    H6 3119   1.781   1.993  13.017  0.4714 -0.4557  1.1061
  201MPD1    H7 3120   1.721   2.143  13.033 -2.0277  0.1015  0.9391
  202MPD1     C 3121   1.469   1.542   9.265 -0.3360 -0.0937  0.7307
  202MPD1    C1 3122   1.367   1.631   9.297  0.0304  0.3304  0.0264
  202MPD1    C2 3123   1.407   1.730   9.391 -0.3159 -0.4384 -0.7768
  202MPD1    C3 3124   1.513   1.708   9.476 -0.2893 -0.2095  0.3721
  202MPD1    C4 3125   1.597   1.597   9.453 -0.4828  0.5212  0.2959
  202MPD1    C5 3126   1.574   1.518   9.349  0.8086 -0.1529  0.2139
  202MPD1     H 3127   1.335   1.809   9.414  1.2891  0.6235  0.5404
  202MPD1    H1 3128   1.684   1.582   9.516  1.1417 -1.2407 -2.3742
  202MPD1    H2 3129   1.459   1.485   9.173 -1.3991  1.9875 -0.4665
  202MPD1    H3 3130   1.647   1.442   9.325  1.5397 -0.3863  3.1904
  202MPD1     N 3131   1.542   1.784   9.587 -0.5752  0.2124  0.3269
  202MPD1    H5 3132   1.635   1.770   9.625 -0.7517  1.6888  1.2955
  202MPD1    N1 3133   1.281   1.677   9.194  0.9061 -0.4108  0.3256
  202MPD1    H6 3134   1.227   1.596   9.161  1.8296 -1.8712  2.3527
  202MPD1    H7 3135   1.204   1.733   9.231 -1.1882 -2.9675 -0.1419
  203MPD1     C 3136   4.530   2.629  12.578 -0.7160  0.1368 -0.5083
  203MPD1    C1 3137   4.539   2.537  12.479  1.0242  0.2959  0.1442
  203MPD1    C2 3138   4.591   2.410  12.515  0.8789 -0.0664  0.0948
  203MPD1    C3 3139   4.634   2.383  12.648  0.4689  0.6138  0.0782
  203MPD1    C4 3140   4.612   2.480  12.745  0.2911 -0.0670 -0.5140
  203MPD1    C5 3141   4.563   2.600  12.706  0.2598  0.2711  0.6629
  203MPD1     H 3142   4.609   2.342  12.433  0.0886 -1.2645  0.9030
  203MPD1    H1 3143   4.634   2.475  12.851  0.7508 -0.5073 -0.6341
  203MPD1    H2 3144   4.500   2.731  12.559  2.1322  1.3440  1.2892
  203MPD1    H3 3145   4.534   2.669  12.785  1.1222  0.2257  1.0216
  203MPD1     N 3146   4.686   2.249  12.674  0.0516  1.0319  0.6898
  203MPD1    H5 3147   4.691   2.195  12.589  1.8287 -2.1407  2.8049
  203MPD1    N1 3148   4.540   2.584  12.349 -0.1949 -0.5602  0.0841
  203MPD1    H6 3149   4.482   2.665  12.326  2.0206  0.4738 -1.8118
  203MPD1    H7 3150   4.544   2.517  12.273  1.8301 -0.9970  0.5862
  204MPD1     C 3151   3.933   3.542  17.651 -0.5586  0.4023  0.2761
  204MPD1    C1 3152   4.038   3.569  17.566 -0.7188  0.3127 -0.5532
  204MPD1    C2 3153   4.105   3.461  17.510 -0.1861 -0.7613 -0.7784
  204MPD1    C3 3154   4.095   3.324  17.551  0.2238 -0.5152 -0.1693
  204MPD1    C4 3155   3.982   3.306  17.638 -0.4250  0.1874 -0.5885
  204MPD1    C5 3156   3.902   3.409  17.683  0.3478  0.7263  0.2709
  204MPD1     H 3157   4.186   3.487  17.443 -0.1553 -2.2026 -1.2977
  204MPD1    H1 3158   3.950   3.207  17.670 -0.5089  1.0382  1.9858
  204MPD1    H2 3159   3.878   3.615  17.709  1.7703  2.1021  0.3392
  204MPD1    H3 3160   3.820   3.385   0.000  1.8201 -0.8383  1.5259
  204MPD1     N 3161   4.192   3.223  17.517 -1.1514 -0.4087 -0.4314
  204MPD1    H5 3162   4.265   3.252  17.453  0.0727  1.3691  1.7627
  204MPD1    N1 3163   4.042   3.701  17.517  0.1596  0.2282 -0.4430
  204MPD1    H6 3164   4.135   3.731  17.487  0.6428 -0.5418  0.2763
  204MPD1    H7 3165   4.013   3.762  17.593 -1.3685 -2.1241  0.8563
  205MPD1     C 3166   4.683   1.868  16.668  0.7932 -0.0345 -0.3499
  205MPD1    C1 3167   4.686   1.750  16.732  0.7491  0.4113 -0.2169
  205MPD1    C2 3168   4.646   1.747  16.865 -0.3251  1.0240  0.5199
  205MPD1    C3 3169   4.585   1.856  16.925 -0.0406  1.1204 -0.3549
  205MPD1    C4 3170   4.570   1.975  16.856  0.3255 -0.0246 -0.3247
  205MPD1    C5 3171   4.626   1.978  16.728  0.4692 -0.7143 -0.0412
  205MPD1     H 3172   4.662   1.653  16.915  0.0322  0.3859 -0.7786
  205MPD1    H1 3173   4.534   2.069  16.895 -0.1553 -0.5767  0.5531
  205MPD1    H2 3174   4.705   1.885  16.564 -1.2012 -0.4832 -0.8336
  205MPD1    H3 3175   4.635   2.069  16.670 -1.3080 -0.5785 -0.1004
  205MPD1     N 3176   4.530   1.854  17.048  0.7363 -0.3958  0.2093
  205MPD1    H5 3177   4.485   1.943  17.069  2.2397  0.6838 -1.2450
  205MPD1    N1 3178   0.035   1.655  16.673  0.0908 -0.7107  0.1462
  205MPD1    H6 3179   0.055   1.667  16.574  0.6843 -0.6869  0.2693
  205MPD1    H7 3180   0.016   1.556  16.686  0.1036 -0.5993  1.0391
  206MPD1     C 3181   0.107   0.462  15.739 -0.1106 -0.6467 -0.3655
  206MPD1    C1 3182   4.723   0.524  15.725 -0.9489  0.3131  0.7878
  206MPD1    C2 3183   4.609   0.456  15.761 -0.0319 -0.3318  0.5965
  206MPD1    C3 3184   4.611   0.332  15.830  0.1529 -0.0026  0.1726
  206MPD1    C4 3185   4.737   0.275  15.847  0.5667  0.0372  0.3558
  206MPD1    C5 3186   0.111   0.336  15.799  0.9122 -0.3248 -0.6000
  206MPD1     H 3187   4.517   0.499  15.723 -0.1607 -1.1884 -0.0593
  206MPD1    H1 3188   0.010   0.191  15.915  0.0104 -1.0119 -0.8510
  206MPD1    H2 3189   0.198   0.510  15.707 -0.3276  1.4309  2.2208
  206MPD1    H3 3190   0.210   0.291  15.804 -0.1764 -2.6977 -0.6223
  206MPD1     N 3191   4.499   0.267  15.895  0.1379 -0.7561  0.7170
  206MPD1    H5 3192   4.513   0.171  15.922 -0.5799 -1.3962 -1.2157
  206MPD1    N1 3193   4.725   0.636  15.645 -0.3891 -0.5852  0.0219
  206MPD1    H6 3194   4.642   0.688  15.676 -1.1512 -1.0291 -1.2986
  206MPD1    H7 3195   0.075   0.686  15.652 -1.0731  0.4823  0.9702
  207MPD1     C 3196   3.697   2.766   9.202 -0.3886  0.4077  0.4841
  207MPD1    C1 3197   3.660   2.695   9.308  0.5587  0.9041 -0.3322
  207MPD1    C2 3198   3.538   2.725   9.371  0.3741 -0.1906  0.1245
  207MPD1    C3 3199   3.464   2.839   9.328 -0.3495  0.7921  0.2491
  207MPD1    C4 3200   3.520   2.916   9.228  0.4069 -0.1622  0.1187
  207MPD1    C5 3201   3.634   2.878   9.162 -0.0312  0.2953 -0.0906
  207MPD1     H 3202   3.502   2.666   9.454  0.6793 -0.8370 -0.2057
  207MPD1    H1 3203   3.458   2.995   9.188  2.4628  1.7141  0.6655
  207MPD1    H2 3204   3.785   2.737   9.145 -0.8775 -0.0437 -0.0400
  207MPD1    H3 3205   3.656   2.919   9.064 -1.0787 -0.9371 -0.8445
  207MPD1     N 3206   3.339   2.876   9.383  0.2639 -0.8444 -0.6893
  207MPD1    H5 3207   3.299   2.965   9.355  1.9321  0.4215  0.9447
  207MPD1    N1 3208   3.721   2.565   9.319  0.8486 -0.0202 -0.7557
  207MPD1    H6 3209   3.821   2.573   9.302  1.0026 -1.0478 -0.3235
  207MPD1    H7 3210   3.701   2.523   9.410  0.0136  0.0126 -0.9228
  208MPD1     C 3211   0.293   1.146  17.284  0.1241 -0.0327  0.0773
  208MPD1    C1 3212   0.165   1.178  17.240 -0.0261 -0.2422 -0.3503
  208MPD1    C2 3213   0.067   1.107  17.293  0.0016 -0.2944 -0.4974
  208MPD1    C3 3214   0.089   1.010  17.386  0.3283 -0.3193  0.3756
  208MPD1    C4 3215   0.216   0.979  17.427  0.1428 -0.4393 -0.0266
  208MPD1    C5 3216   0.320   1.041  17.370  0.5478  0.6082  0.5374
  208MPD1     H 3217   4.705   1.123  17.251  0.7913  1.8996 -1.5210
  208MPD1    H1 3218   0.235   0.918  17.514 -1.6094  1.7630  1.8959
  208MPD1    H2 3219   0.384   1.198  17.258  0.0797 -0.0902 -0.1955
  208MPD1    H3 3220   0.424   1.025  17.396  0.3247 -0.6557  0.6543
  208MPD1     N 3221   4.712   0.959  17.447  0.2344  0.1296 -0.3033
  208MPD1    H5 3222   4.621   0.996  17.422 -0.2317 -2.4087 -2.4501
  208MPD1    N1 3223   0.146   1.298  17.172  0.4580  0.1451  0.3377
  208MPD1    H6 3224   0.072   1.289  17.103 -0.4901 -0.1048  1.3918
  208MPD1    H7 3225   0.228   1.310  17.112 -0.1376 -0.7017 -0.6479
  209MPD1     C 3226   1.552   2.431  10.318 -0.3639 -0.0515  0.4790
  209MPD1    C1 3227   1.640   2.368  10.405  0.0944  0.4770  0.1470
  209MPD1    C2 3228   1.775   2.414  10.403  0.2952  0.0317 -0.1623
  209MPD1    C3 3229   1.810   2.526  10.325  0.3832  0.1996  0.5445
  209MPD1    C4 3230   1.716   2.590  10.247 -1.0960 -0.5048 -0.2056
  209MPD1    C5 3231   1.590   2.535  10.235 -0.3012  0.5222 -0.0323
  209MPD1     H 3232   1.855   2.365  10.457 -0.2462 -0.0338  0.5751
  209MPD1    H1 3233   1.738   2.675  10.184 -0.1761  0.2713  1.1544
  209MPD1    H2 3234   1.455   2.385  10.307 -0.9049  1.4299 -0.8519
  209MPD1    H3 3235   1.524   2.576  10.160 -0.5750  1.5509  0.7700
  209MPD1     N 3236   1.949   2.568  10.328  0.4906  0.1798  0.1225
  209MPD1    H5 3237   2.001   2.541  10.411  0.2809 -0.4489  0.0497
  209MPD1    N1 3238   1.587   2.251  10.470  0.5046 -0.3528 -0.4199
  209MPD1    H6 3239   1.626   2.219  10.558  0.3275  0.3319 -0.0914
  209MPD1    H7 3240   1.486   2.253  10.481  0.5431  1.0114 -0.3406
  210MPD1     C 3241   2.419   2.848  11.011 -0.2925  0.1990  0.4784
  210MPD1    C1 3242   2.499   2.784  10.922  0.3489  0.2610 -0.3280
  210MPD1    C2 3243   2.451   2.765  10.795 -0.1208  0.6690 -0.5579
  210MPD1    C3 3244   2.332   2.806  10.742  0.6464  0.6040 -0.8553
  210MPD1    C4 3245   2.254   2.876  10.830 -0.1931  0.3317  0.0468
  210MPD1    C5 3246   2.296   2.894  10.958  0.3161  0.4372 -0.2930
  210MPD1     H 3247   2.511   2.709  10.724  0.5756 -1.8521  2.0746
  210MPD1    H1 3248   2.159   2.916  10.796 -0.3400  0.0576  0.1363
  210MPD1    H2 3249   2.434   2.870  11.116 -0.0461  0.9252  0.2911
  210MPD1    H3 3250   2.225   2.921  11.036  0.8592 -0.8597  0.6531
  210MPD1     N 3251   2.292   2.795  10.606 -0.4684 -0.4897  0.2825
  210MPD1    H5 3252   2.198   2.829  10.588 -0.5804 -0.3049  1.2147
  210MPD1    N1 3253   2.609   2.716  10.974 -0.4727 -0.7212 -0.0498
  210MPD1    H6 3254   2.640   2.748  11.066 -2.1896 -2.9938  1.3152
  210MPD1    H7 3255   2.689   2.718  10.910 -1.2124  0.5272 -0.9249
  211MPD1     C 3256   4.297   0.860  16.885  1.0288 -0.7325 -0.5151
  211MPD1    C1 3257   4.340   0.954  16.796  0.0082 -0.3233 -0.3978
  211MPD1    C2 3258   4.279   1.080  16.786  0.3675 -0.3023 -0.2372
  211MPD1    C3 3259   4.152   1.093  16.838  0.0902 -0.5936  0.0447
  211MPD1    C4 3260   4.098   0.990  16.917  0.0366 -0.3175 -0.2023
  211MPD1    C5 3261   4.179   0.882  16.940  0.2916 -0.1071 -0.2106
  211MPD1     H 3262   4.327   1.155  16.724  1.7243 -0.7337  0.2883
  211MPD1    H1 3263   3.998   0.987  16.960 -1.0399 -0.1384 -2.6913
  211MPD1    H2 3264   4.358   0.775  16.914  1.8334 -0.3675 -1.1519
  211MPD1    H3 3265   4.140   0.810  17.011  1.3273  0.8221  1.3048
  211MPD1     N 3266   4.089   1.217  16.820 -0.2606 -0.2520 -0.3159
  211MPD1    H5 3267   4.136   1.284  16.761  1.7157 -0.3072  1.2125
  211MPD1    N1 3268   4.467   0.936  16.738  0.5009 -0.5344 -0.3892
  211MPD1    H6 3269   4.485   0.982  16.650  1.8452 -0.6585 -0.1715
  211MPD1    H7 3270   4.507   0.842  16.733 -0.6854 -0.9239 -2.7076
  212MPD1     C 3271   3.712   0.357  16.620  0.3795 -0.3955  0.0864
  212MPD1    C1 3272   3.573   0.355  16.646 -0.5396 -0.4036 -0.9491
  212MPD1    C2 3273   3.514   0.239  16.703 -0.5038  0.1379  0.1450
  212MPD1    C3 3274   3.590   0.126  16.737  0.1471 -0.7976  0.7511
  212MPD1    C4 3275   3.729   0.130  16.713 -0.6445 -0.0774 -0.3889
  212MPD1    C5 3276   3.782   0.245  16.657 -0.2873  0.3723 -0.3048
  212MPD1     H 3277   3.406   0.247  16.711 -0.7357 -1.0932 -1.8256
  212MPD1    H1 3278   3.801   0.051  16.731 -0.5537  0.2760  0.7670
  212MPD1    H2 3279   3.765   0.434  16.566  1.2420 -0.5996  0.6395
  212MPD1    H3 3280   3.887   0.254  16.630  0.1125 -1.4280  0.6704
  212MPD1     N 3281   3.545   0.008  16.801 -0.4573  0.0161  0.2525
  212MPD1    H5 3282   3.607   4.671  16.834  1.6009  1.8658  0.6007
  212MPD1    N1 3283   3.482   0.452  16.595 -0.3280 -0.4376 -0.0494
  212MPD1    H6 3284   3.531   0.534  16.559  0.3528 -1.2212 -0.9031
  212MPD1    H7 3285   3.411   0.477  16.664 -0.7414  1.1122 -1.0421
  213MPD1     C 3286   2.276   0.390  15.898 -0.3346 -0.0776  0.0307
  213MPD1    C1 3287   2.156   0.363  15.834  0.1524  0.0587  0.0453
  213MPD1    C2 3288   2.136   0.462  15.735 -0.4767  0.3633  0.0521
  213MPD1    C3 3289   2.238   0.543  15.687  0.3620  1.0172 -0.2999
  213MPD1    C4 3290   2.368   0.540  15.734  0.4237 -0.1107  0.2094
  213MPD1    C5 3291   2.378   0.456  15.841 -0.3521 -0.1358  0.2284
  213MPD1     H 3292   2.033   0.467  15.699 -0.3456  0.8130 -0.2581
  213MPD1    H1 3293   2.454   0.590  15.691 -0.6694 -0.0673 -1.9721
  213MPD1    H2 3294   2.319   0.331  15.978 -0.3254 -0.5211 -0.3017
  213MPD1    H3 3295   2.476   0.443  15.886 -0.1982 -0.7615 -0.2887
  213MPD1     N 3296   2.208   0.643  15.587  0.1149  0.0166  0.7241
  213MPD1    H5 3297   2.111   0.652  15.558  0.3764  0.8138  0.1032
  213MPD1    N1 3298   2.050   0.315  15.910 -0.0227 -0.2907 -0.0052
  213MPD1    H6 3299   2.090   0.240  15.967 -0.4853 -0.5698 -0.0538
  213MPD1    H7 3300   1.979   0.274  15.850 -0.3979 -1.3037  1.1231
  214MPD1     C 3301   1.416   0.798  15.243  0.2297  0.1285  0.6943
  214MPD1    C1 3302   1.468   0.922  15.252  0.3201  0.1888 -0.1884
  214MPD1    C2 3303   1.599   0.936  15.291 -0.0369 -0.9147 -0.7766
  214MPD1    C3 3304   1.670   0.833  15.331 -0.9469 -0.0327  0.1367
  214MPD1    C4 3305   1.608   0.709  15.339 -0.1309 -0.1938 -0.3504
  214MPD1    C5 3306   1.484   0.691  15.291 -0.1352  0.1296  1.3046
  214MPD1     H 3307   1.638   1.037  15.286  0.3059 -0.9408  1.5346
  214MPD1    H1 3308   1.659   0.621  15.376  0.7172  0.8996  1.0748
  214MPD1    H2 3309   1.317   0.775  15.204  1.0086  1.0124 -1.7816
  214MPD1    H3 3310   1.437   0.593  15.288  0.2995 -0.0747  1.1867
  214MPD1     N 3311   1.808   0.843  15.371 -0.1237 -0.1645  0.6992
  214MPD1    H5 3312   1.856   0.755  15.378  0.2061  0.0489  1.1042
  214MPD1    N1 3313   1.404   1.022  15.172  0.6270  0.5024  0.6833
  214MPD1    H6 3314   1.422   1.121  15.192 -0.8559  0.8279  0.4026
  214MPD1    H7 3315   1.304   1.004  15.167  1.1069 -1.9921  0.3914
  215MPD1     C 3316   0.986   2.043  11.137 -0.0010  0.6860 -0.1418
  215MPD1    C1 3317   1.052   2.085  11.020 -0.4122 -0.4525  0.7458
  215MPD1    C2 3318   1.185   2.125  11.040  0.4225 -0.0657 -0.1340
  215MPD1    C3 3319   1.252   2.108  11.160 -0.2354 -0.1426 -0.5005
  215MPD1    C4 3320   1.181   2.049  11.263  1.1656 -0.5642 -0.1859
  215MPD1    C5 3321   1.052   2.018  11.250  0.3456  0.6114  0.3791
  215MPD1     H 3322   1.254   2.151  10.961 -0.0395  1.3477 -0.0771
  215MPD1    H1 3323   1.227   2.011  11.354  0.9156 -0.2652  0.0635
  215MPD1    H2 3324   0.879   2.023  11.134  0.5227 -2.0138 -0.7227
  215MPD1    H3 3325   0.998   1.977  11.335 -0.2543  0.4226 -0.0941
  215MPD1     N 3326   1.393   2.139  11.170  0.0950  0.1715 -0.6412
  215MPD1    H5 3327   1.439   2.168  11.085  1.4794 -0.4395 -0.1051
  215MPD1    N1 3328   0.971   2.113  10.910  0.3966  0.2589  0.1857
  215MPD1    H6 3329   1.025   2.110  10.824  3.2629  1.0802  1.9386
  215MPD1    H7 3330   0.888   2.056  10.895  0.5405 -0.5989  2.5661
  216MPD1     C 3331   3.438   4.689   0.014 -0.2797 -0.3258 -0.0909
  216MPD1    C1 3332   3.339   4.620   0.085  0.7435 -0.3638  0.8912
  216MPD1    C2 3333   3.323   4.479   0.057  0.1874  0.2194  0.6749
  216MPD1    C3 3334   3.394   4.417  17.705  0.0381 -0.2751  0.3274
  216MPD1    C4 3335   3.473   4.500  17.625 -0.1232  0.6360  0.6987
  216MPD1    C5 3336   3.506   4.624  17.662  0.4939 -0.0011 -0.4418
  216MPD1     H 3337   3.245   4.425   0.109  0.1054  0.6453  0.9958
  216MPD1    H1 3338   3.523   4.471  17.533  1.7400 -0.2806  2.0111
  216MPD1    H2 3339   3.458   0.057   0.022  1.9192 -0.8496  1.4506
  216MPD1    H3 3340   3.579   4.673  17.598 -1.0646  1.5856 -1.0114
  216MPD1     N 3341   3.380   4.281  17.674  0.1426 -0.5005 -0.1587
  216MPD1    H5 3342   3.327   4.231  17.745  0.8246 -1.4438 -0.3174
  216MPD1    N1 3343   3.238   4.688   0.164 -0.1735 -0.3328 -0.1791
  216MPD1    H6 3344   3.271   0.043   0.191 -0.9381 -0.4551  1.1450
  216MPD1    H7 3345   3.206   4.632   0.243 -0.1364  1.3336  1.0304
  217MPD1     C 3346   0.200   0.978   8.789 -0.0442  0.2258 -0.0523
  217MPD1    C1 3347   0.098   1.069   8.809  0.5192 -0.0352  0.5724
  217MPD1    C2 3348   0.138   1.191   8.863  0.3500  0.4592  0.3537
  217MPD1    C3 3349   0.273   1.216   8.908  0.4552  1.2278 -0.0303
  217MPD1    C4 3350   0.365   1.120   8.877  0.0128  0.4954  0.4002
  217MPD1    C5 3351   0.329   1.003   8.817 -0.5435 -0.4298 -0.5514
  217MPD1     H 3352   0.064   1.269   8.871 -0.7648 -0.7107  1.5824
  217MPD1    H1 3353   0.471   1.128   8.901  0.3407  0.2477 -0.9892
  217MPD1    H2 3354   0.193   0.883   8.738 -0.4824 -0.0556  0.5437
  217MPD1    H3 3355   0.405   0.937   8.776  0.8274  1.2327 -0.7032
  217MPD1     N 3356   0.325   1.340   8.952 -0.3197  0.0983 -0.5251
  217MPD1    H5 3357   0.426   1.341   8.953 -0.3609  2.6293 -0.2019
  217MPD1    N1 3358   4.712   1.047   8.747  0.0489 -0.5846 -0.1798
  217MPD1    H6 3359   4.681   0.952   8.728 -0.1103 -0.2171 -1.7924
  217MPD1    H7 3360   4.641   1.107   8.788  2.2001  0.7217  1.6371
  218MPD1     C 3361   0.862   1.400  12.602  0.5027  0.1824  0.2178
  218MPD1    C1 3362   0.859   1.520  12.658 -0.0927  0.4017 -0.2985
  218MPD1    C2 3363   0.975   1.583  12.704 -0.3840 -0.0051  0.4097
  218MPD1    C3 3364   1.093   1.514  12.714 -0.1514 -0.3514 -0.6801
  218MPD1    C4 3365   1.088   1.381  12.667  0.2697 -0.1328 -0.2281
  218MPD1    C5 3366   0.968   1.327  12.617 -0.0423  0.0362  0.0155
  218MPD1     H 3367   0.964   1.686  12.737  0.0116  0.2961 -0.4037
  218MPD1    H1 3368   1.175   1.316  12.663  0.1406 -0.3208  0.0456
  218MPD1    H2 3369   0.778   1.352  12.554 -0.1855  0.1638  1.4327
  218MPD1    H3 3370   0.971   1.223  12.588 -0.6362 -0.2166  0.8470
  218MPD1     N 3371   1.209   1.578  12.774  0.0817  0.1821  0.1288
  218MPD1    H5 3372   1.204   1.678  12.790 -0.2275 -0.1368  2.0998
  218MPD1    N1 3373   0.738   1.591  12.647 -0.4684  0.2099 -0.1606
  218MPD1    H6 3374   0.656   1.531  12.644 -0.8434  0.6811  0.5768
  218MPD1    H7 3375   0.732   1.653  12.727 -2.1424 -1.2722  0.8753
  219MPD1     C 3376   1.865   2.271  12.515 -0.1010  0.1559 -0.1968
  219MPD1    C1 3377   1.732   2.237  12.486  0.1563 -0.0544 -0.0552
  219MPD1    C2 3378   1.673   2.130  12.545 -0.1124 -0.0644  0.0812
  219MPD1    C3 3379   1.735   2.059  12.650 -0.7849  0.1448  0.0185
  219MPD1    C4 3380   1.872   2.084  12.670 -0.1491  0.1141  0.2939
  219MPD1    C5 3381   1.928   2.196  12.609 -0.1199 -0.3926 -0.4696
  219MPD1     H 3382   1.574   2.100  12.511 -0.0357 -0.0220 -0.1809
  219MPD1    H1 3383   1.920   2.029  12.749  1.3223  0.8279 -0.1145
  219MPD1    H2 3384   1.914   2.355  12.468 -2.5374  1.0120 -1.2041
  219MPD1    H3 3385   2.032   2.221  12.628 -1.1632  2.4800  1.5153
  219MPD1     N 3386   1.678   1.951  12.717 -0.1254 -0.0298  1.1268
  219MPD1    H5 3387   1.741   1.896  12.775 -3.5270 -3.7403  1.3070
  219MPD1    N1 3388   1.671   2.283  12.371 -0.0213 -0.2544  0.4287
  219MPD1    H6 3389   1.679   2.383  12.359 -2.9789 -0.2362 -1.5813
  219MPD1    H7 3390   1.571   2.263  12.376 -0.1762  0.0878 -1.5277
  220MPD1     C 3391   1.362   3.178   9.709 -1.4180  0.4387  0.1829
  220MPD1    C1 3392   1.253   3.217   9.788 -0.0459  0.1296 -0.4310
  220MPD1    C2 3393   1.242   3.140   9.904 -0.1430  0.5666 -0.1920
  220MPD1    C3 3394   1.325   3.031   9.942  0.2946 -0.1885  0.1462
  220MPD1    C4 3395   1.420   2.994   9.845 -0.2690  0.4605 -0.0179
  220MPD1    C5 3396   1.438   3.068   9.733 -0.4618 -0.1461 -0.4077
  220MPD1     H 3397   1.160   3.168   9.969 -0.9945 -0.1665 -0.9477
  220MPD1    H1 3398   1.485   2.909   9.863  0.7961  1.2786 -0.0364
  220MPD1    H2 3399   1.390   3.231   9.619  0.7605  0.0664  0.6520
  220MPD1    H3 3400   1.517   3.040   9.664  2.1258  0.2904  2.4180
  220MPD1     N 3401   1.311   2.974  10.065  0.3040 -0.0678 -0.7635
  220MPD1    H5 3402   1.223   2.990  10.113  1.4949  1.6750  0.8394
  220MPD1    N1 3403   1.191   3.339   9.778  0.7083  0.0336 -0.7730
  220MPD1    H6 3404   1.178   3.366   9.680  1.4704  1.7163 -0.4020
  220MPD1    H7 3405   1.091   3.332   9.800  0.5795  0.0361 -1.3521
  221MPD1     C 3406   3.595   1.857  16.622 -0.7166 -0.0015 -0.3690
  221MPD1    C1 3407   3.659   1.965  16.571 -0.0272 -0.4385  1.1937
  221MPD1    C2 3408   3.762   1.946  16.479  0.0229  0.8947  0.0791
  221MPD1    C3 3409   3.812   1.824  16.458  0.5180 -0.3545 -0.3783
  221MPD1    C4 3410   3.750   1.718  16.518 -0.0925 -0.0379  0.5085
  221MPD1    C5 3411   3.636   1.733  16.594  0.3207  0.6075 -0.4369
  221MPD1     H 3412   3.817   2.027  16.434 -0.1391  0.6598 -0.5342
  221MPD1    H1 3413   3.784   1.616  16.500  0.0809  0.0008  0.6181
  221MPD1    H2 3414   3.501   1.871  16.674  0.2880 -0.1009  1.4736
  221MPD1    H3 3415   3.581   1.651  16.638  1.2493 -0.9000 -2.0872
  221MPD1     N 3416   3.919   1.803  16.369  0.2929 -0.1000 -0.0898
  221MPD1    H5 3417   3.950   1.706  16.367 -1.4411 -0.6119 -1.6038
  221MPD1    N1 3418   3.619   2.092  16.607  0.1927  0.2852 -0.2183
  221MPD1    H6 3419   3.700   2.146  16.637 -0.1264  0.1790  0.8360
  221MPD1    H7 3420   3.542   2.087  16.674 -0.9055  1.3265 -1.3935
  222MPD1     C 3421   3.010   4.171   0.034  0.0518  0.0012 -0.9624
  222MPD1    C1 3422   2.988   4.301  17.737  0.3232  0.2207  0.5940
  222MPD1    C2 3423   2.915   4.376   0.076  0.1477 -0.6988 -0.2619
  222MPD1    C3 3424   2.881   4.341   0.206  0.2854  0.3661  0.0563
  222MPD1    C4 3425   2.902   4.214   0.245  0.3220  0.0590 -0.1350
  222MPD1    C5 3426   2.954   4.129   0.150 -0.5579 -0.4830  0.0935
  222MPD1     H 3427   2.879   4.473   0.043 -3.1913 -2.8219 -2.8574
  222MPD1    H1 3428   2.870   4.180   0.343  2.0578 -0.1475  0.3698
  222MPD1    H2 3429   3.056   4.092  17.724  0.8510  0.3477 -0.7949
  222MPD1    H3 3430   2.968   4.026   0.179 -0.4015 -0.3716  0.4132
  222MPD1     N 3431   2.806   4.421   0.300  0.4714 -0.1133 -0.1965
  222MPD1    H5 3432   2.771   4.374   0.382  0.8490 -0.2494 -0.1132
  222MPD1    N1 3433   3.020   4.339  17.618  0.4565 -0.4126 -0.2394
  222MPD1    H6 3434   3.046   4.438  17.618  1.6064 -0.7162  3.2094
  222MPD1    H7 3435   3.088   4.279  17.571 -0.5116 -1.3576 -0.4146
  223MPD1     C 3436   2.298   4.176   0.926 -0.0776  0.0582 -0.1848
  223MPD1    C1 3437   2.429   4.170   0.900 -0.0846  0.6229  0.4160
  223MPD1    C2 3438   2.465   4.255   0.799 -0.5778  0.6943 -0.6261
  223MPD1    C3 3439   2.388   4.348   0.746  0.0721  0.0592 -0.6321
  223MPD1    C4 3440   2.252   4.359   0.785 -0.7091 -1.5823 -0.0315
  223MPD1    C5 3441   2.208   4.262   0.868  0.8207  0.4363 -0.4234
  223MPD1     H 3442   2.570   4.256   0.774 -0.4938  0.4933 -0.2811
  223MPD1    H1 3443   2.186   4.436   0.748  1.2451  0.0649 -0.1168
  223MPD1    H2 3444   2.245   4.095   0.974 -0.2415  0.3141  0.0558
  223MPD1    H3 3445   2.100   4.256   0.874  0.8151  1.1353  0.1444
  223MPD1     N 3446   2.451   4.435   0.650 -0.0128 -0.1933 -0.5067
  223MPD1    H5 3447   2.551   4.425   0.637  0.1415 -0.4049  0.8249
  223MPD1    N1 3448   2.503   4.057   0.925  0.6025 -0.0521 -0.2097
  223MPD1    H6 3449   2.602   4.078   0.913  0.6965 -0.0302  0.6253
  223MPD1    H7 3450   2.487   4.015   1.016 -1.7286 -2.8245 -1.8804
  224MPD1     C 3451   0.926   2.803   9.153  0.3157  0.4383  0.5545
  224MPD1    C1 3452   0.815   2.842   9.210  0.4812 -0.0187  0.3735
  224MPD1    C2 3453   0.767   2.778   9.325  0.3930  0.2019 -0.1008
  224MPD1    C3 3454   0.845   2.688   9.384  0.2803 -0.1587  0.2494
  224MPD1    C4 3455   0.957   2.645   9.321 -0.1032  0.6686 -0.1565
  224MPD1    C5 3456   1.005   2.700   9.206 -0.4178 -0.5721 -0.3642
  224MPD1     H 3457   0.676   2.809   9.375  0.1417 -1.4686  0.4604
  224MPD1    H1 3458   1.025   2.571   9.361  1.4034  2.2324  0.1111
  224MPD1    H2 3459   0.961   2.840   9.057  1.3923 -2.6226 -0.2372
  224MPD1    H3 3460   1.087   2.650   9.157 -1.3766 -1.8269 -0.6891
  224MPD1     N 3461   0.813   2.632   9.514  0.1096  0.2629 -0.3592
  224MPD1    H5 3462   0.875   2.557   9.544 -1.4381  0.5757  3.5990
  224MPD1    N1 3463   0.722   2.931   9.144 -0.3075  0.5204 -0.7072
  224MPD1    H6 3464   0.643   2.966   9.199  0.0066  0.0071  0.0770
  224MPD1    H7 3465   0.756   3.009   9.088  0.5576  0.9140  0.3690
  225MPD1     C 3466   1.545   3.497  12.714  0.2094 -0.1120  0.6580
  225MPD1    C1 3467   1.584   3.368  12.730  0.0686 -1.0552  0.0043
  225MPD1    C2 3468   1.492   3.267  12.715 -0.2434 -0.5908 -0.0857
  225MPD1    C3 3469   1.359   3.297  12.702 -0.3036  0.0514  0.1395
  225MPD1    C4 3470   1.318   3.426  12.719  0.8802 -0.1485 -0.0072
  225MPD1    C5 3471   1.412   3.527  12.717  0.1419 -0.2364 -0.2212
  225MPD1     H 3472   1.530   3.168  12.694  4.3055  0.1993  4.4961
  225MPD1    H1 3473   1.211   3.437  12.731  0.8298  0.4646 -1.0256
  225MPD1    H2 3474   1.617   3.578  12.717 -0.4337  0.4239  1.5798
  225MPD1    H3 3475   1.367   3.626  12.725 -3.3276 -1.7057 -1.4907
  225MPD1     N 3476   1.252   3.198  12.679 -0.1019  0.4943  0.1032
  225MPD1    H5 3477   1.159   3.229  12.654  0.0472  0.0142 -1.0464
  225MPD1    N1 3478   1.725   3.339  12.737  0.2004 -0.0382  0.5023
  225MPD1    H6 3479   1.739   3.243  12.770 -1.4761 -0.4659  0.0029
  225MPD1    H7 3480   1.774   3.404  12.798 -2.2794  2.2009  0.1266
  226MPD1     C 3481   4.681   4.285   9.185  0.8540  0.5609 -0.2488
  226MPD1    C1 3482   0.081   4.307   9.177  0.0802 -0.0925  1.2609
  226MPD1    C2 3483   0.171   4.219   9.248  0.2745  0.1658 -0.3949
  226MPD1    C3 3484   0.118   4.118   9.321 -0.5691 -0.3303  0.1946
  226MPD1    C4 3485   4.714   4.104   9.330  0.0846  0.0488  0.1213
  226MPD1    C5 3486   4.628   4.185   9.262  0.1544  0.5733  0.2189
  226MPD1     H 3487   0.276   4.244   9.254  0.5831 -0.8658 -1.5821
  226MPD1    H1 3488   4.670   4.025   9.391 -1.1196  0.7179  0.1260
  226MPD1    H2 3489   4.614   4.355   9.136  0.1226 -0.0536 -0.1275
  226MPD1    H3 3490   4.522   4.160   9.270 -0.0278  1.4368  0.4786
  226MPD1     N 3491   0.214   4.035   9.385  0.4589  0.0092  0.6401
  226MPD1    H5 3492   0.310   4.041   9.352  0.4683  1.9921  1.0565
  226MPD1    N1 3493   0.119   4.414   9.095 -1.1931  0.2902 -0.0996
  226MPD1    H6 3494   0.059   4.496   9.097  0.1442  1.2168  1.9020
  226MPD1    H7 3495   0.217   4.440   9.087 -1.3871  0.9106 -0.4149
  227MPD1     C 3496   1.140   4.004   9.685 -0.1158  0.1132  0.1205
  227MPD1    C1 3497   1.078   3.945   9.790  0.0216  0.7327  0.0189
  227MPD1    C2 3498   0.949   3.899   9.763  0.1282  0.1388  0.2229
  227MPD1    C3 3499   0.889   3.898   9.635  0.5673  0.0153  0.1871
  227MPD1    C4 3500   0.971   3.947   9.534  0.2894 -0.4355  0.2852
  227MPD1    C5 3501   1.084   4.012   9.556 -0.2001 -0.3531  0.3924
  227MPD1     H 3502   0.887   3.874   9.848 -2.2728 -0.2460 -1.6335
  227MPD1    H1 3503   0.946   3.945   9.429  0.9050 -2.8282  0.1792
  227MPD1    H2 3504   1.237   4.051   9.697 -0.5408  1.3110 -1.1754
  227MPD1    H3 3505   1.139   4.053   9.472  1.8269 -1.1094  1.3480
  227MPD1     N 3506   0.750   3.849   9.619  0.3545 -0.7288  0.5746
  227MPD1    H5 3507   0.696   3.839   9.704 -0.8258  0.8081  0.0081
  227MPD1    N1 3508   1.129   3.958   9.918 -0.4158 -0.5426  0.5208
  227MPD1    H6 3509   1.229   3.939   9.910 -0.4179 -0.4817  0.3499
  227MPD1    H7 3510   1.088   3.894   9.986 -0.1554 -0.2300  0.9729
  228MPD1     C 3511   3.701   0.438  12.958  0.2085  0.1717  0.1477
  228MPD1    C1 3512   3.627   0.490  12.857  0.2087  0.2593  0.2595
  228MPD1    C2 3513   3.501   0.553  12.873  0.5566  0.4467 -0.2134
  228MPD1    C3 3514   3.442   0.554  12.999  0.0084  0.4912 -0.1938
  228MPD1    C4 3515   3.506   0.482  13.099  0.2371 -0.5882 -0.4229
  228MPD1    C5 3516   3.635   0.440  13.075  0.4322 -0.4514 -0.0718
  228MPD1     H 3517   3.445   0.596  12.791  0.2210  0.1869 -0.1215
  228MPD1    H1 3518   3.483   0.477  13.205 -0.8060  1.3083 -0.5471
  228MPD1    H2 3519   3.795   0.385  12.941 -0.1476 -1.4647  3.1528
  228MPD1    H3 3520   3.690   0.406  13.162 -1.3731 -0.5823  1.0188
  228MPD1     N 3521   3.312   0.605  13.004 -0.6976  0.5694  0.6993
  228MPD1    H5 3522   3.277   0.643  12.917 -1.7077  0.2659  0.9796
  228MPD1    N1 3523   3.689   0.501  12.728  0.7411 -0.4280 -0.3396
  228MPD1    H6 3524   3.616   0.497  12.658  0.6442  2.9839 -0.4413
  228MPD1    H7 3525   3.759   0.429  12.707  0.0923 -2.2227  3.5818
  229MPD1     C 3526   2.676   4.266  15.490  0.0438 -0.6563 -0.2766
  229MPD1    C1 3527   2.615   4.146  15.525 -0.0332  0.5848 -0.1494
  229MPD1    C2 3528   2.680   4.031  15.511 -0.2644  0.1065  0.3368
  229MPD1    C3 3529   2.811   4.027  15.463  0.7089 -0.2664 -0.6657
  229MPD1    C4 3530   2.868   4.147  15.429  0.0855 -0.0900  0.0234
  229MPD1    C5 3531   2.803   4.265  15.438 -0.3291  0.2390  0.1544
  229MPD1     H 3532   2.622   3.943  15.540  0.0567 -0.5309 -0.9656
  229MPD1    H1 3533   2.966   4.159  15.383 -0.7112 -2.0957 -2.1888
  229MPD1    H2 3534   2.621   4.358  15.477 -1.3404 -1.3446  0.7447
  229MPD1    H3 3535   2.846   4.356  15.397 -0.2910  0.3925  0.5342
  229MPD1     N 3536   2.886   3.907  15.449 -0.3306 -0.1331 -0.3808
  229MPD1    H5 3537   2.983   3.915  15.418  0.4994  0.0672  2.3012
  229MPD1    N1 3538   2.475   4.142  15.536 -0.0022  0.6902  0.2978
  229MPD1    H6 3539   2.427   4.056  15.563  0.7325  0.1481 -0.1332
  229MPD1    H7 3540   2.432   4.227  15.572 -0.0566  0.4574  0.7777
  230MPD1     C 3541   3.663   3.826  15.204  0.7119  0.2684  0.4734
  230MPD1    C1 3542   3.562   3.855  15.122 -0.4344  0.4604 -0.6286
  230MPD1    C2 3543   3.438   3.806  15.154  0.4309 -0.0010  0.4098
  230MPD1    C3 3544   3.424   3.715  15.261  0.2131 -0.6792 -0.1190
  230MPD1    C4 3545   3.537   3.680  15.339  0.2871 -1.0303 -0.5464
  230MPD1    C5 3546   3.657   3.741  15.309  0.4511  0.3623 -0.9972
  230MPD1     H 3547   3.350   3.846  15.105  0.8282  0.4406  0.0668
  230MPD1    H1 3548   3.536   3.614  15.426 -0.7779 -0.0488  0.1881
  230MPD1    H2 3549   3.756   3.880  15.192  0.9591 -0.3745 -0.5299
  230MPD1    H3 3550   3.741   3.736  15.378  0.9064  1.9515 -1.4375
  230MPD1     N 3551   3.295   3.670  15.290  0.3944  0.2330  0.3441
  230MPD1    H5 3552   3.214   3.716  15.249 -0.1114 -1.4585 -0.5744
  230MPD1    N1 3553   3.576   3.975  15.049  0.3954  0.7978 -0.2233
  230MPD1    H6 3554   3.667   3.988  15.005  1.3105 -0.6825  1.2685
  230MPD1    H7 3555   3.503   4.000  14.982 -0.3112 -1.0153 -0.1237
  231MPD1     C 3556   1.671   1.508  15.299 -0.9429 -0.2902  0.7837
  231MPD1    C1 3557   1.716   1.381  15.279  0.4486  0.5006 -0.2532
  231MPD1    C2 3558   1.775   1.352  15.160  0.9782  0.6976 -0.4760
  231MPD1    C3 3559   1.807   1.454  15.071  0.5686 -0.0182  0.4677
  231MPD1    C4 3560   1.774   1.580  15.112 -0.3662  0.4380 -0.3077
  231MPD1    C5 3561   1.705   1.613  15.226 -0.4406  0.6348  0.2143
  231MPD1     H 3562   1.798   1.248  15.136 -0.2286  0.3097  0.0352
  231MPD1    H1 3563   1.804   1.666  15.053 -0.6988  0.1939 -0.8255
  231MPD1    H2 3564   1.612   1.525  15.388 -0.2248 -2.2111  1.6143
  231MPD1    H3 3565   1.693   1.714  15.263 -0.6162  0.8497 -0.4224
  231MPD1     N 3566   1.863   1.428  14.948  0.2174 -0.2614 -0.6657
  231MPD1    H5 3567   1.851   1.331  14.919  1.1774 -0.7573  0.6061
  231MPD1    N1 3568   1.648   1.287  15.360  0.6033  0.3523 -0.1248
  231MPD1    H6 3569   1.691   1.195  15.366 -2.0352 -1.0127 -2.4367
  231MPD1    H7 3570   1.629   1.320  15.455 -1.8074 -0.8467 -0.1893
  232MPD1     C 3571   2.762   3.576   0.296  0.0654  0.3761 -0.0051
  232MPD1    C1 3572   2.867   3.500   0.249  0.9306  0.0657  0.7406
  232MPD1    C2 3573   2.830   3.424   0.137 -0.3046 -0.1768  0.1552
  232MPD1    C3 3574   2.697   3.408   0.096 -1.0955  0.1265 -0.0206
  232MPD1    C4 3575   2.600   3.468   0.170 -0.6998  0.4811 -0.5636
  232MPD1    C5 3576   2.635   3.559   0.269 -0.8141 -0.7069  0.3024
  232MPD1     H 3577   2.895   3.355   0.084  1.4862  2.1193 -0.6154
  232MPD1    H1 3578   2.493   3.461   0.150 -0.5396  0.1268 -1.2675
  232MPD1    H2 3579   2.777   3.666   0.355  0.5700  0.3997 -0.1648
  232MPD1    H3 3580   2.552   3.618   0.306  0.1851 -0.0720  1.4878
  232MPD1     N 3581   2.660   3.325  17.739  0.2544  0.3012 -0.1339
  232MPD1    H5 3582   2.560   3.309  17.731  0.0315  1.5886  0.0535
  232MPD1    N1 3583   2.998   3.530   0.283  0.2041 -0.0107 -0.5011
  232MPD1    H6 3584   3.056   3.447   0.271  0.1262  0.1867 -2.3321
  232MPD1    H7 3585   3.011   3.580   0.371 -2.2898  0.3582 -0.3475
  233MPD1     C 3586   3.285   1.918   0.232  0.2615  0.6404 -0.1492
  233MPD1    C1 3587   3.200   1.813   0.229  0.1945 -0.6241 -0.4328
  233MPD1    C2 3588   3.242   1.690   0.263  0.1311  0.9630 -0.5142
  233MPD1    C3 3589   3.377   1.674   0.304 -1.0233 -0.4715  0.3088
  233MPD1    C4 3590   3.459   1.779   0.320 -0.4945  0.0901  0.8844
  233MPD1    C5 3591   3.412   1.898   0.274  0.6559  0.0950  0.3328
  233MPD1     H 3592   3.172   1.607   0.264  1.0301  0.1986 -1.5815
  233MPD1    H1 3593   3.563   1.769   0.349 -0.7479 -1.4880  1.2494
  233MPD1    H2 3594   3.254   2.016   0.197 -0.3425 -0.2703 -2.1362
  233MPD1    H3 3595   3.475   1.986   0.283 -0.0695  0.5622  0.7863
  233MPD1     N 3596   3.431   1.551   0.329  0.2291 -0.7946 -0.6231
  233MPD1    H5 3597   3.531   1.552   0.349  0.0750  1.2693 -0.0262
  233MPD1    N1 3598   3.067   1.836   0.208 -0.3926 -0.0174  0.3217
  233MPD1    H6 3599   3.029   1.751   0.167  1.5803 -0.4710 -0.5938
  233MPD1    H7 3600   3.047   1.912   0.144  0.5932  0.8503  1.0487
  234MPD1     C 3601   1.803   1.122  10.053 -0.0292 -0.0033 -0.3181
  234MPD1    C1 3602   1.827   1.259  10.069 -0.0535 -0.9569 -0.8272
  234MPD1    C2 3603   1.732   1.345  10.020  0.0838  0.3767 -0.0721
  234MPD1    C3 3604   1.634   1.305   9.933 -0.2947  0.0492 -0.0901
  234MPD1    C4 3605   1.626   1.177   9.911  0.4925  0.3639  0.6368
  234MPD1    C5 3606   1.706   1.087   9.967 -0.0022 -0.5046  0.0389
  234MPD1     H 3607   1.740   1.451  10.039 -1.3233  0.3470  0.6587
  234MPD1    H1 3608   1.550   1.145   9.841  0.1428  2.0136  0.2644
  234MPD1    H2 3609   1.861   1.040  10.094 -2.3498 -1.2904  0.4015
  234MPD1    H3 3610   1.701   0.982   9.941  0.4399 -0.5667  0.1956
  234MPD1     N 3611   1.535   1.401   9.891 -0.1342  0.0112 -0.1014
  234MPD1    H5 3612   1.555   1.496   9.923 -0.6375  0.7095 -1.8765
  234MPD1    N1 3613   1.910   1.308  10.175 -0.4306  0.1935 -0.3716
  234MPD1    H6 3614   1.937   1.406  10.167 -0.2672  0.0341 -1.6615
  234MPD1    H7 3615   1.993   1.249  10.188 -1.3093 -1.2171 -1.2260
  235MPD1     C 3616   2.469   3.220  10.612  0.5028 -0.5374 -0.0308
  235MPD1    C1 3617   2.470   3.186  10.479 -0.1666 -0.4665 -0.1667
  235MPD1    C2 3618   2.518   3.282  10.391  0.1613 -0.7321 -0.7990
  235MPD1    C3 3619   2.562   3.408  10.435 -0.5488  0.3439  0.3510
  235MPD1    C4 3620   2.562   3.425  10.570  0.4705 -0.4681 -0.5976
  235MPD1    C5 3621   2.525   3.331  10.654  0.1684  0.2410  0.0674
  235MPD1     H 3622   2.507   3.274  10.283 -0.4100  0.4711 -0.8324
  235MPD1    H1 3623   2.591   3.518  10.619 -0.4123  0.8607 -2.5904
  235MPD1    H2 3624   2.433   3.144  10.681 -0.7264  0.9282  0.9508
  235MPD1    H3 3625   2.531   3.354  10.760 -0.8091  1.8235 -0.2249
  235MPD1     N 3626   2.602   3.515  10.351 -0.1378 -0.4333 -0.3338
  235MPD1    H5 3627   2.580   3.508  10.252  0.4419  0.0024 -0.4914
  235MPD1    N1 3628   2.438   3.054  10.439  0.3805  0.0708  0.4782
  235MPD1    H6 3629   2.367   3.012  10.498  1.5041 -1.1303  0.9871
  235MPD1    H7 3630   2.404   3.065  10.344 -0.4087  1.1023  0.8775
  236MPD1     C 3631   1.023   4.503   9.654 -0.0389 -0.2476 -0.0207
  236MPD1    C1 3632   1.096   4.622   9.651  0.9587 -0.1763 -0.1755
  236MPD1    C2 3633   1.227   4.618   9.705 -0.4978  0.2609  0.1089
  236MPD1    C3 3634   1.276   4.508   9.773  0.3743 -0.0039  0.1181
  236MPD1    C4 3635   1.197   4.392   9.782 -0.7129  0.1204  0.0559
  236MPD1    C5 3636   1.071   4.395   9.724  0.6851 -0.2222  0.0463
  236MPD1     H 3637   1.293   4.697   9.672  1.8603 -1.8995 -0.3880
  236MPD1    H1 3638   1.224   4.301   9.834  4.0537  0.5869 -1.6473
  236MPD1    H2 3639   0.929   4.486   9.603 -1.1906 -0.0772  2.0422
  236MPD1    H3 3640   1.008   4.308   9.735 -1.2273  1.1975  0.3306
  236MPD1     N 3641   1.411   4.481   9.816 -0.6321  0.2316  0.4266
  236MPD1    H5 3642   1.435   4.394   9.862  2.1807  2.0145  2.3199
  236MPD1    N1 3643   1.052   4.726   9.564  0.1958 -0.0975 -0.2168
  236MPD1    H6 3644   0.953   0.005   9.550  0.3484  2.1052  1.3971
  236MPD1    H7 3645   1.086   0.080   9.594  2.1238 -1.0034  0.3789
  237MPD1     C 3646   1.526   2.002  15.323  0.0773 -0.0159 -0.1343
  237MPD1    C1 3647   1.418   1.992  15.401 -0.0982 -0.4134 -0.4433
  237MPD1    C2 3648   1.288   1.984  15.342 -0.1562 -0.3764  0.2394
  237MPD1    C3 3649   1.270   1.999  15.205  0.9491 -0.2953  0.6468
  237MPD1    C4 3650   1.384   2.019  15.128 -0.2632 -0.5351 -0.3115
  237MPD1    C5 3651   1.506   2.019  15.190 -0.6229 -0.5515  0.3999
  237MPD1     H 3652   1.198   1.966  15.401 -0.1309 -0.0229  0.3866
  237MPD1    H1 3653   1.385   2.026  15.019 -0.1742  1.4733 -0.1861
  237MPD1    H2 3654   1.627   1.974  15.351  0.1388  0.8167  0.4620
  237MPD1    H3 3655   1.595   2.017  15.128 -1.2720 -0.3690 -0.5413
  237MPD1     N 3656   1.144   1.985  15.143 -0.3103  0.2162  0.8839
  237MPD1    H5 3657   1.145   2.006  15.044 -1.3160  0.2638  0.8776
  237MPD1    N1 3658   1.434   1.951  15.537 -0.7247  0.1490  0.4995
  237MPD1    H6 3659   1.528   1.974  15.568 -1.1357  1.0308  1.0677
  237MPD1    H7 3660   1.362   1.959  15.609 -0.4590 -0.3123  0.8135
  238MPD1     C 3661   3.638   1.296  14.863  0.1208  0.0787  0.0258
  238MPD1    C1 3662   3.654   1.163  14.875  0.1417 -0.1566  0.7922
  238MPD1    C2 3663   3.540   1.081  14.889  0.1397 -0.5739  0.5775
  238MPD1    C3 3664   3.407   1.125  14.870 -0.2494  0.2703 -0.0683
  238MPD1    C4 3665   3.394   1.258  14.851  0.4826  0.0655 -0.5628
  238MPD1    C5 3666   3.509   1.337  14.853 -0.3020  0.1532 -0.3936
  238MPD1     H 3667   3.566   0.978  14.911  3.1958 -0.2400 -1.4350
  238MPD1    H1 3668   3.298   1.302  14.824  1.1258  0.7949 -1.6237
  238MPD1    H2 3669   3.716   1.370  14.850  0.5014 -0.4963 -0.9362
  238MPD1    H3 3670   3.493   1.444  14.848  2.5054  0.5126 -1.3453
  238MPD1     N 3671   3.298   1.039  14.837  0.6033  0.0815 -0.3503
  238MPD1    H5 3672   3.213   1.083  14.805  0.3160 -0.3324 -0.1520
  238MPD1    N1 3673   3.777   1.114  14.912 -0.5599 -0.2441  0.1457
  238MPD1    H6 3674   3.795   1.015  14.894 -0.6787  0.2050 -2.4043
  238MPD1    H7 3675   3.847   1.170  14.865  1.4661 -2.4930  0.4394
  239MPD1     C 3676   3.565   2.498  14.717  0.1084 -0.8771 -0.7923
  239MPD1    C1 3677   3.603   2.397  14.636  0.2488  0.0668  0.2348
  239MPD1    C2 3678   3.533   2.372  14.520  0.3253  0.3660 -0.0160
  239MPD1    C3 3679   3.422   2.449  14.482 -0.3476 -0.7576 -0.4429
  239MPD1    C4 3680   3.391   2.560  14.562 -0.4656  0.2900 -0.6678
  239MPD1    C5 3681   3.460   2.583  14.676  0.7064 -0.3977 -0.0539
  239MPD1     H 3682   3.580   2.295  14.460  0.1351  0.6695 -0.5532
  239MPD1    H1 3683   3.321   2.633  14.525 -1.7721 -1.7235 -2.1732
  239MPD1    H2 3684   3.613   2.517  14.812  2.3444 -0.8823 -1.9352
  239MPD1    H3 3685   3.446   2.669  14.740  1.6506 -2.9554  3.6032
  239MPD1     N 3686   3.344   2.420  14.367 -0.1693  0.3583  0.2116
  239MPD1    H5 3687   3.254   2.466  14.359 -1.7446 -2.6402  0.6093
  239MPD1    N1 3688   3.697   2.312  14.684 -0.1468  0.4499 -0.1988
  239MPD1    H6 3689   3.767   2.351  14.747 -1.8745  1.2017  1.2437
  239MPD1    H7 3690   3.751   2.269  14.609  1.2540  1.8537  0.0109
  240MPD1     C 3691   2.924   1.883  14.230  0.4936 -0.8210 -0.6699
  240MPD1    C1 3692   2.904   1.870  14.368 -0.0776  0.2573 -0.6075
  240MPD1    C2 3693   2.824   1.767  14.417  0.3253 -0.5876  0.0955
  240MPD1    C3 3694   2.774   1.672  14.331 -0.4649  0.5070  0.2640
  240MPD1    C4 3695   2.780   1.701  14.195  0.6715  0.1182 -0.0314
  240MPD1    C5 3696   2.849   1.801  14.149 -0.5995  0.1476  0.2923
  240MPD1     H 3697   2.805   1.771  14.524 -0.8598 -0.6532 -0.1171
  240MPD1    H1 3698   2.729   1.646  14.116  1.5025 -2.4097  1.2094
  240MPD1    H2 3699   2.996   1.951  14.185 -1.7721  0.8293 -1.7720
  240MPD1    H3 3700   2.869   1.799  14.043  1.3097  1.1753  0.6330
  240MPD1     N 3701   2.706   1.558  14.382 -0.0121 -0.6103 -0.0345
  240MPD1    H5 3702   2.701   1.546  14.483  1.1485  0.6941  0.1736
  240MPD1    N1 3703   2.978   1.956  14.454 -0.5344  1.4319  0.0103
  240MPD1    H6 3704   2.961   1.941  14.553 -1.5254 -1.9895 -0.6635
  240MPD1    H7 3705   2.968   2.056  14.436 -0.1341  1.3312 -0.7771
  241MPD1     C 3706   2.851   0.795  14.989 -0.7143 -0.6190 -0.7305
  241MPD1    C1 3707   2.721   0.775  14.952 -0.8314  0.2016  0.2161
  241MPD1    C2 3708   2.669   0.836  14.845 -0.2401 -0.7327 -0.4535
  241MPD1    C3 3709   2.742   0.918  14.765  0.5148  0.3962  0.2226
  241MPD1    C4 3710   2.874   0.929  14.800 -0.2269  0.7419 -0.7346
  241MPD1    C5 3711   2.935   0.872  14.910 -0.3627  0.3397  0.0214
  241MPD1     H 3712   2.564   0.821  14.825 -0.5672 -0.0244  0.7111
  241MPD1    H1 3713   2.943   0.982  14.735 -0.8967  1.3048 -0.9889
  241MPD1    H2 3714   2.894   0.753  15.079 -1.4869 -1.5155 -0.7747
  241MPD1    H3 3715   3.036   0.890  14.944 -1.2214 -2.1034  3.9120
  241MPD1     N 3716   2.676   0.987  14.661  0.3518 -0.2112  0.3524
  241MPD1    H5 3717   2.587   0.943  14.638 -1.1653  3.6696 -1.3322
  241MPD1    N1 3718   2.640   0.720  15.051 -0.1602 -0.2455  0.4443
  241MPD1    H6 3719   2.565   0.674  15.000 -0.1340  1.4219 -1.1002
  241MPD1    H7 3720   2.691   0.650  15.105 -2.8496 -1.3701  1.5216
  242MPD1     C 3721   3.219   4.575  15.498  0.0829 -0.2293  0.0345
  242MPD1    C1 3722   3.225   4.659  15.388  0.3277 -0.5966 -0.1098
  242MPD1    C2 3723   3.219   4.595  15.264  0.3190  0.5714  0.3883
  242MPD1    C3 3724   3.224   4.455  15.252  0.5243 -0.4876 -0.2888
  242MPD1    C4 3725   3.218   4.378  15.365  0.7899 -0.2971 -0.2194
  242MPD1    C5 3726   3.210   4.436  15.483  0.0529 -0.1585 -0.1150
  242MPD1     H 3727   3.203   4.660  15.179 -1.5734 -0.0633  0.2539
  242MPD1    H1 3728   3.216   4.270  15.356 -0.2749 -0.4327  1.6663
  242MPD1    H2 3729   3.212   4.619  15.597 -0.0926 -1.5459  0.6016
  242MPD1    H3 3730   3.217   4.376  15.573 -0.4414 -0.5260 -0.3204
  242MPD1     N 3731   3.218   4.381  15.130  0.4258  0.0135 -0.7968
  242MPD1    H5 3732   3.213   4.279  15.136  0.1090 -0.0942 -2.7310
  242MPD1    N1 3733   3.193   0.063  15.396  0.3815 -0.9139 -0.0794
  242MPD1    H6 3734   3.226   0.117  15.316  1.2156  0.1289  0.9778
  242MPD1    H7 3735   3.223   0.099  15.486  1.1562 -0.9501 -0.3229
  243MPD1     C 3736   3.413   3.437  17.632 -0.2235 -0.1000  0.2284
  243MPD1    C1 3737   3.391   3.303  17.646  0.0672  0.4030 -0.2345
  243MPD1    C2 3738   3.487   3.213  17.588  0.5043  0.3283 -0.4925
  243MPD1    C3 3739   3.604   3.257  17.532 -1.6374  0.2322  0.7635
  243MPD1    C4 3740   3.624   3.388  17.519  0.7997  0.0531  0.7573
  243MPD1    C5 3741   3.537   3.479  17.567 -0.4918  0.4831  0.5310
  243MPD1     H 3742   3.468   3.108  17.603 -1.8868  0.7009 -0.9402
  243MPD1    H1 3743   3.715   3.423  17.472 -0.2149  1.8025  0.1062
  243MPD1    H2 3744   3.342   3.514  17.661  2.5040  2.2963  0.5722
  243MPD1    H3 3745   3.554   3.585  17.550  1.3277  0.3803  1.6638
  243MPD1     N 3746   3.691   3.166  17.474  0.3562  0.4794  0.0367
  243MPD1    H5 3747   3.673   3.071  17.505 -3.4504 -0.5721 -5.3545
  243MPD1    N1 3748   3.270   3.255  17.704  0.4950  0.0249  0.2843
  243MPD1    H6 3749   3.230   3.324   0.018  1.3520 -0.8254  1.7906
  243MPD1    H7 3750   3.275   3.164   0.002  1.5612 -0.2527 -0.3789
  244MPD1     C 3751   3.907   2.254  17.619 -0.7835  0.0913 -0.6295
  244MPD1    C1 3752   3.906   2.273  17.480  0.1624 -0.0806 -0.0778
  244MPD1    C2 3753   3.934   2.396  17.427  0.0949  0.2876  0.2556
  244MPD1    C3 3754   3.944   2.504  17.513 -0.1923  0.0675 -0.4310
  244MPD1    C4 3755   3.932   2.484  17.654 -0.2081  0.1372 -0.1538
  244MPD1    C5 3756   3.912   2.358  17.700  0.2996 -0.2271  0.5627
  244MPD1     H 3757   3.941   2.401  17.319 -0.6639 -1.6006  0.1281
  244MPD1    H1 3758   3.938   2.563  17.729 -1.0531  0.4898 -0.4558
  244MPD1    H2 3759   3.895   2.156  17.665 -1.4256  0.7123  0.5361
  244MPD1    H3 3760   3.905   2.343   0.060  0.1676 -1.4689  0.3839
  244MPD1     N 3761   3.965   2.631  17.452  0.9400 -0.3742 -0.2338
  244MPD1    H5 3762   3.976   2.632  17.351 -1.9891 -1.2193 -0.5656
  244MPD1    N1 3763   3.921   2.163  17.397 -0.1906 -0.2422 -0.0580
  244MPD1    H6 3764   3.933   2.196  17.301 -1.9049 -0.6944 -0.4364
  244MPD1    H7 3765   4.017   2.134  17.413 -1.4512 -3.4483  1.8551
  245MPD1     C 3766   0.884   3.564  13.038  0.1545 -0.2435  0.2590
  245MPD1    C1 3767   1.007   3.551  13.094 -0.7513  0.1103  0.6334
  245MPD1    C2 3768   1.038   3.610  13.217 -0.2779  0.1722 -0.0415
  245MPD1    C3 3769   0.955   3.700  13.281  0.0763  0.3173  0.8217
  245MPD1    C4 3770   0.842   3.724  13.211 -0.0662 -0.5791  0.7858
  245MPD1    C5 3771   0.794   3.648  13.103  0.3651 -0.7776 -0.4466
  245MPD1     H 3772   1.127   3.584  13.272  2.3771  1.7609 -3.5749
  245MPD1    H1 3773   0.777   3.805  13.242  0.5066 -0.4203  1.5585
  245MPD1    H2 3774   0.852   3.498  12.958  0.5224  0.5835 -0.5638
  245MPD1    H3 3775   0.694   3.662  13.065  0.4198 -1.6920 -0.9112
  245MPD1     N 3776   0.992   3.767  13.404  0.3976 -0.2160  0.1374
  245MPD1    H5 3777   1.086   3.751  13.439 -0.6392 -1.0995  2.5021
  245MPD1    N1 3778   1.101   3.467  13.034 -0.7731  0.0649  0.3567
  245MPD1    H6 3779   1.082   3.469  12.934 -0.4310  0.0718  0.2916
  245MPD1    H7 3780   1.198   3.492  13.052 -0.9500  0.3975  0.8561
  246MPD1     C 3781   3.506   0.349   9.324 -0.6023 -0.1135  0.3552
  246MPD1    C1 3782   3.560   0.468   9.374  0.7455 -0.2071  0.9043
  246MPD1    C2 3783   3.478   0.572   9.407 -0.9874 -0.4784 -0.5488
  246MPD1    C3 3784   3.342   0.558   9.412  0.1709 -0.5813  0.5560
  246MPD1    C4 3785   3.288   0.435   9.377  0.0391 -1.2020 -0.0167
  246MPD1    C5 3786   3.371   0.341   9.316 -0.2400  0.6880 -0.3793
  246MPD1     H 3787   3.524   0.665   9.440 -0.6211 -0.9488  0.2493
  246MPD1    H1 3788   3.182   0.420   9.365 -0.2762  0.7915  0.2335
  246MPD1    H2 3789   3.564   0.264   9.292 -1.1093 -0.3370  0.0412
  246MPD1    H3 3790   3.331   0.244   9.286  0.0223  0.4762 -0.0486
  246MPD1     N 3791   3.264   0.668   9.449 -0.4011 -0.7723  0.2031
  246MPD1    H5 3792   3.312   0.757   9.456 -0.6250 -0.5419 -1.0104
  246MPD1    N1 3793   3.695   0.492   9.376  1.0071 -0.3936  0.5823
  246MPD1    H6 3794   3.732   0.543   9.457  0.1033  2.2047 -0.6185
  246MPD1    H7 3795   3.754   0.409   9.373  1.0882 -0.4668  3.7530
  247MPD1     C 3796   0.195   3.663  16.647 -0.2660 -0.4409  0.2214
  247MPD1    C1 3797   0.235   3.736  16.536 -0.0950 -0.0406 -0.1101
  247MPD1    C2 3798   0.318   3.667  16.438  0.1648  0.0177 -0.7578
  247MPD1    C3 3799   0.375   3.548  16.471 -0.7348 -0.5080 -0.1928
  247MPD1    C4 3800   0.335   3.478  16.582 -0.4687  0.0841 -0.0876
  247MPD1    C5 3801   0.248   3.538  16.669 -0.5352  0.0932 -0.2001
  247MPD1     H 3802   0.349   3.713  16.345  1.0540  1.6728  0.3576
  247MPD1    H1 3803   0.368   3.375  16.595 -0.8642  0.0247  0.4269
  247MPD1    H2 3804   0.114   3.707  16.705 -1.6618 -0.0481 -1.9819
  247MPD1    H3 3805   0.221   3.482  16.758  0.3780 -1.7325 -1.0737
  247MPD1     N 3806   0.458   3.480  16.383 -0.1080 -0.2999  0.5122
  247MPD1    H5 3807   0.497   3.391  16.414 -1.5295 -1.0089  0.2710
  247MPD1    N1 3808   0.164   3.852  16.500 -0.3618 -0.2047  0.1476
  247MPD1    H6 3809   0.204   3.908  16.425 -0.5050 -2.1754 -1.3773
  247MPD1    H7 3810   0.131   3.916  16.572 -0.6656 -3.6553  3.1001
  248MPD1     C 3811   1.418   3.688  17.444 -0.2288  0.4602  0.4357
  248MPD1    C1 3812   1.320   3.783  17.486 -0.3226  0.2031 -0.0012
  248MPD1    C2 3813   1.221   3.746  17.575  0.1513 -0.5284 -0.3411
  248MPD1    C3 3814   1.210   3.611  17.612 -0.1938 -0.5163 -0.5088
  248MPD1    C4 3815   1.304   3.515  17.571 -0.5770  0.3536  0.0737
  248MPD1    C5 3816   1.407   3.557  17.490  0.6729 -0.6051 -0.0585
  248MPD1     H 3817   1.149   3.807  17.628 -0.1844 -1.6599  0.5248
  248MPD1    H1 3818   1.309   3.416  17.616 -2.5901 -0.1855 -0.8770
  248MPD1    H2 3819   1.502   3.714  17.382  0.7846 -3.0367  0.3818
  248MPD1    H3 3820   1.483   3.485  17.461  2.1824  0.4394  1.3107
  248MPD1     N 3821   1.097   3.582  17.695  0.4734  0.3564  0.3239
  248MPD1    H5 3822   1.052   3.664  17.736 -0.0988 -0.1490  0.6987
  248MPD1    N1 3823   1.349   3.923  17.452  0.0770 -0.5642  0.0516
  248MPD1    H6 3824   1.261   3.966  17.423  1.1294  1.0689 -0.6392
  248MPD1    H7 3825   1.408   3.928  17.370  1.2857 -2.8288  0.7814
  249MPD1     C 3826   3.401   3.583   9.562 -0.1311  0.0658  0.2496
  249MPD1    C1 3827   3.379   3.547   9.694  0.5574 -0.3570 -0.0476
  249MPD1    C2 3828   3.422   3.645   9.782  0.4550 -0.3649 -0.2415
  249MPD1    C3 3829   3.474   3.766   9.741  0.3486  0.2458 -0.0489
  249MPD1    C4 3830   3.484   3.803   9.610  0.2209 -0.1592  0.6237
  249MPD1    C5 3831   3.448   3.704   9.529 -0.2996 -0.0894 -0.8531
  249MPD1     H 3832   3.425   3.621   9.888 -1.3396 -0.4248 -0.2095
  249MPD1    H1 3833   3.515   3.902   9.580  1.6076 -0.5848  0.6383
  249MPD1    H2 3834   3.377   3.521   9.477  3.7095 -1.0431 -0.0217
  249MPD1    H3 3835   3.450   3.722   9.422  0.1084  1.1447 -0.6367
  249MPD1     N 3836   3.508   3.855   9.844 -0.4993  0.6343 -0.7122
  249MPD1    H5 3837   3.486   3.828   9.939 -0.0324  0.6911 -0.5899
  249MPD1    N1 3838   3.339   3.413   9.722  0.0862  0.1245  0.2903
  249MPD1    H6 3839   3.307   3.392   9.816 -1.2199 -1.2973 -0.4657
  249MPD1    H7 3840   3.262   3.382   9.663 -2.4386 -1.7204  4.5730
  250MPD2     C 3841   4.276   2.410  13.420 -0.5667 -0.4506  0.1477
  250MPD2    C1 3842   4.223   2.502  13.329  0.4326  0.1286  0.2239
  250MPD2    C2 3843   4.228   2.455  13.196 -0.4090 -0.4038 -0.2370
  250MPD2    C3 3844   4.253   2.326  13.164 -0.1865  0.0973 -0.1151
  250MPD2    C4 3845   4.277   2.231  13.265  0.4418  0.1099 -0.2025
  250MPD2    C5 3846   4.288   2.277  13.390 -0.2112  0.2355  0.3812
  250MPD2     H 3847   4.196   2.523  13.117 -0.5407  0.5932  0.6681
  250MPD2    H1 3848   4.290   2.125  13.246  0.4500  0.2882 -1.1922
  250MPD2    H2 3849   4.269   2.428  13.527 -0.2091 -0.7485  0.2206
  250MPD2    H3 3850   4.308   2.209  13.472  3.2832  0.5593 -0.1857
  250MPD2     N 3851   4.258   2.279  13.032 -0.4993  0.4012  0.1616
  250MPD2    H5 3852   4.295   2.186  13.016  2.6796  1.1865  2.9757
  250MPD2    N1 3853   4.194   2.635  13.369 -0.4160 -0.0472  0.5596
  250MPD2    H7 3854   4.249   2.670  13.447  0.4677  0.3815 -0.2566
  251TMC3    C1 3855   4.160   2.853  13.340 -0.0445  0.7021 -0.1178
  251TMC3    C2 3856   4.086   2.921  13.427  0.7904  0.3901 -0.0736
  251TMC3    C3 3857   4.138   3.025  13.501  0.5382  0.5304  0.1470
  251TMC3    C4 3858   4.295   2.871  13.345  0.0973  0.0672  0.1878
  251TMC3    C5 3859   4.348   2.974  13.421  0.6378  0.4828 -0.4271
  251TMC3    C6 3860   4.274   3.048  13.501 -0.2958  0.1652 -0.4010
  251TMC3     C 3861   4.128   2.724  13.295 -0.2387  0.6078  0.2114
  251TMC3     O 3862   4.053   2.713  13.197 -0.6771  0.1110 -0.5167
  251TMC3     H 3863   3.978   2.909  13.425  0.6973  1.0029  1.0060
  251TMC3    H1 3864   4.359   2.812  13.281  0.5878  2.2178 -1.3041
  251TMC3    H2 3865   4.318   3.100  13.585 -1.3127  1.4995 -0.7066
  251TMC3    C7 3866   4.495   2.952  13.436 -0.0239 -0.8281 -0.4658
  251TMC3    C8 3867   4.048   3.119  13.564  0.0528 -0.4610 -0.3412
  251TMC3    O1 3868   4.526   2.835  13.440 -0.3481 -0.7683 -0.3145
  251TMC3    O2 3869   3.933   3.086  13.595  0.3785  0.3906  0.2467
  252TMC3    C1 3870   0.058   4.603   9.592  0.6808  0.7081  0.2264
  252TMC3    C2 3871   0.173   4.540   9.571  0.5886  0.8458 -0.1989
  252TMC3    C3 3872   0.174   4.404   9.563  0.3485  0.5534  0.0398
  252TMC3    C4 3873   4.683   4.535   9.606 -0.1373 -0.8072 -0.3127
  252TMC3    C5 3874   4.687   4.396   9.610  0.7112  0.2694 -0.5395
  252TMC3    C6 3875   0.067   4.326   9.586  0.4696  0.3495 -0.3271
  252TMC3     C 3876   0.064   0.007   9.623 -0.6561 -0.0939  0.2493
  252TMC3     O 3877   4.695   0.073   9.624 -0.0400 -0.1734 -0.7581
  252TMC3     H 3878   0.265   4.594   9.551  0.4449  0.6618 -1.3504
  252TMC3    H1 3879   4.591   4.589   9.624  0.4710 -0.7586  2.5761
  252TMC3    H2 3880   0.074   4.218   9.587 -0.2821  0.3000 -1.1612
  252TMC3    C7 3881   4.557   4.331   9.592 -0.3524 -0.7649  0.2748
  252TMC3    C8 3882   0.308   4.341   9.590 -0.2372  0.1201  0.0315
  252TMC3    O1 3883   4.468   4.391   9.534 -0.3106  0.2725  0.6043
  252TMC3    O2 3884   0.401   4.417   9.586 -0.2028 -0.0013 -0.5593
  253MPD2     C 3885   1.086   2.311  15.152 -0.0617  0.0435  0.5911
  253MPD2    C1 3886   0.943   2.318  15.135 -0.1537 -0.2743  0.9931
  253MPD2    C2 3887   0.860   2.290  15.243 -0.7519 -0.2531 -0.1815
  253MPD2    C3 3888   0.909   2.267  15.368  0.3477 -0.8872 -0.1486
  253MPD2    C4 3889   1.048   2.262  15.386  0.1400 -0.1633 -0.6032
  253MPD2    C5 3890   1.135   2.289  15.285  0.2601 -0.1252 -0.3878
  253MPD2     H 3891   0.752   2.284  15.238 -0.7973 -0.2104  0.6649
  253MPD2    H1 3892   1.092   2.235  15.482 -0.3070  0.3379 -0.2595
  253MPD2    H2 3893   1.157   2.318  15.070  2.7833  1.2140  3.1560
  253MPD2    H3 3894   1.239   2.303  15.313 -0.1191  1.6802  0.1104
  253MPD2     N 3895   0.824   2.253  15.477 -0.1607  0.3422  0.6471
  253MPD2    H5 3896   0.877   2.225  15.558  1.8343 -1.6588 -1.3537
  253MPD2    N1 3897   0.872   2.348  15.021 -0.1996  0.0009  0.9548
  253MPD2    H7 3898   0.772   2.339  15.031  0.0350 -2.1397  1.4319
  254TMC3    C1 3899   0.631   2.256  15.608  0.4867 -0.3046  0.1825
  254TMC3    C2 3900   0.531   2.337  15.650  0.3474  0.4175 -0.1494
  254TMC3    C3 3901   0.447   2.285  15.747  0.0393  0.5941 -0.2367
  254TMC3    C4 3902   0.658   2.139  15.675 -0.9344 -0.3009 -0.0468
  254TMC3    C5 3903   0.576   2.098  15.773  0.7040 -0.6588 -0.2918
  254TMC3    C6 3904   0.467   2.169  15.806 -0.4650 -0.4398 -0.8379
  254TMC3     C 3905   0.694   2.294  15.487 -0.1428 -0.2491  0.0246
  254TMC3     O 3906   0.646   2.372  15.408  0.0203  0.3600  0.1273
  254TMC3     H 3907   0.493   2.415  15.584  1.2101  0.0538 -1.0809
  254TMC3    H1 3908   0.743   2.078  15.649 -1.4314 -0.4215 -1.3667
  254TMC3    H2 3909   0.392   2.142  15.879 -0.1494  1.7918  0.2926
  254TMC3    C7 3910   0.628   2.031  15.891  0.3238  0.1147 -0.6686
  254TMC3    C8 3911   0.346   2.376  15.809  0.9339  0.0254 -0.3347
  254TMC3    O1 3912   0.554   1.995  15.982  0.4228  0.0543 -0.1694
  254TMC3    O2 3913   0.292   2.325  15.908 -0.2825 -0.6653 -0.1952
  255MPD2     C 3914   3.820   1.599  10.350  0.2889  0.1855  0.2845
  255MPD2    C1 3915   3.753   1.482  10.318 -0.3805 -0.0299  0.1963
  255MPD2    C2 3916   3.759   1.376  10.400  0.1376 -0.2854 -0.4589
  255MPD2    C3 3917   3.827   1.383  10.521  0.5669  0.8032 -0.1830
  255MPD2    C4 3918   3.903   1.500  10.548 -0.4968  0.2032 -0.3303
  255MPD2    C5 3919   3.889   1.614  10.468  0.1528  0.2060 -0.7513
  255MPD2     H 3920   3.702   1.285  10.382 -0.7784  0.0246  0.8796
  255MPD2    H1 3921   3.971   1.509  10.632  0.0355 -3.9233 -0.3098
  255MPD2    H2 3922   3.811   1.683  10.282  2.2443  1.4430  1.5863
  255MPD2    H3 3923   3.932   1.709  10.498  0.6083 -0.8206  1.8132
  255MPD2     N 3924   3.844   1.262  10.593  0.2574 -0.3865  0.5252
  255MPD2    H5 3925   3.808   1.178  10.548 -0.7240  1.1599 -1.5662
  255MPD2    N1 3926   3.679   1.480  10.192 -0.5720  0.3049  0.2920
  255MPD2    H7 3927   3.676   1.569  10.143 -0.5453  0.5347  0.7062
  256TMC3    C1 3928   3.596   1.369  10.004  0.1980  0.5959 -0.4471
  256TMC3    C2 3929   3.708   1.410   9.937  0.6511 -0.2503 -0.0948
  256TMC3    C3 3930   3.730   1.365   9.812 -0.1117  0.4227  0.1894
  256TMC3    C4 3931   3.509   1.278   9.955  0.3369 -0.0014 -0.3476
  256TMC3    C5 3932   3.537   1.226   9.829 -0.2744 -0.0693  0.3158
  256TMC3    C6 3933   3.641   1.277   9.752  0.1152  0.3005  0.3624
  256TMC3     C 3934   3.594   1.377  10.154 -0.7775 -0.4951 -0.4518
  256TMC3     O 3935   3.550   1.283  10.217 -0.2606  0.2524 -0.6746
  256TMC3     H 3936   3.773   1.489   9.974 -1.1606  0.4224  1.6688
  256TMC3    H1 3937   3.441   1.232  10.025  0.4696 -1.4905 -1.1913
  256TMC3    H2 3938   3.650   1.241   9.650  0.8320 -0.8494  0.8287
  256TMC3    C7 3939   3.482   1.101   9.794  0.3724 -0.0467  0.1460
  256TMC3    C8 3940   3.857   1.386   9.742  0.0562 -1.2324  0.6863
  256TMC3    O1 3941   3.547   1.034   9.713 -0.1952 -0.4211 -0.4817
  256TMC3    O2 3942   3.863   1.338   9.632  0.0811  0.4161  0.5624
  257MPD2     C 3943   3.003   2.700  13.027 -0.5189 -0.6565  0.1997
  257MPD2    C1 3944   2.939   2.614  12.942  0.1515  0.0918 -0.3213
  257MPD2    C2 3945   2.916   2.486  12.993  0.1907 -0.3900  0.4220
  257MPD2    C3 3946   2.938   2.451  13.131 -0.7712 -0.5194 -0.4803
  257MPD2    C4 3947   2.989   2.539  13.216  0.1831  0.1422 -0.0458
  257MPD2    C5 3948   3.030   2.661  13.161 -0.1204  0.4453 -0.3008
  257MPD2     H 3949   2.861   2.410  12.938  1.0048  1.5051 -3.0284
  257MPD2    H1 3950   3.015   2.518  13.319 -0.1217 -2.1255 -0.4418
  257MPD2    H2 3951   3.039   2.798  12.999  1.3601 -0.8943  1.8302
  257MPD2    H3 3952   3.070   2.731  13.233  1.3758 -0.5906 -0.1249
  257MPD2     N 3953   2.913   2.319  13.169  0.1553  0.2780 -0.0495
  257MPD2    H5 3954   2.883   2.265  13.089 -0.1089  0.0513  0.2007
  257MPD2    N1 3955   2.902   2.655  12.810 -0.3367  0.1404 -0.5695
  257MPD2    H7 3956   2.927   2.750  12.785 -0.1297 -0.0219 -0.9811
  258TMC3    C1 3957   2.877   2.124  13.291 -0.7534 -0.1274  0.1101
  258TMC3    C2 3958   2.802   2.076  13.184  0.3758 -0.1323  0.1875
  258TMC3    C3 3959   2.786   1.940  13.168 -0.1097 -0.9539  0.6595
  258TMC3    C4 3960   2.926   2.040  13.387  0.3173 -0.4290  0.5257
  258TMC3    C5 3961   2.895   1.905  13.371  0.2447 -0.3981  0.4813
  258TMC3    C6 3962   2.838   1.854  13.258 -0.2214  0.5551  0.5504
  258TMC3     C 3963   2.932   2.261  13.293  0.1600 -0.1500 -0.4637
  258TMC3     O 3964   2.983   2.310  13.392  0.3480  0.0515 -0.1492
  258TMC3     H 3965   2.755   2.143  13.113  4.9595  0.5937 -2.1670
  258TMC3    H1 3966   2.964   2.082  13.479  0.2220  2.1878 -0.6357
  258TMC3    H2 3967   2.827   1.746  13.252 -0.9472  0.6591  0.0547
  258TMC3    C7 3968   2.940   1.808  13.471  0.9515 -0.3052  0.4249
  258TMC3    C8 3969   2.709   1.876  13.058 -0.4715 -0.0991  0.1559
  258TMC3    O1 3970   2.945   1.693  13.428 -0.2303 -0.4117  0.4159
  258TMC3    O2 3971   2.695   1.755  13.063 -0.2428  0.2764 -0.1805
  259MPD2     C 3972   1.600   4.074   0.417 -0.3329  0.9349  0.0310
  259MPD2    C1 3973   1.617   3.939   0.420  0.5768  0.3408  0.2910
  259MPD2    C2 3974   1.709   3.884   0.329 -0.7159 -0.4563  0.5843
  259MPD2    C3 3975   1.774   3.958   0.236 -0.2882 -0.2297 -0.0640
  259MPD2    C4 3976   1.749   4.092   0.229 -0.2376 -0.4267  0.6366
  259MPD2    C5 3977   1.670   4.149   0.328  0.0034  0.3357  0.2631
  259MPD2     H 3978   1.724   3.777   0.337 -0.4950 -0.2360  3.1402
  259MPD2    H1 3979   1.787   4.169   0.164  0.1194  1.6360  3.3215
  259MPD2    H2 3980   1.539   4.126   0.491 -1.3147 -1.5625  0.9786
  259MPD2    H3 3981   1.651   4.255   0.335  0.2829  0.4173 -0.1807
  259MPD2     N 3982   1.870   3.894   0.156  0.1011 -0.3298 -0.4206
  259MPD2    H5 3983   1.906   3.803   0.182  1.1558  0.1153 -0.3441
  259MPD2    N1 3984   1.539   3.859   0.512  0.1568  0.1217 -0.2955
  259MPD2    H7 3985   1.478   3.912   0.575 -0.1083  2.0666 -2.1873
  260TMC3    C1 3986   2.057   3.892   0.018 -0.4647 -0.7298 -0.3591
  260TMC3    C2 3987   2.115   3.934  17.649  0.8542  0.1078  0.5133
  260TMC3    C3 3988   2.244   3.895  17.611  0.4687 -0.9784  0.2241
  260TMC3    C4 3989   2.118   3.805   0.105 -0.1628 -0.1189  0.8190
  260TMC3    C5 3990   2.244   3.763   0.065 -0.1004  0.0876  0.3226
  260TMC3    C6 3991   2.309   3.815  17.699 -0.5088  0.9761 -0.0680
  260TMC3     C 3992   1.926   3.947   0.045 -0.6060 -0.4321 -0.0921
  260TMC3     O 3993   1.874   4.029  17.714 -0.0543 -0.0106  0.1144
  260TMC3     H 3994   2.069   4.003  17.580 -1.0088  0.2042  1.8519
  260TMC3    H1 3995   2.072   3.764   0.194 -2.5407  3.4648  1.2310
  260TMC3    H2 3996   2.410   3.786  17.674  0.0534  0.6985  2.4986
  260TMC3    C7 3997   2.266   3.621   0.067  0.4272 -0.1672  0.0283
  260TMC3    C8 3998   2.251   3.846  17.477  0.1448  0.0097 -0.3290
  260TMC3    O1 3999   2.323   3.565  17.720  0.3913  0.3205  0.2724
  260TMC3    O2 4000   2.190   3.911  17.392 -0.0711  0.2354 -0.4134
  261MPD2     C 4001   4.158   2.405  12.165 -0.1286  0.1035 -0.4243
  261MPD2    C1 4002   4.165   2.470  12.286 -0.0898  0.4263 -0.1200
  261MPD2    C2 4003   4.115   2.602  12.291 -0.2051 -0.5190  0.0008
  261MPD2    C3 4004   4.065   2.660  12.174 -0.0438  0.9188  0.2524
  261MPD2    C4 4005   4.056   2.595  12.056  0.4042  0.3588  0.0489
  261MPD2    C5 4006   4.103   2.470  12.056 -0.0713  0.4339  0.3864
  261MPD2     H 4007   4.130   2.651  12.386  0.2835  2.0741 -1.4118
  261MPD2    H1 4008   4.030   2.647  11.964 -1.6526  0.9335  0.9537
  261MPD2    H2 4009   4.191   2.303  12.153  1.8835  0.3457  3.1629
  261MPD2    H3 4010   4.087   2.422  11.960  0.3401  0.1244  0.4749
  261MPD2     N 4011   4.037   2.804  12.181 -0.0179 -0.8408  0.6011
  261MPD2    H5 4012   4.060   2.852  12.268  2.1738 -1.2969  0.2549
  261MPD2    N1 4013   4.205   2.405  12.402 -0.0766 -0.0590 -0.7192
  261MPD2    H7 4014   4.175   2.452  12.486  0.6004 -1.2726  0.1990
  262TMC3    C1 4015   3.928   3.006  12.134  0.3213 -0.2665 -0.1560
  262TMC3    C2 4016   3.800   3.065  12.119 -0.0930 -0.2175 -0.0919
  262TMC3    C3 4017   3.793   3.201  12.123  0.3504  0.1008 -0.3957
  262TMC3    C4 4018   4.043   3.076  12.167 -0.3378  0.0436  0.5837
  262TMC3    C5 4019   4.034   3.214  12.169 -0.2794  0.1603 -0.4305
  262TMC3    C6 4020   3.909   3.269  12.150 -0.4467  0.0615  0.1448
  262TMC3     C 4021   3.946   2.867  12.092 -1.3880 -0.0682 -0.3679
  262TMC3     O 4022   3.858   2.814  12.027 -0.1286  0.2314 -0.2621
  262TMC3     H 4023   3.725   2.997  12.081  1.0547 -0.7929 -1.3463
  262TMC3    H1 4024   4.139   3.026  12.177 -1.4503 -2.3661 -0.9989
  262TMC3    H2 4025   3.899   3.375  12.165 -2.5703 -0.1347  0.0811
  262TMC3    C7 4026   4.127   3.279  12.084 -0.3667 -0.0208  0.7913
  262TMC3    C8 4027   3.716   3.273  12.016  0.4203  0.1189 -0.8502
  262TMC3    O1 4028   4.239   3.230  12.073  0.2399 -0.2064  0.1335
  262TMC3    O2 4029   3.771   3.375  11.983  0.3857 -0.0588 -0.1437
  263MPD2     C 4030   0.122   2.350  11.852  0.6028 -0.3398  0.3495
  263MPD2    C1 4031   0.191   2.304  11.746 -0.6653  0.0778  0.3289
  263MPD2    C2 4032   0.161   2.350  11.617  0.0171  0.1071 -0.1035
  263MPD2    C3 4033   0.045   2.430  11.600  0.1633  0.1707 -0.5561
  263MPD2    C4 4034   4.707   2.455  11.712 -0.7545 -0.1695 -0.7357
  263MPD2    C5 4035   0.010   2.416  11.837 -0.2032  0.2211  0.0543
  263MPD2     H 4036   0.227   2.320  11.536  1.3855  0.0881  1.0159
  263MPD2    H1 4037   4.613   2.509  11.711 -0.3257  0.5805  0.6224
  263MPD2    H2 4038   0.140   2.316  11.954  2.4494  0.8395  0.4241
  263MPD2    H3 4039   4.686   2.430  11.925  0.8940  0.4390  0.7775
  263MPD2     N 4040   0.008   2.476  11.471  0.2508 -0.2668  0.1057
  263MPD2    H5 4041   0.053   2.445  11.386 -0.0480 -0.3206 -0.0323
  263MPD2    N1 4042   0.293   2.210  11.779  0.8945  0.4590  0.5674
  263MPD2    H7 4043   0.290   2.185  11.877 -1.8708 -0.3201  0.2749
  264TMC3    C1 4044   4.669   2.640  11.328 -0.1965  0.0272 -0.5536
  264TMC3    C2 4045   4.668   2.775  11.319 -0.6256  0.3521 -0.9220
  264TMC3    C3 4046   4.709   2.841  11.206 -0.4735  0.0304  0.1005
  264TMC3    C4 4047   4.710   2.565  11.224 -0.0661 -0.3187 -0.5271
  264TMC3    C5 4048   4.735   2.631  11.100  0.8602 -0.5203 -0.2676
  264TMC3    C6 4049   0.010   2.767  11.094  0.3090 -0.9704 -0.2542
  264TMC3     C 4050   4.668   2.588  11.463  0.5282  0.5783 -1.2994
  264TMC3     O 4051   4.614   2.655  11.549  0.0404 -0.0738  0.1791
  264TMC3     H 4052   4.642   2.828  11.410 -0.6870  1.4171 -1.5549
  264TMC3    H1 4053   4.708   2.458  11.235 -0.9252 -0.2139  0.3663
  264TMC3    H2 4054   0.042   2.811  11.001 -1.3655 -0.1818 -0.4498
  264TMC3    C7 4055   0.034   2.552  10.986 -0.4839  1.1337 -0.0674
  264TMC3    C8 4056   0.046   2.962  11.218 -0.5873 -0.4712 -0.0428
  264TMC3    O1 4057   0.091   2.612  10.893 -0.1197  0.2972  0.9984
  264TMC3    O2 4058   0.138   2.972  11.137  0.4286 -0.5164 -0.9482
  265MPD2     C 4059   1.984   2.038  15.401 -0.0727 -0.7042  0.1104
  265MPD2    C1 4060   1.983   2.125  15.294  0.2141  0.1217  0.6102
  265MPD2    C2 4061   2.064   2.099  15.191 -0.2766 -0.9648  0.0670
  265MPD2    C3 4062   2.147   1.991  15.192  0.5970 -0.1154 -0.3466
  265MPD2    C4 4063   2.150   1.902  15.300  0.1252  0.6524 -0.1563
  265MPD2    C5 4064   2.080   1.937  15.409 -0.3315 -0.3384  0.1549
  265MPD2     H 4065   2.062   2.165  15.105  0.4452 -1.6100 -0.4468
  265MPD2    H1 4066   2.219   1.818  15.296 -2.1849 -1.2948  0.4585
  265MPD2    H2 4067   1.920   2.058  15.486  0.7793 -0.3580  0.6690
  265MPD2    H3 4068   2.093   1.871  15.495  0.0272  0.0462  0.3955
  265MPD2     N 4069   2.238   1.957  15.087  0.4243 -0.1109  0.6109
  265MPD2    H5 4070   2.287   1.870  15.103  0.7212  0.3966  2.4267
  265MPD2    N1 4071   1.902   2.246  15.298 -0.9349 -0.3535 -0.1440
  265MPD2    H7 4072   1.906   2.304  15.215  0.1372  0.3354  0.3992
  266TMC3    C1 4073   1.743   2.399  15.369  0.6805 -0.4397  0.2405
  266TMC3    C2 4074   1.628   2.420  15.443  0.4360  0.1722  0.1068
  266TMC3    C3 4075   1.601   2.546  15.494  0.4849 -0.2043 -0.2905
  266TMC3    C4 4076   1.819   2.506  15.337 -0.3630 -0.1801 -0.1134
  266TMC3    C5 4077   1.796   2.623  15.401  0.1345  0.0271  0.6429
  266TMC3    C6 4078   1.685   2.652  15.472 -0.8264 -0.3393  0.6720
  266TMC3     C 4079   1.819   2.284  15.406 -0.4417 -0.2370 -0.4385
  266TMC3     O 4080   1.781   2.218  15.499 -0.3634 -0.6753 -0.1068
  266TMC3     H 4081   1.565   2.335  15.464 -1.2023  1.4562  0.3844
  266TMC3    H1 4082   1.914   2.484  15.289 -0.9668 -1.0739 -0.9046
  266TMC3    H2 4083   1.676   2.743  15.531 -0.6557  1.5668 -2.2060
  266TMC3    C7 4084   1.920   2.707  15.421 -0.4403 -0.5500  0.8035
  266TMC3    C8 4085   1.490   2.553  15.585 -1.0844 -1.0169  0.3141
  266TMC3    O1 4086   2.029   2.650  15.415 -0.8222  0.0206  0.2949
  266TMC3    O2 4087   1.395   2.477  15.572  0.0046  0.6907 -0.1631
  267MPD2     C 4088   3.611   3.444   0.296  0.1072  0.1866  0.5786
  267MPD2    C1 4089   3.693   3.532   0.234  0.0037  0.2648  0.0692
  267MPD2    C2 4090   3.643   3.621   0.139  0.0757  0.2780 -0.9128
  267MPD2    C3 4091   3.512   3.634   0.121  0.0513 -0.1435  0.9090
  267MPD2    C4 4092   3.422   3.557   0.195 -0.4316 -0.5328 -0.8987
  267MPD2    C5 4093   3.475   3.459   0.273  0.0393 -0.3824 -0.1118
  267MPD2     H 4094   3.712   3.681   0.081 -0.2465  3.0339  1.5321
  267MPD2    H1 4095   3.315   3.571   0.186 -0.1402  1.2018 -1.5821
  267MPD2    H2 4096   3.644   3.361   0.357  0.5600 -0.8398 -1.0805
  267MPD2    H3 4097   3.395   3.395   0.309 -0.5531  0.1754 -0.4311
  267MPD2     N 4098   3.471   3.736   0.031  0.2400 -0.1134  0.1339
  267MPD2    H5 4099   3.542   3.771  17.716  0.8943 -0.7966  0.5015
  267MPD2    N1 4100   3.831   3.523   0.263  0.3665  0.5859 -0.5733
  267MPD2    H7 4101   3.861   3.437   0.307 -0.8975  1.1325  1.3802
  268TMC3    C1 4102   4.063   3.570   0.250  0.2442 -0.2893  0.0923
  268TMC3    C2 4103   4.149   3.642   0.180 -0.2410 -0.4519  0.0182
  268TMC3    C3 4104   4.264   3.692   0.234 -0.5471 -0.0685  1.0427
  268TMC3    C4 4105   4.095   3.512   0.370 -0.0759  0.4434 -0.3796
  268TMC3    C5 4106   4.219   3.547   0.414  0.2959 -0.2279 -0.3522
  268TMC3    C6 4107   4.295   3.640   0.360 -0.2065 -0.3499  0.0274
  268TMC3     C 4108   3.927   3.612   0.226  0.1559  0.8077  0.2954
  268TMC3     O 4109   3.912   3.726   0.187 -0.2975 -0.2800  0.0288
  268TMC3     H 4110   4.122   3.672   0.079 -0.2046  1.4898  0.5920
  268TMC3    H1 4111   4.022   3.458   0.429  0.4660 -1.5728 -1.5386
  268TMC3    H2 4112   4.381   3.670   0.419  1.6587 -0.9703 -2.3853
  268TMC3    C7 4113   4.275   3.507   0.542  0.3492  0.0333 -0.0068
  268TMC3    C8 4114   4.292   3.830   0.220  0.7266 -0.6411  0.5610
  268TMC3    O1 4115   4.388   3.462   0.532  0.4397  0.3563 -0.3011
  268TMC3    O2 4116   4.310   3.892   0.324 -0.2612 -0.2123  0.0349
  269MPD2     C 4117   0.062   2.683  15.485  0.0586  0.6144 -0.0160
  269MPD2    C1 4118   4.680   2.725  15.548 -0.0259 -0.0168 -0.8604
  269MPD2    C2 4119   4.644   2.862  15.546 -0.5798 -0.6365  0.5390
  269MPD2    C3 4120   4.726   2.962  15.488 -0.0605 -0.6215  0.1491
  269MPD2    C4 4121   0.105   2.910  15.427 -0.4440  0.1710  0.2968
  269MPD2    C5 4122   0.146   2.778  15.432  0.9360 -1.0025  0.0960
  269MPD2     H 4123   4.548   2.889  15.589  0.2541 -0.4904  2.2945
  269MPD2    H1 4124   0.178   2.975  15.381 -0.0746  0.5031  1.3544
  269MPD2    H2 4125   0.088   2.578  15.483 -1.9667  0.0956  1.5475
  269MPD2    H3 4126   0.235   2.756  15.374  0.6021  3.4614 -2.1774
  269MPD2     N 4127   4.683   3.092  15.494 -0.6283 -0.4480 -0.6273
  269MPD2    H5 4128   4.598   3.115  15.544  0.7058  0.8860  1.0191
  269MPD2    N1 4129   4.598   2.618  15.607 -0.4605  0.1993  0.1422
  269MPD2    H7 4130   4.624   2.523  15.584  2.1098  0.5139  1.7616
  270TMC3    C1 4131   4.416   2.508  15.701 -0.1214  0.5642 -0.2314
  270TMC3    C2 4132   4.397   2.447  15.587 -0.6669  0.8607  0.5825
  270TMC3    C3 4133   4.282   2.363  15.579  0.0252  0.0006  0.0899
  270TMC3    C4 4134   4.333   2.495  15.808  0.2253  0.3355 -0.1130
  270TMC3    C5 4135   4.231   2.405  15.802 -0.1892  0.2909  0.9508
  270TMC3    C6 4136   4.200   2.338  15.684  1.0346  0.1477  0.7007
  270TMC3     C 4137   4.489   2.631  15.689  0.2556  0.1324 -0.5239
  270TMC3     O 4138   4.438   2.734  15.722  0.7444  0.3834  0.4097
  270TMC3     H 4139   4.456   2.466  15.498 -2.8815  2.0270 -0.6342
  270TMC3    H1 4140   4.366   2.538  15.902  1.0653 -0.2400 -0.1433
  270TMC3    H2 4141   4.101   2.297  15.671  2.1056 -2.1201 -0.2309
  270TMC3    C7 4142   4.132   2.414  15.906  0.1414 -0.2303 -0.2219
  270TMC3    C8 4143   4.234   2.358  15.444 -0.7467  0.0416 -0.9581
  270TMC3    O1 4144   4.127   2.522  15.956  0.3978 -0.4694  0.3679
  270TMC3    O2 4145   4.260   2.454  15.370 -0.4289  0.2495 -0.0274
  271MPD2     C 4146   3.607   2.474  13.721 -0.5375  0.4713 -0.4476
  271MPD2    C1 4147   3.566   2.488  13.852 -0.1374 -0.0028 -0.7726
  271MPD2    C2 4148   3.442   2.546  13.881  0.3455 -0.3275  0.3965
  271MPD2    C3 4149   3.366   2.594  13.776 -0.1617  0.3230 -0.4497
  271MPD2    C4 4150   3.409   2.572  13.648 -0.0038 -0.3687 -0.2009
  271MPD2    C5 4151   3.528   2.515  13.615 -0.7764  0.0506  0.3691
  271MPD2     H 4152   3.412   2.560  13.984  0.8768  2.5341  0.1551
  271MPD2    H1 4153   3.332   2.589  13.574  0.5550 -1.4349 -1.0128
  271MPD2    H2 4154   3.701   2.429  13.691 -0.5092  0.4891 -0.3860
  271MPD2    H3 4155   3.547   2.492  13.511 -3.0335 -0.3633  0.0439
  271MPD2     N 4156   3.233   2.641  13.790  0.5084  0.1553 -0.0383
  271MPD2    H5 4157   3.190   2.655  13.699 -0.1204 -2.7696 -0.1688
  271MPD2    N1 4158   3.645   2.457  13.960 -1.0477  0.6200  0.3046
  271MPD2    H7 4159   3.609   2.470  14.054 -0.7761 -1.5541  0.7009
  272TMC3    C1 4160   3.824   2.412  14.094 -0.3986  0.2408 -0.5481
  272TMC3    C2 4161   3.915   2.317  14.132 -0.3785  0.1601  0.0405
  272TMC3    C3 4162   3.972   2.324  14.256  0.3371  0.1152 -0.1272
  272TMC3    C4 4163   3.783   2.509  14.190 -0.7491  0.1622  0.6329
  272TMC3    C5 4164   3.846   2.511  14.316 -0.0419  0.3406  0.2698
  272TMC3    C6 4165   3.942   2.418  14.349 -0.3890 -0.2869  0.4055
  272TMC3     C 4166   3.773   2.409  13.962 -0.0551  0.2469  0.7329
  272TMC3     O 4167   3.846   2.385  13.866 -0.4365  0.2763  0.1596
  272TMC3     H 4168   3.939   2.236  14.064  3.6741  0.2850  1.2940
  272TMC3    H1 4169   3.718   2.594  14.174 -1.1942 -0.3409 -0.2566
  272TMC3    H2 4170   3.995   2.416  14.443 -1.0475 -0.8956  0.7698
  272TMC3    C7 4171   3.820   2.628  14.396  0.2491  0.6242  0.0269
  272TMC3    C8 4172   4.097   2.253  14.253  0.0425 -0.1794  0.7017
  272TMC3    O1 4173   3.751   2.719  14.351  0.8424  0.2528 -0.3242
  272TMC3    O2 4174   4.149   2.251  14.143  0.4274 -0.1109  0.3184
  273MPD2     C 4175   0.367   0.403  11.695 -0.3619 -0.0966 -0.5525
  273MPD2    C1 4176   0.474   0.485  11.710 -0.5197  0.1553  0.2820
  273MPD2    C2 4177   0.493   0.596  11.621  0.1682 -0.1809 -0.2609
  273MPD2    C3 4178   0.398   0.629  11.521 -0.1347 -0.0424  0.6668
  273MPD2    C4 4179   0.284   0.551  11.522 -1.1289 -0.1847 -0.4677
  273MPD2    C5 4180   0.269   0.438  11.603 -0.0196  1.0282 -0.5349
  273MPD2     H 4181   0.579   0.660  11.638  0.0777 -0.3451  0.8078
  273MPD2    H1 4182   0.208   0.568  11.447 -2.7636 -0.5069  1.1156
  273MPD2    H2 4183   0.352   0.311  11.751  1.3170  0.2251  0.4014
  273MPD2    H3 4184   0.172   0.390  11.597  1.0989 -1.3202  0.2920
  273MPD2     N 4185   0.407   0.734  11.434 -0.3878  0.2831 -0.3666
  273MPD2    H5 4186   0.334   0.739  11.364 -0.4333 -1.8871 -0.4751
  273MPD2    N1 4187   0.568   0.456  11.813 -0.2389 -0.0852 -1.0719
  273MPD2    H7 4188   0.551   0.381  11.879  0.9179 -0.5243 -1.2720
  274TMC3    C1 4189   0.506   0.933  11.340 -0.5586  0.1249  0.3749
  274TMC3    C2 4190   0.399   0.947  11.261  0.3998 -0.1250  0.7168
  274TMC3    C3 4191   0.398   1.053  11.172 -0.7421  0.1828  0.0637
  274TMC3    C4 4192   0.593   1.038  11.366  0.3376 -0.2023 -0.1034
  274TMC3    C5 4193   0.583   1.148  11.282 -0.4296 -0.1799 -0.0567
  274TMC3    C6 4194   0.490   1.156  11.179  0.3763  0.1004 -1.2478
  274TMC3     C 4195   0.507   0.825  11.436 -0.4719 -0.0973  0.1880
  274TMC3     O 4196   0.588   0.853  11.524 -0.0373  0.7171 -0.4236
  274TMC3     H 4197   0.325   0.868  11.251  3.6054 -3.1192  0.7651
  274TMC3    H1 4198   0.674   1.036  11.439  0.0272  1.5328  0.2948
  274TMC3    H2 4199   0.471   1.256  11.140  0.9785  1.1533  1.1875
  274TMC3    C7 4200   0.631   1.275  11.343  0.3854  0.8273  0.2220
  274TMC3    C8 4201   0.277   1.063  11.093  0.0009 -0.1152 -0.5710
  274TMC3    O1 4202   0.621   1.280  11.463 -0.1799 -0.1602 -0.1603
  274TMC3    O2 4203   0.188   0.994  11.131  0.0218 -0.0805  0.0695
  275MPD2     C 4204   0.488   3.616  14.348  0.0927  0.3570  0.2567
  275MPD2    C1 4205   0.512   3.533  14.462  0.9409  0.7037 -0.7232
  275MPD2    C2 4206   0.411   3.459  14.507  0.0595 -0.5884 -0.7243
  275MPD2    C3 4207   0.285   3.471  14.451  0.3909 -0.5900 -0.0634
  275MPD2    C4 4208   0.267   3.545  14.336  0.4031 -0.6494 -0.5136
  275MPD2    C5 4209   0.373   3.613  14.280  0.1301 -0.1997  0.5502
  275MPD2     H 4210   0.432   3.393  14.590  0.2848 -0.5489 -0.7499
  275MPD2    H1 4211   0.168   3.560  14.295 -0.1550 -1.1131  0.6782
  275MPD2    H2 4212   0.562   3.689  14.316  0.7664  0.1340  1.2992
  275MPD2    H3 4213   0.361   3.680  14.196 -2.3031 -1.3559 -0.0377
  275MPD2     N 4214   0.177   3.419  14.529 -0.0616 -0.4997  1.3717
  275MPD2    H5 4215   0.196   3.381  14.621 -1.4275 -0.7043  1.5726
  275MPD2    N1 4216   0.637   3.531  14.532  0.2890  0.2873 -0.3135
  275MPD2    H7 4217   0.652   3.453  14.596  0.0583  0.1192 -0.4665
  276TMC3    C1 4218   0.868   3.579  14.590 -0.4237 -0.2971  0.2237
  276TMC3    C2 4219   0.915   3.449  14.588  1.0932  0.1850 -0.1469
  276TMC3    C3 4220   1.043   3.428  14.585 -0.8092 -0.4782  0.5247
  276TMC3    C4 4221   0.953   3.680  14.592  0.1643  0.6301  0.4593
  276TMC3    C5 4222   1.083   3.655  14.574  0.0860  0.4129  0.7312
  276TMC3    C6 4223   1.129   3.532  14.565  0.3199 -0.2967  0.0128
  276TMC3     C 4224   0.744   3.616  14.516 -0.7956  0.4231  0.0794
  276TMC3     O 4225   0.754   3.715  14.448 -0.1208  0.4106 -0.0553
  276TMC3     H 4226   0.849   3.363  14.593  0.9670  0.2419 -0.8020
  276TMC3    H1 4227   0.925   3.784  14.583 -0.7915  0.3301  0.0453
  276TMC3    H2 4228   1.236   3.513  14.566  0.5160  0.8176  0.6883
  276TMC3    C7 4229   1.162   3.739  14.663 -0.6546  0.2638 -0.4609
  276TMC3    C8 4230   1.106   3.321  14.662 -0.0786  0.4885  0.7271
  276TMC3    O1 4231   1.107   3.818  14.736  0.0079 -0.6153 -0.1838
  276TMC3    O2 4232   1.215   3.340  14.711 -0.3680  0.5419  0.0542
  277MPD2     C 4233   2.027   2.367  13.119 -0.6306  0.0842 -0.2012
  277MPD2    C1 4234   1.927   2.429  13.188  0.4710  0.2020 -0.5573
  277MPD2    C2 4235   1.910   2.405  13.321  0.6584  0.2160  0.6534
  277MPD2    C3 4236   1.986   2.313  13.381 -0.2627  0.2606  0.4101
  277MPD2    C4 4237   2.071   2.234  13.308 -0.5741 -0.1135  0.4497
  277MPD2    C5 4238   2.094   2.265  13.181 -1.0480 -0.8093 -0.4290
  277MPD2     H 4239   1.846   2.464  13.386 -2.1235 -1.9557 -0.1218
  277MPD2    H1 4240   2.134   2.159  13.356  0.7162 -0.3250 -1.6058
  277MPD2    H2 4241   2.055   2.399  13.019 -0.0863 -0.7642 -0.3140
  277MPD2    H3 4242   2.176   2.214  13.131  0.3001  0.4170  0.5229
  277MPD2     N 4243   1.970   2.309  13.521 -0.4345  0.4236  0.0486
  277MPD2    H5 4244   1.898   2.370  13.559 -1.7385 -0.1768 -1.4766
  277MPD2    N1 4245   1.851   2.523  13.110  0.2872 -0.4242 -0.1891
  277MPD2    H7 4246   1.883   2.533  13.014  2.4723 -1.8665  0.3866
  278TMC3    C1 4247   1.991   2.249  13.746 -0.3551  0.0385  0.7173
  278TMC3    C2 4248   2.018   2.131  13.808  0.2994 -0.5818 -0.1712
  278TMC3    C3 4249   1.908   2.057  13.850  0.2506  0.0584  0.5128
  278TMC3    C4 4250   1.863   2.299  13.739 -0.2142  0.2367  0.0722
  278TMC3    C5 4251   1.761   2.223  13.784  0.0186  0.1135  0.0170
  278TMC3    C6 4252   1.780   2.097  13.840 -0.1356  0.4506  0.2015
  278TMC3     C 4253   2.042   2.231  13.609  0.1432 -0.1138 -0.3184
  278TMC3     O 4254   2.134   2.162  13.575 -0.2445 -0.4208 -0.0423
  278TMC3     H 4255   2.119   2.091  13.806  0.7389  0.4687  0.8030
  278TMC3    H1 4256   1.853   2.399  13.697 -3.2259 -0.4657 -0.9189
  278TMC3    H2 4257   1.700   2.039  13.884  0.3763 -0.7258 -0.4085
  278TMC3    C7 4258   1.629   2.282  13.751 -0.4857 -0.3703 -0.1797
  278TMC3    C8 4259   1.926   1.912  13.859 -0.2439  1.2399  0.2064
  278TMC3    O1 4260   1.639   2.368  13.668  0.5192 -0.7181 -0.3530
  278TMC3    O2 4261   2.012   1.874  13.939  0.4685 -0.3441  0.4235
  279MPD2     C 4262   0.768   1.899   0.350 -0.9941 -0.0294  0.1995
  279MPD2    C1 4263   0.761   2.034   0.347 -0.0359  0.5590  0.0416
  279MPD2    C2 4264   0.814   2.109   0.240  0.0013 -0.0306 -0.2428
  279MPD2    C3 4265   0.895   2.056   0.147 -0.5285  0.2600 -0.1423
  279MPD2    C4 4266   0.901   1.918   0.147  0.1063  0.0882  0.6665
  279MPD2    C5 4267   0.836   1.842   0.243  0.8027 -0.2302 -0.9706
  279MPD2     H 4268   0.811   2.217   0.249 -2.5318 -0.0553 -0.8751
  279MPD2    H1 4269   0.964   1.880   0.067  3.0466  2.8739  1.6693
  279MPD2    H2 4270   0.711   1.833   0.415 -1.2785 -0.4447 -0.4716
  279MPD2    H3 4271   0.827   1.735   0.231 -0.7036 -0.2877  0.7385
  279MPD2     N 4272   0.962   2.126   0.049  0.4445 -0.2834  0.4836
  279MPD2    H5 4273   1.010   2.078  17.721  0.5855  1.0557 -0.2746
  279MPD2    N1 4274   0.702   2.098   0.455  0.2570 -0.2876  0.0625
  279MPD2    H7 4275   0.699   2.034   0.534  0.3205 -0.2490  0.0964
  280TMC3    C1 4276   0.685   2.296   0.570 -0.6793 -0.0214  0.2970
  280TMC3    C2 4277   0.725   2.235   0.685 -0.2116  0.2750 -0.1554
  280TMC3    C3 4278   0.790   2.312   0.777 -0.0998  0.1835 -0.2787
  280TMC3    C4 4279   0.706   2.428   0.553  0.4138  0.0333  0.3650
  280TMC3    C5 4280   0.779   2.496   0.652 -0.2849 -0.7425  0.0360
  280TMC3    C6 4281   0.828   2.441   0.761 -0.2383  0.0838  0.7408
  280TMC3     C 4282   0.666   2.225   0.445 -0.1256  0.1540  0.8340
  280TMC3     O 4283   0.619   2.284   0.354 -0.1652 -0.1697  0.0481
  280TMC3     H 4284   0.706   2.131   0.707  0.2039  0.1646 -0.3284
  280TMC3    H1 4285   0.664   2.473   0.463 -0.9430  1.5228  1.7496
  280TMC3    H2 4286   0.882   2.494   0.839  0.7300  0.4097 -0.1645
  280TMC3    C7 4287   0.784   2.641   0.644 -0.4877  0.2722  0.1847
  280TMC3    C8 4288   0.812   2.241   0.900 -0.2966 -0.2931  0.5451
  280TMC3    O1 4289   0.823   2.695   0.752  0.2674  0.7502  0.0961
  280TMC3    O2 4290   0.735   2.149   0.930  0.2732 -0.3698  0.0795
  281TMC3    C1 4291   4.722   2.620  13.620 -0.4317 -0.3015  0.3436
  281TMC3    C2 4292   0.081   2.696  13.568 -0.8347 -0.9497 -0.7486
  281TMC3    C3 4293   0.118   2.654  13.440 -0.6216  0.5376 -0.4852
  281TMC3    C4 4294   4.676   2.499  13.576 -0.3254  0.9119 -0.0459
  281TMC3    C5 4295   4.732   2.456  13.465 -0.9550  0.8121 -0.4050
  281TMC3    C6 4296   0.087   2.533  13.399  0.7871 -0.4007  0.2931
  281TMC3     C 4297   4.654   2.676  13.742  0.2012  0.2442  0.0004
  281TMC3     O 4298   4.605   2.594  13.822  0.3500  0.0496 -0.0343
  281TMC3     H 4299   0.102   2.798  13.597  1.4764 -1.9379  1.1197
  281TMC3    H1 4300   4.602   2.450  13.638  0.6106  0.9490  1.0994
  281TMC3    H2 4301   0.124   2.497  13.303  1.7592  0.7071  0.2579
  281TMC3    C7 4302   4.700   2.327  13.406 -0.5739  0.2936 -0.2688
  281TMC3    C8 4303   0.242   2.705  13.373 -0.4227  0.7657  0.4779
  281TMC3    O1 4304   0.006   2.299  13.291  0.6856 -0.0438  0.1643
  281TMC3    O2 4305   0.318   2.620  13.325  0.0079 -0.4259 -0.9123
  282MPD2     C 4306   2.007   3.805  15.023 -0.6508 -0.6684  0.3858
  282MPD2    C1 4307   1.894   3.847  15.089 -0.3588 -0.1028  0.5106
  282MPD2    C2 4308   1.781   3.892  15.022  0.0993 -0.6990  0.4348
  282MPD2    C3 4309   1.778   3.901  14.886  0.1029 -0.0382 -0.0828
  282MPD2    C4 4310   1.886   3.843  14.824  0.3241 -0.1845  0.1834
  282MPD2    C5 4311   1.998   3.795  14.890  0.1978 -0.1416 -0.2454
  282MPD2     H 4312   1.696   3.926  15.080  1.3059  0.0798  1.7555
  282MPD2    H1 4313   1.890   3.830  14.717  2.9936 -1.5300  0.4500
  282MPD2    H2 4314   2.089   3.754  15.073  1.3301  2.4278  0.2978
  282MPD2    H3 4315   2.076   3.746  14.833 -1.8500  0.0208 -3.2207
  282MPD2     N 4316   1.669   3.962  14.820  0.0253 -0.3053  0.2934
  282MPD2    H5 4317   1.603   4.004  14.885 -0.8132 -1.2967  0.0920
  282MPD2    N1 4318   1.883   3.859  15.225 -0.0276  0.4471 -0.6122
  282MPD2    H7 4319   1.792   3.878  15.265  0.1708  1.3554 -0.5829
  283TMC3    C1 4320   1.952   3.895  15.451  0.2480 -0.1526  0.3654
  283TMC3    C2 4321   2.043   3.969  15.520 -0.3958 -0.2080 -0.7935
  283TMC3    C3 4322   2.003   4.003  15.646 -0.2229 -0.5239 -0.0377
  283TMC3    C4 4323   1.838   3.839  15.503  0.6900 -0.5441  0.6112
  283TMC3    C5 4324   1.804   3.871  15.631  0.0505  0.4370 -1.0346
  283TMC3    C6 4325   1.884   3.958  15.703 -0.0526 -0.1835 -0.0422
  283TMC3     C 4326   1.991   3.868  15.315 -0.7736 -0.1734  0.5687
  283TMC3     O 4327   2.112   3.864  15.295 -0.6658  0.4576  0.2553
  283TMC3     H 4328   2.140   3.991  15.477  0.4683 -2.4499  0.0053
  283TMC3    H1 4329   1.789   3.767  15.439  0.7772 -0.3585  0.3330
  283TMC3    H2 4330   1.861   3.985  15.805  0.7210 -0.8215  0.2958
  283TMC3    C7 4331   1.688   3.822  15.692  0.1847  1.0489  0.3244
  283TMC3    C8 4332   2.067   4.120  15.713  0.5196 -0.0215  0.5002
  283TMC3    O1 4333   1.629   3.905  15.761 -0.1720  0.1236  0.1382
  283TMC3    O2 4334   2.035   4.130  15.832 -0.4283  0.1564  0.4935
  284MPD2     C 4335   0.247   3.747  12.370  0.5400  0.2464 -0.0939
  284MPD2    C1 4336   0.302   3.740  12.243  0.1371 -0.1367 -0.4657
  284MPD2    C2 4337   0.298   3.624  12.168  0.0770  0.5522 -0.0369
  284MPD2    C3 4338   0.221   3.520  12.210 -0.0354  0.1664  0.0562
  284MPD2    C4 4339   0.163   3.532  12.335  0.4160 -0.1598  0.4933
  284MPD2    C5 4340   0.175   3.641  12.418 -0.3106  0.0667 -0.0145
  284MPD2     H 4341   0.353   3.624  12.075 -0.2890 -2.8446 -0.2581
  284MPD2    H1 4342   0.097   3.454  12.370 -1.6156  1.7084  0.7958
  284MPD2    H2 4343   0.261   3.843  12.418 -2.5527  0.0588  1.1691
  284MPD2    H3 4344   0.106   3.642  12.501 -0.5015  1.5197 -0.1947
  284MPD2     N 4345   0.219   3.392  12.148  1.2788 -0.1840 -0.4561
  284MPD2    H5 4346   0.148   3.330  12.187  0.0441  1.2195 -0.4407
  284MPD2    N1 4347   0.355   3.849  12.177  1.0969  0.3422 -0.5551
  284MPD2    H7 4348   0.405   3.819  12.094  1.2309 -0.1473 -0.2941
  285TMC3    C1 4349   0.425   4.056  12.099  0.1989  0.4561 -0.7182
  285TMC3    C2 4350   0.503   3.988  12.010 -0.1474 -0.0993  0.4386
  285TMC3    C3 4351   0.561   4.058  11.911  0.1877  0.4030 -0.7117
  285TMC3    C4 4352   0.403   4.189  12.096 -0.5462 -0.0145  0.3150
  285TMC3    C5 4353   0.473   4.258  11.992  0.0659  0.4743  0.4015
  285TMC3    C6 4354   0.542   4.191  11.893  1.1374 -1.3641 -0.4994
  285TMC3     C 4355   0.362   3.978  12.210  0.0962 -0.5427  0.7877
  285TMC3     O 4356   0.308   4.038  12.298  0.1726 -0.3405  0.0873
  285TMC3     H 4357   0.516   3.880  12.006 -0.6874 -0.1310 -0.3259
  285TMC3    H1 4358   0.369   4.243  12.183 -1.3456 -1.9501  1.1873
  285TMC3    H2 4359   0.577   4.236  11.801  0.2037  0.3620 -0.0120
  285TMC3    C7 4360   0.469   4.399  11.973 -0.4990 -0.5853 -0.4241
  285TMC3    C8 4361   0.621   3.981  11.806 -0.2536  0.1390  0.3850
  285TMC3    O1 4362   0.576   4.443  11.927 -0.1481 -0.2787 -0.0137
  285TMC3    O2 4363   0.577   3.869  11.780 -0.0668  0.2984 -0.2244
  286MPD2     C 4364   4.372   1.362   1.251  0.7554 -0.3479 -0.9828
  286MPD2    C1 4365   4.439   1.419   1.149 -0.9656  0.8905  0.1199
  286MPD2    C2 4366   4.542   1.348   1.085 -0.3260  0.2302  0.3617
  286MPD2    C3 4367   4.582   1.221   1.139 -0.0401 -0.0699 -0.8399
  286MPD2    C4 4368   4.515   1.164   1.249 -0.3218 -0.2835 -0.8082
  286MPD2    C5 4369   4.409   1.240   1.304 -0.0781 -0.3451  0.0721
  286MPD2     H 4370   4.592   1.387   0.997 -0.9460  0.0474 -0.0659
  286MPD2    H1 4371   4.556   1.076   1.296  1.9232 -0.0182 -2.3116
  286MPD2    H2 4372   4.296   1.417   1.305  1.6393  1.0152 -1.1263
  286MPD2    H3 4373   4.357   1.200   1.391 -0.3556 -0.1833 -0.0228
  286MPD2     N 4374   4.700   1.155   1.092  0.3982  0.2890 -0.1721
  286MPD2    H5 4375   4.734   1.177   0.999 -0.8870 -2.9275 -1.4085
  286MPD2    N1 4376   4.414   1.553   1.122  0.6343 -0.2037  0.2785
  286MPD2    H7 4377   4.360   1.607   1.189 -0.3812  0.2654 -0.9157
  287TMC3    C1 4378   0.139   1.016   1.094  0.3085 -0.4741 -0.6682
  287TMC3    C2 4379   0.110   0.961   0.973  0.3594  0.3841  0.0201
  287TMC3    C3 4380   0.201   0.879   0.912 -0.1614 -0.1773  0.4232
  287TMC3    C4 4381   0.260   1.005   1.152  0.4716 -0.2143  1.0136
  287TMC3    C5 4382   0.356   0.942   1.073 -0.4515  0.4417 -0.0161
  287TMC3    C6 4383   0.328   0.868   0.953  0.4450 -0.5739 -0.0030
  287TMC3     C 4384   0.049   1.088   1.172  0.1460  1.1278 -0.1711
  287TMC3     O 4385   0.066   1.085   1.295  0.0588  0.5601 -0.1960
  287TMC3     H 4386   0.010   0.973   0.932  0.8083 -3.3699 -2.1752
  287TMC3    H1 4387   0.283   1.061   1.242  1.0538  1.4224 -0.1493
  287TMC3    H2 4388   0.394   0.794   0.910  0.4758 -0.9361  0.6650
  287TMC3    C7 4389   0.495   0.980   1.094  0.0916  0.1180 -0.1192
  287TMC3    C8 4390   0.173   0.838   0.777  0.4238 -0.2782  0.1944
  287TMC3    O1 4391   0.524   1.070   1.173 -0.0436  0.2880 -0.1776
  287TMC3    O2 4392   0.078   0.765   0.751 -0.1826  0.7297 -0.0206
  288TMC3    C1 4393   2.181   1.621  13.471 -0.4789  0.2000  0.0318
  288TMC3    C2 4394   2.203   1.638  13.607 -0.3023  0.0466  0.4772
  288TMC3    C3 4395   2.258   1.758  13.644  0.4996 -0.1520  0.4810
  288TMC3    C4 4396   2.210   1.720  13.379 -0.1271 -0.1051  0.1405
  288TMC3    C5 4397   2.275   1.834  13.422  0.4409 -0.9534  0.7311
  288TMC3    C6 4398   2.309   1.848  13.554 -0.4481 -0.0751  0.4573
  288TMC3     C 4399   2.099   1.510  13.417 -0.3780  0.6061  0.5596
  288TMC3     O 4400   2.022   1.530  13.319  0.3573 -0.2925 -0.0864
  288TMC3     H 4401   2.183   1.556  13.675 -1.9247  0.2588  0.2613
  288TMC3    H1 4402   2.186   1.702  13.275 -0.6524  0.9561  0.0722
  288TMC3    H2 4403   2.368   1.932  13.590 -0.5122 -0.2091  0.8824
  288TMC3    C7 4404   2.352   1.906  13.321  0.4337 -0.2206 -0.4140
  288TMC3    C8 4405   2.324   1.767  13.769 -0.2487  0.0947 -0.0509
  288TMC3    O1 4406   2.326   1.886  13.204  0.1537  0.0167  0.4000
  288TMC3    O2 4407   2.408   1.855  13.780  0.9124  0.1876  0.7733
  289MPD2     C 4408   2.316   0.735  14.263  0.7905  0.2920  0.0273
  289MPD2    C1 4409   2.266   0.864  14.259 -0.2272  0.4769  0.3746
  289MPD2    C2 4410   2.133   0.878  14.220  0.2166  0.2158 -0.8317
  289MPD2    C3 4411   2.060   0.767  14.181 -0.0528 -0.6683  0.2163
  289MPD2    C4 4412   2.125   0.643  14.172 -0.2762 -0.4139  0.6869
  289MPD2    C5 4413   2.254   0.630  14.211  0.1585 -0.2530 -0.3606
  289MPD2     H 4414   2.084   0.975  14.224  0.5705  0.3703 -0.1167
  289MPD2    H1 4415   2.078   0.556  14.127  0.1657  0.0676 -0.7063
  289MPD2    H2 4416   2.419   0.727  14.295  1.2588 -1.8322 -2.0213
  289MPD2    H3 4417   2.303   0.534  14.200  0.2064 -0.3795  0.9773
  289MPD2     N 4418   1.930   0.774  14.129  0.1014  0.6197 -0.3462
  289MPD2    H5 4419   1.889   0.687  14.095  0.4231  0.8686 -1.3651
  289MPD2    N1 4420   2.354   0.964  14.321 -0.3445  0.1857  0.4975
  289MPD2    H7 4421   2.444   0.929  14.352 -1.3413 -0.9808  2.0683
  290TMC3    C1 4422   1.729   0.849  14.068  0.0006  0.0376  0.9675
  290TMC3    C2 4423   1.661   0.949  14.001 -0.3484  0.3185 -0.1455
  290TMC3    C3 4424   1.524   0.930  13.983  0.5350 -1.3494  0.3959
  290TMC3    C4 4425   1.664   0.741  14.116 -0.5653 -0.2423 -0.5608
  290TMC3    C5 4426   1.527   0.727  14.097 -0.2112  0.1216 -0.5998
  290TMC3    C6 4427   1.460   0.813  14.021  0.1693  0.0280 -0.7614
  290TMC3     C 4428   1.854   0.887  14.109 -0.1018  0.1878 -0.2984
  290TMC3     O 4429   1.874   1.008  14.107 -0.5036  0.6426 -0.3825
  290TMC3     H 4430   1.713   1.035  13.962  1.1362 -0.8311 -0.6945
  290TMC3    H1 4431   1.711   0.681  14.193 -0.3017 -2.1737 -2.2443
  290TMC3    H2 4432   1.352   0.809  14.015  0.1595 -0.3174 -0.3386
  290TMC3    C7 4433   1.450   0.661  14.197  0.4298 -0.1892  0.5338
  290TMC3    C8 4434   1.455   1.049  13.922  0.6381  0.0527 -0.5925
  290TMC3    O1 4435   1.358   0.727  14.241  0.4380 -0.0323 -0.5986
  290TMC3    O2 4436   1.345   1.025  13.872 -0.6502  0.3218 -0.0187
  291MPD2     C 4437   1.455   1.106   0.060  0.5258  0.5452 -0.1671
  291MPD2    C1 4438   1.487   0.976   0.085 -0.4610  0.0951  0.7580
  291MPD2    C2 4439   1.618   0.951   0.121  0.2393  0.3623 -0.0018
  291MPD2    C3 4440   1.708   1.057   0.143  0.1292 -0.0643  0.2000
  291MPD2    C4 4441   1.660   1.184   0.124  0.2443 -0.4698 -0.6482
  291MPD2    C5 4442   1.540   1.213   0.073  0.3034  0.0375  0.6196
  291MPD2     H 4443   1.651   0.853   0.151 -2.8892 -0.9067 -0.6654
  291MPD2    H1 4444   1.721   1.272   0.142 -1.3894  0.3167  0.9916
  291MPD2    H2 4445   1.361   1.131   0.013  0.9067  2.7088  0.2214
  291MPD2    H3 4446   1.506   1.314   0.054  0.5749 -0.6632 -3.4719
  291MPD2     N 4447   1.844   1.035   0.176  0.5117  0.2832 -0.9682
  291MPD2    H5 4448   1.895   1.121   0.191 -3.3651  2.1253  1.8221
  291MPD2    N1 4449   1.397   0.869   0.090 -0.2369  0.0318 -0.2947
  291MPD2    H7 4450   1.435   0.775   0.090 -1.6550 -0.5354 -0.4535
  292TMC3    C1 4451   1.185   0.771   0.103 -0.6864  0.1765 -0.4973
  292TMC3    C2 4452   1.159   0.758   0.238 -0.2528 -0.6171  0.2135
  292TMC3    C3 4453   1.146   0.636   0.287 -0.4140  0.1019 -0.1238
  292TMC3    C4 4454   1.207   0.661   0.027  1.3524 -0.4989 -1.1993
  292TMC3    C5 4455   1.183   0.537   0.078  0.1560 -0.2175  0.1897
  292TMC3    C6 4456   1.153   0.522   0.212 -0.1787  0.2543 -0.4479
  292TMC3     C 4457   1.262   0.891   0.076  0.3210  0.1606  0.0305
  292TMC3     O 4458   1.204   0.993   0.101  0.2323  0.1980 -0.2812
  292TMC3     H 4459   1.142   0.847   0.298  0.6492 -0.0396 -0.3962
  292TMC3    H1 4460   1.219   0.672  17.668  0.8963 -0.9580 -1.2996
  292TMC3    H2 4461   1.148   0.425   0.261  0.0702  0.9850  1.0223
  292TMC3    C7 4462   1.151   0.436  17.733  0.1109 -0.5034 -0.0349
  292TMC3    C8 4463   1.103   0.623   0.421  0.2280 -0.2474 -0.2761
  292TMC3    O1 4464   1.238   0.404  17.646 -0.1113  0.6920  0.0214
  292TMC3    O2 4465   1.140   0.695   0.516 -0.3434 -0.0189  0.0580
  293MPD2     C 4466   2.973   2.394  12.294 -0.2556  0.5127 -0.0040
  293MPD2    C1 4467   2.924   2.311  12.396 -0.6641 -0.8400  0.1447
  293MPD2    C2 4468   2.982   2.314  12.522  0.6173  0.2100  0.4351
  293MPD2    C3 4469   3.099   2.391  12.541 -0.3885 -0.6619 -0.2434
  293MPD2    C4 4470   3.147   2.457  12.433 -0.1317 -0.6475  0.1235
  293MPD2    C5 4471   3.084   2.463  12.317 -0.0443  0.0827 -0.5642
  293MPD2     H 4472   2.935   2.267  12.608 -0.9445  1.9064  0.4998
  293MPD2    H1 4473   3.237   2.518  12.434 -1.7673  1.7096  2.8841
  293MPD2    H2 4474   2.920   2.403  12.200  0.9476  2.3724 -0.4908
  293MPD2    H3 4475   3.126   2.524  12.238 -3.3248  2.7704 -0.2100
  293MPD2     N 4476   3.154   2.414  12.674 -0.2172 -0.4728 -0.2526
  293MPD2    H5 4477   3.113   2.354  12.744  2.1257  0.3617  1.8620
  293MPD2    N1 4478   2.800   2.247  12.371  0.0228  0.0825  0.2805
  293MPD2    H7 4479   2.754   2.255  12.280 -0.4265 -0.5958  0.4496
  294TMC3    C1 4480   2.612   2.103  12.391  0.0988  0.3556 -0.0734
  294TMC3    C2 4481   2.585   1.973  12.416  0.3680 -0.9826 -0.8322
  294TMC3    C3 4482   2.477   1.914  12.349  0.1825 -0.3877  0.0233
  294TMC3    C4 4483   2.536   2.175  12.307  1.0973  0.5039  0.3807
  294TMC3    C5 4484   2.435   2.117  12.244  0.2712  0.2167 -0.3388
  294TMC3    C6 4485   2.400   1.986  12.260  0.1327 -0.5301 -0.2162
  294TMC3     C 4486   2.736   2.156  12.452  0.5263 -0.4112 -0.3518
  294TMC3     O 4487   2.784   2.095  12.551 -0.2011 -0.1171 -0.3980
  294TMC3     H 4488   2.646   1.909  12.479  1.6723  0.7463 -0.3694
  294TMC3    H1 4489   2.558   2.280  12.296  1.7757  0.2364 -0.7547
  294TMC3    H2 4490   2.328   1.946  12.190 -0.1657  0.4838 -0.4974
  294TMC3    C7 4491   2.358   2.195  12.150  0.7828 -0.5109 -0.0447
  294TMC3    C8 4492   2.465   1.771  12.343  0.1729  0.4059  0.4381
  294TMC3    O1 4493   2.245   2.155  12.123  0.4955  0.5939  0.2970
  294TMC3    O2 4494   2.357   1.724  12.318  0.3551  0.5381  0.1641
  295MPD2     C 4495   3.746   0.226   0.076  0.7253 -0.8302 -0.0927
  295MPD2    C1 4496   3.635   0.254   0.151  0.6827 -0.2407  0.3300
  295MPD2    C2 4497   3.603   0.170   0.247  0.2089 -0.1152  0.4765
  295MPD2    C3 4498   3.682   0.053   0.278  0.3241 -0.1116 -0.1077
  295MPD2    C4 4499   3.798   0.026   0.196  0.1671  0.6129 -0.1585
  295MPD2    C5 4500   3.833   0.119   0.103 -0.0545 -0.3205  0.5428
  295MPD2     H 4501   3.536   0.200   0.327  1.9735  1.5805  1.3437
  295MPD2    H1 4502   3.864   4.681   0.221  1.0264  1.3172 -0.0817
  295MPD2    H2 4503   3.776   0.292  17.744 -1.9060  0.5561  0.0612
  295MPD2    H3 4504   3.922   0.113   0.040 -0.9608  0.3514 -0.8066
  295MPD2     N 4505   3.652   4.699   0.377 -0.2210  0.0723  0.2387
  295MPD2    H5 4506   3.735   4.647   0.403  0.2994 -0.4546 -2.4336
  295MPD2    N1 4507   3.547   0.365   0.129  0.7757  0.2518 -0.0623
  295MPD2    H7 4508   3.462   0.359   0.183 -0.6361  0.3246 -2.2994
  296TMC3    C1 4509   3.551   4.627   0.566 -0.8002 -0.1347  0.6658
  296TMC3    C2 4510   3.669   4.653   0.638  0.0487 -0.4099  0.7637
  296TMC3    C3 4511   3.657   4.661   0.771  0.1410  0.2225  0.3167
  296TMC3    C4 4512   3.430   4.628   0.630  0.2201 -0.3130 -0.4007
  296TMC3    C5 4513   3.420   4.623   0.767  0.2036 -0.1883  0.8127
  296TMC3    C6 4514   3.535   4.643   0.842  0.2429 -0.4959  0.1321
  296TMC3     C 4515   3.534   4.695   0.446  0.2136 -0.0023  0.5533
  296TMC3     O 4516   3.428   0.012   0.428  0.0234  0.3418 -0.3884
  296TMC3     H 4517   3.762   4.671   0.587 -1.0718  1.9090 -0.4909
  296TMC3    H1 4518   3.337   4.613   0.576 -0.9021  2.7707  0.6497
  296TMC3    H2 4519   3.532   4.634   0.950  3.0810  1.2351  0.3474
  296TMC3    C7 4520   3.290   4.656   0.823  0.3262  0.4066  0.2839
  296TMC3    C8 4521   3.779   4.656   0.842 -0.5156 -0.1520  0.4191
  296TMC3    O1 4522   3.208   4.724   0.757 -0.2668 -0.4579  0.3733
  296TMC3    O2 4523   3.875   4.623   0.777 -0.3342 -0.4099 -0.1154
  297MPD2     C 4524   0.762   2.950  16.812 -0.1845  0.7972  0.5387
  297MPD2    C1 4525   0.796   2.910  16.688 -0.1358 -0.0410  0.2464
  297MPD2    C2 4526   0.899   2.974  16.610  0.3464  0.0323 -0.0798
  297MPD2    C3 4527   0.955   3.089  16.664  0.0658 -0.1111  0.7009
  297MPD2    C4 4528   0.921   3.132  16.795  0.8896  0.1575 -0.1130
  297MPD2    C5 4529   0.820   3.067  16.868 -0.6337  0.1568  0.8048
  297MPD2     H 4530   0.921   2.930  16.513  1.0758 -4.9619  2.3500
  297MPD2    H1 4531   0.963   3.225  16.832 -0.0418  0.4532  0.2090
  297MPD2    H2 4532   0.674   2.906  16.858 -0.7902 -0.8851 -2.2100
  297MPD2    H3 4533   0.785   3.107  16.963  2.5443 -0.3076  2.1728
  297MPD2     N 4534   1.048   3.160  16.589  0.4521 -0.4401 -0.1563
  297MPD2    H5 4535   1.086   3.244  16.632 -1.2171  0.6568 -0.8376
  297MPD2    N1 4536   0.721   2.799  16.639  0.4068 -0.0772  0.1746
  297MPD2    H7 4537   0.647   2.765  16.700 -1.0840  2.5459 -0.1706
  298TMC3    C1 4538   0.618   2.671  16.468 -0.1209 -0.0702 -0.4408
  298TMC3    C2 4539   0.637   2.618  16.343  0.0194  0.1177  0.5255
  298TMC3    C3 4540   0.548   2.631  16.242  0.5097  0.3045 -0.4540
  298TMC3    C4 4541   0.500   2.736  16.485  0.2546 -0.6089  0.3663
  298TMC3    C5 4542   0.415   2.760  16.385  0.1817 -0.1640  0.1966
  298TMC3    C6 4543   0.432   2.703  16.258 -0.0505 -0.0566  0.1119
  298TMC3     C 4544   0.736   2.738  16.516  0.1092 -0.4652  0.3195
  298TMC3     O 4545   0.831   2.745  16.443 -0.2901 -0.5195 -0.0885
  298TMC3     H 4546   0.734   2.580  16.312 -1.3871 -1.9571 -1.2778
  298TMC3    H1 4547   0.478   2.783  16.581 -2.0156  2.1647 -1.5094
  298TMC3    H2 4548   0.368   2.735  16.176  0.2130  1.2837  0.4343
  298TMC3    C7 4549   0.333   2.881  16.403  0.3431 -0.2292  0.2394
  298TMC3    C8 4550   0.586   2.618  16.105 -0.9062  0.3816 -0.0266
  298TMC3    O1 4551   0.309   2.911  16.519 -0.1622 -0.1128  0.4473
  298TMC3    O2 4552   0.527   2.694  16.026  0.4451  0.0885 -0.5293
  299MPD2     C 4553   1.497   3.175  10.490  0.3892 -0.0453 -0.0967
  299MPD2    C1 4554   1.424   3.110  10.593 -0.1218 -0.2183 -0.2611
  299MPD2    C2 4555   1.292   3.071  10.557 -0.2967 -0.0268  0.0097
  299MPD2    C3 4556   1.240   3.094  10.431  0.0307 -0.5474 -0.0303
  299MPD2    C4 4557   1.311   3.164  10.336 -0.0075 -0.3095  0.1965
  299MPD2    C5 4558   1.437   3.213  10.370  0.6998 -0.6343  0.0343
  299MPD2     H 4559   1.234   3.023  10.635 -2.8655  2.3916 -0.3665
  299MPD2    H1 4560   1.277   3.177  10.234  1.0960  2.9303  0.2470
  299MPD2    H2 4561   1.597   3.208  10.518  0.4364 -1.2462  1.1230
  299MPD2    H3 4562   1.497   3.274  10.303 -0.3813  0.4043  0.0192
  299MPD2     N 4563   1.102   3.064  10.399 -0.1833 -0.5149  0.4464
  299MPD2    H5 4564   1.072   3.089  10.306 -0.0057 -2.4121 -0.1190
  299MPD2    N1 4565   1.490   3.092  10.716  0.9052 -0.5235  0.3459
  299MPD2    H7 4566   1.588   3.116  10.728  1.1992 -1.3176 -0.5450
  300TMC3    C1 4567   0.871   3.008  10.416  0.1133 -0.3811 -1.1600
  300TMC3    C2 4568   0.892   2.971  10.287  0.4982  0.5187  0.1055
  300TMC3    C3 4569   0.824   3.016  10.176  0.1233 -0.0505 -0.1641
  300TMC3    C4 4570   0.776   3.105  10.431  0.3562 -0.7125 -0.0872
  300TMC3    C5 4571   0.706   3.144  10.326  0.3427  0.5523 -0.3636
  300TMC3    C6 4572   0.721   3.100  10.194 -0.0243 -0.3293 -0.1455
  300TMC3     C 4573   0.999   3.027  10.485  0.0563 -0.3328 -0.2331
  300TMC3     O 4574   1.006   2.999  10.603 -0.5063 -0.2505 -0.5964
  300TMC3     H 4575   0.971   2.900  10.264  0.5141  1.0516 -1.4508
  300TMC3    H1 4576   0.745   3.133  10.531 -0.9298  1.8324 -1.2131
  300TMC3    H2 4577   0.643   3.129  10.123  1.6650 -0.9224 -2.2381
  300TMC3    C7 4578   0.646   3.273  10.333 -0.0094 -0.2568  0.5966
  300TMC3    C8 4579   0.914   3.055  10.077 -0.0375 -0.5637  0.3549
  300TMC3    O1 4580   0.592   3.318  10.236  0.7489 -0.0273  0.2233
  300TMC3    O2 4581   1.034   3.034  10.106 -0.0001  0.1610  0.7546
  301MPD2     C 4582   3.290   3.966   1.028 -0.3012 -0.2415  0.1643
  301MPD2    C1 4583   3.164   3.898   1.042  0.5491  0.5419 -0.0013
  301MPD2    C2 4584   3.159   3.771   0.989  0.0096 -0.4689  0.0280
  301MPD2    C3 4585   3.261   3.734   0.900 -0.3703  0.3470  0.5218
  301MPD2    C4 4586   3.374   3.811   0.884  0.2203 -0.2836  0.2684
  301MPD2    C5 4587   3.388   3.927   0.953 -0.3459 -0.0362 -0.3761
  301MPD2     H 4588   3.068   3.714   1.007  0.5782 -0.5075  2.8057
  301MPD2    H1 4589   3.445   3.776   0.811  0.8236 -0.0899  0.7581
  301MPD2    H2 4590   3.301   4.066   1.069  0.9397 -0.6056  0.7301
  301MPD2    H3 4591   3.470   3.994   0.930 -0.3339  0.4867  1.1688
  301MPD2     N 4592   3.253   3.612   0.823  0.7706 -0.4205 -0.1806
  301MPD2    H5 4593   3.337   3.585   0.773  0.8327 -1.5538  0.5282
  301MPD2    N1 4594   3.056   3.933   1.124  0.3043  0.0562 -0.4017
  301MPD2    H7 4595   2.985   3.862   1.138  2.4804 -1.5161  2.5913
  302TMC3    C1 4596   3.165   3.417   0.727  0.0790  0.0467 -0.3813
  302TMC3    C2 4597   3.287   3.365   0.709 -0.5318  0.1149 -0.5391
  302TMC3    C3 4598   3.297   3.242   0.641  0.4465 -0.4161 -0.3907
  302TMC3    C4 4599   3.053   3.362   0.663 -0.0955 -0.3431  0.5168
  302TMC3    C5 4600   3.068   3.239   0.602 -0.2050 -0.0214  0.6345
  302TMC3    C6 4601   3.194   3.186   0.575 -0.1383  0.3264  0.1156
  302TMC3     C 4602   3.143   3.533   0.818 -0.3648  0.1908 -0.5090
  302TMC3     O 4603   3.025   3.568   0.837 -0.4450  0.3745  0.1651
  302TMC3     H 4604   3.361   3.383   0.787 -1.5865 -0.2083  0.5308
  302TMC3    H1 4605   2.962   3.419   0.675 -0.6812 -0.8178 -1.6817
  302TMC3    H2 4606   3.204   3.086   0.534 -2.5544 -0.5144  1.5788
  302TMC3    C7 4607   2.958   3.188   0.522  0.1197  0.3830  0.4148
  302TMC3    C8 4608   3.436   3.179   0.626  0.5354  0.2670  0.0825
  302TMC3    O1 4609   2.985   3.149   0.408 -0.1176 -0.2919 -0.2970
  302TMC3    O2 4610   3.437   3.067   0.592 -0.1118 -0.0170  0.1588
  303MPD2     C 4611   4.223   2.892  10.627 -0.6113  0.2141  0.2289
  303MPD2    C1 4612   4.135   2.795  10.663 -0.6817 -0.1450 -0.0731
  303MPD2    C2 4613   4.044   2.752  10.570  0.4874 -0.6037 -0.2521
  303MPD2    C3 4614   4.054   2.784  10.441  0.4327  0.0926  0.2871
  303MPD2    C4 4615   4.146   2.883  10.407  0.2573 -0.0293  0.1120
  303MPD2    C5 4616   4.234   2.933  10.502  0.2981  0.7361  0.3508
  303MPD2     H 4617   3.966   2.687  10.606  1.0466 -1.4086 -0.4770
  303MPD2    H1 4618   4.160   2.910  10.303 -0.6221 -2.0904 -0.5405
  303MPD2    H2 4619   4.278   2.948  10.702  1.2086  1.9825 -2.4776
  303MPD2    H3 4620   4.304   3.011  10.476 -0.6252  1.1374 -0.9163
  303MPD2     N 4621   3.964   2.745  10.343  0.4669 -0.2559 -0.1566
  303MPD2    H5 4622   3.971   2.787  10.251 -1.7301 -1.3944 -0.8552
  303MPD2    N1 4623   4.119   2.765  10.800 -0.2367 -0.1971 -0.1394
  303MPD2    H7 4624   4.172   2.817  10.869  1.4738  0.8461 -2.2217
  304TMC3    C1 4625   4.033   2.649  10.985  0.3029 -0.2121  0.6222
  304TMC3    C2 4626   3.988   2.761  11.045 -0.0570 -0.2481  0.4378
  304TMC3    C3 4627   3.926   2.745  11.165  0.1950 -0.2738  0.0582
  304TMC3    C4 4628   4.028   2.522  11.038  0.4253 -0.0177 -0.2893
  304TMC3    C5 4629   3.969   2.513  11.164 -0.2333  0.9883  0.8857
  304TMC3    C6 4630   3.932   2.628  11.230  0.4940 -0.2810 -0.5106
  304TMC3     C 4631   4.055   2.651  10.842  0.2949 -0.7110 -0.2576
  304TMC3     O 4632   4.021   2.555  10.777 -0.5560  0.5604  0.0395
  304TMC3     H 4633   3.969   2.849  10.985 -1.6831  0.3261  1.8087
  304TMC3    H1 4634   4.061   2.434  10.984 -0.6853  0.5656 -1.9124
  304TMC3    H2 4635   3.878   2.619  11.324  2.0697 -0.3921  0.3916
  304TMC3    C7 4636   3.876   2.407  11.187  0.2296  0.3347 -0.0504
  304TMC3    C8 4637   3.796   2.805  11.186  0.2270 -0.1382  0.6480
  304TMC3    O1 4638   3.772   2.442  11.242 -0.8125 -0.1887  0.8089
  304TMC3    O2 4639   3.795   2.929  11.184  0.4840 -0.1190 -0.8127
  305MPD2     C 4640   1.769   4.413  14.048 -0.5678  0.1211  0.0124
  305MPD2    C1 4641   1.850   4.305  14.047 -0.1400 -0.0886  0.4190
  305MPD2    C2 4642   1.837   4.217  13.941 -1.0782  0.8259  0.6114
  305MPD2    C3 4643   1.745   4.226  13.840  0.2239 -0.6472  0.2469
  305MPD2    C4 4644   1.666   4.332  13.847 -1.1211  0.0970 -0.1399
  305MPD2    C5 4645   1.678   4.421  13.952  0.9826  0.3020 -1.1883
  305MPD2     H 4646   1.909   4.136  13.935 -1.4792  0.6402 -1.4943
  305MPD2    H1 4647   1.598   4.356  13.767 -1.2423 -0.7941 -0.2931
  305MPD2    H2 4648   1.777   4.493  14.121 -0.5168 -1.7079  2.0253
  305MPD2    H3 4649   1.607   4.502  13.950  1.9306  1.1933  1.0405
  305MPD2     N 4650   1.739   4.152  13.717 -0.1171  0.3628  0.2326
  305MPD2    H5 4651   1.672   4.187  13.649  0.5444 -0.9997 -1.1242
  305MPD2    N1 4652   1.941   4.296  14.154  0.3883  0.0896  0.4450
  305MPD2    H7 4653   1.946   4.373  14.219  0.1726 -1.6370  2.4977
  306TMC3    C1 4654   2.096   4.182  14.288  0.6539 -0.1150  0.0539
  306TMC3    C2 4655   2.152   4.065  14.329  0.3202 -0.9351 -0.4357
  306TMC3    C3 4656   2.259   4.066  14.409 -0.3033 -0.8407 -0.1780
  306TMC3    C4 4657   2.170   4.300  14.305 -0.4469 -0.3699  0.0310
  306TMC3    C5 4658   2.293   4.291  14.370 -0.0445  1.2897  0.1333
  306TMC3    C6 4659   2.331   4.174  14.443  0.1516  0.0896 -0.3640
  306TMC3     C 4660   2.006   4.177  14.183 -0.0191  0.0592 -0.2741
  306TMC3     O 4661   1.982   4.069  14.138  0.0322  0.0430  0.2832
  306TMC3     H 4662   2.098   3.973  14.312  0.3607 -1.4944  2.4431
  306TMC3    H1 4663   2.141   4.386  14.247  1.0353  0.2166  0.1505
  306TMC3    H2 4664   2.424   4.170  14.498 -0.3725 -0.1242  0.4976
  306TMC3    C7 4665   2.382   4.403  14.369 -0.0180  0.3194  0.1448
  306TMC3    C8 4666   2.290   3.939  14.470 -0.2617 -0.0958  0.2043
  306TMC3    O1 4667   2.341   4.507  14.316 -0.1856 -0.1095 -0.4500
  306TMC3    O2 4668   2.247   3.845  14.411 -0.1543 -0.5706 -0.0044
  307MPD2     C 4669   4.605   1.938   0.057 -0.0917 -0.7886 -0.0834
  307MPD2    C1 4670   4.578   2.071   0.087  0.0270 -0.5600  1.0391
  307MPD2    C2 4671   4.514   2.109   0.207  0.0159  0.3777 -0.1554
  307MPD2    C3 4672   4.470   2.009   0.294  0.4015 -0.0936  0.6688
  307MPD2    C4 4673   4.492   1.877   0.261  0.5459 -0.4963  0.7799
  307MPD2    C5 4674   4.558   1.843   0.145  0.1754 -0.6532  0.3203
  307MPD2     H 4675   4.494   2.212   0.231 -1.3121  0.1233 -0.1686
  307MPD2    H1 4676   4.459   1.789   0.315 -1.6331  1.3466  2.4831
  307MPD2    H2 4677   4.660   1.914  17.714  0.6487  0.1239  0.1196
  307MPD2    H3 4678   4.564   1.740   0.111 -0.0433  0.0427 -1.8277
  307MPD2     N 4679   4.413   2.048   0.417  0.1406  0.8308 -0.1710
  307MPD2    H5 4680   4.402   2.146   0.438  0.5145  0.6787  0.7194
  307MPD2    N1 4681   4.596   2.173  17.742  0.4256 -0.4389  0.3733
  307MPD2    H7 4682   4.580   2.265   0.035 -1.2202 -1.0682  1.1526
  308TMC3    C1 4683   4.090   2.047   0.726  0.9002 -0.0275  0.2621
  308TMC3    C2 4684   4.111   2.178   0.758 -0.0745 -0.0076  0.0537
  308TMC3    C3 4685   4.242   2.222   0.725  0.0360 -0.6932  0.1957
  308TMC3    C4 4686   4.176   1.962   0.666 -0.3445 -0.7297 -0.4922
  308TMC3    C5 4687   4.299   2.020   0.625 -0.8587 -0.4181  0.8163
  308TMC3    C6 4688   4.333   2.144   0.658  0.1944 -1.0516  0.2057
  308TMC3     C 4689   3.954   2.011   0.711  0.3847  0.5864  0.1128
  308TMC3     O 4690   3.935   1.895   0.686  0.0030 -0.0273  0.1143
  308TMC3     H 4691   4.050   2.233   0.828  0.1938  1.8629 -1.1734
  308TMC3    H1 4692   4.144   1.870   0.619  1.0245 -0.0843 -2.6560
  308TMC3    H2 4693   4.425   2.189   0.624 -1.2121  2.1588  0.6353
  308TMC3    C7 4694   4.366   1.957   0.513 -0.0867 -0.3895  0.0021
  308TMC3    C8 4695   4.267   2.363   0.710 -0.2912 -0.3679 -0.3884
  308TMC3    O1 4696   4.358   1.835   0.509 -0.1845 -0.4776  0.1261
  308TMC3    O2 4697   4.185   2.430   0.655  0.1815  0.2019  0.4445
  309MPD2     C 4698   3.650   2.629  17.268  0.5354  0.2669 -0.0438
  309MPD2    C1 4699   3.618   2.600  17.133  0.3818 -0.4213 -0.6588
  309MPD2    C2 4700   3.484   2.593  17.096 -0.6457 -0.3021  0.4898
  309MPD2    C3 4701   3.382   2.603  17.189 -0.3114 -0.8297  0.4111
  309MPD2    C4 4702   3.420   2.634  17.317  0.5329  0.3295 -1.1611
  309MPD2    C5 4703   3.552   2.645  17.356  0.1218 -0.1707 -0.0899
  309MPD2     H 4704   3.460   2.555  16.997 -0.2168 -1.2213  0.7329
  309MPD2    H1 4705   3.348   2.651  17.396 -0.4556 -1.0270 -1.7661
  309MPD2    H2 4706   3.754   2.639  17.298 -0.4614  1.1820  3.1039
  309MPD2    H3 4707   3.571   2.663  17.461 -1.5941 -0.0386  0.1956
  309MPD2     N 4708   3.244   2.603  17.157  0.6737 -0.2556 -0.3375
  309MPD2    H5 4709   3.182   2.632  17.232 -1.3940 -1.6259 -1.5349
  309MPD2    N1 4710   3.720   2.585  17.035  0.2437 -0.2450  0.0335
  309MPD2    H7 4711   3.692   2.557  16.942 -1.9941 -1.1697  0.9964
  310TMC3    C1 4712   3.930   2.588  16.932  0.0121 -0.0396  0.2407
  310TMC3    C2 4713   3.885   2.638  16.817 -0.4584 -0.2335  0.0212
  310TMC3    C3 4714   3.942   2.615  16.700  0.2533 -0.0255 -0.6575
  310TMC3    C4 4715   4.038   2.508  16.925 -0.0337  0.1239 -0.8234
  310TMC3    C5 4716   4.093   2.478  16.802 -0.7375 -0.0206 -0.3764
  310TMC3    C6 4717   4.051   2.529  16.685 -0.1519  0.1244 -0.4320
  310TMC3     C 4718   3.853   2.594  17.055 -0.4611  0.7011  0.4004
  310TMC3     O 4719   3.920   2.626  17.152  0.1621  0.3693 -0.1306
  310TMC3     H 4720   3.806   2.710  16.827  1.0740  1.9282 -3.6397
  310TMC3    H1 4721   4.069   2.469  17.022  0.1797  0.3912 -0.7856
  310TMC3    H2 4722   4.081   2.490  16.588 -0.3508 -0.2113 -0.3608
  310TMC3    C7 4723   4.103   2.336  16.792 -0.0765  0.2856  0.6024
  310TMC3    C8 4724   3.856   2.650  16.590  0.4973 -0.1058  0.1142
  310TMC3    O1 4725   4.043   2.266  16.876 -0.0010 -0.0022  0.4225
  310TMC3    O2 4726   3.740   2.661  16.619 -0.1356 -0.5332  0.1546
  311MPD2     C 4727   0.724   3.944  12.452  0.5955 -0.2485  0.6255
  311MPD2    C1 4728   0.759   3.992  12.579  0.1986  0.0317 -0.4587
  311MPD2    C2 4729   0.690   3.965  12.692 -0.2075  0.5362  0.2518
  311MPD2    C3 4730   0.580   3.876  12.687 -0.2086  0.4277 -0.4734
  311MPD2    C4 4731   0.548   3.821  12.561 -0.0910  0.5210  0.0239
  311MPD2    C5 4732   0.611   3.860  12.445  0.3109  0.4579  0.5488
  311MPD2     H 4733   0.715   4.012  12.787 -0.0295 -0.3068  0.6229
  311MPD2    H1 4734   0.464   3.755  12.542 -1.2630  2.0984 -0.2386
  311MPD2    H2 4735   0.791   3.952  12.367 -0.8993  1.0332 -0.4215
  311MPD2    H3 4736   0.575   3.828  12.347  0.2809  1.7916  0.1323
  311MPD2     N 4737   0.511   3.845  12.809 -0.2692 -0.6530  0.3319
  311MPD2    H5 4738   0.529   3.901  12.891  2.0440  1.8825 -1.8979
  311MPD2    N1 4739   0.873   4.073  12.594 -0.2593  0.8640 -0.2323
  311MPD2    H7 4740   0.887   4.114  12.686  2.3952  1.2089 -0.8011
  312TMC3    C1 4741   0.346   3.747  12.941 -0.0984  0.5819 -0.9251
  312TMC3    C2 4742   0.285   3.635  12.980  0.1678 -0.6300  0.1796
  312TMC3    C3 4743   0.218   3.639  13.100 -0.6750 -0.2679  0.5296
  312TMC3    C4 4744   0.359   3.860  13.020  1.2218 -0.0132  0.4185
  312TMC3    C5 4745   0.300   3.854  13.146  0.4735 -0.5425 -1.0892
  312TMC3    C6 4746   0.223   3.746  13.185  0.8397  0.4173  0.4309
  312TMC3     C 4747   0.401   3.752  12.809 -0.0065  0.5037 -0.1615
  312TMC3     O 4748   0.377   3.658  12.735 -0.0728 -0.3738  0.0291
  312TMC3     H 4749   0.250   3.576  12.896  0.7280 -4.1540  2.4521
  312TMC3    H1 4750   0.420   3.945  12.991  0.3516  0.3583 -0.2873
  312TMC3    H2 4751   0.178   3.751  13.284 -0.0064  0.4756  0.0429
  312TMC3    C7 4752   0.284   3.975  13.226  1.0102 -1.4606  0.4895
  312TMC3    C8 4753   0.116   3.546  13.120 -0.0135  0.0800  0.0973
  312TMC3    O1 4754   0.276   4.073  13.150 -0.6390  0.3046  0.5425
  312TMC3    O2 4755   0.092   3.475  13.025 -0.1233 -0.1589  0.2367
  313MPD2     C 4756   4.541   4.091  11.506 -0.0025  0.6315 -0.3561
  313MPD2    C1 4757   4.663   4.100  11.447  0.5091 -0.1556 -0.3078
  313MPD2    C2 4758   0.004   3.986  11.440  0.3974 -1.0164  0.2050
  313MPD2    C3 4759   4.693   3.862  11.484 -0.3132 -0.2313 -0.0848
  313MPD2    C4 4760   4.565   3.865  11.542 -0.6772  0.1253  0.4456
  313MPD2    C5 4761   4.494   3.980  11.559  0.8276  0.1741 -0.5258
  313MPD2     H 4762   0.103   3.991  11.394  0.9931 -2.7365  1.2962
  313MPD2    H1 4763   4.523   3.779  11.593  0.7213 -2.6344 -3.0589
  313MPD2    H2 4764   4.474   4.176  11.506 -0.2762  0.4319 -2.5668
  313MPD2    H3 4765   4.392   3.976  11.596  0.2072  2.8041 -1.9294
  313MPD2     N 4766   0.024   3.742  11.464  0.5332  0.0522 -1.0875
  313MPD2    H5 4767   0.107   3.749  11.407 -1.1109  1.1844 -3.3147
  313MPD2    N1 4768   4.709   4.209  11.363 -0.1336 -0.0467  0.1446
  313MPD2    H7 4769   0.068   4.205  11.330 -0.7645 -0.5844 -1.6517
  314TMC3    C1 4770   4.692   4.393  11.233 -0.4880  0.2819 -0.7552
  314TMC3    C2 4771   0.090   4.410  11.230  0.4754  0.8508 -0.0891
  314TMC3    C3 4772   0.141   4.460  11.123 -0.7609  0.1047  0.1015
  314TMC3    C4 4773   4.614   4.438  11.133  0.9192 -0.2296 -0.4360
  314TMC3    C5 4774   4.673   4.488  11.015 -0.3891 -0.0011 -0.6963
  314TMC3    C6 4775   0.071   4.503  11.013 -0.3171  0.9428  0.2387
  314TMC3     C 4776   4.631   4.313  11.330  0.3333 -0.2596 -0.5735
  314TMC3     O 4777   4.515   4.343  11.351 -0.1319 -0.1789 -0.0290
  314TMC3     H 4778   0.156   4.390  11.314 -1.2215  2.2675  1.5549
  314TMC3    H1 4779   4.507   4.416  11.132  0.8224  0.2337  0.6663
  314TMC3    H2 4780   0.121   4.539  10.924 -0.5374  0.6690  0.0011
  314TMC3    C7 4781   4.607   4.439  10.896  0.6364 -0.3069  1.4842
  314TMC3    C8 4782   0.287   4.490  11.118 -0.0733 -0.0630 -0.1270
  314TMC3    O1 4783   4.486   4.418  10.913 -0.0023  0.0901  0.0652
  314TMC3    O2 4784   0.313   4.575  11.032  0.0391 -0.2081  0.2489
  315MPD2     C 4785   0.269   2.344  17.422 -0.0894  0.3908  0.8108
  315MPD2    C1 4786   0.287   2.375  17.557  1.2703  0.0443 -0.9559
  315MPD2    C2 4787   0.317   2.500  17.605  0.8185 -1.0303  0.2685
  315MPD2    C3 4788   0.342   2.606  17.520  0.1497  0.3457 -0.2299
  315MPD2    C4 4789   0.324   2.574  17.385 -0.0315 -0.1580 -0.2617
  315MPD2    C5 4790   0.287   2.444  17.335  0.1100 -0.0025 -0.3981
  315MPD2     H 4791   0.335   2.503  17.712  1.0944  3.0342  0.0942
  315MPD2    H1 4792   0.323   2.643  17.302 -1.3630  2.9164  2.3280
  315MPD2    H2 4793   0.229   2.248  17.392  0.6594  0.2967  0.0955
  315MPD2    H3 4794   0.283   2.429  17.227  1.5284  0.4119 -0.5039
  315MPD2     N 4795   0.373   2.736  17.562 -0.3786  0.0198  0.0974
  315MPD2    H5 4796   0.386   2.751  17.661  0.1613  1.4041 -0.1825
  315MPD2    N1 4797   0.258   2.284  17.661 -0.2415 -0.1787  0.7205
  315MPD2    H7 4798   0.264   2.327   0.004  1.5124  0.2498  0.4108
  316TMC3    C1 4799   0.412   2.972  17.549  0.6689 -0.2493 -0.5028
  316TMC3    C2 4800   0.468   2.974  17.674  0.0776  0.4183  0.0276
  316TMC3    C3 4801   0.441   3.081   0.007 -1.1792 -0.5943  0.2287
  316TMC3    C4 4802   0.332   3.074  17.507  0.1938  0.1415 -0.1204
  316TMC3    C5 4803   0.314   3.182  17.589  0.3570 -0.1197  0.4766
  316TMC3    C6 4804   0.369   3.187  17.708  0.4571 -0.1639 -0.3848
  316TMC3     C 4805   0.380   2.846  17.479 -0.0217 -0.1014 -0.1230
  316TMC3     O 4806   0.357   2.862  17.359 -0.3832 -0.6426 -0.2886
  316TMC3     H 4807   0.546   2.900  17.691 -0.2214  0.0563 -0.1954
  316TMC3    H1 4808   0.275   3.063  17.416  3.2166  0.0538 -2.0000
  316TMC3    H2 4809   0.353   3.273   0.024  0.6279  0.9856 -1.8863
  316TMC3    C7 4810   0.215   3.282  17.559 -0.3043  0.8274 -0.0243
  316TMC3    C8 4811   0.484   3.088   0.143  0.6388 -0.1341 -0.2780
  316TMC3    O1 4812   0.165   3.334  17.659  0.8753  0.0605 -0.1330
  316TMC3    O2 4813   0.478   3.195   0.194  0.4375 -0.1516 -0.4482
  317MPD2     C 4814   2.152   1.113  12.526 -0.0205 -1.0263 -0.3779
  317MPD2    C1 4815   2.272   1.058  12.545  0.3311  0.1983 -0.0700
  317MPD2    C2 4816   2.305   0.996  12.662  0.6122 -0.2482  0.0549
  317MPD2    C3 4817   2.217   1.002  12.765 -0.0505  0.8609  0.3558
  317MPD2    C4 4818   2.097   1.070  12.758  0.1480 -0.2314  0.2166
  317MPD2    C5 4819   2.076   1.127  12.636 -0.0905 -0.2078  0.3814
  317MPD2     H 4820   2.393   0.935  12.677  0.0720 -0.3238  2.8632
  317MPD2    H1 4821   2.024   1.080  12.837  0.8623  1.1700  0.6801
  317MPD2    H2 4822   2.124   1.161  12.433 -2.2410  0.4394  1.0459
  317MPD2    H3 4823   1.989   1.191  12.632 -2.0432 -2.8246  1.4737
  317MPD2     N 4824   2.249   0.932  12.886 -0.7626 -0.8697  0.0899
  317MPD2    H5 4825   2.343   0.896  12.895 -1.0411 -1.7541 -0.4643
  317MPD2    N1 4826   2.356   1.025  12.429 -0.0163  0.5026  0.3364
  317MPD2    H7 4827   2.431   0.963  12.459  0.5969  0.6161 -0.9701
  318TMC3    C1 4828   2.209   0.842  13.099 -0.5351 -0.2642 -0.2116
  318TMC3    C2 4829   2.153   0.726  13.144 -0.5239  0.0834 -0.0789
  318TMC3    C3 4830   2.225   0.644  13.225  0.6266 -0.3456 -0.5290
  318TMC3    C4 4831   2.334   0.880  13.134  0.2346  0.2102 -0.6122
  318TMC3    C5 4832   2.405   0.801  13.215 -0.6728 -0.3685 -1.1249
  318TMC3    C6 4833   2.352   0.685  13.257 -1.4565 -0.2888  0.4431
  318TMC3     C 4834   2.157   0.904  12.984  0.3505  0.2651  0.2137
  318TMC3     O 4835   2.035   0.895  12.974  0.4442 -0.4668 -0.1383
  318TMC3     H 4836   2.056   0.699  13.104 -0.4268 -1.5350  0.8117
  318TMC3    H1 4837   2.374   0.976  13.103  1.5287  0.0710  0.6581
  318TMC3    H2 4838   2.408   0.617  13.320 -1.3069  0.5559  1.2247
  318TMC3    C7 4839   2.539   0.827  13.233 -0.2211 -0.9497  1.2665
  318TMC3    C8 4840   2.182   0.508  13.243  0.6077  0.3589  0.5997
  318TMC3    O1 4841   2.590   0.890  13.146  0.7428 -0.5209  0.2562
  318TMC3    O2 4842   2.269   0.434  13.278 -0.4333 -0.2803  0.4430
  319MPD2     C 4843   3.070   1.683  16.405 -0.2204  0.0229  0.0524
  319MPD2    C1 4844   2.987   1.792  16.421  0.2457 -0.0358 -0.6874
  319MPD2    C2 4845   2.850   1.777  16.400 -0.3938 -0.4124 -0.3554
  319MPD2    C3 4846   2.791   1.652  16.366 -0.7977  0.1791  0.1626
  319MPD2    C4 4847   2.880   1.555  16.341 -0.1221 -0.3156 -0.3516
  319MPD2    C5 4848   3.017   1.565  16.359  0.0276 -0.5438  0.5974
  319MPD2     H 4849   2.773   1.849  16.426  1.6321  1.3179  0.8783
  319MPD2    H1 4850   2.842   1.463  16.297  0.2429 -1.1024  0.9877
  319MPD2    H2 4851   3.177   1.684  16.419 -0.5273  1.3759  2.2501
  319MPD2    H3 4852   3.077   1.477  16.342 -1.6720 -1.5277 -0.3446
  319MPD2     N 4853   2.655   1.637  16.373  0.6608 -0.0825  0.0825
  319MPD2    H5 4854   2.598   1.717  16.398 -0.7960 -0.5329 -1.7989
  319MPD2    N1 4855   3.035   1.901  16.498 -0.0055 -0.1723  0.3301
  319MPD2    H7 4856   2.970   1.978  16.512 -0.7105 -0.8454  0.8102
  320TMC3    C1 4857   2.450   1.529  16.397 -0.1544 -0.0618  0.5568
  320TMC3    C2 4858   2.389   1.622  16.321  0.0110 -0.6573 -0.2335
  320TMC3    C3 4859   2.251   1.616  16.316  0.3880 -0.6003 -0.9061
  320TMC3    C4 4860   2.389   1.447  16.482  0.4942  0.0530  0.3525
  320TMC3    C5 4861   2.255   1.445  16.479  0.1660  0.8471 -0.0343
  320TMC3    C6 4862   2.182   1.536  16.400 -0.5385  0.2033  0.6551
  320TMC3     C 4863   2.594   1.512  16.369  0.0437  0.3673 -0.0100
  320TMC3     O 4864   2.631   1.394  16.378  0.2084 -0.6123 -0.1069
  320TMC3     H 4865   2.443   1.687  16.253  0.6072  0.2652  1.1308
  320TMC3    H1 4866   2.450   1.373  16.533 -1.0278  1.1020  3.6311
  320TMC3    H2 4867   2.076   1.512  16.397 -0.9944  2.2116  0.2154
  320TMC3    C7 4868   2.200   1.310  16.473 -0.0690  0.1264  0.0394
  320TMC3    C8 4869   2.182   1.735  16.274 -0.1145  0.5991  0.0717
  320TMC3    O1 4870   2.146   1.281  16.366 -0.3604  0.4054  0.0120
  320TMC3    O2 4871   2.244   1.838  16.295 -0.1225 -0.2933 -0.1739
  321TMC3    C1 4872   3.162   1.977  16.675 -0.2301 -0.6649 -1.1692
  321TMC3    C2 4873   3.048   1.960  16.754  0.4716 -0.5617 -0.2601
  321TMC3    C3 4874   3.025   2.035  16.859 -0.7532  0.0476  0.2473
  321TMC3    C4 4875   3.245   2.079  16.691 -0.0416 -0.0658 -0.6029
  321TMC3    C5 4876   3.218   2.171  16.792 -0.2305 -0.4155 -0.8288
  321TMC3    C6 4877   3.103   2.148  16.864 -0.2608  0.2591 -0.1258
  321TMC3     C 4878   3.161   1.908  16.551 -1.0187 -0.3114 -0.0599
  321TMC3     O 4879   3.268   1.866  16.507  0.1988  0.4791 -0.2006
  321TMC3     H 4880   2.990   1.872  16.731 -0.8199  0.3726 -0.5452
  321TMC3    H1 4881   3.337   2.078  16.633  0.2361 -0.0227 -0.1631
  321TMC3    H2 4882   3.085   2.221  16.942 -0.0550 -0.2310  0.3847
  321TMC3    C7 4883   3.330   2.204  16.877 -0.2649 -0.5508  0.3282
  321TMC3    C8 4884   2.991   1.990  16.990  0.2121 -0.0936  0.6363
  321TMC3    O1 4885   3.429   2.236  16.819  0.3937  0.3180  0.1142
  321TMC3    O2 4886   3.058   2.049  17.072  0.2517 -0.1843 -0.2136
  322MPD2     C 4887   1.726   3.539  13.373 -0.2960 -0.1365 -0.4305
  322MPD2    C1 4888   1.734   3.459  13.481  0.5325  0.1288  0.1291
  322MPD2    C2 4889   1.789   3.332  13.469  0.8468  0.4471  0.0623
  322MPD2    C3 4890   1.830   3.289  13.344  0.2951  0.3475  0.1552
  322MPD2    C4 4891   1.803   3.364  13.233 -0.8876  0.0783 -0.2512
  322MPD2    C5 4892   1.752   3.493  13.246 -0.6178  0.5722  0.2108
  322MPD2     H 4893   1.800   3.271  13.558  3.3180  3.6073  1.9350
  322MPD2    H1 4894   1.827   3.338  13.131  0.6690 -0.5659  0.2746
  322MPD2    H2 4895   1.672   3.633  13.384 -1.4119 -0.9918  1.4702
  322MPD2    H3 4896   1.736   3.552  13.156  0.2677  1.6918  0.7869
  322MPD2     N 4897   1.869   3.153  13.343  0.0620 -0.0226 -0.6254
  322MPD2    H5 4898   1.872   3.106  13.433  0.8809 -1.1421 -1.2259
  322MPD2    N1 4899   1.698   3.517  13.604 -0.0155 -0.3182  1.1566
  322MPD2    H7 4900   1.663   3.612  13.604  0.6250 -0.0834  0.7205
  323TMC3    C1 4901   1.697   3.544  13.828 -0.7118  0.3440 -0.3194
  323TMC3    C2 4902   1.787   3.647  13.797 -0.5807  0.6030 -0.4582
  323TMC3    C3 4903   1.878   3.677  13.893  0.2491  0.5429  0.6454
  323TMC3    C4 4904   1.699   3.485  13.946  0.1799 -0.0663 -0.4830
  323TMC3    C5 4905   1.794   3.526  14.039 -0.3169  0.0908  0.7530
  323TMC3    C6 4906   1.882   3.619  14.014  0.3928  0.6228 -0.0536
  323TMC3     C 4907   1.687   3.448  13.719 -0.4737 -0.2297 -0.4226
  323TMC3     O 4908   1.686   3.330  13.753 -0.2599 -0.2479 -0.1757
  323TMC3     H 4909   1.786   3.706  13.706  2.1100  0.9169 -0.2787
  323TMC3    H1 4910   1.630   3.405  13.970 -1.3150  1.2325 -0.4352
  323TMC3    H2 4911   1.969   3.622  14.078 -0.6530 -2.9239  1.5140
  323TMC3    C7 4912   1.824   3.428  14.138 -1.1772 -0.2018 -0.7835
  323TMC3    C8 4913   2.003   3.724  13.836 -0.0682  0.0351  0.1112
  323TMC3    O1 4914   1.794   3.313  14.118  0.0998 -0.1623 -0.1033
  323TMC3    O2 4915   2.097   3.753  13.908 -0.1416 -0.2606  0.1169
  324MPD2     C 4916   3.539   4.217  14.582  0.1958 -0.1526  0.3425
  324MPD2    C1 4917   3.520   4.356  14.591  0.2699  0.3240 -0.2271
  324MPD2    C2 4918   3.419   4.409  14.513 -0.3520  0.4006  0.3310
  324MPD2    C3 4919   3.327   4.342  14.435 -0.2195 -0.4181  0.1343
  324MPD2    C4 4920   3.352   4.203  14.429  0.0384 -0.2852  0.2567
  324MPD2    C5 4921   3.458   4.147  14.500  0.1629 -0.1946 -0.8801
  324MPD2     H 4922   3.419   4.516  14.496  1.5556  1.1976  5.3025
  324MPD2    H1 4923   3.276   4.144  14.378 -0.7258  0.3422  0.6908
  324MPD2    H2 4924   3.617   4.166  14.638  0.8108 -0.1487 -0.5142
  324MPD2    H3 4925   3.479   4.041  14.497 -1.1433 -0.4812  0.0002
  324MPD2     N 4926   3.230   4.411  14.359 -0.3867 -0.2718  0.5191
  324MPD2    H5 4927   3.188   4.362  14.280 -0.0240  0.1968  0.0345
  324MPD2    N1 4928   3.609   4.437  14.669  1.0788  0.3072 -0.6300
  324MPD2    H7 4929   3.578   4.534  14.663  1.5853  0.5116  0.0918
  325TMC3    C1 4930   3.078   4.584  14.293  0.3145 -0.3884  0.4361
  325TMC3    C2 4931   2.982   4.485  14.273  0.3017 -1.0375 -0.6360
  325TMC3    C3 4932   2.855   4.524  14.227  0.0374  0.8172 -0.2893
  325TMC3    C4 4933   3.036   4.711  14.309  0.1200  0.7400 -0.1940
  325TMC3    C5 4934   2.914   0.009  14.266  0.6618  0.3459 -0.2084
  325TMC3    C6 4935   2.822   4.655  14.210 -0.3891  0.2060  0.8111
  325TMC3     C 4936   3.188   4.542  14.376  0.5894 -1.0026 -0.1424
  325TMC3     O 4937   3.223   4.626  14.452  0.0577  0.1123 -0.8792
  325TMC3     H 4938   2.989   4.378  14.288  0.7425 -0.8333  0.6115
  325TMC3    H1 4939   3.105   0.045  14.353  1.4577  0.1590 -1.3293
  325TMC3    H2 4940   2.729   4.691  14.167  0.3976  1.8908  0.5062
  325TMC3    C7 4941   2.886   0.146  14.263 -0.1377  0.6714  0.2233
  325TMC3    C8 4942   2.814   4.424  14.119 -0.0427  0.0905  0.4318
  325TMC3    O1 4943   2.986   0.217  14.297  0.3346 -0.4188 -0.4279
  325TMC3    O2 4944   2.880   4.326  14.094 -0.5458 -0.0072  0.1891
  326MPD2     C 4945   4.513   1.626  11.365  0.3423 -0.4094 -0.4515
  326MPD2    C1 4946   4.558   1.546  11.261 -0.6990 -0.1707 -0.4566
  326MPD2    C2 4947   4.692   1.532  11.244  0.4901 -1.0898 -0.0071
  326MPD2    C3 4948   0.050   1.589  11.336  0.1103  0.3571 -0.6112
  326MPD2    C4 4949   4.734   1.658  11.445  0.4137 -0.5712  0.0134
  326MPD2    C5 4950   4.598   1.677  11.460 -1.1305  0.8168  0.6524
  326MPD2     H 4951   4.715   1.485  11.148 -0.2679 -0.3529 -0.5463
  326MPD2    H1 4952   0.065   1.714  11.508 -2.0628 -0.3519  2.5354
  326MPD2    H2 4953   4.410   1.657  11.365  0.4991  0.1215 -1.2964
  326MPD2    H3 4954   4.563   1.728  11.549 -0.6923 -1.9130  2.4234
  326MPD2     N 4955   0.193   1.587  11.323  0.1379 -0.1994 -0.4744
  326MPD2    H5 4956   0.250   1.631  11.394  0.0702  0.0820 -0.5973
  326MPD2    N1 4957   4.474   1.486  11.165  0.2675 -0.0217 -0.4810
  326MPD2    H7 4958   4.514   1.436  11.087 -0.1091  1.6139 -1.7171
  327TMC3    C1 4959   4.291   1.442  11.041 -0.9257 -0.2923 -0.5927
  327TMC3    C2 4960   4.212   1.531  10.976  0.4981 -0.0501  0.2766
  327TMC3    C3 4961   4.219   1.529  10.840  0.1331 -0.1919  0.1947
  327TMC3    C4 4962   4.356   1.346  10.975 -0.5106 -0.2661  0.6158
  327TMC3    C5 4963   4.355   1.340  10.838 -0.6053  0.0019 -0.4496
  327TMC3    C6 4964   4.289   1.438  10.767  0.6543  0.7705  0.4919
  327TMC3     C 4965   4.335   1.495  11.167 -0.8061 -0.1338 -0.1310
  327TMC3     O 4966   4.257   1.559  11.236  0.2426 -0.1423 -0.4278
  327TMC3     H 4967   4.172   1.617  11.028 -0.8965 -0.8194  0.4812
  327TMC3    H1 4968   4.410   1.278  11.040  0.7172 -1.5050 -1.6993
  327TMC3    H2 4969   4.308   1.460  10.662  0.9087  0.0884  0.3964
  327TMC3    C7 4970   4.480   1.300  10.776 -0.4721 -0.0865  0.3652
  327TMC3    C8 4971   4.184   1.651  10.768 -0.0194 -0.6469  0.6215
  327TMC3    O1 4972   4.488   1.341  10.657 -0.3445 -0.5722 -0.2112
  327TMC3    O2 4973   4.209   1.660  10.650 -0.0726 -0.3568 -0.3311
  328MPD2     C 4974   2.240   0.696  17.085  0.6879  0.7813  0.5304
  328MPD2    C1 4975   2.145   0.595  17.077 -0.4611 -0.0192  0.2569
  328MPD2    C2 4976   2.030   0.618  16.999 -0.0873  0.5603 -0.0569
  328MPD2    C3 4977   2.023   0.739  16.927 -0.1007 -0.0784 -0.1185
  328MPD2    C4 4978   2.119   0.834  16.930 -0.5036  0.5868  0.3149
  328MPD2    C5 4979   2.231   0.812  17.009  0.4491 -0.3627  0.1331
  328MPD2     H 4980   1.947   0.548  17.005  0.2629  0.0812 -0.9187
  328MPD2    H1 4981   2.110   0.917  16.861 -0.3968  1.3015  1.1591
  328MPD2    H2 4982   2.323   0.693  17.154 -0.1336  0.6365  1.5025
  328MPD2    H3 4983   2.308   0.887  17.018 -1.0861  1.1100  1.1205
  328MPD2     N 4984   1.906   0.766  16.847  0.9651 -0.1408  0.1427
  328MPD2    H5 4985   1.905   0.853  16.795  0.0258 -0.2721 -0.0717
  328MPD2    N1 4986   2.167   0.474  17.152  0.1350  0.0790  0.4285
  328MPD2    H7 4987   2.224   0.486  17.235 -0.2495 -1.9895  1.0055
  329TMC3    C1 4988   2.152   0.240  17.184  0.5461  0.8490  0.3973
  329TMC3    C2 4989   2.180   0.256  17.319 -0.0948  0.0729  0.3679
  329TMC3    C3 4990   2.231   0.136  17.381  0.2454  0.1884  0.1110
  329TMC3    C4 4991   2.169   0.125  17.114  0.7264 -0.1114 -0.4893
  329TMC3    C5 4992   2.206   0.014  17.183 -0.5725 -0.1875 -0.3972
  329TMC3    C6 4993   2.241   0.018  17.316 -0.0992  0.0867  0.5090
  329TMC3     C 4994   2.124   0.357  17.102  0.3709  0.5418 -0.0594
  329TMC3     O 4995   2.066   0.336  16.997  0.1074  0.0606  0.2867
  329TMC3     H 4996   2.161   0.351  17.366 -0.5419  0.5045 -0.6765
  329TMC3    H1 4997   2.127   0.123  17.015 -0.8047 -1.6596  0.1944
  329TMC3    H2 4998   2.274   4.666  17.368  0.0473 -1.1879 -1.8154
  329TMC3    C7 4999   2.190   4.622  17.119 -0.7288 -0.0730  0.1237
  329TMC3    C8 5000   2.252   0.141  17.524 -0.5108  0.2907 -0.1742
  329TMC3    O1 5001   2.219   4.528  17.192  0.3355 -0.2561 -0.0020
  329TMC3    O2 5002   2.244   0.036  17.592  0.5074 -0.0206 -0.3871
  330TMC3    C1 5003   1.088   0.735  10.108 -0.6062 -0.7264 -0.7581
  330TMC3    C2 5004   1.037   0.685   9.992  0.8178  0.4860 -0.6084
  330TMC3    C3 5005   1.050   0.549   9.972 -0.3037 -0.5459  0.3197
  330TMC3    C4 5006   1.164   0.654  10.192 -0.0370  0.9864  0.2573
  330TMC3    C5 5007   1.172   0.520  10.168  0.2513  0.1997 -0.4991
  330TMC3    C6 5008   1.116   0.459  10.056 -0.0359 -0.8646 -0.4613
  330TMC3     C 5009   1.130   0.871  10.103  0.2994 -0.1664  0.5778
  330TMC3     O 5010   1.231   0.900  10.168 -0.3729 -0.3253 -0.0695
  330TMC3     H 5011   0.982   0.746   9.921  2.1834 -0.1995 -2.2459
  330TMC3    H1 5012   1.202   0.705  10.279  0.5200  2.0648 -0.6259
  330TMC3    H2 5013   1.125   0.354  10.029 -2.3541 -1.2953  0.4536
  330TMC3    C7 5014   1.303   0.463  10.207  0.9846 -0.2493  0.0346
  330TMC3    C8 5015   0.977   0.487   9.863 -0.3362 -0.2456 -0.5269
  330TMC3    O1 5016   1.360   0.391  10.121  0.3711 -0.2569  0.3165
  330TMC3    O2 5017   0.924   0.562   9.781  0.1111  0.0177  0.5903
  331MPD2     C 5018   3.413   4.205  12.764  0.1823  0.4303 -0.0183
  331MPD2    C1 5019   3.324   4.175  12.667 -0.0773  1.1135  0.0880
  331MPD2    C2 5020   3.308   4.050  12.623 -0.9921  0.4863  0.0043
  331MPD2    C3 5021   3.390   3.951  12.674 -0.7723 -0.2143 -0.1265
  331MPD2    C4 5022   3.493   3.983  12.756  0.3237  0.3846 -0.0148
  331MPD2    C5 5023   3.499   4.109  12.807 -0.4264  0.2124  0.0006
  331MPD2     H 5024   3.231   4.016  12.554  0.0831  0.1354 -1.0256
  331MPD2    H1 5025   3.562   3.911  12.798 -0.4062 -1.0267 -1.2477
  331MPD2    H2 5026   3.419   4.303  12.810  0.8211  0.6179 -0.4949
  331MPD2    H3 5027   3.581   4.125  12.876 -0.2944  3.2779 -0.8636
  331MPD2     N 5028   3.337   3.824  12.653  0.4591  0.1586 -0.1738
  331MPD2    H5 5029   3.254   3.814  12.595 -0.0953  1.1027  0.4600
  331MPD2    N1 5030   3.249   4.276  12.600 -0.1345 -0.0292  0.1214
  331MPD2    H7 5031   3.199   4.251  12.515  0.8494  1.4729 -0.9133
  332TMC3    C1 5032   3.347   3.595  12.624  0.3960  0.3271  0.5577
  332TMC3    C2 5033   3.270   3.611  12.511 -0.2882  0.1791  0.4738
  332TMC3    C3 5034   3.183   3.514  12.464  0.7696 -0.3491 -0.2742
  332TMC3    C4 5035   3.351   3.469  12.683 -0.2978  0.2435 -0.2792
  332TMC3    C5 5036   3.283   3.370  12.616  0.6345 -0.0699 -0.8336
  332TMC3    C6 5037   3.193   3.388  12.510  0.5931 -0.1711 -0.0328
  332TMC3     C 5038   3.413   3.709  12.677 -0.0529 -0.0613 -0.1687
  332TMC3     O 5039   3.511   3.698  12.749 -0.1843 -0.7329 -0.6291
  332TMC3     H 5040   3.277   3.702  12.452 -1.4529 -0.5923 -0.8677
  332TMC3    H1 5041   3.418   3.461  12.767  0.8644 -1.6961 -1.4030
  332TMC3    H2 5042   3.141   3.305  12.463  1.4739 -0.0676 -1.1774
  332TMC3    C7 5043   3.331   3.233  12.626 -0.5048  0.5403  0.3622
  332TMC3    C8 5044   3.113   3.544  12.342 -0.5321 -0.0958  0.4210
  332TMC3    O1 5045   3.297   3.152  12.539 -0.1714  0.0001 -1.0465
  332TMC3    O2 5046   3.149   3.645  12.285 -0.9942  0.4715 -0.1157
  333MPD2     C 5047   3.383   4.126  11.212  0.1114  0.1437 -0.7378
  333MPD2    C1 5048   3.430   4.032  11.126  0.0681  0.1791  0.5258
  333MPD2    C2 5049   3.381   3.901  11.121 -0.1769 -0.2708 -0.2122
  333MPD2    C3 5050   3.277   3.871  11.203 -0.2879 -0.8953 -0.5577
  333MPD2    C4 5051   3.219   3.966  11.288 -0.0352  0.1364 -0.4841
  333MPD2    C5 5052   3.282   4.086  11.296  0.2437 -0.8175 -0.7997
  333MPD2     H 5053   3.417   3.817  11.062  1.0022  0.4142 -0.4613
  333MPD2    H1 5054   3.137   3.932  11.352  1.5575  0.0700  1.5344
  333MPD2    H2 5055   3.413   4.230  11.208 -1.2373  0.5853  0.7310
  333MPD2    H3 5056   3.241   4.167  11.355  2.8328 -0.0580 -0.0033
  333MPD2     N 5057   3.244   3.736  11.197 -0.4744 -0.4250  0.1839
  333MPD2    H5 5058   3.308   3.677  11.144  1.3846  0.5947  1.3400
  333MPD2    N1 5059   3.537   4.081  11.050  0.0335  0.0113  0.5826
  333MPD2    H7 5060   3.567   4.176  11.066 -1.2870  0.7605 -1.4035
  334TMC3    C1 5061   3.721   4.106  10.916 -0.1234 -0.0389 -0.3081
  334TMC3    C2 5062   3.825   4.050  10.851 -1.1422  0.0436  0.5559
  334TMC3    C3 5063   3.914   4.131  10.787 -1.0148 -0.1074  0.3573
  334TMC3    C4 5064   3.701   4.244  10.918 -0.8067  0.1292 -0.4288
  334TMC3    C5 5065   3.794   4.317  10.866  0.6223 -0.3637 -0.3840
  334TMC3    C6 5066   3.897   4.266  10.795 -0.7040 -0.3578 -0.2147
  334TMC3     C 5067   3.613   4.018  10.959  0.6243 -0.1450 -0.0653
  334TMC3     O 5068   3.595   3.909  10.909 -0.5011 -0.3644  0.8921
  334TMC3     H 5069   3.826   3.943  10.833 -3.1842  0.0320  0.5135
  334TMC3    H1 5070   3.629   4.294  10.983  1.2292  3.0307 -0.4238
  334TMC3    H2 5071   3.963   4.339  10.749  0.0446 -0.3676  0.8380
  334TMC3    C7 5072   3.772   4.459  10.837  0.2820  0.4446  0.0155
  334TMC3    C8 5073   4.013   4.074  10.693  0.5984 -0.1771 -0.1716
  334TMC3    O1 5074   3.864   4.539  10.854  0.4675  0.2257 -0.3677
  334TMC3    O2 5075   4.011   3.953  10.669 -0.3399 -0.0317 -0.1565
  335TMC3    C1 5076   2.746   0.819  17.448 -0.1864  0.3700 -0.7813
  335TMC3    C2 5077   2.645   0.737  17.407  0.7607 -1.0020 -0.1117
  335TMC3    C3 5078   2.654   0.604  17.421  0.5792 -0.2367  0.1280
  335TMC3    C4 5079   2.871   0.763  17.469 -0.4353  0.0729  0.2795
  335TMC3    C5 5080   2.878   0.628  17.495 -0.7761  0.2962 -0.6084
  335TMC3    C6 5081   2.769   0.551  17.459 -0.1328  0.1834 -0.4213
  335TMC3     C 5082   2.743   0.937  17.367  0.1286  0.8283 -0.7083
  335TMC3     O 5083   2.772   1.047  17.412  0.2046 -0.6737 -0.4240
  335TMC3     H 5084   2.546   0.778  17.390  1.4718  0.2205 -1.2703
  335TMC3    H1 5085   2.952   0.834  17.482 -1.3836  1.5923 -2.0261
  335TMC3    H2 5086   2.771   0.443  17.464  0.0503  0.2115  0.1778
  335TMC3    C7 5087   3.009   0.572  17.463 -0.6947 -0.9971 -0.5300
  335TMC3    C8 5088   2.585   0.536  17.309  0.8595 -0.4694 -0.4136
  335TMC3    O1 5089   3.087   0.654  17.414  0.0372 -0.0612 -0.2788
  335TMC3    O2 5090   2.571   0.611  17.214  0.2186  0.1613 -0.1791
  336MPD2     C 5091   2.899   3.072  16.301  0.4456 -0.1022  0.0447
  336MPD2    C1 5092   2.789   3.059  16.209 -1.1777  0.0854  0.9818
  336MPD2    C2 5093   2.720   2.935  16.181  0.0374  0.2276 -0.6283
  336MPD2    C3 5094   2.763   2.827  16.260 -0.2202  0.3635 -0.5521
  336MPD2    C4 5095   2.854   2.849  16.363 -0.3888  0.1388 -0.3193
  336MPD2    C5 5096   2.921   2.967  16.372  0.2865  0.1185  0.2630
  336MPD2     H 5097   2.638   2.934  16.109  0.9147  0.2497 -1.6286
  336MPD2    H1 5098   2.884   2.763  16.422  1.8007  0.1901 -1.3698
  336MPD2    H2 5099   2.959   3.162  16.311 -1.2525  0.8676  1.4479
  336MPD2    H3 5100   2.991   2.980  16.454 -0.6328  0.8588  0.9292
  336MPD2     N 5101   2.723   2.697  16.240  0.3888  0.1293 -0.5159
  336MPD2    H5 5102   2.765   2.632  16.306  0.3272 -1.0127 -1.5757
  336MPD2    N1 5103   2.746   3.173  16.131  0.8330 -0.2692  0.1009
  336MPD2    H7 5104   2.665   3.166  16.069  1.0908 -0.6490 -0.1923
  337TMC3    C1 5105   2.736   3.386  16.043  0.1781 -0.3574 -0.3354
  337TMC3    C2 5106   2.599   3.400  16.032 -0.1356  0.1232  0.8449
  337TMC3    C3 5107   2.556   3.497  15.952  0.4332  0.0677 -0.6392
  337TMC3    C4 5108   2.830   3.455  15.968  0.7026  0.4271 -0.8054
  337TMC3    C5 5109   2.773   3.547  15.876 -0.2751  0.4134  0.9132
  337TMC3    C6 5110   2.637   3.576  15.868  0.5140 -0.1176 -0.2934
  337TMC3     C 5111   2.799   3.298  16.136 -0.5073 -0.6131 -0.4970
  337TMC3     O 5112   2.890   3.348  16.199 -0.1367  0.2209  0.2925
  337TMC3     H 5113   2.531   3.355  16.104  0.0526 -0.9770  0.3305
  337TMC3    H1 5114   2.936   3.459  15.991  0.2486  0.0565  1.2724
  337TMC3    H2 5115   2.600   3.653  15.803  0.0290 -0.8285 -0.8549
  337TMC3    C7 5116   2.859   3.651  15.829 -0.2497  0.2892  0.6759
  337TMC3    C8 5117   2.414   3.503  15.947 -0.3862  0.0195  0.2663
  337TMC3    O1 5118   2.810   3.758  15.786  0.1103  0.0325 -0.2514
  337TMC3    O2 5119   2.343   3.460  16.039 -0.2092  0.5151  0.1233
  338MPD2     C 5120   3.179   2.871   0.761 -0.0115  0.2393  0.8704
  338MPD2    C1 5121   3.111   2.839   0.645 -0.3214 -0.3869  0.1731
  338MPD2    C2 5122   2.975   2.823   0.647 -0.4438  0.0208  0.0894
  338MPD2    C3 5123   2.902   2.860   0.758  0.1896  0.2413 -0.5532
  338MPD2    C4 5124   2.964   2.897   0.878  0.7493 -0.6297 -0.0829
  338MPD2    C5 5125   3.103   2.902   0.872 -0.1409 -0.0903 -0.1735
  338MPD2     H 5126   2.932   2.786   0.555  0.7020 -0.8023 -0.1122
  338MPD2    H1 5127   2.919   2.928   0.971 -1.6256 -0.9635 -1.1400
  338MPD2    H2 5128   3.285   2.894   0.763 -0.7178  3.4561  0.5939
  338MPD2    H3 5129   3.151   2.944   0.959 -0.5786  0.6661 -0.2930
  338MPD2     N 5130   2.766   2.842   0.730 -0.3291  0.1710 -0.7150
  338MPD2    H5 5131   2.737   2.794   0.645 -0.0790 -0.1987 -0.5913
  338MPD2    N1 5132   3.174   2.805   0.528  0.5006  0.0740  0.0130
  338MPD2    H7 5133   3.110   2.784   0.452 -2.1593  5.1327  0.9121
  339TMC3    C1 5134   2.534   2.878   0.749 -0.0702  0.1083 -0.8353
  339TMC3    C2 5135   2.420   2.868   0.833  0.0048 -0.3887  0.6000
  339TMC3    C3 5136   2.303   2.833   0.774 -0.3425  0.7708 -0.5053
  339TMC3    C4 5137   2.528   2.874   0.613 -0.3608 -0.4146 -0.1519
  339TMC3    C5 5138   2.403   2.846   0.560 -0.1593  0.6194 -0.1774
  339TMC3    C6 5139   2.294   2.830   0.636  1.2274 -0.3219  1.3162
  339TMC3     C 5140   2.662   2.879   0.811  0.3681 -0.4436 -0.3417
  339TMC3     O 5141   2.677   2.929   0.924  0.2821 -0.5419  0.2247
  339TMC3     H 5142   2.433   2.863   0.940 -1.9605 -0.0231  0.8563
  339TMC3    H1 5143   2.609   2.905   0.548 -1.1043  0.2344 -0.7801
  339TMC3    H2 5144   2.195   2.829   0.590  1.3420  2.2276  1.0148
  339TMC3    C7 5145   2.390   2.848   0.414 -0.2851 -0.1985  0.6424
  339TMC3    C8 5146   2.201   2.779   0.863 -0.0366  0.0067  0.2295
  339TMC3    O1 5147   2.498   2.879   0.362  0.3608 -0.4557  0.2511
  339TMC3    O2 5148   2.222   2.784   0.982  0.4164 -0.2866  0.2165
  340MPD2     C 5149   3.129   0.731   9.836  0.9159 -0.1542 -0.1152
  340MPD2    C1 5150   3.264   0.717   9.803 -0.1325 -0.1938  0.4127
  340MPD2    C2 5151   3.343   0.836   9.794 -0.2326  0.0898  0.0383
  340MPD2    C3 5152   3.284   0.963   9.826 -0.3218  0.2281 -0.1731
  340MPD2    C4 5153   3.155   0.965   9.848 -0.8756 -0.0554 -0.3247
  340MPD2    C5 5154   3.079   0.854   9.871  0.2422  0.0262 -0.0031
  340MPD2     H 5155   3.449   0.824   9.774 -0.1165  2.6447 -0.9635
  340MPD2    H1 5156   3.103   1.057   9.873  1.3559  1.1009  0.0155
  340MPD2    H2 5157   3.068   0.643   9.850 -0.6261  0.7822 -0.8906
  340MPD2    H3 5158   2.974   0.859   9.896  0.7284  1.1846  1.7704
  340MPD2     N 5159   3.362   1.081   9.851 -0.0027  0.1735  0.1010
  340MPD2    H5 5160   3.314   1.161   9.889  0.4425 -0.1817  1.3977
  340MPD2    N1 5161   3.314   0.578   9.802 -0.0360  0.1398  0.7443
  340MPD2    H7 5162   3.253   0.499   9.823 -0.9230  0.9807  1.3341
  341TMC3    C1 5163   3.447   0.400   9.762  0.6944 -0.3730 -0.2868
  341TMC3    C2 5164   3.346   0.342   9.691 -0.0235  0.0201 -0.0462
  341TMC3    C3 5165   3.344   0.199   9.669 -0.0552 -0.4837 -0.1379
  341TMC3    C4 5166   3.543   0.319   9.809  0.6468  0.0694 -0.1112
  341TMC3    C5 5167   3.541   0.181   9.794  1.1001 -0.0338 -0.2996
  341TMC3    C6 5168   3.445   0.119   9.721  0.3995 -0.3966 -0.2160
  341TMC3     C 5169   3.444   0.535   9.786 -0.1034 -0.1763 -0.2213
  341TMC3     O 5170   3.541   0.606   9.791  0.1171  0.4576  0.1491
  341TMC3     H 5171   3.270   0.407   9.649  0.2810  1.0439  1.0068
  341TMC3    H1 5172   3.632   0.354   9.861  0.0137  0.1849  0.9124
  341TMC3    H2 5173   3.458   0.013   9.702  3.6269 -0.0727  0.2170
  341TMC3    C7 5174   3.635   0.099   9.857 -0.1538 -0.0008  0.1126
  341TMC3    C8 5175   3.244   0.137   9.577  1.0480  0.1659  0.7554
  341TMC3    O1 5176   3.597   0.018   9.937 -0.6209  0.1695 -0.5055
  341TMC3    O2 5177   3.263   0.018   9.551  0.0504 -0.0869  0.5619
  342MPD2     C 5178   0.735   3.742  17.429  0.8419  0.2167 -0.0295
  342MPD2    C1 5179   0.866   3.736  17.390 -0.2663 -0.3109 -0.6409
  342MPD2    C2 5180   0.930   3.860  17.388  0.3673  0.1141  0.7805
  342MPD2    C3 5181   0.859   3.978  17.423 -0.2705  0.3768 -0.4943
  342MPD2    C4 5182   0.731   3.974  17.465  0.1999  0.0413 -0.3187
  342MPD2    C5 5183   0.670   3.851  17.467 -0.4006 -0.2425 -0.8203
  342MPD2     H 5184   1.036   3.863  17.364 -0.0778 -1.3450 -1.3241
  342MPD2    H1 5185   0.688   4.069  17.496  0.2035  0.4267 -1.4911
  342MPD2    H2 5186   0.680   3.648  17.429  0.4181  0.4708 -2.5873
  342MPD2    H3 5187   0.571   3.839  17.510  0.2166  1.1614  1.0045
  342MPD2     N 5188   0.917   4.109  17.405 -0.0657 -0.3007  0.7234
  342MPD2    H5 5189   0.857   4.176  17.453 -0.0959 -1.2756  2.0689
  342MPD2    N1 5190   0.923   3.609  17.367 -0.5452 -0.2925 -0.3425
  342MPD2    H7 5191   0.860   3.529  17.374  0.5050 -0.9849  1.1883
  343TMC3    C1 5192   1.092   3.458  17.290 -0.5548 -0.6072 -0.9446
  343TMC3    C2 5193   1.217   3.454  17.239  0.7447 -0.6353 -0.0048
  343TMC3    C3 5194   1.292   3.344  17.263  0.2990  0.2602 -0.1808
  343TMC3    C4 5195   1.045   3.356  17.369 -0.1055 -0.5459  0.1975
  343TMC3    C5 5196   1.128   3.247  17.402  0.0139  0.0938  0.3927
  343TMC3    C6 5197   1.254   3.238  17.346  0.4707  0.5364 -0.3443
  343TMC3     C 5198   1.044   3.593  17.300 -0.7690 -0.0880 -0.0176
  343TMC3     O 5199   1.107   3.686  17.252 -1.0789  0.3623 -0.0472
  343TMC3     H 5200   1.253   3.539  17.182  0.1211  0.0148  0.5811
  343TMC3    H1 5201   0.949   3.375  17.416 -0.0848  0.7378 -0.2881
  343TMC3    H2 5202   1.319   3.153  17.364  1.1959  0.6266 -2.5328
  343TMC3    C7 5203   1.063   3.123  17.439 -0.1802  0.1543  0.4091
  343TMC3    C8 5204   1.419   3.360  17.200 -0.2223  0.6227  0.7422
  343TMC3    O1 5205   1.076   3.028  17.369 -0.1341 -0.7500 -0.2293
  343TMC3    O2 5206   1.469   3.466  17.182 -0.5072  0.2395 -0.4134
  344MPD2     C 5207   2.129   3.218  11.000  0.5568  0.5194 -0.4934
  344MPD2    C1 5208   2.040   3.230  10.891 -0.2401  0.5998  0.4165
  344MPD2    C2 5209   2.072   3.307  10.784 -0.3409 -0.1165 -0.3135
  344MPD2    C3 5210   2.186   3.382  10.783  0.2814  0.4977 -0.7198
  344MPD2    C4 5211   2.280   3.360  10.886  0.3014 -0.3566 -0.0298
  344MPD2    C5 5212   2.255   3.266  10.990 -0.0426  0.0437 -0.1443
  344MPD2     H 5213   1.995   3.326  10.709 -1.8457  0.2641  1.3309
  344MPD2    H1 5214   2.381   3.398  10.893 -0.5441  2.0133 -0.8144
  344MPD2    H2 5215   2.103   3.171  11.094  0.5341 -1.6712 -1.5924
  344MPD2    H3 5216   2.325   3.251  11.072 -0.4362  0.4893  0.2703
  344MPD2     N 5217   2.232   3.466  10.675  0.1880 -0.8052 -0.7070
  344MPD2    H5 5218   2.325   3.504  10.691 -0.5796  0.4187  0.9721
  344MPD2    N1 5219   1.920   3.155  10.888  0.1814  0.1713  0.1015
  344MPD2    H7 5220   1.873   3.149  10.799  3.0205 -0.7805 -1.3360
  345TMC3    C1 5221   2.215   3.626  10.492 -0.0624 -0.3903  0.0762
  345TMC3    C2 5222   2.300   3.711  10.553 -0.7010  0.0068  0.1792
  345TMC3    C3 5223   2.364   3.807  10.478 -0.2880  0.1829 -0.2096
  345TMC3    C4 5224   2.191   3.634  10.358 -0.3646  0.7109 -0.4700
  345TMC3    C5 5225   2.266   3.728  10.288  0.1772  0.8993  0.6586
  345TMC3    C6 5226   2.346   3.817  10.346  0.3516 -0.0133 -0.1801
  345TMC3     C 5227   2.155   3.516  10.572 -0.0971 -0.2253 -0.8167
  345TMC3     O 5228   2.048   3.470  10.539 -0.6495  0.2238  0.1677
  345TMC3     H 5229   2.308   3.709  10.661  1.0670 -0.1800  0.0586
  345TMC3    H1 5230   2.116   3.570  10.311 -0.0350  0.1043 -0.1668
  345TMC3    H2 5231   2.398   3.892  10.287  0.8043 -0.2239 -0.0456
  345TMC3    C7 5232   2.252   3.751  10.148  0.5610  0.5204 -0.3533
  345TMC3    C8 5233   2.450   3.908  10.531 -0.1910  0.1046  0.4704
  345TMC3    O1 5234   2.338   3.822  10.095  0.1128 -0.2697 -0.8660
  345TMC3    O2 5235   2.483   4.001  10.462  0.0875  0.3732 -0.1121
  346MPD2     C 5236   1.750   0.024  13.960 -0.2564 -0.1397 -0.1563
  346MPD2    C1 5237   1.869   0.087  13.937  0.0081  0.3364  0.4561
  346MPD2    C2 5238   1.933   0.134  14.049  0.0260  0.2934  0.8459
  346MPD2    C3 5239   1.877   0.136  14.180  0.5356 -0.1497  0.1612
  346MPD2    C4 5240   1.754   0.081  14.198 -0.5611  0.2065 -0.0762
  346MPD2    C5 5241   1.699   0.023  14.091  0.2309 -0.0592 -0.4645
  346MPD2     H 5242   2.029   0.186  14.045 -0.2949  0.6955 -1.6600
  346MPD2    H1 5243   1.700   0.065  14.291  2.5365  0.5135  1.7556
  346MPD2    H2 5244   1.705   4.707  13.878  1.4444  1.6458 -2.2649
  346MPD2    H3 5245   1.599   4.720  14.101 -0.1332  0.7797 -0.7114
  346MPD2     N 5246   1.944   0.210  14.288  0.3167  0.2169 -0.3074
  346MPD2    H5 5247   2.035   0.253  14.277  1.6298 -2.3275  0.6079
  346MPD2    N1 5248   1.933   0.107  13.815  0.5519  0.2906 -0.4913
  346MPD2    H7 5249   2.017   0.161  13.797 -0.4918  1.7339 -1.0409
  347TMC3    C1 5250   1.962   0.309  14.506 -0.2482  0.6155  0.8280
  347TMC3    C2 5251   2.074   0.378  14.465  0.6508 -0.0896 -0.5906
  347TMC3    C3 5252   2.136   0.456  14.556  0.4121  0.2050 -0.2429
  347TMC3    C4 5253   1.914   0.317  14.631 -0.0736  0.1484  0.2251
  347TMC3    C5 5254   1.978   0.410  14.717  0.1027  0.0467 -0.1007
  347TMC3    C6 5255   2.090   0.474  14.685  0.6954 -0.1353 -0.1294
  347TMC3     C 5256   1.887   0.225  14.414  0.3449 -0.4540  0.3412
  347TMC3     O 5257   1.777   0.195  14.457  0.1219 -0.2939  0.5699
  347TMC3     H 5258   2.114   0.380  14.365 -1.8462 -0.0747 -1.5872
  347TMC3    H1 5259   1.854   0.235  14.668 -1.9397  1.2653 -0.3361
  347TMC3    H2 5260   2.138   0.542  14.754  0.5776 -1.0472  0.8663
  347TMC3    C7 5261   1.934   0.419  14.850 -0.7571  0.4564 -0.4289
  347TMC3    C8 5262   2.280   0.481  14.541  0.4173  0.2672 -0.5732
  347TMC3    O1 5263   2.016   0.435  14.942 -0.6934  0.1972 -0.2616
  347TMC3    O2 5264   2.319   0.584  14.592 -0.1122  0.2507 -0.3729
  348MPD2     C 5265   0.834   0.134  11.715 -0.6004  0.7277  0.5730
  348MPD2    C1 5266   0.966   0.116  11.661  0.1661  0.1515  0.1820
  348MPD2    C2 5267   1.009   0.191  11.553  0.3387  0.0388 -0.0710
  348MPD2    C3 5268   0.923   0.283  11.499  0.0744  0.6350  0.1274
  348MPD2    C4 5269   0.793   0.293  11.547  0.6542  0.4539 -0.5827
  348MPD2    C5 5270   0.750   0.221  11.655 -0.1660  0.5375  0.2443
  348MPD2     H 5271   1.109   0.179  11.514  0.6524 -0.1987  0.8244
  348MPD2    H1 5272   0.717   0.362  11.512  0.6826  2.1095  2.6201
  348MPD2    H2 5273   0.795   0.080  11.801 -3.4602  1.1102 -0.4672
  348MPD2    H3 5274   0.648   0.237  11.687 -0.2537  0.5874 -0.0571
  348MPD2     N 5275   0.965   0.357  11.393  1.1068 -0.3562  0.1081
  348MPD2    H5 5276   1.065   0.365  11.379  1.1131 -0.5085  0.0680
  348MPD2    N1 5277   1.062   0.020  11.713 -0.2779  0.0260  0.4348
  348MPD2    H7 5278   1.161   0.041  11.700 -0.6397  1.4725 -0.0405
  349TMC3    C1 5279   1.124   4.545  11.789 -0.2159 -0.5035  0.6467
  349TMC3    C2 5280   1.107   4.438  11.871 -0.2821 -0.4637  0.3224
  349TMC3    C3 5281   1.151   4.316  11.834  0.2926  0.5650 -0.4262
  349TMC3    C4 5282   1.193   4.531  11.672 -0.1254 -0.3654 -0.0962
  349TMC3    C5 5283   1.223   4.407  11.624  0.0382 -0.1209  0.3637
  349TMC3    C6 5284   1.203   4.298  11.709  0.2374 -0.4228  0.7763
  349TMC3     C 5285   1.022   4.653  11.796 -0.2648 -0.3178 -0.3444
  349TMC3     O 5286   0.914   4.618  11.844 -0.0619 -0.5143  0.2806
  349TMC3     H 5287   1.048   4.456  11.960  0.0324  0.4267  0.3534
  349TMC3    H1 5288   1.196   4.609  11.597 -1.3956 -2.3016 -2.1692
  349TMC3    H2 5289   1.240   4.203  11.672  1.3514 -0.1916  1.2834
  349TMC3    C7 5290   1.187   4.386  11.488  0.0932 -0.0187 -0.3349
  349TMC3    C8 5291   1.147   4.221  11.948  0.0522 -0.6465 -0.5635
  349TMC3    O1 5292   1.079   4.335  11.461 -0.3893  0.3590  0.1819
  349TMC3    O2 5293   1.050   4.222  12.025  0.4649  0.2326 -0.2357
  350MPD2     C 5294   0.087   3.570  10.543 -0.3436  0.0820  0.7644
  350MPD2    C1 5295   0.089   3.437  10.580  0.4723 -0.1206 -0.1249
  350MPD2    C2 5296   0.101   3.406  10.712  0.2332  0.5214 -0.3457
  350MPD2    C3 5297   0.115   3.503  10.815  0.9100  0.1522 -0.2729
  350MPD2    C4 5298   0.101   3.639  10.777 -0.2130  0.1018 -0.4302
  350MPD2    C5 5299   0.084   3.667  10.644  0.0788  0.1112 -0.8565
  350MPD2     H 5300   0.113   3.302  10.740 -0.9095  0.3550 -0.5036
  350MPD2    H1 5301   0.080   3.722  10.843 -0.4179 -1.4035  1.4104
  350MPD2    H2 5302   0.071   3.601  10.441  3.0487 -1.0558 -0.1151
  350MPD2    H3 5303   0.069   3.772  10.621  1.6232  0.0050 -2.2978
  350MPD2     N 5304   0.138   3.462  10.945 -0.3232 -0.0239 -0.5481
  350MPD2    H5 5305   0.138   3.364  10.970 -1.7524 -0.7662 -3.5087
  350MPD2    N1 5306   0.064   3.335  10.488 -0.6443 -0.1056  0.3002
  350MPD2    H7 5307   0.054   3.244  10.533  1.4325  0.1206  1.2180
  351TMC3    C1 5308   0.041   3.208  10.294  0.6127 -0.0968  0.0184
  351TMC3    C2 5309   0.143   3.124  10.330  0.3985  0.2099 -0.9883
  351TMC3    C3 5310   0.120   2.987  10.301 -0.1781  0.9294  0.7192
  351TMC3    C4 5311   4.661   3.163  10.236  0.1967  0.1634  0.0561
  351TMC3    C5 5312   4.650   3.029  10.208 -0.0513  0.2627  0.1605
  351TMC3    C6 5313   0.002   2.938  10.246 -0.0508  0.3437  0.0164
  351TMC3     C 5314   0.054   3.345  10.352  0.1651 -0.1085  0.0118
  351TMC3     O 5315   0.058   3.448  10.289 -0.2742  0.7059  0.5642
  351TMC3     H 5316   0.234   3.154  10.380 -0.9445  1.8722  0.4681
  351TMC3    H1 5317   4.575   3.227  10.221 -0.2379 -0.2814  0.6917
  351TMC3    H2 5318   4.735   2.833  10.217 -1.1484  0.2364  0.5611
  351TMC3    C7 5319   4.523   2.983  10.174 -0.2002  0.6122 -0.3668
  351TMC3    C8 5320   0.230   2.890  10.314  0.5215  0.3721  0.2465
  351TMC3    O1 5321   4.458   3.048  10.095  0.0415  0.4228 -0.3491
  351TMC3    O2 5322   0.219   2.791  10.244  0.0658 -0.2462  0.3738
  352MPD2     C 5323   2.609   0.010   0.853  0.2116  0.0368 -0.3365
  352MPD2    C1 5324   2.516   4.695   0.936  0.3919  0.3254  0.6885
  352MPD2    C2 5325   2.548   4.585   1.015  0.0485  0.7398 -0.5125
  352MPD2    C3 5326   2.664   4.521   1.005 -0.1770  0.2537 -0.7821
  352MPD2    C4 5327   2.756   4.569   0.916 -0.4272  0.1076 -1.0064
  352MPD2    C5 5328   2.726   4.679   0.838  0.4014 -0.6034  0.0753
  352MPD2     H 5329   2.473   4.549   1.084 -0.1958 -1.8672 -2.1293
  352MPD2    H1 5330   2.855   4.525   0.904 -1.0713 -1.9244  1.3716
  352MPD2    H2 5331   2.593   0.102   0.800  1.9426  0.7546  0.3942
  352MPD2    H3 5332   2.791   4.712   0.758 -0.3032 -2.4585 -1.2643
  352MPD2     N 5333   2.703   4.410   1.081 -0.3593 -0.2807  0.0973
  352MPD2    H5 5334   2.792   4.374   1.047 -0.7137 -2.0574  1.0251
  352MPD2    N1 5335   2.386   0.024   0.939 -0.3865 -0.5922 -0.0556
  352MPD2    H7 5336   2.378   0.109   0.884  2.0623 -2.1720 -2.8631
  353TMC3    C1 5337   2.709   4.226   1.231  0.6259 -0.0495  0.3246
  353TMC3    C2 5338   2.843   4.207   1.214  0.1675 -0.8631 -0.4343
  353TMC3    C3 5339   2.898   4.083   1.219  0.5885  0.3662 -0.3864
  353TMC3    C4 5340   2.624   4.120   1.245 -0.4676 -1.0962 -0.2607
  353TMC3    C5 5341   2.683   4.001   1.263  0.0292 -1.0049 -0.2420
  353TMC3    C6 5342   2.819   3.979   1.251  0.7550  0.1895  0.1821
  353TMC3     C 5343   2.645   4.352   1.183  0.0458 -0.1907 -0.1736
  353TMC3     O 5344   2.541   4.389   1.238  0.1062  0.2568 -0.2817
  353TMC3     H 5345   2.902   4.294   1.186 -0.0436 -0.7180 -0.4302
  353TMC3    H1 5346   2.518   4.142   1.241 -0.4863 -1.1055  0.1924
  353TMC3    H2 5347   2.848   3.878   1.272 -0.2125  0.1478  1.2958
  353TMC3    C7 5348   2.591   3.887   1.263  0.3592 -0.5867  0.3675
  353TMC3    C8 5349   3.032   4.065   1.166  0.1399  0.5732  1.0309
  353TMC3    O1 5350   2.475   3.914   1.227  0.9976 -0.2837 -0.1580
  353TMC3    O2 5351   3.101   4.168   1.158  0.0556  0.2633  0.2454
  354TMC3    C1 5352   4.427   1.067  13.602 -0.1673 -0.3578 -0.2622
  354TMC3    C2 5353   4.512   1.181  13.613  0.2510 -0.3102  0.0173
  354TMC3    C3 5354   4.509   1.290  13.526  0.2019  0.1747 -0.0504
  354TMC3    C4 5355   4.339   1.058  13.502  0.3825 -0.5310 -0.0182
  354TMC3    C5 5356   4.355   1.161  13.410 -0.0682 -0.0915  0.1572
  354TMC3    C6 5357   4.430   1.276  13.415  0.0933  0.5684 -0.0703
  354TMC3     C 5358   4.388   1.017  13.732 -0.3206  0.1894  1.4256
  354TMC3     O 5359   4.274   1.045  13.767  0.1276  0.0677 -0.2407
  354TMC3     H 5360   4.563   1.208  13.705  0.5035 -1.5691  0.2452
  354TMC3    H1 5361   4.279   0.969  13.492  0.1085 -0.3435 -0.0615
  354TMC3    H2 5362   4.399   1.363  13.357 -0.8221 -1.8972 -3.2954
  354TMC3    C7 5363   4.317   1.115  13.274  0.9373  0.3012 -0.3451
  354TMC3    C8 5364   4.579   1.420  13.547  1.2310 -0.8621  0.7697
  354TMC3    O1 5365   4.221   1.042  13.259  0.1421 -0.2349  0.1839
  354TMC3    O2 5366   4.629   1.448  13.657  1.2525  0.0879  0.0381
  355MPD2     C 5367   0.267   2.337  12.239  0.3257  0.3322  0.2416
  355MPD2    C1 5368   0.379   2.312  12.163 -0.0440 -0.4034 -0.1234
  355MPD2    C2 5369   0.458   2.205  12.204 -0.0058  0.5266 -0.3956
  355MPD2    C3 5370   0.418   2.126  12.308  0.5286  0.0466  0.4016
  355MPD2    C4 5371   0.305   2.154  12.381  0.3483  0.2472  0.2928
  355MPD2    C5 5372   0.232   2.263  12.345 -0.3603 -0.0407  0.1538
  355MPD2     H 5373   0.560   2.184  12.174  0.7061  0.4047  2.0835
  355MPD2    H1 5374   0.278   2.094  12.467 -0.5937  0.6983  0.3121
  355MPD2    H2 5375   0.200   2.413  12.199  1.8144  0.7992 -1.3995
  355MPD2    H3 5376   0.150   2.299  12.407  0.3631  0.2222  0.9456
  355MPD2     N 5377   0.494   2.012  12.329 -0.0411 -0.0754  0.2074
  355MPD2    H5 5378   0.575   1.986  12.272 -0.0686  3.6580 -1.5176
  355MPD2    N1 5379   0.417   2.396  12.051  0.4731  0.0230 -0.1775
  355MPD2    H7 5380   0.365   2.484  12.049  0.4601  0.0623  2.3316
  356TMC3    C1 5381   0.629   1.876  12.452 -0.2968 -0.5235  0.7957
  356TMC3    C2 5382   0.686   1.852  12.332 -0.6458 -0.5045 -0.2863
  356TMC3    C3 5383   0.812   1.900  12.298 -0.4341  0.3637 -0.6031
  356TMC3    C4 5384   0.704   1.936  12.549 -0.0735 -0.2714 -0.4796
  356TMC3    C5 5385   0.826   1.981  12.516 -0.2547 -0.4828 -0.1416
  356TMC3    C6 5386   0.882   1.974  12.387 -0.2009  0.3396  0.4819
  356TMC3     C 5387   0.495   1.939  12.447  1.3139 -0.0837 -0.3914
  356TMC3     O 5388   0.435   1.956  12.551  0.4779  0.2956  0.0100
  356TMC3     H 5389   0.636   1.797  12.253 -0.0717 -1.7325  0.1914
  356TMC3    H1 5390   0.671   1.947  12.652  1.1650  0.0036 -0.1160
  356TMC3    H2 5391   0.984   2.004  12.367  0.1020 -2.2274 -1.6928
  356TMC3    C7 5392   0.923   2.026  12.625 -0.2399  0.5706 -0.4179
  356TMC3    C8 5393   0.815   1.952  12.166 -0.3352  0.4394 -0.3309
  356TMC3    O1 5394   0.916   1.970  12.730  0.2361 -0.4761 -0.4140
  356TMC3    O2 5395   0.748   1.893  12.083  0.6794  0.3591  0.7997
  357MPD2     C 5396   4.238   1.431   0.527  0.6783 -0.3346  0.6832
  357MPD2    C1 5397   4.186   1.316   0.594 -0.0693 -0.1083  0.5855
  357MPD2    C2 5398   4.056   1.274   0.557 -0.0021 -0.2356 -0.2901
  357MPD2    C3 5399   3.987   1.345   0.455  0.0912 -0.4611 -0.0444
  357MPD2    C4 5400   4.048   1.461   0.400 -0.3513 -0.1777  1.0671
  357MPD2    C5 5401   4.163   1.503   0.444  0.1575  0.1993  0.0900
  357MPD2     H 5402   4.019   1.183   0.601 -1.0311  0.1492 -0.3366
  357MPD2    H1 5403   4.003   1.521   0.322  0.9906  1.0390  1.2331
  357MPD2    H2 5404   4.341   1.465   0.534  0.4683  0.1564  1.3703
  357MPD2    H3 5405   4.209   1.585   0.391  0.3226 -0.0270 -0.1225
  357MPD2     N 5406   3.856   1.312   0.412  0.6384 -0.2301  0.0268
  357MPD2    H5 5407   3.808   1.383   0.358 -0.2856 -1.3744 -0.6647
  357MPD2    N1 5408   4.267   1.250   0.684  0.3026  0.1593  0.1268
  357MPD2    H7 5409   4.366   1.273   0.680 -0.3694  3.2735  1.6892
  358TMC3    C1 5410   4.327   1.082   0.840 -0.6612  0.3349  0.1746
  358TMC3    C2 5411   4.430   1.046   0.765  0.1158 -0.1660 -0.0619
  358TMC3    C3 5412   4.507   0.940   0.791  0.2723  0.1635 -0.2454
  358TMC3    C4 5413   4.295   1.002   0.950  0.2501  0.1011  0.9056
  358TMC3    C5 5414   4.383   0.906   0.990  0.2267  0.3670  0.3967
  358TMC3    C6 5415   4.491   0.883   0.913  0.1653 -0.6581 -0.7702
  358TMC3     C 5416   4.224   1.162   0.777  0.0269  0.6011 -0.1396
  358TMC3     O 5417   4.109   1.138   0.812 -0.2715  0.0414 -0.5202
  358TMC3     H 5418   4.447   1.097   0.671 -0.1022  0.7502  0.3962
  358TMC3    H1 5419   4.205   1.020   1.008  0.0446  1.1498  0.2639
  358TMC3    H2 5420   4.562   0.805   0.939  0.8982  0.3349  0.2269
  358TMC3    C7 5421   4.394   0.884   1.134  0.3157 -0.4861 -0.0995
  358TMC3    C8 5422   4.527   0.848   0.682 -0.4872 -0.1378 -0.1804
  358TMC3    O1 5423   4.505   0.846   1.176 -1.0596 -0.5299  0.3337
  358TMC3    O2 5424   4.570   0.899   0.577 -0.4214 -0.1841  0.3504
  359MPD2     C 5425   0.515   0.022  12.287  0.1064  0.8144 -0.2945
  359MPD2    C1 5426   0.492   0.156  12.266  0.0456 -0.9873 -0.9622
  359MPD2    C2 5427   0.360   0.202  12.265 -0.6940  0.9382  0.8247
  359MPD2    C3 5428   0.257   0.117  12.290  0.4276 -0.3429 -0.5631
  359MPD2    C4 5429   0.282   4.721  12.305  0.2530 -0.5368 -0.6083
  359MPD2    C5 5430   0.410   4.671  12.305 -0.3924 -0.2860 -0.0634
  359MPD2     H 5431   0.340   0.308  12.255  1.7110  1.1428 -1.7973
  359MPD2    H1 5432   0.200   4.655  12.331 -0.3831  0.8225  0.8525
  359MPD2    H2 5433   0.611   4.709  12.282 -0.2432  0.1095  0.1941
  359MPD2    H3 5434   0.423   4.564  12.318  2.4565  0.2310  1.3484
  359MPD2     N 5435   0.123   0.163  12.306 -0.2771  0.1357  0.5582
  359MPD2    H5 5436   0.049   0.093  12.305  0.5397 -0.6953 -1.8199
  359MPD2    N1 5437   0.596   0.242  12.221 -0.3585 -0.2076 -0.1913
  359MPD2    H7 5438   0.561   0.324  12.172 -0.8272  0.3961  1.1744
  360TMC3    C1 5439   0.781   0.303  12.123  0.4534 -0.1510 -0.0326
  360TMC3    C2 5440   0.918   0.298  12.111  0.1499  0.4328  0.2006
  360TMC3    C3 5441   0.968   0.360  12.003 -0.5680 -0.6244  0.6075
  360TMC3    C4 5442   0.701   0.384  12.048 -0.1586 -0.3085 -0.9025
  360TMC3    C5 5443   0.761   0.451  11.948 -0.5691  0.1830  0.4758
  360TMC3    C6 5444   0.896   0.439  11.922  0.1723 -0.3556 -0.3334
  360TMC3     C 5445   0.725   0.217  12.219  0.2093 -0.0238 -0.5466
  360TMC3     O 5446   0.799   0.143  12.284  0.2447 -0.6255 -0.6163
  360TMC3     H 5447   0.969   0.220  12.167  1.5973  0.4993 -1.0341
  360TMC3    H1 5448   0.594   0.398  12.062  0.1158  0.3818  0.5480
  360TMC3    H2 5449   0.939   0.498  11.842 -1.3331  2.1387  0.7149
  360TMC3    C7 5450   0.684   0.528  11.845 -0.5638 -0.3307  0.3619
  360TMC3    C8 5451   1.109   0.337  11.974  0.7277  0.2775  0.1823
  360TMC3    O1 5452   0.742   0.621  11.787  0.6243  0.4364 -0.7325
  360TMC3    O2 5453   1.176   0.276  12.059 -0.0335 -0.6569  0.2760
  361MPD2     C 5454   1.989   3.811  16.586  0.4104 -0.1554 -0.4343
  361MPD2    C1 5455   2.029   3.901  16.682 -0.7974  0.3086 -0.4272
  361MPD2    C2 5456   2.127   3.870  16.776 -0.3686  0.5013  0.6753
  361MPD2    C3 5457   2.195   3.749  16.760 -0.8121 -0.8043  0.4364
  361MPD2    C4 5458   2.157   3.663  16.662 -0.8664  0.0541  0.0334
  361MPD2    C5 5459   2.056   3.688  16.577 -0.2626  0.3314 -0.0126
  361MPD2     H 5460   2.170   3.946  16.839  0.3500  0.6157  0.0494
  361MPD2    H1 5461   2.216   3.575  16.642  1.6935  2.3218 -2.3118
  361MPD2    H2 5462   1.904   3.833  16.523 -0.1241 -0.7987  0.0744
  361MPD2    H3 5463   2.024   3.610  16.509  2.5827 -1.2981  0.5533
  361MPD2     N 5464   2.304   3.717  16.839 -0.0321 -0.0776  0.5829
  361MPD2    H5 5465   2.351   3.630  16.816  0.5009 -0.0278  1.4648
  361MPD2    N1 5466   1.980   4.034  16.685  1.0087  0.1763 -0.2631
  361MPD2    H7 5467   1.992   4.079  16.776 -0.5851  2.1676 -1.0497
  362TMC3    C1 5468   1.851   4.218  16.615 -0.4851 -0.8693  0.0963
  362TMC3    C2 5469   1.852   4.273  16.741 -0.3825 -0.2085 -0.1371
  362TMC3    C3 5470   1.804   4.399  16.755 -0.3696 -0.2050  0.6759
  362TMC3    C4 5471   1.817   4.299  16.505  0.8130  0.6037 -0.4921
  362TMC3    C5 5472   1.776   4.429  16.529  0.4187  0.3751 -0.1861
  362TMC3    C6 5473   1.761   4.484  16.656 -0.4842  0.1633 -0.8805
  362TMC3     C 5474   1.908   4.088  16.582  0.4560 -0.1396 -0.2837
  362TMC3     O 5475   1.912   4.063  16.464 -0.5039 -1.1011 -0.2999
  362TMC3     H 5476   1.871   4.215  16.830 -1.2853  0.5729  0.5688
  362TMC3    H1 5477   1.800   4.265  16.403 -0.3432 -0.1021 -0.0664
  362TMC3    H2 5478   1.730   4.587  16.674 -0.0208  0.7962 -3.6628
  362TMC3    C7 5479   1.747   4.509  16.417 -0.0960 -0.3869  0.2131
  362TMC3    C8 5480   1.794   4.447  16.893 -1.1594  0.1851  0.2385
  362TMC3    O1 5481   1.664   4.593  16.429 -0.2217 -0.0694 -0.2006
  362TMC3    O2 5482   1.874   4.396  16.970 -0.0478  0.0545  0.0434
  363TMC3    C1 5483   1.136   2.963   9.485 -0.0585  1.3177  0.4001
  363TMC3    C2 5484   1.153   2.893   9.602  0.2219 -0.5884 -0.0394
  363TMC3    C3 5485   1.047   2.886   9.686 -0.2338  0.4785  0.6045
  363TMC3    C4 5486   1.022   3.037   9.461 -1.2666  0.0222  0.6217
  363TMC3    C5 5487   0.919   3.034   9.549 -0.3873 -0.5708 -0.6071
  363TMC3    C6 5488   0.936   2.958   9.662 -0.5644  0.3421 -0.1904
  363TMC3     C 5489   1.235   2.956   9.380 -0.1145  0.3456 -0.2018
  363TMC3     O 5490   1.335   2.885   9.392 -0.0657 -0.4701 -0.4622
  363TMC3     H 5491   1.250   2.849   9.624  0.8922  0.8849 -0.0454
  363TMC3    H1 5492   1.003   3.102   9.376 -0.0401  0.2248  0.4964
  363TMC3    H2 5493   0.858   2.971   9.736  0.4527  1.1004  0.7356
  363TMC3    C7 5494   0.799   3.111   9.546  0.6103  0.3622 -0.1212
  363TMC3    C8 5495   1.050   2.794   9.799 -0.3466 -0.5775  0.0852
  363TMC3    O1 5496   0.820   3.222   9.499  0.2804 -0.1982  0.3184
  363TMC3    O2 5497   0.960   2.808   9.875 -0.4086 -0.0147  0.3007
  364MPD2     C 5498   3.997   2.112  10.770  0.7885 -0.2852  0.4783
  364MPD2    C1 5499   4.117   2.068  10.720 -0.1625  0.4916  0.0688
  364MPD2    C2 5500   4.151   1.935  10.729 -0.4116  0.5686 -0.1799
  364MPD2    C3 5501   4.066   1.854  10.804 -0.3403  0.6400  0.4095
  364MPD2    C4 5502   3.943   1.898  10.853 -0.0329 -1.0910 -0.1112
  364MPD2    C5 5503   3.906   2.027  10.830 -0.4908  0.1426 -0.1048
  364MPD2     H 5504   4.245   1.892  10.695  0.0573  1.7735 -0.3948
  364MPD2    H1 5505   3.885   1.846  10.927  2.0182 -1.1678  1.4519
  364MPD2    H2 5506   3.964   2.214  10.748  0.3673 -0.3547  0.7881
  364MPD2    H3 5507   3.816   2.058  10.883 -1.1203 -2.2177  0.2055
  364MPD2     N 5508   4.089   1.718  10.828 -0.0369  0.2821  0.2499
  364MPD2    H5 5509   4.025   1.666  10.888  0.2737 -3.3528 -2.5882
  364MPD2    N1 5510   4.203   2.162  10.660  0.3485 -0.0773  0.1568
  364MPD2    H7 5511   4.175   2.257  10.641 -0.1172 -0.4426 -0.9698
  365TMC3    C1 5512   4.396   2.263  10.544  0.1484  0.4927 -0.4994
  365TMC3    C2 5513   4.485   2.236  10.444 -0.1421 -0.1545  0.3658
  365TMC3    C3 5514   4.584   2.324  10.421  0.4315 -0.0448  0.2341
  365TMC3    C4 5515   4.409   2.377  10.620 -0.0230 -0.1714  0.0217
  365TMC3    C5 5516   4.503   2.466  10.581  0.1960 -0.2822  0.2783
  365TMC3    C6 5517   4.583   2.450  10.479  0.4559 -0.9473  0.7030
  365TMC3     C 5518   4.333   2.143  10.614  0.6157 -0.7951 -0.8784
  365TMC3     O 5519   4.394   2.041  10.590  0.3643  0.3455 -0.3307
  365TMC3     H 5520   4.469   2.154  10.375 -0.3373  1.0212 -0.9907
  365TMC3    H1 5521   4.334   2.403  10.694  0.1125  0.8864 -0.2109
  365TMC3    H2 5522   4.650   2.532  10.457 -0.6271  0.2977  2.0508
  365TMC3    C7 5523   4.520   2.583  10.671 -0.5062 -0.0216 -0.7655
  365TMC3    C8 5524   4.689   2.292  10.323 -0.4215  0.3718 -0.2425
  365TMC3    O1 5525   4.581   2.680  10.630  0.0685  0.7895  0.2635
  365TMC3    O2 5526   0.013   2.384  10.268 -0.1397  0.3899 -1.0109
  366MPD2     C 5527   2.555   2.035  15.185 -0.4671  0.5672  0.3840
  366MPD2    C1 5528   2.574   2.160  15.138 -0.3839 -0.5048  0.7497
  366MPD2    C2 5529   2.660   2.179  15.027  0.0685 -0.1104  0.3363
  366MPD2    C3 5530   2.740   2.069  14.983  0.4983 -0.1524  0.4928
  366MPD2    C4 5531   2.721   1.945  15.041 -0.4660 -1.5652  0.3615
  366MPD2    C5 5532   2.621   1.930  15.132 -0.1563 -0.3795  0.4900
  366MPD2     H 5533   2.670   2.276  14.980 -0.7153  0.2564  0.9443
  366MPD2    H1 5534   2.776   1.855  15.018  0.8955  0.3682 -3.9781
  366MPD2    H2 5535   2.486   2.024  15.268  0.9609 -1.1558  1.3575
  366MPD2    H3 5536   2.605   1.831  15.171 -0.9623 -0.7038 -0.6713
  366MPD2     N 5537   2.856   2.090  14.905 -0.2962  0.2983 -0.1446
  366MPD2    H5 5538   2.890   2.011  14.850  1.1757  0.7615  0.1010
  366MPD2    N1 5539   2.525   2.280  15.197 -0.7987  0.2525  0.4896
  366MPD2    H7 5540   2.545   2.370  15.154 -1.8107 -1.0360 -2.7042
  367TMC3    C1 5541   2.456   2.426  15.355 -0.2753 -0.1299  0.0106
  367TMC3    C2 5542   2.496   2.468  15.479  0.6271 -0.0486 -0.2050
  367TMC3    C3 5543   2.511   2.602  15.497  0.1492  0.5463 -0.0637
  367TMC3    C4 5544   2.415   2.508  15.257  0.2630 -0.1106 -0.1007
  367TMC3    C5 5545   2.422   2.643  15.284 -0.4261 -1.2267 -0.5378
  367TMC3    C6 5546   2.474   2.694  15.400 -0.2660 -0.1913 -0.1242
  367TMC3     C 5547   2.488   2.290  15.326 -0.0719  0.0699  0.6146
  367TMC3     O 5548   2.486   2.207  15.419  0.1271 -0.0246  0.4050
  367TMC3     H 5549   2.511   2.399  15.560 -2.3733  1.2768  1.4926
  367TMC3    H1 5550   2.372   2.458  15.170  1.0888 -1.4769  0.2822
  367TMC3    H2 5551   2.478   2.801  15.420 -1.0990 -0.4534  1.4451
  367TMC3    C7 5552   2.338   2.740  15.217 -0.1708 -0.0989 -0.6574
  367TMC3    C8 5553   2.601   2.634  15.609 -0.4237 -0.2151  0.3153
  367TMC3    O1 5554   2.375   2.857  15.220 -0.0886  0.1420  0.1594
  367TMC3    O2 5555   2.630   2.547  15.691  0.0742 -0.9219  0.1039
  368MPD2     C 5556   3.915   4.185  13.209  0.0872  0.2619 -0.6321
  368MPD2    C1 5557   3.950   4.275  13.107 -0.4095  0.0418 -0.9229
  368MPD2    C2 5558   4.061   4.249  13.022 -0.2091 -0.3944  0.1194
  368MPD2    C3 5559   4.155   4.152  13.055 -0.5911  0.1291  0.1183
  368MPD2    C4 5560   4.127   4.077  13.163 -0.6887  0.5603 -0.2258
  368MPD2    C5 5561   4.012   4.085  13.237 -0.3839  0.2121 -0.1872
  368MPD2     H 5562   4.088   4.305  12.933  1.2275 -3.1577 -1.1734
  368MPD2    H1 5563   4.208   4.016  13.202 -1.0127  1.0322  1.2148
  368MPD2    H2 5564   3.818   4.180  13.257  0.9310 -0.3212  1.0072
  368MPD2    H3 5565   4.008   4.030  13.331  0.2232  2.0530  0.9260
  368MPD2     N 5566   4.271   4.149  12.973  0.1434 -0.2251 -0.2798
  368MPD2    H5 5567   4.280   4.202  12.888 -3.9334 -0.1464 -0.6570
  368MPD2    N1 5568   3.859   4.380  13.085 -0.1526  0.5136  0.2518
  368MPD2    H7 5569   3.775   4.398  13.139 -0.9978  0.9350 -1.1800
  369TMC3    C1 5570   3.781   4.588  13.006 -0.1359  0.4069 -0.5547
  369TMC3    C2 5571   3.813   4.702  12.942 -0.0724 -0.2702  1.1049
  369TMC3    C3 5572   3.710   0.048  12.908  0.2376  0.6698 -0.4270
  369TMC3    C4 5573   3.655   4.559  13.055  0.1599 -0.3786  0.2866
  369TMC3    C5 5574   3.555   4.653  13.033  0.2638  0.4384 -0.0394
  369TMC3    C6 5575   3.582   0.027  12.955  0.3114 -0.3458  0.0045
  369TMC3     C 5576   3.885   4.484  13.006 -0.8369  0.1897  0.0717
  369TMC3     O 5577   3.978   4.504  12.923 -0.4307 -0.8667 -0.0411
  369TMC3     H 5578   3.913   4.717  12.901 -0.1928 -3.9094 -0.5337
  369TMC3    H1 5579   3.623   4.459  13.083 -2.2147 -0.3340 -2.1961
  369TMC3    H2 5580   3.505   0.097  12.925 -0.1358 -1.2541 -0.9787
  369TMC3    C7 5581   3.419   4.633  13.082 -0.1525  0.1639  0.4290
  369TMC3    C8 5582   3.728   0.151  12.810 -0.1630 -0.5092 -0.9355
  369TMC3    O1 5583   3.402   4.548  13.168 -0.1148  0.0197  0.1126
  369TMC3    O2 5584   3.632   0.185  12.739  0.5112 -0.2240 -0.0686
  370TMC3    C1 5585   3.062   0.162  16.253  0.1397 -0.1075 -0.0019
  370TMC3    C2 5586   3.042   0.082  16.366 -0.0497 -0.0543  0.5341
  370TMC3    C3 5587   3.052   4.683  16.352 -0.0935 -0.0099  1.0479
  370TMC3    C4 5588   3.088   0.106  16.134 -0.3759 -0.1097 -0.9416
  370TMC3    C5 5589   3.101   4.708  16.127 -0.0227 -1.3221 -0.1998
  370TMC3    C6 5590   3.079   4.626  16.235  0.6627  0.5274 -0.1252
  370TMC3     C 5591   3.149   0.277  16.272  0.6520 -0.7662  0.0068
  370TMC3     O 5592   3.222   0.286  16.369  0.0152 -0.2456  0.3413
  370TMC3     H 5593   3.039   0.132  16.461 -0.1347 -1.7394  1.4252
  370TMC3    H1 5594   3.111   0.167  16.048 -2.2690  0.0287 -1.3520
  370TMC3    H2 5595   3.081   4.518  16.232  0.9921  0.5557 -0.9458
  370TMC3    C7 5596   3.181   4.656  16.018 -0.3117 -0.1128  0.3110
  370TMC3    C8 5597   3.036   4.589  16.463  0.4473  0.1183  0.0607
  370TMC3    O1 5598   3.189   4.731  15.924  0.3999 -0.1637  0.5066
  370TMC3    O2 5599   3.078   4.477  16.439 -0.3683 -0.5665  0.2483
  371TMC3    C1 5600   4.674   3.330  15.446  0.0810 -1.4282 -0.1323
  371TMC3    C2 5601   4.581   3.343  15.545  0.2895 -0.7707 -0.5748
  371TMC3    C3 5602   4.492   3.447  15.554 -0.0924  0.1848  0.0652
  371TMC3    C4 5603   4.701   3.435  15.364  0.4435  0.1110 -0.4456
  371TMC3    C5 5604   4.619   3.549  15.379 -0.4428  0.1712  0.0939
  371TMC3    C6 5605   4.515   3.547  15.468  0.2357 -0.2824 -0.5173
  371TMC3     C 5606   0.003   3.200  15.429 -0.2503 -0.3871  0.2760
  371TMC3     O 5607   0.088   3.194  15.345  0.1622  0.1771  0.3436
  371TMC3     H 5608   4.560   3.266  15.618  0.7254 -0.5035 -0.1668
  371TMC3    H1 5609   0.038   3.429  15.285 -1.4194 -1.5435 -2.0531
  371TMC3    H2 5610   4.441   3.626  15.466  0.7872  0.2694  0.6317
  371TMC3    C7 5611   4.640   3.675  15.313 -0.0672 -0.1169  0.2259
  371TMC3    C8 5612   4.367   3.417  15.629 -0.8486  0.1074  0.0424
  371TMC3    O1 5613   4.563   3.766  15.344  0.0625 -0.0274  0.1299
  371TMC3    O2 5614   4.310   3.305  15.625 -1.0522  0.0923  0.2824
  372MPD2     C 5615   3.712   0.124  13.720  0.0168  0.0713  0.2887
  372MPD2    C1 5616   3.824   0.042  13.726  0.1409 -0.3652 -0.1566
  372MPD2    C2 5617   3.812   4.674  13.811 -0.1533  0.4314  0.5761
  372MPD2    C3 5618   3.701   4.644  13.886 -0.9275  0.1476 -0.3239
  372MPD2    C4 5619   3.594   4.725  13.877 -0.8718  0.1913 -0.3714
  372MPD2    C5 5620   3.600   0.095  13.796 -0.4859  0.1546 -0.0360
  372MPD2     H 5621   3.894   4.602  13.808  1.7315  2.4910  2.5173
  372MPD2    H1 5622   3.499   4.693  13.920 -1.9201  2.9064 -0.6468
  372MPD2    H2 5623   3.701   0.206  13.650  0.5114  0.4941  0.7020
  372MPD2    H3 5624   3.507   0.148  13.783  0.5650  1.7508 -0.9879
  372MPD2     N 5625   3.682   4.526  13.962 -0.4849 -0.8649 -0.2235
  372MPD2    H5 5626   3.609   4.530  14.032  1.4138  1.9033  1.5814
  372MPD2    N1 5627   3.930   0.048  13.635  0.1365 -0.2554  0.5501
  372MPD2    H7 5628   4.013   4.731  13.657 -0.0641 -1.1596 -0.9703
  373TMC3    C1 5629   3.750   4.322  14.061  0.4372  0.2427  0.0210
  373TMC3    C2 5630   3.727   4.368  14.187 -0.4219  0.9321 -0.4796
  373TMC3    C3 5631   3.773   4.290  14.296  0.1866 -0.1966 -0.5048
  373TMC3    C4 5632   3.803   4.198  14.042  0.4357 -0.3803 -0.0214
  373TMC3    C5 5633   3.846   4.128  14.153  0.3717 -0.0895  0.1785
  373TMC3    C6 5634   3.813   4.161  14.282 -0.2868  0.2618  0.3676
  373TMC3     C 5635   3.758   4.411  13.948  0.2150  0.0575  0.2743
  373TMC3     O 5636   3.836   4.376  13.857 -0.3871 -0.3427  0.1263
  373TMC3     H 5637   3.684   4.467  14.201  0.6947  1.0418  2.1328
  373TMC3    H1 5638   3.823   4.143  13.951 -0.8260 -1.5334  0.3896
  373TMC3    H2 5639   3.847   4.093  14.359 -1.8163  0.5997  1.3338
  373TMC3    C7 5640   3.973   4.065  14.134  0.2136 -0.2881  0.5139
  373TMC3    C8 5641   3.861   4.371  14.375 -0.1780 -0.7768 -0.2021
  373TMC3    O1 5642   3.994   4.005  14.034  0.2771  0.4648 -0.3012
  373TMC3    O2 5643   3.902   4.479  14.329 -0.4843  0.4975 -0.0923
  374TMC3    C1 5644   4.676   1.226   9.716 -0.1026  0.2103 -0.5198
  374TMC3    C2 5645   0.039   1.314   9.699  0.4583  0.4382  0.2681
  374TMC3    C3 5646   0.013   1.440   9.749 -0.2141  0.5316  0.4132
  374TMC3    C4 5647   4.553   1.248   9.763 -0.3185  0.3101  0.3755
  374TMC3    C5 5648   4.536   1.374   9.811 -0.5623 -0.6493 -0.3451
  374TMC3    C6 5649   4.637   1.467   9.813  0.3617  0.2569  0.0681
  374TMC3     C 5650   4.692   1.101   9.649 -0.2018 -0.2582  0.3364
  374TMC3     O 5651   4.596   1.031   9.617  0.5363  0.4101 -0.0204
  374TMC3     H 5652   0.120   1.298   9.629 -0.6995  0.7633 -1.1731
  374TMC3    H1 5653   4.488   1.167   9.792  1.6635 -1.2127  0.5344
  374TMC3    H2 5654   4.616   1.572   9.833 -0.0938  0.3105 -0.6982
  374TMC3    C7 5655   4.412   1.394   9.887  0.5043  0.0680  0.0615
  374TMC3    C8 5656   0.121   1.532   9.772  0.6532  0.0143 -0.3065
  374TMC3    O1 5657   4.401   1.498   9.953 -0.1028 -0.1584 -0.1672
  374TMC3    O2 5658   0.090   1.648   9.799 -0.2663 -0.0702  0.3581
  375MPD2     C 5659   4.350   0.233  17.291  0.0656  0.0081  0.2198
  375MPD2    C1 5660   4.275   0.313  17.205 -0.4070 -0.5304  0.0346
  375MPD2    C2 5661   4.324   0.325  17.077 -0.4683 -0.2939 -0.1211
  375MPD2    C3 5662   4.438   0.265  17.029 -0.2121 -0.2433  0.2516
  375MPD2    C4 5663   4.521   0.200  17.126 -0.0714  0.9757  0.0215
  375MPD2    C5 5664   4.473   0.182  17.255 -0.7423 -0.3110 -0.0652
  375MPD2     H 5665   4.272   0.386  17.004 -0.2655 -0.8360 -0.7152
  375MPD2    H1 5666   4.623   0.169  17.109 -1.4575 -1.0481 -4.4398
  375MPD2    H2 5667   4.325   0.206  17.393  0.2325 -1.7199 -0.1909
  375MPD2    H3 5668   4.535   0.137  17.331 -1.0106  0.7653  0.7927
  375MPD2     N 5669   4.478   0.256  16.898  0.4462 -0.3207 -0.4316
  375MPD2    H5 5670   4.571   0.221  16.880  0.6883 -0.9874  2.0947
  375MPD2    N1 5671   4.156   0.377  17.247 -0.3847 -0.0969  0.3503
  375MPD2    H7 5672   4.106   0.433  17.179 -1.8922 -1.0471  0.6631
  376TMC3    C1 5673   4.463   0.299  16.661 -0.2979  0.0774  0.7704
  376TMC3    C2 5674   4.587   0.341  16.649 -0.2937  0.1244  0.4701
  376TMC3    C3 5675   4.636   0.347  16.521  0.1665  0.1816  0.0333
  376TMC3    C4 5676   4.380   0.271  16.556  0.2721 -0.1717 -0.4731
  376TMC3    C5 5677   4.437   0.288  16.428  0.4224  0.1618  0.1500
  376TMC3    C6 5678   4.568   0.315  16.407 -0.5502 -0.3774 -0.5125
  376TMC3     C 5679   4.392   0.292  16.794 -0.4874  0.4314  0.3058
  376TMC3     O 5680   4.272   0.294  16.787 -0.1548  0.2752  0.0073
  376TMC3     H 5681   4.644   0.375  16.735 -1.9119 -1.2151  2.0908
  376TMC3    H1 5682   4.279   0.233  16.565 -0.2537  1.0760 -1.0308
  376TMC3    H2 5683   4.615   0.332  16.311 -1.7107  1.6422 -0.7285
  376TMC3    C7 5684   4.356   0.351  16.326 -0.4861 -0.0617 -0.5872
  376TMC3    C8 5685   0.041   0.398  16.508  0.1071  0.5941 -0.1656
  376TMC3    O1 5686   4.401   0.351  16.212 -0.0846 -0.1965 -0.5951
  376TMC3    O2 5687   0.062   0.466  16.409 -0.1287  0.5163  0.2847
  377MPD2     C 5688   3.126   0.296  13.026 -0.6597 -0.8482  0.3757
  377MPD2    C1 5689   2.997   0.297  12.968 -0.1104  0.3186  0.5746
  377MPD2    C2 5690   2.889   0.248  13.038 -0.1991  0.2223  0.6011
  377MPD2    C3 5691   2.907   0.194  13.169  0.2919 -0.1000 -0.2030
  377MPD2    C4 5692   3.030   0.204  13.221 -0.0631  0.0042 -0.6091
  377MPD2    C5 5693   3.139   0.254  13.151  0.2936  0.3685  0.3879
  377MPD2     H 5694   2.794   0.246  12.985 -0.4626  0.3946  1.0621
  377MPD2    H1 5695   3.055   0.164  13.318 -3.4977 -0.8357 -0.0586
  377MPD2    H2 5696   3.217   0.320  12.973 -0.0149  0.1671  1.9545
  377MPD2    H3 5697   3.236   0.240  13.198  0.5808  2.0748  0.3228
  377MPD2     N 5698   2.799   0.129  13.247 -0.3618 -0.9561  0.1425
  377MPD2    H5 5699   2.818   0.120  13.347  1.6009 -1.5500 -0.2729
  377MPD2    N1 5700   2.987   0.327  12.829  0.2967 -0.0250 -0.8602
  377MPD2    H7 5701   3.079   0.337  12.787  0.7430  2.4077  0.6510
  378TMC3    C1 5702   2.854   0.366  12.383 -0.1873 -0.0209  0.1539
  378TMC3    C2 5703   2.819   0.359  12.514  0.0729  0.5531  0.2257
  378TMC3    C3 5704   2.920   0.339  12.602 -0.0685  0.1112  0.4937
  378TMC3    C4 5705   2.981   0.363  12.344 -0.3047 -0.3951 -0.2573
  378TMC3    C5 5706   3.079   0.345  12.436 -0.4115 -0.4371  0.5753
  378TMC3    C6 5707   3.051   0.326  12.566  0.2353  0.2782 -0.4552
  378TMC3     C 5708   2.751   0.403  12.284 -0.1805  0.1386  0.6434
  378TMC3     O 5709   2.639   0.426  12.328 -0.7981  0.3869 -0.8371
  378TMC3     H 5710   2.714   0.348  12.538  0.5638  0.1315  2.2035
  378TMC3    H1 5711   3.020   0.384  12.245  1.7149  1.2084  0.8824
  378TMC3    H2 5712   3.134   0.299  12.630  1.1888  1.8072 -1.0338
  378TMC3    C7 5713   3.197   0.266  12.402 -0.0731 -0.0414 -0.1586
  378TMC3    C8 5714   2.877   0.333  12.746  1.0792  1.0819  0.5680
  378TMC3    O1 5715   3.293   0.273  12.480 -0.7877  0.1983 -0.0460
  378TMC3    O2 5716   2.760   0.334  12.782  0.2970  0.5431 -0.1127
  379MPD2     C 5717   3.740   2.747  16.101  0.1684  1.0081  0.1882
  379MPD2    C1 5718   3.659   2.746  16.217 -0.3004 -0.5387  0.4179
  379MPD2    C2 5719   3.725   2.723  16.341  0.3975 -0.3074 -0.4189
  379MPD2    C3 5720   3.863   2.696  16.348  0.0208 -0.3911  0.2566
  379MPD2    C4 5721   3.942   2.699  16.227 -0.2185  0.1378 -0.3664
  379MPD2    C5 5722   3.877   2.725  16.113  0.0502 -0.4055 -0.0067
  379MPD2     H 5723   3.661   2.732  16.428 -0.1325 -3.5600 -0.4966
  379MPD2    H1 5724   4.046   2.670  16.226 -0.4538 -0.5898 -2.8698
  379MPD2    H2 5725   3.700   2.777  16.004  1.0297 -1.3482 -0.8943
  379MPD2    H3 5726   3.942   2.714  16.027  1.5602 -0.8404  1.1963
  379MPD2     N 5727   3.924   2.667  16.473  0.1055  0.5859  0.2639
  379MPD2    H5 5728   4.025   2.656  16.466 -0.0979  1.1298 -3.4469
  379MPD2    N1 5729   3.517   2.757  16.208 -0.0888 -0.2923 -0.1712
  379MPD2    H7 5730   3.495   2.786  16.113  0.5731 -0.4663 -0.3769
  380TMC3    C1 5731   3.288   2.703  16.253  0.3850  0.9079 -0.1784
  380TMC3    C2 5732   3.224   2.586  16.279 -0.0611  0.0122 -0.9021
  380TMC3    C3 5733   3.107   2.556  16.215  0.3603 -0.2381 -0.2288
  380TMC3    C4 5734   3.238   2.794  16.157  0.1953 -0.7439 -0.0879
  380TMC3    C5 5735   3.115   2.771  16.114 -0.7258 -0.1511 -0.2551
  380TMC3    C6 5736   3.045   2.656  16.147  0.0618 -0.5412 -0.5993
  380TMC3     C 5737   3.427   2.707  16.300  0.2225  0.3716  0.6331
  380TMC3     O 5738   3.447   2.642  16.403  0.3011  0.0776  0.0288
  380TMC3     H 5739   3.265   2.511  16.346  1.8200 -0.1466 -2.2292
  380TMC3    H1 5740   3.279   2.894  16.159  0.6496 -0.9091 -1.3573
  380TMC3    H2 5741   2.944   2.636  16.115 -0.0086  2.2102 -2.0678
  380TMC3    C7 5742   3.055   2.866  16.029 -0.5679  0.4251 -0.3338
  380TMC3    C8 5743   3.009   2.480  16.298  0.0342  0.0276  0.1225
  380TMC3    O1 5744   3.101   2.980  16.024  0.3976  0.0016 -0.0186
  380TMC3    O2 5745   2.944   2.539  16.377 -0.6924  0.8937 -0.5081
  381TMC3    C1 5746   3.255   3.890  16.234 -0.8002 -0.2743 -0.1115
  381TMC3    C2 5747   3.311   4.012  16.214 -0.0912  0.5657 -0.3946
  381TMC3    C3 5748   3.298   4.098  16.318 -0.1023 -0.4793 -0.8301
  381TMC3    C4 5749   3.166   3.863  16.333 -0.1853  0.0262 -0.3925
  381TMC3    C5 5750   3.140   3.958  16.422  0.1388 -0.2326  0.3595
  381TMC3    C6 5751   3.214   4.072  16.423  0.0749  0.3225 -0.9894
  381TMC3     C 5752   3.304   3.788  16.147  0.1851 -0.1137 -0.2392
  381TMC3     O 5753   3.391   3.820  16.066  0.0497  0.4695 -0.0998
  381TMC3     H 5754   3.374   4.037  16.129  0.2258 -0.7371 -0.5455
  381TMC3    H1 5755   3.113   3.770  16.350  1.1973 -0.5397  0.7875
  381TMC3    H2 5756   3.205   4.150  16.498  1.0862 -1.0307  0.5421
  381TMC3    C7 5757   3.088   3.897  16.550 -0.1247  0.4148  0.7513
  381TMC3    C8 5758   3.400   4.207  16.326  0.5523 -0.8408 -0.1671
  381TMC3    O1 5759   3.130   3.792  16.587 -0.1956 -0.2078 -0.2272
  381TMC3    O2 5760   3.501   4.192  16.258  0.6517 -0.2222 -0.0091
  382MPD2     C 5761   2.676   1.769  16.759  0.6040 -0.9002  0.3654
  382MPD2    C1 5762   2.590   1.813  16.855  0.0844 -0.5148 -0.7082
  382MPD2    C2 5763   2.506   1.719  16.916  0.4927  0.5960  0.0429
  382MPD2    C3 5764   2.501   1.587  16.871  0.3689 -0.1693  0.4422
  382MPD2    C4 5765   2.589   1.540  16.774  0.4230 -0.5294  0.3660
  382MPD2    C5 5766   2.670   1.633  16.717  0.8432  0.6133 -0.4233
  382MPD2     H 5767   2.437   1.745  16.996 -0.8866  2.0750 -1.6170
  382MPD2    H1 5768   2.595   1.437  16.742  1.0317 -0.5110  0.4187
  382MPD2    H2 5769   2.754   1.828  16.711 -1.1075  1.1890  0.1114
  382MPD2    H3 5770   2.734   1.606  16.634 -1.5439  1.5925 -2.5876
  382MPD2     N 5771   2.401   1.509  16.930  0.2152 -0.4594  0.5861
  382MPD2    H5 5772   2.347   1.547  17.006 -1.0075  1.1045 -1.0651
  382MPD2    N1 5773   2.590   1.945  16.900  1.1066 -0.1609 -0.6194
  382MPD2    H7 5774   2.528   1.966  16.978  1.2148 -3.9614  0.4542
  383TMC3    C1 5775   2.298   1.316  17.007 -0.5397  1.0059  0.5851
  383TMC3    C2 5776   2.182   1.246  16.979 -0.1633 -0.1823 -0.6793
  383TMC3    C3 5777   2.116   1.178  17.083 -0.4005  0.5147 -0.8017
  383TMC3    C4 5778   2.344   1.340  17.134 -0.2464 -0.3357  0.4467
  383TMC3    C5 5779   2.281   1.261  17.229  0.4381 -0.4165 -1.4126
  383TMC3    C6 5780   2.170   1.191  17.207  0.0415  0.1606 -0.3167
  383TMC3     C 5781   2.363   1.378  16.894  0.6095 -0.4456  0.3217
  383TMC3     O 5782   2.359   1.332  16.780 -0.2483  0.0243 -0.2356
  383TMC3     H 5783   2.137   1.240  16.881 -0.5812  1.6036 -0.6076
  383TMC3    H1 5784   2.426   1.406  17.158 -0.9183  0.3623  0.8556
  383TMC3    H2 5785   2.118   1.150  17.294  0.4729 -0.3593 -0.3105
  383TMC3    C7 5786   2.310   1.275  17.369 -0.1030  0.5706  0.2823
  383TMC3    C8 5787   1.984   1.117  17.058  0.1577 -0.7852 -0.3160
  383TMC3    O1 5788   2.234   1.253  17.464 -0.3301  0.0483  0.1644
  383TMC3    O2 5789   1.920   1.147  16.961 -0.2904  0.3436 -0.0157
  384MPD2     C 5790   3.929   3.729  12.049 -0.5242 -0.3749 -0.0007
  384MPD2    C1 5791   3.927   3.672  12.174 -0.4484 -0.1608  0.3743
  384MPD2    C2 5792   4.050   3.640  12.232  0.4522  0.0794  0.0424
  384MPD2    C3 5793   4.171   3.662  12.159 -0.1805  0.2918 -0.1402
  384MPD2    C4 5794   4.161   3.719  12.034  0.4325 -0.0108 -0.5864
  384MPD2    C5 5795   4.042   3.751  11.979  0.7713 -0.9414  0.6453
  384MPD2     H 5796   4.057   3.583  12.324  0.4053  3.0133  1.8705
  384MPD2    H1 5797   4.249   3.738  11.973 -0.5611  2.4138 -1.2624
  384MPD2    H2 5798   3.835   3.754  12.000 -0.9476 -1.4250  0.2930
  384MPD2    H3 5799   4.033   3.792  11.879  0.4326 -2.0054  0.2492
  384MPD2     N 5800   4.296   3.618  12.205  0.0256  0.5590 -0.3445
  384MPD2    H5 5801   4.364   3.624  12.130  0.8131 -0.7783  0.2703
  384MPD2    N1 5802   3.798   3.654  12.237 -0.2482  0.0962 -0.2037
  384MPD2    H7 5803   3.712   3.653  12.183  0.3967  0.7012 -1.2287
  385TMC3    C1 5804   4.444   3.501  12.340  0.0987  0.3509 -0.0622
  385TMC3    C2 5805   4.500   3.455  12.225 -0.0988  0.0045  0.4363
  385TMC3    C3 5806   4.496   3.317  12.208 -0.0298  0.2852  0.1354
  385TMC3    C4 5807   4.401   3.409  12.432 -0.9188 -0.0715 -0.2939
  385TMC3    C5 5808   4.387   3.274  12.400  0.0964 -0.0157  0.0866
  385TMC3    C6 5809   4.437   3.223  12.287 -0.2619  0.0637  0.0161
  385TMC3     C 5810   4.336   3.600  12.335  0.4848  0.1140  0.3048
  385TMC3     O 5811   4.290   3.638  12.442 -0.3509  0.6091 -0.4710
  385TMC3     H 5812   4.549   3.510  12.145 -0.3345  0.1420  0.3852
  385TMC3    H1 5813   4.376   3.444  12.531  1.2948  2.0284 -0.4649
  385TMC3    H2 5814   4.421   3.118  12.264 -0.2719  0.3385 -1.2049
  385TMC3    C7 5815   4.255   3.232  12.439  0.1730  0.0267 -0.7578
  385TMC3    C8 5816   4.573   3.265  12.100 -0.3746  0.2615 -0.3853
  385TMC3    O1 5817   4.177   3.326  12.455 -0.0457 -0.1561  0.0245
  385TMC3    O2 5818   4.667   3.327  12.054  0.2928 -0.1702 -0.3858
  386TMC3    C1 5819   4.626   4.642  11.480 -0.2591 -0.0065  0.5871
  386TMC3    C2 5820   4.628   4.708  11.368 -0.3798 -0.4654 -0.2666
  386TMC3    C3 5821   4.512   0.022  11.322  0.2923  0.5316  0.1886
  386TMC3    C4 5822   4.519   4.626  11.558 -0.4705  0.5481 -0.1846
  386TMC3    C5 5823   4.411   4.691  11.519 -0.0363 -0.5215 -0.3562
  386TMC3    C6 5824   4.393   0.011  11.398 -0.2132 -0.3329 -0.7677
  386TMC3     C 5825   0.022   4.593  11.514  0.2947  0.5858 -0.0871
  386TMC3     O 5826   0.121   4.644  11.462  0.0227  0.2982 -0.3501
  386TMC3     H 5827   4.708   4.694  11.296 -0.5105 -0.8261 -0.3411
  386TMC3    H1 5828   4.513   4.578  11.655 -1.9223  0.4235 -0.3330
  386TMC3    H2 5829   4.293   0.047  11.378  0.0234  0.4225 -0.5780
  386TMC3    C7 5830   4.286   4.673  11.602  0.8270  0.2784 -0.5923
  386TMC3    C8 5831   4.515   0.130  11.223  0.3512  0.1090  0.3597
  386TMC3    O1 5832   4.296   4.670  11.728  0.1342 -0.3127  0.0682
  386TMC3    O2 5833   4.624   0.160  11.182 -0.0205  0.9654  0.4963
  387MPD2     C 5834   2.035   0.386   9.884 -1.3524  0.2942  0.3317
  387MPD2    C1 5835   2.167   0.353   9.891  0.2555 -0.7129  0.2630
  387MPD2    C2 5836   2.213   0.242   9.828 -0.1421 -0.3075  0.4729
  387MPD2    C3 5837   2.127   0.152   9.769  0.1412 -0.1240  0.7764
  387MPD2    C4 5838   2.000   0.189   9.761 -0.1169 -0.5015  0.1650
  387MPD2    C5 5839   1.950   0.305   9.818 -0.2074  0.2649  0.0700
  387MPD2     H 5840   2.319   0.218   9.833 -0.1971 -0.4954  0.7012
  387MPD2    H1 5841   1.918   0.133   9.718  3.1266 -4.3774 -0.9807
  387MPD2    H2 5842   1.994   0.465   9.946  0.8848 -0.2346  2.5061
  387MPD2    H3 5843   1.843   0.324   9.816 -0.0905  0.6535 -2.2434
  387MPD2     N 5844   2.187   0.030   9.720  0.2181  0.6146 -0.1808
  387MPD2    H5 5845   2.284   0.010   9.740 -0.2064  1.3508  2.6022
  387MPD2    N1 5846   2.254   0.406   9.992  0.1484  0.4695 -0.0411
  387MPD2    H7 5847   2.342   0.357  10.000 -0.5292 -0.7914 -0.2645
  388TMC3    C1 5848   2.354   0.527  10.159  0.0546 -0.2817  0.1250
  388TMC3    C2 5849   2.412   0.652  10.183  0.1775 -0.2366 -0.1369
  388TMC3    C3 5850   2.532   0.651  10.253  0.7381  0.2514 -0.1361
  388TMC3    C4 5851   2.404   0.405  10.196 -0.6242  0.0570  0.2230
  388TMC3    C5 5852   2.517   0.408  10.275 -0.6069 -0.4165  0.3230
  388TMC3    C6 5853   2.587   0.527  10.301  0.3123  0.3308 -0.0899
  388TMC3     C 5854   2.243   0.524  10.063  0.3330 -0.5473  0.0882
  388TMC3     O 5855   2.168   0.616  10.046 -0.2604  0.3801 -0.0240
  388TMC3     H 5856   2.370   0.741  10.138 -2.4101 -1.3641  0.0487
  388TMC3    H1 5857   2.333   0.324  10.195  0.6483 -1.0521 -1.8516
  388TMC3    H2 5858   2.691   0.525  10.333  0.4763  1.0339 -0.5833
  388TMC3    C7 5859   2.577   0.278  10.297  0.4912 -0.2780  0.3814
  388TMC3    C8 5860   2.611   0.775  10.256  0.0062 -0.0057  0.3099
  388TMC3    O1 5861   2.626   0.253  10.404  0.0178  0.5350  0.2156
  388TMC3    O2 5862   2.546   0.877  10.238  0.2387 -0.2386  0.3358
  389MPD2     C 5863   1.664   3.424  10.895 -0.0533 -0.1654  0.7115
  389MPD2    C1 5864   1.530   3.429  10.856  0.1439  0.3115 -0.6302
  389MPD2    C2 5865   1.432   3.384  10.946 -0.7019 -0.0613 -0.5340
  389MPD2    C3 5866   1.471   3.342  11.072 -0.3562  0.3797 -0.4174
  389MPD2    C4 5867   1.605   3.346  11.108 -0.2249  0.1454 -0.2502
  389MPD2    C5 5868   1.701   3.393  11.022 -0.4349 -0.0224  0.1193
  389MPD2     H 5869   1.328   3.388  10.916 -1.1836  0.8601  1.3016
  389MPD2    H1 5870   1.650   3.322  11.203  0.6374  2.0000 -0.1810
  389MPD2    H2 5871   1.746   3.450  10.828  1.2678 -3.0904  1.1647
  389MPD2    H3 5872   1.807   3.397  11.043  0.0581  0.4337 -2.4926
  389MPD2     N 5873   1.376   3.302  11.174  0.3818  0.5123  0.0639
  389MPD2    H5 5874   1.410   3.302  11.270  0.3942 -2.2667  0.0597
  389MPD2    N1 5875   1.500   3.471  10.726 -0.1512  0.5445  0.0704
  389MPD2    H7 5876   1.581   3.474  10.665  0.3653  0.4334  0.7522
  390TMC3    C1 5877   1.162   3.235  11.252  1.0373 -0.0693 -0.7024
  390TMC3    C2 5878   1.236   3.199  11.361  0.1687  0.2585 -0.2454
  390TMC3    C3 5879   1.178   3.242  11.482 -0.0046  0.4836  0.5246
  390TMC3    C4 5880   1.037   3.298  11.256  0.5789 -0.3294 -0.0028
  390TMC3    C5 5881   0.995   3.343  11.381 -0.4390  0.7642 -0.6606
  390TMC3    C6 5882   1.069   3.325  11.490 -0.6231 -0.4571 -0.0955
  390TMC3     C 5883   1.242   3.270  11.143 -0.6855  0.3100  0.3461
  390TMC3     O 5884   1.187   3.249  11.031  0.4821 -0.0730  0.1976
  390TMC3     H 5885   1.321   3.132  11.352 -1.3537 -1.7795  0.5942
  390TMC3    H1 5886   0.988   3.329  11.164  1.2029 -1.7913 -0.8472
  390TMC3    H2 5887   1.023   3.349  11.585 -0.6383  0.6738 -0.4006
  390TMC3    C7 5888   0.856   3.321  11.412 -0.7353 -0.1157  0.0873
  390TMC3    C8 5889   1.158   3.129  11.577 -0.0788  0.2779  0.7909
  390TMC3    O1 5890   0.811   3.393  11.501  0.0519  0.6058  0.5773
  390TMC3    O2 5891   1.132   3.022  11.531  0.5352 -0.0054 -0.3077
  391MPD2     C 5892   0.795   0.478  10.589 -0.8172  0.1215  0.0433
  391MPD2    C1 5893   0.851   0.578  10.665  0.0806  0.4900 -0.0855
  391MPD2    C2 5894   0.841   0.707  10.616 -0.5261  0.6123  0.5642
  391MPD2    C3 5895   0.786   0.736  10.494 -0.5771 -0.2651  0.2845
  391MPD2    C4 5896   0.737   0.630  10.414  0.6423 -0.0641 -0.6984
  391MPD2    C5 5897   0.747   0.505  10.459  0.1890 -0.7725  0.8792
  391MPD2     H 5898   0.889   0.792  10.664  1.0945 -0.7458  1.3530
  391MPD2    H1 5899   0.667   0.642  10.332 -0.5989 -0.6025  0.2822
  391MPD2    H2 5900   0.808   0.372  10.606  1.9912  0.4633  0.0082
  391MPD2    H3 5901   0.697   0.429  10.399  0.5976 -0.9101  0.7164
  391MPD2     N 5902   0.797   0.866  10.442  0.7417 -0.3592  0.4123
  391MPD2    H5 5903   0.838   0.933  10.506 -0.3352  0.9789 -0.3119
  391MPD2    N1 5904   0.914   0.535  10.785  0.1436 -0.2569 -0.3814
  391MPD2    H7 5905   0.908   0.438  10.815  0.2069 -0.4390 -0.9625
  392TMC3    C1 5906   0.792   1.050  10.285 -0.2808 -0.3785  0.2088
  392TMC3    C2 5907   0.740   1.099  10.176  0.1761 -0.7118 -0.0942
  392TMC3    C3 5908   0.757   1.235  10.152 -0.3051 -0.1143  0.5416
  392TMC3    C4 5909   0.867   1.118  10.373 -0.0108  0.9574 -0.1349
  392TMC3    C5 5910   0.875   1.252  10.351  0.4487 -0.1442 -0.2107
  392TMC3    C6 5911   0.827   1.310  10.241  0.4498  0.3188  0.1759
  392TMC3     C 5912   0.761   0.912  10.316 -0.2964  0.1919  0.4057
  392TMC3     O 5913   0.707   0.849  10.226 -0.2818 -0.2959  0.4441
  392TMC3     H 5914   0.678   1.039  10.111  0.8215 -0.8343 -0.6015
  392TMC3    H1 5915   0.933   1.081  10.451 -0.0333 -1.6452 -1.3809
  392TMC3    H2 5916   0.838   1.417  10.226  0.8864  0.3074  0.4342
  392TMC3    C7 5917   0.959   1.331  10.441 -0.0284 -0.4272 -0.1133
  392TMC3    C8 5918   0.664   1.291  10.056 -0.8367 -0.1779 -0.5796
  392TMC3    O1 5919   0.947   1.298  10.558  0.3230  0.5369  0.1041
  392TMC3    O2 5920   0.602   1.213   9.985 -0.9688 -0.0650  0.3653
  393TMC3    C1 5921   4.053   3.201  10.541  0.0164  0.2774  0.1729
  393TMC3    C2 5922   3.967   3.119  10.475  0.0556  0.0913 -1.0075
  393TMC3    C3 5923   3.874   3.055  10.550  0.2530 -0.0664 -0.3241
  393TMC3    C4 5924   4.059   3.215  10.678  0.3080 -0.4951 -0.2020
  393TMC3    C5 5925   3.983   3.126  10.745 -0.5991 -0.8762  0.1113
  393TMC3    C6 5926   3.885   3.055  10.686  0.1160 -0.7254 -0.3927
  393TMC3     C 5927   4.127   3.300  10.459 -0.0357  0.4897  1.0112
  393TMC3     O 5928   4.085   3.341  10.349 -0.8360  0.4355  0.4117
  393TMC3     H 5929   3.985   3.104  10.369 -1.5488 -0.7280 -1.1814
  393TMC3    H1 5930   4.125   3.290  10.721 -2.4311 -0.0548  3.2711
  393TMC3    H2 5931   3.820   2.989  10.741 -0.2164 -0.1911 -0.1434
  393TMC3    C7 5932   3.982   3.130  10.884 -0.2380 -0.1970 -0.6966
  393TMC3    C8 5933   3.759   3.001  10.494 -0.3996 -0.0262  0.3136
  393TMC3    O1 5934   3.872   3.109  10.932  0.1602  0.2110  0.5497
  393TMC3    O2 5935   3.680   2.941  10.561 -0.0458  0.1817  0.0480
  394TMC3    C1 5936   1.383   3.510  10.526  0.2633  0.4651  0.0819
  394TMC3    C2 5937   1.261   3.482  10.467 -0.1559 -1.3486  0.2704
  394TMC3    C3 5938   1.247   3.532  10.339  0.3315  0.0529 -0.2574
  394TMC3    C4 5939   1.477   3.590  10.473 -0.6403 -0.0235 -0.0789
  394TMC3    C5 5940   1.463   3.628  10.338  0.1954 -0.1323 -0.7159
  394TMC3    C6 5941   1.350   3.590  10.272 -0.8417  0.3567  0.3062
  394TMC3     C 5942   1.374   3.491  10.669 -0.3554  0.3396 -0.9715
  394TMC3     O 5943   1.267   3.483  10.722  0.0976  0.0727  0.1217
  394TMC3     H 5944   1.185   3.413  10.503  0.5131 -2.7360 -0.9698
  394TMC3    H1 5945   1.561   3.632  10.528 -0.9261 -1.4719  1.4556
  394TMC3    H2 5946   1.341   3.597  10.164 -0.8955  0.9061  0.3440
  394TMC3    C7 5947   1.559   3.717  10.255 -0.0369 -0.0323 -0.3674
  394TMC3    C8 5948   1.134   3.470  10.266 -0.1330 -0.2916  0.0911
  394TMC3    O1 5949   1.518   3.755  10.143  0.0385 -0.5522  0.3118
  394TMC3    O2 5950   1.069   3.379  10.318  0.4520 -0.3286 -0.0062
  395TMC3    C1 5951   1.184   0.548  14.696  0.5395 -0.5935  0.3329
  395TMC3    C2 5952   1.068   0.623  14.705  0.2012 -0.2582 -0.7646
  395TMC3    C3 5953   1.058   0.747  14.656 -0.2197 -0.3214  0.1387
  395TMC3    C4 5954   1.304   0.600  14.644  0.3274 -0.2119 -0.0328
  395TMC3    C5 5955   1.291   0.730  14.604  0.7868  0.5453  0.6950
  395TMC3    C6 5956   1.174   0.799  14.604 -0.5406 -0.1952  0.1343
  395TMC3     C 5957   1.190   0.416  14.758  0.5989  0.0756 -0.3733
  395TMC3     O 5958   1.296   0.359  14.763  0.2487  0.4017 -0.7296
  395TMC3     H 5959   0.978   0.589  14.756  0.6262  1.5689  1.2019
  395TMC3    H1 5960   1.393   0.539  14.654 -0.3175 -1.3877 -1.4948
  395TMC3    H2 5961   1.171   0.903  14.574 -0.9083  0.3213  1.9805
  395TMC3    C7 5962   1.406   0.813  14.574 -0.0255  0.3943 -0.5006
  395TMC3    C8 5963   0.947   0.834  14.681 -0.1563  0.9047  0.2120
  395TMC3    O1 5964   1.390   0.935  14.580  0.3669  0.1854 -0.0996
  395TMC3    O2 5965   0.975   0.956  14.689  0.4788  0.1755  0.3879
  396MPD2     C 5966   0.288   1.239  16.788 -0.0573  0.0205 -0.3651
  396MPD2    C1 5967   0.399   1.266  16.864 -0.0564 -0.1661 -0.6143
  396MPD2    C2 5968   0.474   1.383  16.843 -0.3894 -1.4261  0.2544
  396MPD2    C3 5969   0.429   1.479  16.754 -0.6692 -0.2789  1.1706
  396MPD2    C4 5970   0.316   1.455  16.679  0.1720 -0.5852  0.5220
  396MPD2    C5 5971   0.249   1.339  16.704  0.3795  0.6731  0.0645
  396MPD2     H 5972   0.569   1.403  16.890 -1.5497 -1.7651  2.7615
  396MPD2    H1 5973   0.281   1.522  16.602  1.0433  0.1632  0.7781
  396MPD2    H2 5974   0.229   1.149  16.802 -1.3336  1.0302  0.6953
  396MPD2    H3 5975   0.151   1.329  16.658  0.5497 -2.5044  0.4290
  396MPD2     N 5976   0.492   1.605  16.728 -0.0749  0.9257  0.6861
  396MPD2    H5 5977   0.447   1.664  16.658  0.0901  2.3790  1.8164
  396MPD2    N1 5978   0.445   1.165  16.952  0.0134 -0.2432 -0.0162
  396MPD2    H7 5979   0.400   1.077  16.927 -2.5391  0.7294  1.1041
  397TMC3    C1 5980   0.593   1.043  17.066 -0.0396  0.6641  0.4902
  397TMC3    C2 5981   0.688   1.036  16.974  0.6870  0.3784 -0.4118
  397TMC3    C3 5982   0.683   0.945  16.870 -0.8075  0.0919  0.5920
  397TMC3    C4 5983   0.497   0.946  17.063 -0.5020 -0.0833 -0.0151
  397TMC3    C5 5984   0.498   0.851  16.968 -0.3106 -0.2286 -0.1245
  397TMC3    C6 5985   0.586   0.847  16.865  0.8232 -0.3952 -0.0190
  397TMC3     C 5986   0.535   1.176  17.055 -0.4692 -0.1650  0.2619
  397TMC3     O 5987   0.587   1.270  17.109 -0.1909  0.3001 -0.0580
  397TMC3     H 5988   0.746   1.128  16.968  0.2627  0.7791  1.4831
  397TMC3    H1 5989   0.414   0.959  17.132 -0.4476  0.8010 -0.1177
  397TMC3    H2 5990   0.577   0.784  16.777 -4.2857 -2.2438  1.8492
  397TMC3    C7 5991   0.406   0.739  16.971  0.0810  0.9914  0.3189
  397TMC3    C8 5992   0.706   1.012  16.743 -0.5104 -0.2732  0.3534
  397TMC3    O1 5993   0.403   0.666  16.874 -0.0663 -0.5448  0.5081
  397TMC3    O2 5994   0.633   0.970  16.652  1.0677 -0.0704 -0.2435
  398MPD2     C 5995   3.579   2.937   0.089 -0.4006  0.4134  0.5370
  398MPD2    C1 5996   3.644   2.833   0.151 -0.3820 -0.1494  0.0649
  398MPD2    C2 5997   3.760   2.872   0.224 -0.0063 -0.3349  0.1604
  398MPD2    C3 5998   3.800   3.002   0.235 -0.2625  0.2368  0.2948
  398MPD2    C4 5999   3.722   3.099   0.184 -0.1129  0.1774 -0.3576
  398MPD2    C5 6000   3.615   3.065   0.111  0.2680  0.6542  0.0562
  398MPD2     H 6001   3.814   2.794   0.276  0.2658 -0.1981  0.0852
  398MPD2    H1 6002   3.731   3.206   0.203 -0.4477  0.8354 -3.8707
  398MPD2    H2 6003   3.488   2.936   0.029  0.9701  0.1045 -1.5193
  398MPD2    H3 6004   3.551   3.145   0.077  2.8691  2.0269 -1.5558
  398MPD2     N 6005   3.915   3.033   0.318 -0.3482  0.5037 -0.0875
  398MPD2    H5 6006   3.954   2.952   0.365 -0.0709  0.6011 -0.1487
  398MPD2    N1 6007   3.616   2.698   0.134  0.1806  0.3126 -0.2952
  398MPD2    H7 6008   3.647   2.636   0.209 -3.0933  0.7454  1.4328
  399TMC3    C1 6009   3.545   2.500   0.013 -0.2252  0.1486  0.6042
  399TMC3    C2 6010   3.632   2.423   0.088  0.2366 -0.3034  0.6160
  399TMC3    C3 6011   3.610   2.287   0.096 -0.2848 -0.2911  0.0419
  399TMC3    C4 6012   3.437   2.440  17.692  0.5027  0.2444  0.4433
  399TMC3    C5 6013   3.418   2.304  17.713 -0.7159  0.1309  0.7761
  399TMC3    C6 6014   3.490   2.234   0.060 -0.6026  0.7908  0.8890
  399TMC3     C 6015   3.544   2.647   0.026  0.3096  0.3683 -0.3808
  399TMC3     O 6016   3.499   2.707  17.681 -0.6572  0.4054 -0.3118
  399TMC3     H 6017   3.713   2.471   0.142  2.1178 -1.2358 -1.3876
  399TMC3    H1 6018   3.368   2.504  17.640  1.0729  0.0830 -0.5132
  399TMC3    H2 6019   3.454   2.133   0.073  1.1273  0.0742  0.1931
  399TMC3    C7 6020   3.289   2.253  17.677 -0.2336  0.0577 -0.1761
  399TMC3    C8 6021   3.691   2.203   0.183  0.3799  0.2665 -0.6506
  399TMC3    O1 6022   3.231   2.182   0.008 -0.0964 -1.0608 -0.2236
  399TMC3    O2 6023   3.770   2.262   0.253  0.9374  0.3797 -0.6427
  400TMC3    C1 6024   1.688   0.764  16.767 -0.5251 -0.5733 -0.1447
  400TMC3    C2 6025   1.579   0.695  16.734 -0.2744  0.4153 -0.5652
  400TMC3    C3 6026   1.472   0.771  16.686  0.3319  0.0250  0.1723
  400TMC3    C4 6027   1.696   0.904  16.759 -0.2155 -0.1290  1.2142
  400TMC3    C5 6028   1.584   0.975  16.719 -0.0626  0.0626 -0.3545
  400TMC3    C6 6029   1.470   0.905  16.681 -0.1854  0.2628 -0.0421
  400TMC3     C 6030   1.796   0.687  16.826 -0.5552  0.4163 -0.6100
  400TMC3     O 6031   1.784   0.570  16.857  0.2952  0.3577 -0.3447
  400TMC3     H 6032   1.587   0.588  16.748  0.6546  0.6480  0.6327
  400TMC3    H1 6033   1.783   0.959  16.795 -0.5588  0.4114  1.2201
  400TMC3    H2 6034   1.382   0.963  16.655  0.9541  1.6879 -0.6790
  400TMC3    C7 6035   1.605   1.109  16.668  0.3388 -0.5186 -0.0144
  400TMC3    C8 6036   1.361   0.708  16.622 -0.0752  0.5324 -0.6151
  400TMC3    O1 6037   1.510   1.141  16.595  0.5864  0.0191  0.2975
  400TMC3    O2 6038   1.253   0.769  16.631  0.4244  0.1494 -0.3830
  401MPD2     C 6039   4.731   4.696   0.158 -0.2095 -0.7281 -0.0205
  401MPD2    C1 6040   0.048   4.605   0.241 -0.9290 -0.0303  0.7491
  401MPD2    C2 6041   0.017   4.473   0.241  0.4861  0.0705  0.3151
  401MPD2    C3 6042   4.667   4.423   0.158 -0.1132  0.1576 -0.6346
  401MPD2    C4 6043   4.606   4.515   0.073  0.1886  0.3679  0.2688
  401MPD2    C5 6044   4.634   4.649   0.077  0.1371  0.3486 -0.1056
  401MPD2     H 6045   0.066   4.403   0.308 -1.8224 -0.0446  1.8810
  401MPD2    H1 6046   4.530   4.488   0.000 -2.3512 -1.6846  3.7063
  401MPD2    H2 6047   0.009   0.065   0.162 -1.4767 -0.4586 -2.2557
  401MPD2    H3 6048   4.603   4.721   0.002 -1.2526  0.8120  0.9082
  401MPD2     N 6049   4.649   4.277   0.152  0.3666 -0.4171 -0.7002
  401MPD2    H5 6050   4.692   4.219   0.223 -0.1066 -0.4164 -0.4107
  401MPD2    N1 6051   0.157   4.643   0.325  0.0204  0.1113  0.1363
  401MPD2    H7 6052   0.189   4.567   0.384  0.4272  0.5564  0.4913
  402TMC3    C1 6053   4.599   4.068   0.058 -0.0096 -0.5404 -0.2635
  402TMC3    C2 6054   4.621   4.020   0.189 -0.4306  0.3082 -0.3917
  402TMC3    C3 6055   4.682   3.897   0.200  0.2984 -0.4761 -0.3229
  402TMC3    C4 6056   4.625   3.989  17.696 -0.7897  0.9214 -0.0430
  402TMC3    C5 6057   4.688   3.871  17.719 -0.0920 -0.4659  0.0955
  402TMC3    C6 6058   4.714   3.815   0.096  0.5001  0.2181  0.3779
  402TMC3     C 6059   4.598   4.212   0.041  0.3671  0.3706 -0.4602
  402TMC3     O 6060   4.559   4.261  17.683 -0.4073  0.5334 -0.7868
  402TMC3     H 6061   4.580   4.076   0.271  0.3799 -0.8283  0.7943
  402TMC3    H1 6062   4.607   4.024  17.595 -0.3164  3.7435  0.8521
  402TMC3    H2 6063   0.014   3.714   0.111 -0.5534 -0.0803  1.0385
  402TMC3    C7 6064   0.005   3.812  17.605 -0.9991  0.3300  0.6231
  402TMC3    C8 6065   4.690   3.830   0.329  0.5106 -0.6184 -0.4546
  402TMC3    O1 6066   4.682   3.832  17.497  0.1866 -0.5406 -0.2355
  402TMC3    O2 6067   0.040   3.747   0.343  0.4951  0.4427 -0.2665
  403MPD2     C 6068   3.565   2.923  13.161  0.1690 -0.3995  0.1074
  403MPD2    C1 6069   3.588   2.790  13.177  0.4662  0.0941 -0.3446
  403MPD2    C2 6070   3.651   2.741  13.291 -0.0896  0.7508 -0.0053
  403MPD2    C3 6071   3.694   2.834  13.385 -0.1942 -0.3063  0.5525
  403MPD2    C4 6072   3.690   2.969  13.355  0.5042 -0.2995  0.1046
  403MPD2    C5 6073   3.623   3.008  13.243  0.5770  0.0633  0.2125
  403MPD2     H 6074   3.663   2.638  13.321  2.8353  0.4816 -2.1531
  403MPD2    H1 6075   3.713   3.046  13.427 -1.6172  0.8921 -0.4910
  403MPD2    H2 6076   3.510   2.963  13.077 -0.4069  1.3702  1.3222
  403MPD2    H3 6077   3.604   3.113  13.225  2.1071  0.0278 -1.5420
  403MPD2     N 6078   3.729   2.786  13.516  0.1359 -0.5320  0.1874
  403MPD2    H5 6079   3.764   2.693  13.532 -1.8709 -1.4230 -0.6211
  403MPD2    N1 6080   3.544   2.705  13.074  0.8792  0.5753 -0.3090
  403MPD2    H7 6081   3.482   2.747  13.005 -2.0920 -2.0632  0.6980
  404TMC3    C1 6082   3.464   2.500  13.005 -0.1674  0.3901  0.6853
  404TMC3    C2 6083   3.434   2.379  13.060 -0.5820 -0.1092  0.3055
  404TMC3    C3 6084   3.317   2.324  13.020 -0.4337  0.4534  0.6693
  404TMC3    C4 6085   3.394   2.549  12.899 -0.0325 -0.1262  0.0445
  404TMC3    C5 6086   3.283   2.487  12.854 -0.3905  0.0411 -0.4624
  404TMC3    C6 6087   3.244   2.371  12.917  0.4930  0.1673 -0.7240
  404TMC3     C 6088   3.572   2.569  13.064 -0.1679 -1.0743  0.3298
  404TMC3     O 6089   3.658   2.502  13.122  0.1790  0.4187 -0.0357
  404TMC3     H 6090   3.494   2.337  13.139 -0.7968 -0.2527  0.3907
  404TMC3    H1 6091   3.442   2.628  12.842 -1.9041  1.0978  0.1629
  404TMC3    H2 6092   3.149   2.323  12.899  1.0792 -0.9745 -0.7734
  404TMC3    C7 6093   3.244   2.514  12.716  0.2146 -0.0296  0.6185
  404TMC3    C8 6094   3.266   2.224  13.110  0.3605 -0.5924 -0.1914
  404TMC3    O1 6095   3.316   2.586  12.649  0.0970 -0.0235 -0.0060
  404TMC3    O2 6096   3.199   2.133  13.058  0.3236  0.0383  0.3051
  405MPD2     C 6097   4.008   2.953  15.285  0.7782 -0.3625 -0.0972
  405MPD2    C1 6098   3.939   2.846  15.229  0.5780 -0.0596  0.3221
  405MPD2    C2 6099   3.849   2.870  15.126 -0.0515  0.4747  0.2894
  405MPD2    C3 6100   3.829   2.998  15.085 -0.0752 -0.2682 -0.2776
  405MPD2    C4 6101   3.898   3.096  15.134  0.4133 -0.0316 -0.3706
  405MPD2    C5 6102   3.985   3.082  15.240  0.0095  0.3712 -0.0019
  405MPD2     H 6103   3.784   2.791  15.090  0.1556  0.6814 -0.5277
  405MPD2    H1 6104   3.870   3.198  15.109  1.3059  0.3959  0.3541
  405MPD2    H2 6105   4.064   2.945  15.377 -1.1694  0.3058  1.1561
  405MPD2    H3 6106   4.030   3.166  15.292  1.5451 -0.6256  0.2860
  405MPD2     N 6107   3.727   3.018  14.988 -0.5156  0.5619  0.0425
  405MPD2    H5 6108   3.669   2.938  14.964  2.4460 -1.3819 -0.6590
  405MPD2    N1 6109   3.954   2.718  15.290  0.3592 -0.7842  0.3787
  405MPD2    H7 6110   4.017   2.708  15.370  1.0848  0.5241 -0.0182
  406TMC3    C1 6111   3.393   3.166  14.721  0.2692 -0.1248  0.1823
  406TMC3    C2 6112   3.318   3.055  14.751 -0.5076 -1.4796 -0.1158
  406TMC3    C3 6113   3.368   2.976  14.850  0.0190  0.6424 -0.2633
  406TMC3    C4 6114   3.516   3.200  14.771 -0.2428 -0.0908 -0.1050
  406TMC3    C5 6115   3.551   3.121  14.878 -0.6916 -0.2027 -0.0008
  406TMC3    C6 6116   3.482   3.013  14.920  0.2435 -0.1944  0.2396
  406TMC3     C 6117   3.340   3.250  14.624 -0.4867 -0.0747  0.1686
  406TMC3     O 6118   3.408   3.328  14.561  0.3198 -0.2680  0.6666
  406TMC3     H 6119   3.232   3.017  14.697 -1.2354  0.2589 -0.1816
  406TMC3    H1 6120   3.576   3.287  14.746 -0.8273  0.7336  1.3324
  406TMC3    H2 6121   3.516   2.972  15.014  1.3420 -0.1949 -0.1537
  406TMC3    C7 6122   3.687   3.134  14.931  0.7622  0.2044  0.4486
  406TMC3    C8 6123   3.302   2.855  14.885  0.0740  0.4856 -0.6290
  406TMC3    O1 6124   3.748   3.239  14.906  0.6576  0.4189  0.0712
  406TMC3    O2 6125   3.195   2.817  14.834 -0.2976  0.7605  0.8038
  407MPD2     C 6126   1.495   0.661   9.707 -0.5116  0.0692  0.3858
  407MPD2    C1 6127   1.618   0.690   9.764  0.1396 -0.4308 -0.5025
  407MPD2    C2 6128   1.616   0.750   9.886  1.0012  0.4413  0.2130
  407MPD2    C3 6129   1.501   0.791   9.949  0.5370 -0.8684 -1.1102
  407MPD2    C4 6130   1.379   0.785   9.878 -1.2228 -0.5719 -1.2237
  407MPD2    C5 6131   1.376   0.709   9.764  0.4697  0.0833  0.1884
  407MPD2     H 6132   1.711   0.779   9.930  0.5673  1.4362  0.4972
  407MPD2    H1 6133   1.289   0.813   9.930  1.0522  0.9226  1.8977
  407MPD2    H2 6134   1.496   0.611   9.611 -0.0744 -0.1401  0.4975
  407MPD2    H3 6135   1.276   0.686   9.728  0.4236 -1.1705  1.1191
  407MPD2     N 6136   1.496   0.845  10.084  0.2775 -0.1667  0.0949
  407MPD2    H5 6137   1.404   0.885  10.101  0.5708  1.1905 -1.4907
  407MPD2    N1 6138   1.748   0.663   9.704  0.6013  0.0847 -0.0054
  407MPD2    H7 6139   1.825   0.680   9.769  1.6307 -2.3342 -0.5917
  408TMC3    C1 6140   1.908   0.600   9.540  0.7654  0.0483 -0.3889
  408TMC3    C2 6141   1.947   0.481   9.488  0.0913 -0.4383 -0.3453
  408TMC3    C3 6142   2.081   0.462   9.481  0.2598 -0.9269 -0.8081
  408TMC3    C4 6143   1.992   0.692   9.587  0.1063 -0.1920 -0.6129
  408TMC3    C5 6144   2.124   0.672   9.564  0.3560 -0.2396 -0.7264
  408TMC3    C6 6145   2.172   0.554   9.520 -0.0393  0.2829  0.6867
  408TMC3     C 6146   1.772   0.591   9.588 -0.1151  0.3075 -1.1746
  408TMC3     O 6147   1.693   0.537   9.514  0.2476  0.3207  0.1780
  408TMC3     H 6148   1.876   0.401   9.471 -1.6518  0.4036  2.8772
  408TMC3    H1 6149   1.955   0.793   9.600  2.5376  0.4381  1.3169
  408TMC3    H2 6150   2.279   0.552   9.504  0.0030  0.4104  0.9604
  408TMC3    C7 6151   2.227   0.768   9.597  0.4716  0.3881  0.3011
  408TMC3    C8 6152   2.128   0.330   9.439  0.0615 -1.5119 -1.0173
  408TMC3    O1 6153   2.310   0.729   9.679  0.0096  0.1459 -0.2770
  408TMC3    O2 6154   2.051   0.256   9.376 -0.1619  0.1719  0.1754
  409MPD2     C 6155   0.802   0.472  16.771  0.1878 -0.6090 -0.9941
  409MPD2    C1 6156   0.860   0.511  16.891 -0.3424  0.0754 -0.0232
  409MPD2    C2 6157   0.923   0.633  16.910 -0.1743  0.5099  0.7598
  409MPD2    C3 6158   0.916   0.729  16.804 -0.1766 -0.7000 -0.3469
  409MPD2    C4 6159   0.853   0.693  16.685  0.5484 -0.2029  0.2297
  409MPD2    C5 6160   0.808   0.566  16.670 -0.2040 -0.0100  0.2832
  409MPD2     H 6161   0.980   0.649  17.001 -0.6063  0.0873  1.1014
  409MPD2    H1 6162   0.864   0.764  16.604 -0.2184 -2.3978 -1.8121
  409MPD2    H2 6163   0.765   0.372  16.753 -0.1809 -0.5743 -0.4373
  409MPD2    H3 6164   0.770   0.543  16.571 -0.0274  2.0750 -0.2584
  409MPD2     N 6165   0.995   0.844  16.797  0.1839 -0.4375  0.1548
  409MPD2    H5 6166   1.019   0.879  16.704 -0.9976 -2.1321 -0.7884
  409MPD2    N1 6167   0.888   0.420  16.994  0.1985  0.1574  0.0132
  409MPD2    H7 6168   0.923   0.462  17.080 -0.4607  0.1950  0.2682
  410TMC3    C1 6169   1.126   1.010  16.887 -0.0331  0.5414  0.0715
  410TMC3    C2 6170   1.225   1.030  16.980 -0.2883 -0.3275  0.4940
  410TMC3    C3 6171   1.324   1.124  16.957 -0.4853 -0.6350 -0.9905
  410TMC3    C4 6172   1.121   1.089  16.777 -0.9541 -0.3769  0.1285
  410TMC3    C5 6173   1.226   1.175  16.756 -0.5416  0.8092  0.1334
  410TMC3    C6 6174   1.321   1.201  16.844  0.2913 -0.5092 -0.1869
  410TMC3     C 6175   1.040   0.904  16.910  0.1821  0.4920  0.1935
  410TMC3     O 6176   1.013   0.880  17.023 -0.2156  0.3917 -0.2847
  410TMC3     H 6177   1.216   0.983  17.077  0.1922 -0.9483  0.2329
  410TMC3    H1 6178   1.048   1.064  16.700  0.7612 -1.9606 -1.0145
  410TMC3    H2 6179   1.402   1.271  16.828  0.3598 -1.2684 -3.2129
  410TMC3    C7 6180   1.215   1.263  16.638  0.5199  0.0059  0.1543
  410TMC3    C8 6181   1.457   1.107  17.013 -0.1930 -0.5215 -0.0996
  410TMC3    O1 6182   1.272   1.369  16.641 -0.1004 -0.1766  0.0978
  410TMC3    O2 6183   1.541   1.192  16.990  0.2534  0.0537  0.0523
  411MPD2     C 6184   1.612   1.347  14.342  0.1880 -0.2924 -0.4314
  411MPD2    C1 6185   1.479   1.388  14.346 -0.3565 -0.3874 -0.3156
  411MPD2    C2 6186   1.385   1.293  14.316 -0.3277 -0.1982  0.3495
  411MPD2    C3 6187   1.423   1.164  14.299 -0.4390 -0.0139  0.0739
  411MPD2    C4 6188   1.555   1.131  14.288  0.0647 -0.0007  0.5307
  411MPD2    C5 6189   1.652   1.225  14.319  0.5527  0.5476 -0.6788
  411MPD2     H 6190   1.283   1.328  14.308  0.0391  0.6408 -0.7666
  411MPD2    H1 6191   1.584   1.027  14.288  0.5441  0.1361 -0.0351
  411MPD2    H2 6192   1.687   1.424  14.359 -0.0044 -0.3175  0.5334
  411MPD2    H3 6193   1.755   1.195  14.301  0.4057 -1.5794  1.9779
  411MPD2     N 6194   1.327   1.059  14.277  0.2796 -0.0663  0.2264
  411MPD2    H5 6195   1.373   0.972  14.250 -2.5409 -2.1677  2.2091
  411MPD2    N1 6196   1.433   1.519  14.373 -0.0009  0.0763 -0.3643
  411MPD2    H7 6197   1.334   1.540  14.376 -0.0291 -0.1083  0.0347
  412TMC3    C1 6198   1.118   0.963  14.263 -0.3127 -0.3388  0.3545
  412TMC3    C2 6199   1.006   0.915  14.325 -0.4880  0.2243 -0.2382
  412TMC3    C3 6200   0.945   0.808  14.271 -0.6873 -0.2591  0.1991
  412TMC3    C4 6201   1.141   0.932  14.133  0.6620  0.0056 -0.6742
  412TMC3    C5 6202   1.072   0.828  14.073 -0.2859  0.2827  0.5104
  412TMC3    C6 6203   0.986   0.751  14.146  0.2395 -0.0368  0.0638
  412TMC3     C 6204   1.195   1.071  14.320  0.6367  0.0955 -0.3530
  412TMC3     O 6205   1.151   1.123  14.419  0.2345  0.1422  0.4902
  412TMC3     H 6206   0.959   0.958  14.413 -1.3793 -0.6324 -0.2925
  412TMC3    H1 6207   1.218   0.993  14.088  0.2561 -0.3297 -1.8311
  412TMC3    H2 6208   0.930   0.672  14.098 -0.4934 -0.6503  1.9334
  412TMC3    C7 6209   1.008   0.860  13.944  0.6611  0.0750 -0.2145
  412TMC3    C8 6210   0.808   0.823  14.282 -0.3895  0.2605 -0.0082
  412TMC3    O1 6211   0.906   0.807  13.911  0.2817 -0.2510  1.0002
  412TMC3    O2 6212   0.775   0.946  14.279  0.3848  0.1519 -0.4503
  413MPD2     C 6213   3.041   3.713  14.758 -0.2899  0.4876 -0.5520
  413MPD2    C1 6214   3.157   3.785  14.789  0.7797 -0.3038 -0.6375
  413MPD2    C2 6215   3.266   3.710  14.836  0.0582 -0.2454  0.3420
  413MPD2    C3 6216   3.252   3.577  14.864  0.6304  0.7016 -0.4334
  413MPD2    C4 6217   3.134   3.516  14.831 -1.0316  0.1469  0.2247
  413MPD2    C5 6218   3.027   3.583  14.779 -0.2097 -1.3553  0.4410
  413MPD2     H 6219   3.361   3.755  14.861  0.5670 -1.0475 -0.1592
  413MPD2    H1 6220   3.106   3.415  14.857 -0.2882 -0.3092 -0.7493
  413MPD2    H2 6221   2.965   3.767  14.703 -2.3753 -1.9343 -0.0305
  413MPD2    H3 6222   2.933   3.534  14.756 -0.1273 -1.2916 -0.0379
  413MPD2     N 6223   3.365   3.521  14.922 -0.1061 -0.0886  0.4399
  413MPD2    H5 6224   3.450   3.573  14.940 -0.1890  0.8781 -2.0379
  413MPD2    N1 6225   3.164   3.929  14.779  0.2576 -0.7112 -0.1484
  413MPD2    H7 6226   3.085   3.976  14.737  0.7011 -0.4504 -0.6856
  414TMC3    C1 6227   3.463   3.379  15.074 -0.6096  1.0007  0.5721
  414TMC3    C2 6228   3.437   3.274  15.157  0.3544 -0.3407  0.2115
  414TMC3    C3 6229   3.531   3.250  15.246 -0.6238 -0.1344 -0.3046
  414TMC3    C4 6230   3.578   3.453  15.077  0.8040 -0.4687 -0.4744
  414TMC3    C5 6231   3.662   3.423  15.181 -0.5287 -0.5661 -0.0386
  414TMC3    C6 6232   3.648   3.322  15.269 -0.3002 -0.0315 -0.3186
  414TMC3     C 6233   3.355   3.405  14.985 -0.6527 -0.3424 -0.2761
  414TMC3     O 6234   3.271   3.317  14.969 -0.6293  0.1150 -0.0426
  414TMC3     H 6235   3.340   3.227  15.153  0.8836 -1.3715 -0.6146
  414TMC3    H1 6236   3.599   3.539  15.013  2.1579 -1.1007 -0.8898
  414TMC3    H2 6237   3.711   3.309  15.356  1.7059  1.9209 -1.4880
  414TMC3    C7 6238   3.800   3.473  15.180 -0.4737  0.2452  0.1572
  414TMC3    C8 6239   3.501   3.123  15.305  0.1953  0.3919  1.0244
  414TMC3    O1 6240   3.848   3.497  15.290 -0.2590 -0.3184 -0.5159
  414TMC3    O2 6241   3.406   3.063  15.258 -0.3332 -0.0272 -0.3930
  415TMC3    C1 6242   3.813   2.613  10.216  0.4483 -0.3599 -0.1107
  415TMC3    C2 6243   3.819   2.709  10.117 -0.0042 -0.3979 -0.0995
  415TMC3    C3 6244   3.715   2.713  10.020 -0.4731  0.0226 -0.2344
  415TMC3    C4 6245   3.710   2.518  10.221 -0.4897  0.5299  0.2261
  415TMC3    C5 6246   3.610   2.530  10.119 -0.3188 -0.2697 -0.5088
  415TMC3    C6 6247   3.608   2.628  10.021  0.6978 -0.1133 -0.1832
  415TMC3     C 6248   3.890   2.628  10.341 -1.2572  0.4697  0.5149
  415TMC3     O 6249   3.852   2.558  10.428  0.3807  0.1040  0.1437
  415TMC3     H 6250   3.906   2.772  10.109 -0.0353 -0.5720 -1.8147
  415TMC3    H1 6251   3.715   2.426  10.277 -0.8814 -0.7824 -1.8989
  415TMC3    H2 6252   3.527   2.636   9.949  1.5769  1.6689 -0.9791
  415TMC3    C7 6253   3.488   2.456  10.127 -0.1346  0.0268  0.0472
  415TMC3    C8 6254   3.724   2.799   9.902  0.7661  0.1161 -0.1731
  415TMC3    O1 6255   3.435   2.422  10.023 -0.4319 -0.1667 -0.3793
  415TMC3    O2 6256   3.633   2.792   9.817  0.0244 -0.5243  0.0599
  416MPD2     C 6257   0.785   1.764  11.334  0.0335  0.7553 -0.1257
  416MPD2    C1 6258   0.724   1.697  11.432 -0.2842  0.0035  0.0191
  416MPD2    C2 6259   0.690   1.562  11.421  0.6447  0.1740 -0.8138
  416MPD2    C3 6260   0.708   1.505  11.292  0.7746  0.2169  0.2300
  416MPD2    C4 6261   0.775   1.572  11.191  0.4061 -0.1384 -0.1564
  416MPD2    C5 6262   0.813   1.703  11.216 -0.0998  0.0858 -0.0982
  416MPD2     H 6263   0.656   1.500  11.503  2.5043  2.0506  1.3834
  416MPD2    H1 6264   0.783   1.537  11.088  0.8901  1.0157 -0.5103
  416MPD2    H2 6265   0.818   1.867  11.340 -0.2160  0.9831 -2.8073
  416MPD2    H3 6266   0.870   1.754  11.140 -0.3814 -0.6153 -0.7777
  416MPD2     N 6267   0.673   1.368  11.253  0.5472  0.0397 -0.3868
  416MPD2    H5 6268   0.686   1.339  11.157  0.0010 -1.1856 -0.0873
  416MPD2    N1 6269   0.682   1.774  11.544  0.0944  0.3227 -0.0245
  416MPD2    H7 6270   0.698   1.874  11.538  0.9977  0.1293 -0.7599
  417TMC3    C1 6271   0.581   1.839  11.739  1.0400 -0.5579 -0.2602
  417TMC3    C2 6272   0.541   1.800  11.865  0.0668  0.1476 -0.0808
  417TMC3    C3 6273   0.457   1.879  11.938 -0.5017 -0.6366 -0.0901
  417TMC3    C4 6274   0.532   1.952  11.687 -0.0984 -0.0301 -0.1766
  417TMC3    C5 6275   0.441   2.027  11.753  0.7534  0.2085 -0.2405
  417TMC3    C6 6276   0.409   1.984  11.879  0.2986  0.2397 -0.1297
  417TMC3     C 6277   0.608   1.728  11.649 -0.2835  0.0178  0.2947
  417TMC3     O 6278   0.574   1.615  11.687  0.5734 -0.3882  0.0713
  417TMC3     H 6279   0.591   1.712  11.903  0.4456  1.3160  2.0984
  417TMC3    H1 6280   0.555   1.979  11.585 -0.0587 -1.8137 -0.6300
  417TMC3    H2 6281   0.343   2.042  11.942  1.8927  1.1646  0.6810
  417TMC3    C7 6282   0.373   2.141  11.694  0.7757 -0.1443  0.0051
  417TMC3    C8 6283   0.396   1.823  12.055  0.6191 -0.5259 -0.4731
  417TMC3    O1 6284   0.404   2.169  11.578  0.4155 -0.5244  0.3409
  417TMC3    O2 6285   0.301   1.887  12.094  0.4089  0.3517  0.1367
  418TMC3    C1 6286   4.322   3.141   0.292  0.2791 -0.0870 -0.5657
  418TMC3    C2 6287   4.196   3.203   0.302  0.8992  0.2847  1.1786
  418TMC3    C3 6288   4.108   3.147   0.391  0.0154 -0.7278  1.0129
  418TMC3    C4 6289   4.361   3.036   0.383 -0.6407 -0.1137  0.8715
  418TMC3    C5 6290   4.276   3.005   0.486 -0.4881  0.2421 -0.2343
  418TMC3    C6 6291   4.145   3.045   0.476 -0.5474 -0.0644  0.2716
  418TMC3     C 6292   4.385   3.158   0.163 -0.4822  0.0033  0.6882
  418TMC3     O 6293   4.376   3.270   0.110 -0.7057 -0.0099 -0.2536
  418TMC3     H 6294   4.169   3.273   0.224 -0.0852  1.2662  2.3939
  418TMC3    H1 6295   4.458   2.988   0.383 -1.1979 -1.2277 -0.3440
  418TMC3    H2 6296   4.069   2.989   0.529  1.3824 -3.9962 -1.1357
  418TMC3    C7 6297   4.292   2.873   0.550  0.3042 -0.0068 -0.3815
  418TMC3    C8 6298   3.975   3.155   0.332 -0.0523  0.5458 -0.4950
  418TMC3    O1 6299   4.202   2.794   0.540  0.6362  0.4190 -0.0572
  418TMC3    O2 6300   3.932   3.264   0.293  0.3380  0.3365 -0.2937
  419MPD2     C 6301   3.158   1.025  12.838 -0.3687  0.4393  0.5209
  419MPD2    C1 6302   3.062   1.047  12.750 -0.9229 -0.7593  0.1508
  419MPD2    C2 6303   2.928   1.074  12.785 -0.0961  0.1462  0.0859
  419MPD2    C3 6304   2.900   1.088  12.923 -0.1924  0.0302  0.7152
  419MPD2    C4 6305   3.001   1.078  13.017 -0.3258 -0.1819 -0.7332
  419MPD2    C5 6306   3.128   1.050  12.971  0.7385  0.0167 -0.2178
  419MPD2     H 6307   2.859   1.105  12.707  1.7481  0.6066 -1.3574
  419MPD2    H1 6308   2.975   1.093  13.122 -0.8653  0.1062 -0.9081
  419MPD2    H2 6309   3.258   0.990  12.811 -0.7419 -1.6112  1.7553
  419MPD2    H3 6310   3.215   1.044  13.035 -0.1524 -0.1881  0.9837
  419MPD2     N 6311   2.771   1.113  12.974  0.3932 -1.0081  0.0614
  419MPD2    H5 6312   2.763   1.139  13.072 -0.6613 -1.9934  0.2321
  419MPD2    N1 6313   3.080   1.044  12.611  0.6673 -0.2429  0.4329
  419MPD2    H7 6314   3.003   1.079  12.555 -0.4857 -1.9564  0.9501
  420TMC3    C1 6315   2.547   1.172  12.978 -0.2371 -0.5941  0.3908
  420TMC3    C2 6316   2.458   1.240  12.905  0.8350 -0.4340 -0.2253
  420TMC3    C3 6317   2.371   1.317  12.976  0.2075  0.5768  0.5338
  420TMC3    C4 6318   2.563   1.182  13.114  0.2953  0.2583  0.6879
  420TMC3    C5 6319   2.474   1.271  13.179  0.1762  0.4361 -0.0041
  420TMC3    C6 6320   2.376   1.334  13.111 -0.0016  0.7071  1.1867
  420TMC3     C 6321   2.660   1.121  12.899  0.1457  0.0486 -0.1436
  420TMC3     O 6322   2.643   1.107  12.780 -0.1360 -0.3878  0.3435
  420TMC3     H 6323   2.443   1.216  12.800 -0.5937 -0.3287 -0.0438
  420TMC3    H1 6324   2.640   1.134  13.173  0.4544 -0.7737 -0.3552
  420TMC3    H2 6325   2.322   1.411  13.165 -1.1173  0.7253  0.0327
  420TMC3    C7 6326   2.515   1.310  13.318 -0.1900 -0.2648 -0.2614
  420TMC3    C8 6327   2.267   1.382  12.899  0.3667  0.1403  0.8048
  420TMC3    O1 6328   2.547   1.221  13.397 -1.0983  0.2061  0.0639
  420TMC3    O2 6329   2.168   1.407  12.966  0.0899  0.6313  0.2289
  421TMC3    C1 6330   3.798   2.830  13.742  0.4870 -0.0402 -0.4358
  421TMC3    C2 6331   3.777   2.906  13.854  0.4282  0.5358 -0.1810
  421TMC3    C3 6332   3.888   2.925  13.931 -0.2896 -1.2613  0.9868
  421TMC3    C4 6333   3.909   2.747  13.723 -0.7098 -0.3271  0.2563
  421TMC3    C5 6334   4.003   2.763  13.826 -0.2040  0.3641  0.1833
  421TMC3    C6 6335   4.002   2.868  13.912  0.5389  0.1020  0.0318
  421TMC3     C 6336   3.714   2.864  13.627  0.3723  0.2968 -0.9284
  421TMC3     O 6337   3.625   2.949  13.640  0.2925 -0.0554  0.1772
  421TMC3     H 6338   3.698   2.979  13.865 -0.9649 -0.5565 -2.7737
  421TMC3    H1 6339   3.916   2.676  13.641 -1.1281 -1.5695  1.2930
  421TMC3    H2 6340   4.079   2.900  13.982 -0.2999  1.2424  0.4362
  421TMC3    C7 6341   4.109   2.666  13.850  0.3817  0.1289 -0.2846
  421TMC3    C8 6342   3.884   3.045  14.015 -0.1383  0.1767  0.2764
  421TMC3    O1 6343   4.198   2.704  13.928  0.1715 -1.2675 -0.1445
  421TMC3    O2 6344   3.980   3.119  13.996 -0.3842  0.2089  0.2409
  422TMC3    C1 6345   1.273   4.296  12.497 -0.2513  0.2576 -0.0410
  422TMC3    C2 6346   1.305   4.298  12.631 -0.5730 -0.6120 -0.1412
  422TMC3    C3 6347   1.210   4.261  12.723  0.6870 -0.1145  0.5000
  422TMC3    C4 6348   1.154   4.243  12.456 -0.1628 -0.0385 -0.5737
  422TMC3    C5 6349   1.060   4.204  12.545  0.3415  0.2863 -0.1115
  422TMC3    C6 6350   1.093   4.208  12.680  0.5228 -0.3539 -0.1101
  422TMC3     C 6351   1.382   4.313  12.408  0.1803  0.3687  0.5233
  422TMC3     O 6352   1.493   4.270  12.430  0.3480 -0.1665 -0.6410
  422TMC3     H 6353   1.400   4.335  12.666  0.0246  1.4988 -4.0488
  422TMC3    H1 6354   1.138   4.248  12.349  2.5505 -0.3168 -0.9893
  422TMC3    H2 6355   1.040   4.158  12.761 -0.4126 -0.2711 -0.6685
  422TMC3    C7 6356   0.961   4.110  12.496 -0.0080 -0.5203 -1.0128
  422TMC3    C8 6357   1.198   4.365  12.824  0.2325 -0.3209 -0.1194
  422TMC3    O1 6358   0.952   4.096  12.376 -0.2932  0.7336  0.4985
  422TMC3    O2 6359   1.306   4.402  12.874  0.2958  0.3899  0.2564
  423MPD2     C 6360   1.950   0.092   0.350  0.1854 -0.2300  0.0530
  423MPD2    C1 6361   2.054   0.032   0.422 -0.1634  0.1898 -0.3255
  423MPD2    C2 6362   2.162   4.704   0.358 -0.0885 -0.2513 -0.0401
  423MPD2    C3 6363   2.151   4.678   0.222  0.0494  0.1978 -0.3722
  423MPD2    C4 6364   2.048   0.004   0.154  0.5803  0.6195 -0.1817
  423MPD2    C5 6365   1.950   0.079   0.211 -0.2040 -0.4952  0.0434
  423MPD2     H 6366   2.245   4.663   0.415 -0.0796  3.4771  2.6440
  423MPD2    H1 6367   2.039   4.726   0.047 -3.7279  1.4929  0.0701
  423MPD2    H2 6368   1.869   0.148   0.396 -0.0838 -0.3459 -0.2789
  423MPD2    H3 6369   1.868   0.125   0.158 -1.3440  1.5781  3.6270
  423MPD2     N 6370   2.239   4.601   0.144  0.3013 -0.0717 -0.6377
  423MPD2    H5 6371   2.235   4.616   0.043 -0.6046  0.2748 -0.5547
  423MPD2    N1 6372   2.071   0.048   0.558  0.6234  0.4494 -0.4337
  423MPD2    H7 6373   2.144   4.733   0.604 -0.1713 -0.5332 -0.2845
  424TMC3    C1 6374   1.999   0.087   0.782  0.5163  0.1237 -0.7428
  424TMC3    C2 6375   2.126   0.073   0.836  0.0616 -0.6660 -0.0010
  424TMC3    C3 6376   2.145   0.050   0.970  0.5824 -0.4163 -0.1061
  424TMC3    C4 6377   1.890   0.075   0.863  0.2955  0.0848  0.4946
  424TMC3    C5 6378   1.915   0.030   0.991 -0.3395  0.2126  0.1449
  424TMC3    C6 6379   2.043   0.013   1.044  0.5052 -0.0863 -0.1392
  424TMC3     C 6380   1.975   0.104   0.637 -0.6857 -0.6409 -0.6938
  424TMC3     O 6381   1.871   0.162   0.612 -0.6270 -0.1262  0.2985
  424TMC3     H 6382   2.217   0.079   0.777 -2.2064 -1.1218 -3.5545
  424TMC3    H1 6383   1.789   0.087   0.825  0.6324 -0.1895 -0.4856
  424TMC3    H2 6384   2.059   4.733   1.150 -1.7441  1.3214  0.4242
  424TMC3    C7 6385   1.818   0.024   1.092 -0.1382 -0.3397  0.1244
  424TMC3    C8 6386   2.272   4.727   1.007  0.0107 -0.5394 -0.6126
  424TMC3    O1 6387   1.843   4.720   1.201 -0.5543 -0.0291 -0.0959
  424TMC3    O2 6388   2.264   4.657   1.104 -0.1785  0.2092 -0.0854
  425MPD2     C 6389   1.464   4.288  16.684  0.0577 -0.2555  0.4043
  425MPD2    C1 6390   1.498   4.217  16.794 -0.3611 -0.0690 -1.0649
  425MPD2    C2 6391   1.459   4.273  16.914  0.4676  0.2634  0.0604
  425MPD2    C3 6392   1.380   4.382  16.925  0.6792 -0.0142 -0.2561
  425MPD2    C4 6393   1.353   4.451  16.807 -0.0720 -0.2635 -0.3613
  425MPD2    C5 6394   1.398   4.406  16.689 -0.1003 -0.6208 -0.5727
  425MPD2     H 6395   1.458   4.219  17.008  0.0070 -0.2775 -0.2615
  425MPD2    H1 6396   1.290   4.540  16.811 -0.3371 -0.4899  0.5183
  425MPD2    H2 6397   1.493   4.252  16.585  0.2277  0.2582  0.2665
  425MPD2    H3 6398   1.360   4.448  16.597 -3.0253  0.6444  1.2065
  425MPD2     N 6399   1.310   4.399  17.048 -0.0435  0.2162 -0.2611
  425MPD2    H5 6400   1.343   4.343  17.126  1.8703  1.2082 -0.3443
  425MPD2    N1 6401   1.565   4.090  16.784 -0.5238 -0.2128 -0.0040
  425MPD2    H7 6402   1.572   4.044  16.694  4.1100 -2.6921  1.6115
  426TMC3    C1 6403   1.677   3.902  16.857 -0.0845 -0.3959 -0.0739
  426TMC3    C2 6404   1.610   3.826  16.762  0.1081  0.0554  0.2287
  426TMC3    C3 6405   1.668   3.705  16.733 -0.2199 -0.1456  0.5028
  426TMC3    C4 6406   1.778   3.856  16.929  0.6571  0.6052 -0.0002
  426TMC3    C5 6407   1.836   3.735  16.891 -0.2262  0.2215 -0.7598
  426TMC3    C6 6408   1.788   3.671  16.785 -0.3509  0.1766 -0.2091
  426TMC3     C 6409   1.614   4.023  16.897 -0.5805  0.0051  0.0673
  426TMC3     O 6410   1.642   4.071  17.005  0.1378 -0.6103  0.4765
  426TMC3     H 6411   1.520   3.863  16.715 -0.6700 -1.3191  0.6233
  426TMC3    H1 6412   1.827   3.913  17.008 -1.7909  1.1603  1.1196
  426TMC3    H2 6413   1.814   3.571  16.752 -2.3792 -0.3890 -0.0401
  426TMC3    C7 6414   1.890   3.648  16.993  0.0610 -0.7980  0.1375
  426TMC3    C8 6415   1.594   3.593  16.681  0.7676  0.6460  0.0534
  426TMC3    O1 6416   1.981   3.571  16.966  0.3423  0.4299 -0.1122
  426TMC3    O2 6417   1.652   3.521  16.600  0.5860  0.6802  0.7094
  427MPD2     C 6418   0.316   1.432  14.637 -0.3957 -0.4031  0.6715
  427MPD2    C1 6419   0.294   1.407  14.771 -0.1011  0.1432  0.4235
  427MPD2    C2 6420   0.175   1.436  14.828  0.0989  1.2438  0.3289
  427MPD2    C3 6421   0.078   1.498  14.751  0.2903  0.3012 -0.3719
  427MPD2    C4 6422   0.100   1.521  14.621  0.1852  0.0481  0.8204
  427MPD2    C5 6423   0.218   1.491  14.566 -0.0990  0.3324 -0.0550
  427MPD2     H 6424   0.162   1.423  14.935  1.8945  1.1984  0.5441
  427MPD2    H1 6425   0.037   1.584  14.559  0.6332 -1.2005 -0.9117
  427MPD2    H2 6426   0.406   1.398  14.588  0.7509  0.7416  1.9811
  427MPD2    H3 6427   0.229   1.516  14.461 -1.8737 -0.8396 -0.5295
  427MPD2     N 6428   4.694   1.554  14.805 -0.1842  0.0582 -0.0481
  427MPD2    H5 6429   4.637   1.598  14.732  0.9962 -0.9332 -1.5683
  427MPD2    N1 6430   0.388   1.341  14.852  0.4816 -0.6059 -0.5107
  427MPD2    H7 6431   0.346   1.281  14.922 -1.5940  0.3451 -0.9518
  428TMC3    C1 6432   0.592   1.227  14.887 -0.1533  0.0725 -0.0202
  428TMC3    C2 6433   0.524   1.116  14.940 -0.2599 -0.9065  0.1875
  428TMC3    C3 6434   0.599   1.034  15.015  0.2481 -0.1162 -1.1413
  428TMC3    C4 6435   0.728   1.237  14.890  0.3659 -0.4045  0.4388
  428TMC3    C5 6436   0.795   1.143  14.964 -0.2127  0.0011 -0.4863
  428TMC3    C6 6437   0.730   1.044  15.030  0.5838  0.0581 -0.4702
  428TMC3     C 6438   0.518   1.337  14.822 -0.2770 -0.9195 -0.0255
  428TMC3     O 6439   0.578   1.416  14.742  0.9910  0.0762  0.3649
  428TMC3     H 6440   0.420   1.099  14.913 -0.3753 -0.0536  0.0801
  428TMC3    H1 6441   0.784   1.313  14.837  1.1271 -1.9507 -0.9996
  428TMC3    H2 6442   0.790   0.979  15.093 -0.7231  0.8977  1.6486
  428TMC3    C7 6443   0.920   1.179  15.035 -0.5864  0.4755  0.1887
  428TMC3    C8 6444   0.554   0.914  15.074  0.4876  0.0123  0.4960
  428TMC3    O1 6445   0.919   1.162  15.155 -0.0138  0.3123  0.2742
  428TMC3    O2 6446   0.628   0.813  15.073 -0.2000  0.2103 -0.1494
  429MPD2     C 6447   1.431   1.638  17.224  0.1088 -0.4484  0.2671
  429MPD2    C1 6448   1.549   1.593  17.280 -0.2107  0.1891 -1.0750
  429MPD2    C2 6449   1.664   1.658  17.234  0.0805  1.0241 -0.0044
  429MPD2    C3 6450   1.667   1.764  17.144  0.6487 -0.0959 -0.5076
  429MPD2    C4 6451   1.544   1.813  17.102  0.2085 -0.0188 -0.3544
  429MPD2    C5 6452   1.432   1.750  17.143 -0.5646  0.3343 -0.2617
  429MPD2     H 6453   1.762   1.632  17.272  0.1321 -0.7493 -1.3307
  429MPD2    H1 6454   1.540   1.895  17.032 -1.7239 -0.5145 -0.8063
  429MPD2    H2 6455   1.331   1.599  17.238 -0.4522  0.3968 -1.3794
  429MPD2    H3 6456   1.333   1.771  17.104 -0.3521 -0.2790 -1.1131
  429MPD2     N 6457   1.797   1.802  17.091  0.7012  0.3952  0.2699
  429MPD2    H5 6458   1.878   1.759  17.135  0.5586  1.3013  1.4188
  429MPD2    N1 6459   1.565   1.484  17.360  0.8070  0.8988  0.4020
  429MPD2    H7 6460   1.657   1.460  17.394  1.2058 -0.2354 -1.4895
  430TMC3    C1 6461   1.950   1.885  16.949  0.7931 -0.2575  0.4197
  430TMC3    C2 6462   1.981   1.974  16.841  0.4641  0.1297  0.2392
  430TMC3    C3 6463   2.044   1.925  16.727 -0.0036 -0.2011 -0.3261
  430TMC3    C4 6464   2.017   1.764  16.947  0.4663 -0.8293  0.4138
  430TMC3    C5 6465   2.077   1.712  16.835 -1.4236 -0.2994 -0.2312
  430TMC3    C6 6466   2.100   1.797  16.725 -0.1327 -0.0509  0.3154
  430TMC3     C 6467   1.817   1.895  16.996 -0.1193 -0.5443 -0.0470
  430TMC3     O 6468   1.731   1.960  16.937 -0.1476  0.5182  0.2137
  430TMC3     H 6469   1.918   2.062  16.848 -0.1461 -0.3075  0.2935
  430TMC3    H1 6470   1.994   1.692  17.025  1.3118  0.0516  1.4851
  430TMC3    H2 6471   2.161   1.765  16.641  0.5534 -0.6246  1.0354
  430TMC3    C7 6472   2.041   1.582  16.794  0.7693 -0.3060  0.4448
  430TMC3    C8 6473   1.984   1.954  16.601  0.3577  0.0974  0.1961
  430TMC3    O1 6474   2.021   1.502  16.885  0.0148 -0.9624  0.0119
  430TMC3    O2 6475   1.977   1.862  16.516  0.0117  0.0474  0.0922
  431MPD2     C 6476   2.506   1.476  12.308 -0.4273 -0.3051 -0.2232
  431MPD2    C1 6477   2.605   1.567  12.313  0.1136 -0.1102  0.4611
  431MPD2    C2 6478   2.735   1.527  12.299 -0.2268  0.0310 -0.2788
  431MPD2    C3 6479   2.761   1.395  12.282  0.1878 -0.0787 -0.0502
  431MPD2    C4 6480   2.660   1.304  12.260 -0.0586 -0.4485 -0.0356
  431MPD2    C5 6481   2.529   1.347  12.274  0.3464 -0.7714  0.4506
  431MPD2     H 6482   2.813   1.600  12.321 -0.6979  0.4164  0.1206
  431MPD2    H1 6483   2.682   1.201  12.237 -0.8651 -0.9188  1.3201
  431MPD2    H2 6484   2.401   1.503  12.312 -0.6812 -0.8492 -3.1797
  431MPD2    H3 6485   2.448   1.275  12.275 -0.0904 -0.3123 -1.4943
  431MPD2     N 6486   2.891   1.342  12.280  0.2547  0.1518  0.2916
  431MPD2    H5 6487   2.897   1.242  12.268  1.8005 -0.0999  3.2518
  431MPD2    N1 6488   2.585   1.711  12.339 -0.6121  0.0580  0.0509
  431MPD2    H7 6489   2.666   1.771  12.348 -1.5376  1.6171 -1.8761
  432TMC3    C1 6490   3.115   1.299  12.284  0.6273  0.1309 -0.1671
  432TMC3    C2 6491   3.236   1.305  12.224 -0.3756  0.6825 -0.0398
  432TMC3    C3 6492   3.329   1.227  12.270  0.5843  0.1838  0.0473
  432TMC3    C4 6493   3.095   1.202  12.390  0.0595 -0.0048 -0.3626
  432TMC3    C5 6494   3.194   1.115  12.423 -0.0138 -0.1877 -0.5610
  432TMC3    C6 6495   3.313   1.128  12.360 -0.2864 -0.1133  0.2303
  432TMC3     C 6496   3.018   1.403  12.268 -0.1603 -0.3634  0.7563
  432TMC3     O 6497   3.052   1.519  12.267  0.3732 -0.1678 -0.7691
  432TMC3     H 6498   3.247   1.371  12.139 -1.5963 -0.2031 -0.8850
  432TMC3    H1 6499   3.000   1.206  12.441 -0.3093  1.1481 -1.1596
  432TMC3    H2 6500   3.398   1.069  12.392  1.0196  2.6044  1.7675
  432TMC3    C7 6501   3.201   1.043  12.548  0.7206 -0.2409 -0.2425
  432TMC3    C8 6502   3.446   1.208  12.186 -0.3801 -0.1727  0.6526
  432TMC3    O1 6503   3.306   0.987  12.577 -0.1305 -0.7300  0.6915
  432TMC3    O2 6504   3.489   1.093  12.179 -0.2824  0.4524  0.1223
  433MPD2     C 6505   1.267   0.187  10.411 -0.0221  0.3850 -0.4922
  433MPD2    C1 6506   1.392   0.144  10.454 -0.0290  1.2432  1.1191
  433MPD2    C2 6507   1.430   0.203  10.576 -0.4562  0.0335  0.6060
  433MPD2    C3 6508   1.340   0.253  10.665 -0.3005 -0.3729 -0.4761
  433MPD2    C4 6509   1.212   0.271  10.621  0.1799 -0.0238 -0.1333
  433MPD2    C5 6510   1.175   0.245  10.497 -0.1087 -0.0959  0.1904
  433MPD2     H 6511   1.530   0.184  10.614 -1.4775  2.0527  4.3005
  433MPD2    H1 6512   1.146   0.324  10.688  1.3538 -0.2730  1.2301
  433MPD2    H2 6513   1.235   0.161  10.311 -0.4626  1.1115 -0.5433
  433MPD2    H3 6514   1.080   0.270  10.453  1.1827 -0.8525 -3.0329
  433MPD2     N 6515   1.390   0.279  10.792 -0.5186 -0.1341 -0.0405
  433MPD2    H5 6516   1.489   0.304  10.798 -0.4962 -0.1193 -0.5200
  433MPD2    N1 6517   1.492   0.068  10.379  0.3359 -0.3626  0.3563
  433MPD2    H7 6518   1.467   0.039  10.285  3.1582 -0.2639 -0.4345
  434TMC3    C1 6519   1.698   4.684  10.332  0.2922 -0.3664  0.5857
  434TMC3    C2 6520   1.827   4.664  10.382 -0.2295 -0.3978  0.3644
  434TMC3    C3 6521   1.881   4.540  10.378 -0.1163 -0.1449  0.3983
  434TMC3    C4 6522   1.635   4.592  10.258 -0.0738 -0.1185  0.4066
  434TMC3    C5 6523   1.688   4.464  10.255  0.2351 -0.5522  0.4901
  434TMC3    C6 6524   1.816   4.435  10.309  1.2405  0.0299  0.4979
  434TMC3     C 6525   1.615   0.024  10.431  0.1683  0.1532  0.3239
  434TMC3     O 6526   1.658   0.019  10.548  0.0766 -0.1697  0.4521
  434TMC3     H 6527   1.872   4.736  10.450 -1.6105  1.5897 -0.8444
  434TMC3    H1 6528   1.532   4.602  10.228 -0.0054  1.5657  0.7534
  434TMC3    H2 6529   1.860   4.336  10.305  0.3576 -0.2924 -1.0385
  434TMC3    C7 6530   1.590   4.360  10.238  0.2803  0.0818 -0.3089
  434TMC3    C8 6531   1.965   4.498  10.490  0.2749 -0.3699  0.1498
  434TMC3    O1 6532   1.507   4.379  10.148  0.1558 -0.4023 -0.0521
  434TMC3    O2 6533   1.971   4.579  10.584 -0.2450 -0.0450 -0.2022
  435MPD2     C 6534   3.383   0.285  15.572  0.1189 -0.9428 -0.4817
  435MPD2    C1 6535   3.329   0.210  15.675 -0.3218  0.2952  0.3138
  435MPD2    C2 6536   3.421   0.137  15.751  0.1728 -0.7295  0.3105
  435MPD2    C3 6537   3.555   0.135  15.732  0.0463  1.1576 -0.1528
  435MPD2    C4 6538   3.604   0.211  15.623 -0.0088 -0.1032 -0.4790
  435MPD2    C5 6539   3.516   0.281  15.542  0.0976 -0.0189  0.2280
  435MPD2     H 6540   3.383   0.079  15.834 -1.4168  0.3413  0.3437
  435MPD2    H1 6541   3.710   0.221  15.603  0.1819 -1.9447 -0.4397
  435MPD2    H2 6542   3.318   0.349  15.513  0.6891 -0.0945 -0.1880
  435MPD2    H3 6543   3.556   0.345  15.465 -1.0190  1.4273  0.8672
  435MPD2     N 6544   3.635   0.047  15.807 -0.3394  0.1906  0.5297
  435MPD2    H5 6545   3.589   4.734  15.882  0.5504 -2.8552 -0.9692
  435MPD2    N1 6546   3.191   0.205  15.706  0.3107  0.2183 -0.8436
  435MPD2    H7 6547   3.163   0.132  15.771  0.4894  0.0258 -0.9814
  436TMC3    C1 6548   2.803   0.094  15.757 -0.0648 -0.0532 -0.3374
  436TMC3    C2 6549   2.933   0.135  15.754 -0.4379  0.3686 -0.5768
  436TMC3    C3 6550   2.958   0.250  15.679 -0.4284  0.0271 -1.2538
  436TMC3    C4 6551   2.701   0.140  15.676 -0.7591  0.2680  0.2082
  436TMC3    C5 6552   2.732   0.245  15.598 -0.0703  0.0721  0.0030
  436TMC3    C6 6553   2.855   0.306  15.598 -0.3333  0.1393 -0.5231
  436TMC3     C 6554   2.764   4.726  15.852 -0.0652 -0.0897 -0.4283
  436TMC3     O 6555   2.850   4.688  15.927 -0.5401  0.1987 -0.1760
  436TMC3     H 6556   3.010   0.111  15.826 -0.4704  1.3648 -0.2150
  436TMC3    H1 6557   2.604   0.093  15.668 -0.2371 -0.2071 -3.1673
  436TMC3    H2 6558   2.874   0.396  15.541 -1.8783 -0.0468 -1.3381
  436TMC3    C7 6559   2.639   0.300  15.497 -0.6114  0.7843 -0.0426
  436TMC3    C8 6560   3.094   0.295  15.658 -0.2945 -0.0355 -0.5882
  436TMC3    O1 6561   2.690   0.364  15.409 -0.7827 -0.1369 -0.3845
  436TMC3    O2 6562   3.104   0.395  15.582  0.3343  0.5765 -0.0731
  437TMC3    C1 6563   1.776   2.755  12.298  0.0045 -0.4602 -0.2884
  437TMC3    C2 6564   1.680   2.847  12.255 -0.2618 -0.0225 -0.5634
  437TMC3    C3 6565   1.707   2.928  12.150 -0.1150  0.0986  0.5050
  437TMC3    C4 6566   1.889   2.741  12.221 -0.0823 -0.9772 -0.6219
  437TMC3    C5 6567   1.906   2.805  12.101 -0.2462  0.6067  0.4729
  437TMC3    C6 6568   1.817   2.902  12.069 -0.5447 -0.4521  0.1384
  437TMC3     C 6569   1.755   2.675  12.414  0.1834  0.1022  0.0699
  437TMC3     O 6570   1.833   2.583  12.429 -0.0961 -0.9833 -0.1593
  437TMC3     H 6571   1.587   2.866  12.306 -0.7679  0.9814 -1.8592
  437TMC3    H1 6572   1.965   2.674  12.261  1.2793  0.8241 -0.1286
  437TMC3    H2 6573   1.826   2.961  11.979  0.1084 -1.5644 -0.5294
  437TMC3    C7 6574   2.036   2.796  12.033 -0.3041  0.7219 -0.4956
  437TMC3    C8 6575   1.615   3.037  12.125  0.1686 -0.3956 -0.1958
  437TMC3    O1 6576   2.045   2.861  11.930  0.0250  0.3710  0.0581
  437TMC3    O2 6577   1.502   3.028  12.168  0.0086 -0.8318  0.3248
  438MPD2     C 6578   4.456   3.125  16.707 -0.4756 -0.3313  0.1991
  438MPD2    C1 6579   4.547   3.044  16.779 -0.0482  0.2364 -0.6771
  438MPD2    C2 6580   4.541   3.047  16.920  0.6229 -0.2355 -0.9354
  438MPD2    C3 6581   4.448   3.121  16.991 -0.0784  0.8410 -0.4082
  438MPD2    C4 6582   4.355   3.188  16.921  0.0065 -0.7415  0.1655
  438MPD2    C5 6583   4.362   3.197  16.784  0.8798 -0.2522 -0.1111
  438MPD2     H 6584   4.613   2.982  16.968  0.2691  0.7012  0.8435
  438MPD2    H1 6585   4.278   3.249  16.968 -0.9542 -2.8096  1.2644
  438MPD2    H2 6586   4.453   3.128  16.599 -1.1933 -1.4906  0.1833
  438MPD2    H3 6587   4.283   3.250  16.731 -0.0111 -0.9560  0.5060
  438MPD2     N 6588   4.428   3.100  17.131 -0.3909 -0.6717  0.1994
  438MPD2    H5 6589   4.344   3.139  17.173 -0.7713 -0.0576 -1.1245
  438MPD2    N1 6590   4.649   2.964  16.723  0.7068 -0.6852 -0.6001
  438MPD2    H7 6591   4.715   2.923  16.788 -0.9879  0.7997  2.0608
  439TMC3    C1 6592   0.008   2.839  16.551 -0.8636  0.2688 -0.0510
  439TMC3    C2 6593   0.004   2.799  16.419 -0.4041  0.5085 -0.0071
  439TMC3    C3 6594   0.075   2.680  16.384 -0.1631  0.2511 -0.1697
  439TMC3    C4 6595   0.064   2.756  16.644  0.4017  0.2751  0.2502
  439TMC3    C5 6596   0.116   2.635  16.614 -0.4497  0.2866 -0.8637
  439TMC3    C6 6597   0.121   2.593  16.483  0.1262 -0.1629 -0.3614
  439TMC3     C 6598   4.665   2.959  16.589 -0.3790 -0.0733  0.1474
  439TMC3     O 6599   4.595   3.009  16.505  0.3601 -0.3709  0.2978
  439TMC3     H 6600   4.691   2.858  16.343  0.6123  0.5235 -0.6643
  439TMC3    H1 6601   0.089   2.792  16.743  0.4561 -1.2499  0.8007
  439TMC3    H2 6602   0.168   2.499  16.456  0.9112 -0.1128  0.8236
  439TMC3    C7 6603   0.192   2.561  16.714 -0.1834  0.1618 -0.0635
  439TMC3    C8 6604   0.101   2.631  16.247  0.1734  0.3531 -0.1348
  439TMC3    O1 6605   0.232   2.632  16.809  0.0660  0.0112  0.1477
  439TMC3    O2 6606   0.152   2.522  16.243 -0.6033 -0.0526 -0.4411
  440MPD2     C 6607   2.755   3.072  15.295  0.5188 -0.6683 -0.5249
  440MPD2    C1 6608   2.875   3.073  15.361  0.1262 -0.1581 -0.1588
  440MPD2    C2 6609   2.939   2.956  15.390 -0.2681  0.3202  0.7201
  440MPD2    C3 6610   2.865   2.837  15.367 -0.0492  0.1783  0.7215
  440MPD2    C4 6611   2.739   2.842  15.318  0.4367  0.4666  0.0683
  440MPD2    C5 6612   2.685   2.959  15.279  0.2116 -0.3983  0.1615
  440MPD2     H 6613   3.037   2.950  15.436  0.5598 -0.7962 -1.1694
  440MPD2    H1 6614   2.686   2.750  15.296 -1.5565  2.8625 -4.8889
  440MPD2    H2 6615   2.707   3.159  15.252  2.5934 -0.7663 -3.0282
  440MPD2    H3 6616   2.593   2.960  15.222  0.4416  1.8665 -0.1609
  440MPD2     N 6617   2.919   2.706  15.398 -0.9007 -0.3100 -0.3225
  440MPD2    H5 6618   2.863   2.621  15.400 -0.5399 -0.5180  1.2782
  440MPD2    N1 6619   2.935   3.195  15.400 -0.0175 -0.5998  0.3310
  440MPD2    H7 6620   3.022   3.197  15.452 -1.0298 -0.9275  2.0562
  441TMC3    C1 6621   3.068   2.548  15.449 -0.5629  0.4212  0.7292
  441TMC3    C2 6622   3.195   2.515  15.410  0.1772 -0.1350  0.3678
  441TMC3    C3 6623   3.276   2.446  15.498  0.4905  0.0908 -0.6044
  441TMC3    C4 6624   3.008   2.499  15.566  0.3640  0.3266 -0.0178
  441TMC3    C5 6625   3.090   2.421  15.643  0.2681  0.4908 -0.4400
  441TMC3    C6 6626   3.220   2.403  15.616  0.0220  0.1584  1.0106
  441TMC3     C 6627   3.050   2.684  15.414  0.1589  0.5938  0.2444
  441TMC3     O 6628   3.147   2.751  15.387  0.3077  0.2240 -0.1940
  441TMC3     H 6629   3.240   2.562  15.324  0.6355  2.1962  1.8726
  441TMC3    H1 6630   2.907   2.526  15.594  0.4069 -0.2182  0.6429
  441TMC3    H2 6631   3.287   2.368  15.695 -0.9306 -0.5204  1.5284
  441TMC3    C7 6632   3.054   2.407  15.781  0.5063  0.8563  0.3918
  441TMC3    C8 6633   3.403   2.508  15.508 -0.0128  0.4114  0.2295
  441TMC3    O1 6634   2.982   2.488  15.832  0.0047  0.6710  0.2579
  441TMC3    O2 6635   3.488   2.447  15.571 -0.2212 -0.3251 -0.3134
  442MPD2     C 6636   1.389   3.987  16.151 -0.1683 -0.2384 -0.4605
  442MPD2    C1 6637   1.314   3.970  16.266 -0.3051 -0.1794  0.1964
  442MPD2    C2 6638   1.299   3.841  16.311 -0.3477  0.1110  1.0202
  442MPD2    C3 6639   1.362   3.735  16.247  0.7620 -0.1933  0.2305
  442MPD2    C4 6640   1.431   3.755  16.126 -0.3228  0.4676  0.6583
  442MPD2    C5 6641   1.457   3.883  16.085 -0.5774  0.0243  0.4997
  442MPD2     H 6642   1.247   3.823  16.404 -0.6898  0.0401  0.8178
  442MPD2    H1 6643   1.483   3.677  16.070 -0.0958  0.3390  1.0501
  442MPD2    H2 6644   1.411   4.084  16.109 -0.1407  0.5368  1.3113
  442MPD2    H3 6645   1.523   3.911  16.004  0.0969 -1.0660  0.6644
  442MPD2     N 6646   1.359   3.602  16.294 -0.7107  0.4631  0.6329
  442MPD2    H5 6647   1.406   3.532  16.237 -4.0783 -0.0928 -1.4928
  442MPD2    N1 6648   1.248   4.075  16.336 -0.6757 -0.1206  0.1586
  442MPD2    H7 6649   1.184   4.042  16.409 -0.3138  0.7387  0.8609
  443TMC3    C1 6650   1.174   4.285  16.393 -0.8124 -0.3128  0.1852
  443TMC3    C2 6651   1.126   4.403  16.350  0.0073 -0.1845 -0.2264
  443TMC3    C3 6652   1.025   4.471  16.423 -0.5345 -0.0102  0.9326
  443TMC3    C4 6653   1.141   4.236  16.519  0.0589  0.2640 -0.2545
  443TMC3    C5 6654   1.053   4.312  16.594  0.0082  0.4084  0.1677
  443TMC3    C6 6655   0.993   4.427  16.548  0.2929 -1.2569  0.6503
  443TMC3     C 6656   1.254   4.210  16.297 -0.2453  0.0881  0.0803
  443TMC3     O 6657   1.317   4.270  16.213 -0.0630 -0.5466 -0.1904
  443TMC3     H 6658   1.139   4.427  16.245 -2.7575 -3.0674 -1.2341
  443TMC3    H1 6659   1.202   4.158  16.564  2.5603  0.2035 -3.7199
  443TMC3    H2 6660   0.914   4.469  16.610 -0.5768 -0.8388 -0.7390
  443TMC3    C7 6661   1.033   4.260  16.727 -0.3353  0.5486 -0.4094
  443TMC3    C8 6662   0.944   4.573  16.361 -0.8983  0.3149  0.0427
  443TMC3    O1 6663   1.044   4.139  16.737 -0.1080 -0.9150  0.1233
  443TMC3    O2 6664   0.894   4.653  16.438  0.4573  0.0480 -0.6600
  444MPD2     C 6665   1.664   3.305  17.037  0.2903 -0.4440  0.6493
  444MPD2    C1 6666   1.581   3.207  17.082  0.1319 -0.4061 -0.2109
  444MPD2    C2 6667   1.609   3.074  17.052  0.1649  0.5181 -0.5834
  444MPD2    C3 6668   1.718   3.035  16.970 -0.3978  0.1721  0.3225
  444MPD2    C4 6669   1.809   3.136  16.935 -0.5781  0.0111  0.0924
  444MPD2    C5 6670   1.781   3.264  16.977  0.1890  0.7781  0.1570
  444MPD2     H 6671   1.540   2.997  17.082  0.7048  0.1588 -0.2626
  444MPD2    H1 6672   1.898   3.119  16.877  1.3017  1.7072  2.5018
  444MPD2    H2 6673   1.656   3.408  17.070 -0.8462 -0.3286  0.0047
  444MPD2    H3 6674   1.850   3.341  16.946  0.1458  1.5195  1.9173
  444MPD2     N 6675   1.735   2.902  16.945 -0.1056  0.5974  0.9395
  444MPD2    H5 6676   1.675   2.838  16.997 -0.7324 -0.1403 -0.7019
  444MPD2    N1 6677   1.465   3.238  17.160  0.2421 -0.5285 -0.1414
  444MPD2    H7 6678   1.412   3.157  17.190  0.1466 -1.1349 -1.9601
  445TMC3    C1 6679   1.817   2.710  16.860  0.0022  1.0172  0.7886
  445TMC3    C2 6680   1.686   2.678  16.845  0.1016  0.7749 -0.1505
  445TMC3    C3 6681   1.664   2.554  16.793 -0.0109 -0.3682  0.5208
  445TMC3    C4 6682   1.922   2.635  16.827  0.4238  0.6302  0.0928
  445TMC3    C5 6683   1.891   2.506  16.801  0.2935  0.5203  0.2604
  445TMC3    C6 6684   1.765   2.463  16.780 -0.9623 -0.2902 -0.2079
  445TMC3     C 6685   1.841   2.850  16.876  0.6341 -0.9242 -0.2892
  445TMC3     O 6686   1.916   2.906  16.796 -0.1612  0.5184  0.1522
  445TMC3     H 6687   1.601   2.746  16.850 -2.9373 -2.9585 -1.5854
  445TMC3    H1 6688   2.024   2.673  16.831 -0.3583  2.5082  2.5937
  445TMC3    H2 6689   1.743   2.361  16.752  0.1869 -0.4543 -0.5101
  445TMC3    C7 6690   1.993   2.400  16.798  0.0412 -0.5006 -0.3510
  445TMC3    C8 6691   1.536   2.532  16.716 -0.3967  0.8586 -0.0836
  445TMC3    O1 6692   1.951   2.284  16.809  0.2083 -0.4838 -0.0601
  445TMC3    O2 6693   1.459   2.626  16.707  0.0950 -0.3576  0.2244
  446MPD2     C 6694   1.417   4.498  11.015  0.0630  0.1253  0.1752
  446MPD2    C1 6695   1.405   4.564  10.900 -0.3271  0.4648 -0.5528
  446MPD2    C2 6696   1.512   4.621  10.835 -0.0463 -0.8606  1.1074
  446MPD2    C3 6697   1.635   4.618  10.897 -0.7407  0.0767 -0.0468
  446MPD2    C4 6698   1.648   4.550  11.022  0.5879 -0.0928 -0.2024
  446MPD2    C5 6699   1.539   4.486  11.078 -0.3666  0.3579 -0.2935
  446MPD2     H 6700   1.500   4.681  10.745  3.4994 -3.4025 -1.0347
  446MPD2    H1 6701   1.741   4.536  11.075  0.1184 -3.6920 -0.3539
  446MPD2    H2 6702   1.334   4.447  11.062  1.7134 -3.0020 -0.2836
  446MPD2    H3 6703   1.556   4.441  11.175 -0.9637  1.2479  0.2172
  446MPD2     N 6704   1.750   4.680  10.841  0.3487  0.2152 -0.0446
  446MPD2    H5 6705   1.726   4.727  10.754 -1.5502  2.4317  1.6896
  446MPD2    N1 6706   1.273   4.578  10.861 -0.1426  0.0372  0.3439
  446MPD2    H7 6707   1.201   4.547  10.925 -1.5513 -0.3242 -1.4126
  447TMC3    C1 6708   1.970   0.033  10.822 -0.7598  0.0818 -0.2929
  447TMC3    C2 6709   1.922   0.159  10.817 -0.1675 -0.2403 -0.9525
  447TMC3    C3 6710   2.012   0.265  10.835  0.9311  0.5431 -0.4607
  447TMC3    C4 6711   2.099   0.006  10.850 -0.0618 -0.7093 -0.5742
  447TMC3    C5 6712   2.182   0.119  10.881  0.3405 -0.1599 -0.0789
  447TMC3    C6 6713   2.141   0.248  10.876 -0.2171  0.3501  0.6510
  447TMC3     C 6714   1.880   4.674  10.889 -0.1204  0.0480  0.7364
  447TMC3     O 6715   1.927   4.622  10.985  0.0563  0.0939 -0.5494
  447TMC3     H 6716   1.819   0.177  10.789 -0.8420 -1.4758  0.7291
  447TMC3    H1 6717   2.128   4.639  10.863  1.9183 -0.2418 -1.2274
  447TMC3    H2 6718   2.201   0.338  10.885  2.2900 -1.0898 -1.5600
  447TMC3    C7 6719   2.313   0.084  10.928  0.2687  0.6129  0.0818
  447TMC3    C8 6720   1.983   0.383  10.766 -0.3056  0.2433 -0.6150
  447TMC3    O1 6721   2.347   4.706  10.909  0.2735  0.6024  0.4298
  447TMC3    O2 6722   1.890   0.449  10.800 -0.0483 -0.1325 -0.6227
  448TMC3    C1 6723   3.977   4.397  17.140 -0.1477 -0.2918 -0.1797
  448TMC3    C2 6724   4.036   4.321  17.042  0.0866  0.4381  0.0610
  448TMC3    C3 6725   4.114   4.220  17.086  0.5750 -0.4743 -0.2814
  448TMC3    C4 6726   4.011   4.400  17.268 -0.4671 -1.2301 -0.1767
  448TMC3    C5 6727   4.103   4.310  17.302  0.4146 -0.5144  0.3684
  448TMC3    C6 6728   4.155   4.213  17.216  0.4681 -0.6231 -0.3675
  448TMC3     C 6729   3.898   4.513  17.093 -0.6299  0.0199 -0.5722
  448TMC3     O 6730   3.944   4.580  17.001 -0.0433  0.1097 -0.4555
  448TMC3     H 6731   3.980   4.315  16.950  0.2737  0.1907 -0.0340
  448TMC3    H1 6732   3.982   4.480  17.335 -1.2440 -2.4256  0.9140
  448TMC3    H2 6733   4.230   4.142  17.248  0.3407 -0.5123  0.1827
  448TMC3    C7 6734   4.145   4.315  17.439 -0.2987 -0.5276 -0.4910
  448TMC3    C8 6735   4.177   4.126  16.988  0.3414  1.3056 -0.2315
  448TMC3    O1 6736   4.089   4.397  17.511  0.2287  0.0983  0.2751
  448TMC3    O2 6737   4.247   4.045  17.040 -0.3427 -0.1758 -0.0234
  449MPD2     C 6738   1.323   3.022  14.077  0.1557 -0.5464 -0.3542
  449MPD2    C1 6739   1.211   3.067  14.012 -0.2424 -0.0783  0.1408
  449MPD2    C2 6740   1.095   2.983  14.011 -0.4450 -0.3971  0.2853
  449MPD2    C3 6741   1.104   2.854  14.054 -0.9367  0.1776  0.3458
  449MPD2    C4 6742   1.222   2.819  14.116 -0.0166  0.1970 -0.9476
  449MPD2    C5 6743   1.326   2.900  14.129 -0.1242 -0.7675  0.0329
  449MPD2     H 6744   1.001   3.017  13.968  0.3543 -0.3604 -1.4691
  449MPD2    H1 6745   1.236   2.719  14.156  2.4565  1.0251  0.2302
  449MPD2    H2 6746   1.415   3.078  14.076 -1.4980  2.2036  0.1576
  449MPD2    H3 6747   1.423   2.866  14.163  0.3027  1.9329  1.5020
  449MPD2     N 6748   0.982   2.782  14.048 -0.1743 -0.1674  0.0976
  449MPD2    H5 6749   0.903   2.830  14.005  0.9092 -0.6748 -2.4909
  449MPD2    N1 6750   1.204   3.190  13.947  0.0664 -0.2005  0.8013
  449MPD2    H7 6751   1.111   3.209  13.911  1.9315  2.7938 -2.3893
  450TMC3    C1 6752   1.235   3.400  13.867  0.2454  0.5199 -0.1499
  450TMC3    C2 6753   1.284   3.420  13.746  0.1327  0.5634 -0.4902
  450TMC3    C3 6754   1.192   3.455  13.645  0.3432 -1.1365  0.3235
  450TMC3    C4 6755   1.098   3.402  13.889  0.8480  0.2105  0.2638
  450TMC3    C5 6756   1.017   3.425  13.783 -0.5085  0.2588 -0.0703
  450TMC3    C6 6757   1.060   3.457  13.662 -0.4422  0.2548 -0.2001
  450TMC3     C 6758   1.301   3.290  13.936  0.0956  0.4206 -0.5016
  450TMC3     O 6759   1.421   3.289  13.961 -0.1391  0.3176 -0.9030
  450TMC3     H 6760   1.389   3.406  13.720 -0.1928 -1.6825 -0.6443
  450TMC3    H1 6761   1.060   3.367  13.984  1.9891 -2.2258 -0.1815
  450TMC3    H2 6762   0.993   3.474  13.579 -0.2315 -3.3376 -1.1379
  450TMC3    C7 6763   0.907   3.333  13.787  0.3552 -0.0748  0.1867
  450TMC3    C8 6764   1.252   3.495  13.518 -0.5417 -0.3076 -0.1609
  450TMC3    O1 6765   0.934   3.240  13.863 -0.1119 -0.4713  0.5061
  450TMC3    O2 6766   1.252   3.613  13.493 -0.5384 -0.5932  0.7917
  451MPD2     C 6767   1.276   1.290   0.332 -0.0421 -0.3534 -0.4571
  451MPD2    C1 6768   1.351   1.405   0.323 -0.0761 -0.0544  0.4470
  451MPD2    C2 6769   1.483   1.400   0.371  0.2792  0.1189  0.0647
  451MPD2    C3 6770   1.535   1.283   0.428 -0.2936  0.2638  0.7827
  451MPD2    C4 6771   1.458   1.176   0.432  0.4370 -0.0749 -0.2713
  451MPD2    C5 6772   1.333   1.173   0.386 -0.3320 -0.0355  0.2179
  451MPD2     H 6773   1.558   1.477   0.371  0.4238 -0.0214  0.5645
  451MPD2    H1 6774   1.480   1.087   0.489 -0.5989 -1.5658 -2.2210
  451MPD2    H2 6775   1.169   1.294   0.313 -0.0373  1.1405 -0.1473
  451MPD2    H3 6776   1.281   1.078   0.397  0.3425 -0.2160  1.8983
  451MPD2     N 6777   1.669   1.278   0.486 -0.3196  0.9337  0.2127
  451MPD2    H5 6778   1.689   1.200   0.548 -2.6218 -1.0313 -1.4762
  451MPD2    N1 6779   1.289   1.527   0.284  0.1064  0.5821  0.3319
  451MPD2    H7 6780   1.188   1.534   0.292 -0.1607 -2.0004 -0.8226
  452TMC3    C1 6781   1.892   1.326   0.528  0.7528  0.2084 -0.5198
  452TMC3    C2 6782   1.888   1.316   0.667  0.0565  0.0560  0.3867
  452TMC3    C3 6783   2.004   1.323   0.742 -0.6997  0.4485  0.1334
  452TMC3    C4 6784   2.011   1.364   0.471  0.0832  0.3761 -0.4717
  452TMC3    C5 6785   2.126   1.365   0.550 -0.6938  0.5087  0.0423
  452TMC3    C6 6786   2.123   1.342   0.684 -0.1245 -0.5676 -0.2838
  452TMC3     C 6787   1.770   1.361   0.459 -0.3424 -0.1289 -0.6591
  452TMC3     O 6788   1.792   1.435   0.361 -0.2138  0.3107  0.1472
  452TMC3     H 6789   1.791   1.314   0.714  0.0429  0.0701  0.3591
  452TMC3    H1 6790   2.030   1.347   0.366 -2.2218 -1.1160 -0.6460
  452TMC3    H2 6791   2.218   1.343   0.735  0.2633 -0.6009 -1.0094
  452TMC3    C7 6792   2.252   1.385   0.476  0.2296 -0.8708  0.1665
  452TMC3    C8 6793   1.980   1.362   0.878  0.4293 -0.0377  0.0553
  452TMC3    O1 6794   2.242   1.413   0.359  0.9291  0.1126  0.2338
  452TMC3    O2 6795   1.862   1.365   0.919 -0.1697  0.5428  0.5607
  453TMC3    C1 6796   3.471   3.921  11.669  0.4431  0.4864  0.2250
  453TMC3    C2 6797   3.410   3.799  11.658 -0.4611 -0.0509 -0.0640
  453TMC3    C3 6798   3.422   3.741  11.536 -0.8290 -0.5224 -0.1413
  453TMC3    C4 6799   3.546   3.983  11.569  0.0896  1.0939 -0.0956
  453TMC3    C5 6800   3.565   3.911  11.453 -0.2484  0.1207 -0.0752
  453TMC3    C6 6801   3.501   3.789  11.438  0.0794  0.8147  0.0246
  453TMC3     C 6802   3.503   3.965  11.799 -0.4842  0.1978  0.3319
  453TMC3     O 6803   3.598   4.034  11.816 -0.0303  0.3790  0.1819
  453TMC3     H 6804   3.359   3.745  11.737  1.2442  0.0735  1.1182
  453TMC3    H1 6805   3.601   4.073  11.594  1.6337 -0.0297  0.6125
  453TMC3    H2 6806   3.521   3.743  11.341  0.5542  0.1376  0.4441
  453TMC3    C7 6807   3.667   3.949  11.361  0.0978 -0.0478 -0.6383
  453TMC3    C8 6808   3.411   3.599  11.537  1.4613  0.0334  0.0171
  453TMC3    O1 6809   3.720   3.857  11.304  0.4314  0.2575  0.2139
  453TMC3    O2 6810   3.375   3.546  11.434 -0.7893  0.7441  0.0294
  454MPD2     C 6811   2.326   2.754  16.369 -0.2475 -0.5630 -0.1147
  454MPD2    C1 6812   2.237   2.649  16.347  0.3519  0.5637 -0.1813
  454MPD2    C2 6813   2.124   2.645  16.417  0.5443 -0.1444  0.2648
  454MPD2    C3 6814   2.074   2.759  16.485  0.1921  0.0925 -0.3619
  454MPD2    C4 6815   2.168   2.857  16.512 -0.0793  0.1408 -0.1216
  454MPD2    C5 6816   2.290   2.851  16.459 -0.4092  0.5531  0.0649
  454MPD2     H 6817   2.073   2.553  16.393 -1.0988 -0.0254  3.2471
  454MPD2    H1 6818   2.143   2.939  16.578  1.5419 -0.2226  0.9684
  454MPD2    H2 6819   2.419   2.760  16.314  0.2193 -1.8703  0.5391
  454MPD2    H3 6820   2.360   2.931  16.482  1.0577 -0.5442 -0.5426
  454MPD2     N 6821   1.944   2.781  16.517  0.1842 -0.0157  0.0332
  454MPD2    H5 6822   1.920   2.869  16.561  3.7629  0.0413  1.8176
  454MPD2    N1 6823   2.255   2.543  16.260  0.1089  0.0013  0.1176
  454MPD2    H7 6824   2.182   2.473  16.271  0.2759 -0.1468  0.2857
  455TMC3    C1 6825   1.709   2.763  16.482  0.2182 -0.3805 -0.7807
  455TMC3    C2 6826   1.688   2.876  16.557 -0.8420  0.2349 -0.1545
  455TMC3    C3 6827   1.565   2.933  16.553 -0.6133 -0.9492  0.3068
  455TMC3    C4 6828   1.609   2.712  16.406  0.0460  0.0964  0.0256
  455TMC3    C5 6829   1.489   2.778  16.400 -0.1922  0.1107 -0.0764
  455TMC3    C6 6830   1.455   2.878  16.486 -0.1379 -0.4269  0.1798
  455TMC3     C 6831   1.840   2.700  16.474  0.2116 -0.3770  0.0511
  455TMC3     O 6832   1.848   2.609  16.389  0.4603 -0.1468 -0.3289
  455TMC3     H 6833   1.767   2.937  16.599 -1.5141  0.6526  0.5293
  455TMC3    H1 6834   1.629   2.639  16.328  2.3549  1.7679 -0.9281
  455TMC3    H2 6835   1.363   2.935  16.476  0.0871  0.0974  1.0949
  455TMC3    C7 6836   1.392   2.754  16.295 -0.5532 -0.2022  0.2268
  455TMC3    C8 6837   1.551   3.061  16.612 -0.2055 -0.4964 -0.3961
  455TMC3    O1 6838   1.275   2.787  16.322 -0.0029 -0.0262 -0.5408
  455TMC3    O2 6839   1.641   3.146  16.603  0.3118 -0.9310  0.0151
  456MPD2     C 6840   0.246   3.139  16.149  0.4237  0.2747 -0.3173
  456MPD2    C1 6841   0.249   3.076  16.273 -0.5169 -0.9555  0.2595
  456MPD2    C2 6842   0.180   3.131  16.378 -0.1749  0.4261  0.5506
  456MPD2    C3 6843   0.103   3.245  16.360 -0.3129  0.1095  0.3881
  456MPD2    C4 6844   0.108   3.310  16.245  0.0308 -0.6979  0.4659
  456MPD2    C5 6845   0.177   3.255  16.145  0.4806  0.1679 -0.1446
  456MPD2     H 6846   0.181   3.098  16.481 -0.6387  4.1977  1.7463
  456MPD2    H1 6847   0.045   3.392  16.212 -0.0435 -0.3696  1.4311
  456MPD2    H2 6848   0.296   3.108  16.057  0.6295 -0.2576 -0.0274
  456MPD2    H3 6849   0.159   3.287  16.043 -0.3342 -1.3812 -0.4804
  456MPD2     N 6850   0.033   3.296  16.467  0.0226  0.0810  0.4476
  456MPD2    H5 6851   0.028   3.242  16.553  0.1195 -1.8041 -0.7366
  456MPD2    N1 6852   0.322   2.953  16.286 -0.0180  0.1104  0.7011
  456MPD2    H7 6853   0.351   2.911  16.198  1.3516 -1.1464  1.7626
  457TMC3    C1 6854   4.647   3.448  16.595  0.5833  0.0605 -0.2417
  457TMC3    C2 6855   4.589   3.570  16.602  0.2725 -0.2221  0.3968
  457TMC3    C3 6856   4.567   3.630  16.723  0.0770  0.0929  0.4532
  457TMC3    C4 6857   4.694   3.394  16.711  0.7429 -0.5212  0.2051
  457TMC3    C5 6858   4.683   3.463  16.828 -0.4876 -0.2729  0.5411
  457TMC3    C6 6859   4.622   3.584  16.838 -0.6841 -0.3073  0.1863
  457TMC3     C 6860   4.702   3.413  16.465  0.1041 -0.6146 -0.2087
  457TMC3     O 6861   4.701   3.512  16.397  0.2622 -0.6581 -0.2461
  457TMC3     H 6862   4.535   3.601  16.513  0.9278  2.6992  1.0180
  457TMC3    H1 6863   0.017   3.304  16.717  1.4308  0.0978  2.6102
  457TMC3    H2 6864   4.611   3.637  16.931 -1.0365  0.8555 -0.5173
  457TMC3    C7 6865   4.735   3.399  16.942  0.1067 -0.0351  0.0743
  457TMC3    C8 6866   4.477   3.743  16.740 -0.4317 -0.3987 -0.2479
  457TMC3    O1 6867   0.092   3.326  16.940 -0.5888 -0.9232 -0.0290
  457TMC3    O2 6868   4.451   3.765  16.859 -0.1162  0.6135 -0.0003
  458MPD2     C 6869   2.533   2.726  11.966  0.6262 -0.2605  0.8629
  458MPD2    C1 6870   2.507   2.666  12.089  0.3479  0.3251 -0.0022
  458MPD2    C2 6871   2.369   2.667  12.124  0.3175 -0.3162  0.4511
  458MPD2    C3 6872   2.267   2.711  12.041 -0.0999 -0.3762 -0.1135
  458MPD2    C4 6873   2.300   2.754  11.913 -1.5772 -0.0425 -0.2851
  458MPD2    C5 6874   2.438   2.772  11.880 -0.5300 -0.2410  0.4214
  458MPD2     H 6875   2.349   2.636  12.226  0.1771  0.5749  0.6996
  458MPD2    H1 6876   2.226   2.791  11.842 -0.2508  0.6815 -1.2915
  458MPD2    H2 6877   2.636   2.729  11.932 -0.2509 -0.0755 -1.7469
  458MPD2    H3 6878   2.466   2.811  11.783  0.5973 -0.8566  0.5023
  458MPD2     N 6879   2.133   2.717  12.089 -0.9392 -0.2806 -0.0661
  458MPD2    H5 6880   2.105   2.661  12.169  1.1530  0.6605  1.3027
  458MPD2    N1 6881   2.611   2.632  12.177  0.7528 -0.5861 -0.0820
  458MPD2    H7 6882   2.706   2.645  12.142  1.2224  0.9305  1.7622
  459TMC3    C1 6883   2.714   2.629  12.386  0.5659  0.1244 -0.5489
  459TMC3    C2 6884   2.825   2.694  12.323 -0.7268 -0.7946 -0.1399
  459TMC3    C3 6885   2.917   2.746  12.413 -0.5829 -0.3521 -0.2140
  459TMC3    C4 6886   2.698   2.609  12.521  0.0952 -0.7496  0.5874
  459TMC3    C5 6887   2.810   2.643  12.598 -0.3015 -0.1529 -0.0993
  459TMC3    C6 6888   2.919   2.707  12.544 -0.3770  0.3164  0.3305
  459TMC3     C 6889   2.598   2.597  12.307 -0.6186  0.3720 -0.9634
  459TMC3     O 6890   2.496   2.577  12.374  0.2794  0.1514  0.3615
  459TMC3     H 6891   2.822   2.715  12.217  2.4392 -1.4010 -0.3433
  459TMC3    H1 6892   2.607   2.563  12.559 -0.9640 -0.3760 -1.5090
  459TMC3    H2 6893   2.995   2.747  12.611  0.8462 -2.1700  0.4523
  459TMC3    C7 6894   2.821   2.579  12.726  1.0689 -0.8809 -0.4433
  459TMC3    C8 6895   3.020   2.839  12.376 -0.1774  0.2670  0.1299
  459TMC3    O1 6896   2.765   2.468  12.744 -0.3578 -0.0228  0.2763
  459TMC3    O2 6897   3.110   2.863  12.459 -0.2618  0.2401 -0.0246
  460MPD2     C 6898   2.225   0.551  10.555 -0.0972  0.6333  0.8503
  460MPD2    C1 6899   2.104   0.531  10.612 -0.9421  1.3967 -0.2604
  460MPD2    C2 6900   2.009   0.623  10.590  0.3433  0.5576  0.5972
  460MPD2    C3 6901   2.026   0.746  10.525  0.1606  0.4131 -0.6436
  460MPD2    C4 6902   2.152   0.766  10.472 -0.0956 -0.0077  0.5651
  460MPD2    C5 6903   2.244   0.666  10.483  0.6285 -0.3570 -1.2015
  460MPD2     H 6904   1.910   0.599  10.627 -0.0916 -2.3150 -2.3463
  460MPD2    H1 6905   2.176   0.863  10.430  0.7675  0.3637  1.9385
  460MPD2    H2 6906   2.308   0.482  10.559 -0.2174  0.3163 -2.2685
  460MPD2    H3 6907   2.343   0.684  10.443 -1.2149  2.0370 -4.7631
  460MPD2     N 6908   1.909   0.825  10.511  0.3292  0.2974  0.2309
  460MPD2    H5 6909   1.823   0.786  10.548  0.8655 -1.1847 -0.0990
  460MPD2    N1 6910   2.087   0.408  10.680 -0.0302  0.3053  0.3976
  460MPD2    H7 6911   2.149   0.328  10.678  0.3322  0.5556  1.3182
  461TMC3    C1 6912   1.759   0.982  10.411  1.0342  0.0637 -0.7733
  461TMC3    C2 6913   1.672   0.882  10.383  0.0610  0.6764  0.0762
  461TMC3    C3 6914   1.566   0.898  10.299  0.1015 -0.1942  0.8896
  461TMC3    C4 6915   1.729   1.113  10.380 -0.1899  0.0470 -0.2721
  461TMC3    C5 6916   1.607   1.135  10.316 -0.0199 -0.5676  0.2243
  461TMC3    C6 6917   1.526   1.029  10.270 -0.5340  0.0995 -0.2050
  461TMC3     C 6918   1.896   0.943  10.443  0.0391  0.0542  0.0888
  461TMC3     O 6919   1.986   1.002  10.390 -0.2503  0.9169 -0.3429
  461TMC3     H 6920   1.705   0.780  10.399  1.7663  0.9786 -1.6090
  461TMC3    H1 6921   1.814   1.179  10.392 -0.1646 -0.5539  2.7555
  461TMC3    H2 6922   1.441   1.041  10.204 -0.7988 -0.3306  0.0600
  461TMC3    C7 6923   1.581   1.277  10.287 -0.2020  0.4631  0.6146
  461TMC3    C8 6924   1.594   0.820  10.180 -0.3503 -0.9687  0.3193
  461TMC3    O1 6925   1.497   1.310  10.205  0.1244 -0.1254 -0.4508
  461TMC3    O2 6926   1.706   0.765  10.171 -0.2724  0.4443 -0.7550
  462TMC3    C1 6927   2.140   0.945   0.442 -0.1942  0.1161  0.1474
  462TMC3    C2 6928   2.223   0.840   0.417 -0.2289 -0.2074  0.7596
  462TMC3    C3 6929   2.228   0.791   0.281 -0.4204  0.0878  0.0065
  462TMC3    C4 6930   2.058   1.003   0.345  0.5124 -0.0665  0.1018
  462TMC3    C5 6931   2.046   0.933   0.222  0.2276 -0.2632 -0.0777
  462TMC3    C6 6932   2.152   0.846   0.187  0.1911  0.3618  0.4262
  462TMC3     C 6933   2.119   0.998   0.572 -1.1039  0.3778 -0.5252
  462TMC3     O 6934   2.010   1.046   0.601  0.0429  0.1739  0.1147
  462TMC3     H 6935   2.278   0.802   0.502  1.8897 -1.7876 -1.3350
  462TMC3    H1 6936   1.988   1.077   0.381 -0.1299  0.5561 -2.4832
  462TMC3    H2 6937   2.128   0.783   0.103  1.4905  0.4222  0.0051
  462TMC3    C7 6938   1.912   0.917   0.174 -0.1266 -0.2841 -0.4076
  462TMC3    C8 6939   2.284   0.657   0.266  0.0711  0.4439  0.0575
  462TMC3    O1 6940   1.871   0.802   0.159  0.9852 -0.0982  0.0876
  462TMC3    O2 6941   2.329   0.611   0.368 -0.1672 -0.3758  0.3264
  463MPD2     C 6942   2.425   3.691   1.807  0.4855  0.3704 -0.6176
  463MPD2    C1 6943   2.411   3.760   1.692 -0.4586 -0.0201  0.1930
  463MPD2    C2 6944   2.500   3.860   1.666  0.6492  0.2164  0.4080
  463MPD2    C3 6945   2.609   3.884   1.753  0.5830  0.1446 -0.0886
  463MPD2    C4 6946   2.620   3.818   1.866 -0.3618 -0.0967 -0.1046
  463MPD2    C5 6947   2.518   3.730   1.900 -0.5934  1.1817  0.2255
  463MPD2     H 6948   2.485   3.925   1.581 -0.2589  0.0795  0.4586
  463MPD2    H1 6949   2.700   3.833   1.938  0.7544 -0.7526 -1.2165
  463MPD2    H2 6950   2.368   3.603   1.837  1.6394 -0.7761 -1.7859
  463MPD2    H3 6951   2.522   3.664   1.986 -2.2962  0.8675  0.0623
  463MPD2     N 6952   2.707   3.983   1.725 -0.1049 -0.2689  0.1234
  463MPD2    H5 6953   2.782   3.990   1.792 -1.4430 -1.4136  1.7579
  463MPD2    N1 6954   2.300   3.738   1.602 -0.0631 -0.1231  0.3017
  463MPD2    H7 6955   2.288   3.810   1.532  2.6790  1.3031  1.3069
  464TMC3    C1 6956   2.091   3.635   1.527 -0.2961  0.2567 -0.5333
  464TMC3    C2 6957   2.040   3.755   1.488 -0.3868 -0.0200  0.5388
  464TMC3    C3 6958   1.937   3.756   1.397 -1.1273 -0.1044 -0.0344
  464TMC3    C4 6959   2.045   3.516   1.479  0.0762 -0.2042  0.3728
  464TMC3    C5 6960   1.945   3.519   1.393 -0.9060 -0.5246 -0.0743
  464TMC3    C6 6961   1.891   3.640   1.348  0.1833 -0.1630 -0.3410
  464TMC3     C 6962   2.219   3.624   1.603  0.5726  0.6783 -0.4873
  464TMC3     O 6963   2.252   3.515   1.647  0.3806 -0.1440 -1.0218
  464TMC3     H 6964   2.069   3.849   1.534  0.1358 -1.0490  2.3172
  464TMC3    H1 6965   2.067   3.422   1.528  0.0989 -0.4281 -0.0646
  464TMC3    H2 6966   1.820   3.653   1.268 -0.2283 -0.2232  0.0123
  464TMC3    C7 6967   1.842   3.422   1.391 -0.0705  0.0650  0.5771
  464TMC3    C8 6968   1.844   3.863   1.399 -0.0628 -0.3945  0.3135
  464TMC3    O1 6969   1.824   3.352   1.489  0.2913  0.8236  0.9829
  464TMC3    O2 6970   1.776   3.866   1.298 -0.6611  0.4954 -0.8356
  465MPD2     C 6971   4.152   2.904  16.794 -0.5639 -0.0272  0.6116
  465MPD2    C1 6972   4.029   2.943  16.844  0.4931  0.1465 -0.0490
  465MPD2    C2 6973   3.941   2.998  16.755  0.5887  0.3059  0.4232
  465MPD2    C3 6974   3.970   3.001  16.623 -0.1475 -0.2769  0.1278
  465MPD2    C4 6975   4.091   2.958  16.575 -0.0962  0.9298 -0.2492
  465MPD2    C5 6976   4.186   2.912  16.662  0.9364 -0.5685  0.3271
  465MPD2     H 6977   3.847   3.037  16.793  1.7768  2.5568  1.0622
  465MPD2    H1 6978   4.117   2.965  16.470  1.0562 -0.3854 -0.0437
  465MPD2    H2 6979   4.222   2.857  16.863 -0.5379  0.1005  0.6713
  465MPD2    H3 6980   4.279   2.863  16.632  0.8745 -0.7796  0.4793
  465MPD2     N 6981   3.870   3.022  16.534 -0.4922  0.4704  0.2987
  465MPD2    H5 6982   3.776   3.039  16.566 -0.6878 -0.4073  0.1852
  465MPD2    N1 6983   3.990   2.951  16.981  0.0697  0.1609 -0.6490
  465MPD2    H7 6984   3.904   2.995  17.010 -0.7807 -1.4294 -0.7482
  466TMC3    C1 6985   3.531   3.117  16.383 -0.6787  0.4541 -0.3756
  466TMC3    C2 6986   3.528   3.241  16.315  1.2257  0.3121 -0.3002
  466TMC3    C3 6987   3.651   3.287  16.278  0.7386  0.4922  0.4416
  466TMC3    C4 6988   3.644   3.044  16.405  0.2537 -0.2959 -0.4581
  466TMC3    C5 6989   3.760   3.089  16.348 -0.2496  0.1123 -0.1310
  466TMC3    C6 6990   3.763   3.213  16.302 -0.2357  0.6732 -0.2342
  466TMC3     C 6991   3.413   3.075  16.453  0.5885 -0.2446 -0.1084
  466TMC3     O 6992   3.428   2.987  16.538  0.6325 -0.2400 -0.0969
  466TMC3     H 6993   3.446   3.306  16.289  1.1738  0.2385 -0.3211
  466TMC3    H1 6994   3.630   2.948  16.452  0.8423 -0.7792 -1.2585
  466TMC3    H2 6995   3.855   3.266  16.284  0.4511 -0.0803  1.1072
  466TMC3    C7 6996   3.889   3.043  16.400 -0.4400  0.3855 -0.4045
  466TMC3    C8 6997   3.664   3.429  16.245  0.4858 -0.2411  0.2741
  466TMC3    O1 6998   3.987   3.088  16.338  0.5384  0.0431  0.5786
  466TMC3    O2 6999   3.765   3.468  16.182 -0.2605 -0.2170  0.4828
  467TMC3    C1 7000   4.577   1.707  13.966 -0.4144  0.0535 -0.2956
  467TMC3    C2 7001   4.506   1.670  13.860  0.2654  0.3857  0.9219
  467TMC3    C3 7002   4.376   1.705  13.845  0.7987  0.5751  0.1740
  467TMC3    C4 7003   4.520   1.782  14.068 -0.0503 -0.6044  0.1480
  467TMC3    C5 7004   4.388   1.821  14.056  0.0981 -0.0321  0.5434
  467TMC3    C6 7005   4.325   1.791  13.934 -0.5171  0.0636 -0.5612
  467TMC3     C 7006   4.714   1.721  13.943 -0.1097  0.4371 -0.0113
  467TMC3     O 7007   0.027   1.814  14.005  0.4373 -0.1694 -0.2350
  467TMC3     H 7008   4.551   1.619  13.775 -0.7578  1.3719 -0.1979
  467TMC3    H1 7009   4.586   1.810  14.149 -1.3327  0.8035  0.7014
  467TMC3    H2 7010   4.226   1.836  13.937 -0.5130 -0.0435  1.1439
  467TMC3    C7 7011   4.320   1.860  14.179  0.1880 -0.3386 -0.3825
  467TMC3    C8 7012   4.364   1.754  13.713 -0.3776 -0.0627 -0.4111
  467TMC3    O1 7013   4.383   1.825  14.275 -0.2093  0.1788  0.4442
  467TMC3    O2 7014   4.304   1.679  13.633  0.3327 -0.3588 -0.0493
  468MPD2     C 7015   3.455   0.128  10.762  0.2206 -0.4629  0.2003
  468MPD2    C1 7016   3.574   0.121  10.832  0.0387  0.7333  0.3436
  468MPD2    C2 7017   3.633   4.726  10.849 -0.6054  0.4803  0.5835
  468MPD2    C3 7018   3.569   4.611  10.802  0.5850 -1.4138  0.4407
  468MPD2    C4 7019   3.450   4.626  10.741 -0.3146  0.4814 -0.0068
  468MPD2    C5 7020   3.396   0.016  10.716  0.3673  0.6679 -0.1216
  468MPD2     H 7021   3.730   4.729  10.897 -0.9224 -1.0091  1.3180
  468MPD2    H1 7022   3.404   4.537  10.700 -0.3104  0.9825 -1.1220
  468MPD2    H2 7023   3.394   0.217  10.751  0.8892 -0.1504 -0.9688
  468MPD2    H3 7024   3.309   0.031  10.654 -0.3650 -1.8560  0.2662
  468MPD2     N 7025   3.631   4.485  10.809  1.2320 -0.5716 -0.8833
  468MPD2    H5 7026   3.571   4.404  10.792 -0.6965  0.5027  0.7648
  468MPD2    N1 7027   3.636   0.237  10.882  0.5872 -0.0366  0.4349
  468MPD2    H7 7028   3.728   0.219  10.921  0.8814  0.4354 -0.0426
  469TMC3    C1 7029   3.663   0.469  10.938  0.0869  0.2334 -0.4818
  469TMC3    C2 7030   3.798   0.467  10.928  0.3685 -0.4698  0.6652
  469TMC3    C3 7031   3.861   0.578  10.982 -0.9380  0.0545  0.8191
  469TMC3    C4 7032   3.593   0.575  10.978  0.1744 -0.5244  0.4450
  469TMC3    C5 7033   3.657   0.695  11.008  0.4742 -0.0355 -0.5757
  469TMC3    C6 7034   3.792   0.696  11.006 -0.8843 -0.2221 -0.0580
  469TMC3     C 7035   3.587   0.369  10.866  0.3921  1.1666 -0.3568
  469TMC3     O 7036   3.473   0.406  10.848  0.4449 -0.3723 -0.5828
  469TMC3     H 7037   3.849   0.386  10.878 -0.0072 -0.5617  0.4286
  469TMC3    H1 7038   3.487   0.562  10.995  0.0898  0.3370  0.5978
  469TMC3    H2 7039   3.851   0.769  11.061  1.2288 -0.5726 -1.8728
  469TMC3    C7 7040   3.595   0.775  11.109 -0.4569  0.4292 -0.2216
  469TMC3    C8 7041   4.004   0.585  10.990  0.0494 -0.4663 -0.0258
  469TMC3    O1 7042   3.636   0.782  11.225  0.3015 -0.0788 -0.5018
  469TMC3    O2 7043   4.051   0.698  10.996  0.2741 -0.0293  0.7308
  470TMC3    C1 7044   0.453   0.426   0.348 -0.4452 -0.0720 -0.3795
  470TMC3    C2 7045   0.533   0.510   0.420  0.1196 -0.0092  0.3187
  470TMC3    C3 7046   0.492   0.552   0.541  0.8198 -0.5074 -0.6085
  470TMC3    C4 7047   0.335   0.380   0.406  0.6574 -0.2911 -0.3364
  470TMC3    C5 7048   0.293   0.432   0.525 -0.4397 -0.5730 -0.2168
  470TMC3    C6 7049   0.373   0.514   0.599  0.4431  0.1707  0.2006
  470TMC3     C 7050   0.488   0.405   0.211  0.4349 -1.2567  0.0444
  470TMC3     O 7051   0.591   0.457   0.169 -0.1084 -0.3447  0.4825
  470TMC3     H 7052   0.635   0.533   0.388  0.8511 -1.5319  1.5477
  470TMC3    H1 7053   0.275   0.317   0.341 -0.2858 -1.4859  1.7249
  470TMC3    H2 7054   0.340   0.562   0.691 -3.0537  1.6664 -1.8070
  470TMC3    C7 7055   0.155   0.424   0.554 -0.8747  0.2158  0.1006
  470TMC3    C8 7056   0.564   0.667   0.608 -0.3698  0.0132 -0.1579
  470TMC3    O1 7057   0.096   0.383   0.455 -0.2360  0.4415 -0.8219
  470TMC3    O2 7058   0.534   0.685   0.726  0.2582  0.0871  0.1087
  471MPD2     C 7059   1.641   2.235  16.333 -0.2778 -0.0768  0.9023
  471MPD2    C1 7060   1.671   2.102  16.331  0.2202  0.2304  0.1569
  471MPD2    C2 7061   1.761   2.045  16.419  0.2030  0.0455 -0.0719
  471MPD2    C3 7062   1.834   2.126  16.502 -0.4984  1.0424  0.6708
  471MPD2    C4 7063   1.804   2.257  16.505 -0.5150 -0.2707 -0.1949
  471MPD2    C5 7064   1.707   2.310  16.425  0.2653 -0.4470 -0.2476
  471MPD2     H 7065   1.778   1.939  16.401 -0.0700 -0.3995  2.2410
  471MPD2    H1 7066   1.863   2.327  16.563 -1.4608 -0.8337  1.4448
  471MPD2    H2 7067   1.574   2.284  16.263 -1.2404 -0.4094  1.5953
  471MPD2    H3 7068   1.696   2.418  16.425  0.7858 -0.3928 -0.2980
  471MPD2     N 7069   1.929   2.085  16.600  0.4958  0.2902  0.4125
  471MPD2    H5 7070   1.964   2.152  16.668  0.0404  0.7881  0.1523
  471MPD2    N1 7071   1.610   2.005  16.246  0.2350  0.4325  0.8946
  471MPD2    H7 7072   1.630   1.912  16.280 -1.6010 -0.5175 -0.6361
  472TMC3    C1 7073   1.455   1.917  16.088 -0.1540  0.3732 -0.0060
  472TMC3    C2 7074   1.380   1.927  15.977 -1.0333  0.3414  0.4907
  472TMC3    C3 7075   1.301   1.823  15.934  0.2342  0.3770  0.0765
  472TMC3    C4 7076   1.465   1.797  16.154  0.3715 -0.0887 -0.5557
  472TMC3    C5 7077   1.392   1.692  16.103  0.3673  0.1353  0.2040
  472TMC3    C6 7078   1.300   1.703  15.999 -0.3818  0.7315  0.5085
  472TMC3     C 7079   1.532   2.031  16.134  0.0720  0.2449  1.3449
  472TMC3     O 7080   1.511   2.139  16.086  0.1973 -0.9062 -0.2108
  472TMC3     H 7081   1.387   2.017  15.917 -0.2328 -2.2459 -3.2561
  472TMC3    H1 7082   1.522   1.780  16.245 -0.5685 -1.0078 -0.1327
  472TMC3    H2 7083   1.269   1.612  15.948 -0.4789  1.4214 -0.6634
  472TMC3    C7 7084   1.361   1.579  16.193  0.2970 -0.2527 -0.1195
  472TMC3    C8 7085   1.214   1.831  15.820  0.2641 -0.4480  0.1068
  472TMC3    O1 7086   1.434   1.557  16.289 -0.3674  0.2024 -0.0799
  472TMC3    O2 7087   1.233   1.909  15.731 -0.0268  0.3293 -0.0327
  473MPD2     C 7088   1.499   3.938  13.954  0.2267  1.0468  0.0967
  473MPD2    C1 7089   1.399   4.029  13.976  0.6802 -0.1133 -0.0815
  473MPD2    C2 7090   1.409   4.123  14.085  0.2700 -0.4273  0.7810
  473MPD2    C3 7091   1.528   4.130  14.151 -0.4016  0.4867  0.4416
  473MPD2    C4 7092   1.629   4.041  14.123 -0.9456  0.2632  0.4514
  473MPD2    C5 7093   1.621   3.951  14.025 -0.1762  0.0170  0.7298
  473MPD2     H 7094   1.321   4.182  14.108 -0.4572 -0.9260 -0.7125
  473MPD2    H1 7095   1.715   4.023  14.187 -0.6659 -0.1796 -0.0501
  473MPD2    H2 7096   1.500   3.877  13.864  2.4252  2.4162 -0.7941
  473MPD2    H3 7097   1.694   3.874  14.002  0.9123  1.4301 -0.5129
  473MPD2     N 7098   1.556   4.222  14.253  1.0452 -0.5584  0.2329
  473MPD2    H5 7099   1.640   4.198  14.306  0.4840  0.0557  1.3933
  473MPD2    N1 7100   1.273   4.032  13.909  0.0820 -0.1016 -0.2128
  473MPD2    H7 7101   1.194   4.088  13.939  0.7297 -0.2237  1.6932
  474TMC3    C1 7102   1.547   4.423  14.374  0.0463 -0.1062 -0.0463
  474TMC3    C2 7103   1.468   4.510  14.435  0.7653  1.0083 -0.3023
  474TMC3    C3 7104   1.520   4.618  14.497 -0.0671 -0.3866  0.4324
  474TMC3    C4 7105   1.683   4.418  14.402  0.1272  0.9356  0.2419
  474TMC3    C5 7106   1.734   4.532  14.461  0.3177 -0.3245  0.1810
  474TMC3    C6 7107   1.658   4.636  14.507 -0.0541 -0.1614  0.2391
  474TMC3     C 7108   1.488   4.340  14.270 -0.8198 -0.5451 -0.1627
  474TMC3     O 7109   1.389   4.385  14.216  0.0299 -0.1054  0.4420
  474TMC3     H 7110   1.366   4.511  14.400  0.4818 -1.1574  0.4939
  474TMC3    H1 7111   1.742   4.342  14.351 -0.7517  1.4728 -1.5847
  474TMC3    H2 7112   1.712   4.725  14.539  0.2330 -0.1100 -0.3746
  474TMC3    C7 7113   1.877   4.563  14.447  0.2213  0.1881  0.4707
  474TMC3    C8 7114   1.432   4.728  14.487 -0.3717  0.0185  0.4796
  474TMC3    O1 7115   1.931   4.524  14.347  0.3245  0.5703 -0.6155
  474TMC3    O2 7116   1.309   4.704  14.498  0.2988 -0.3543 -0.5749
  475MPD2     C 7117   4.195   3.245  11.337 -0.0373 -0.1384  0.7295
  475MPD2    C1 7118   4.294   3.242  11.242  0.6967  0.1540 -0.2071
  475MPD2    C2 7119   4.260   3.199  11.115 -0.7192  0.9530 -0.2668
  475MPD2    C3 7120   4.127   3.186  11.079  0.0875  0.2666  0.2234
  475MPD2    C4 7121   4.024   3.190  11.175  0.0459 -0.1286  0.1004
  475MPD2    C5 7122   4.066   3.222  11.305  0.0079  0.7094 -0.3010
  475MPD2     H 7123   4.344   3.194  11.047 -0.1631 -0.6487  0.5432
  475MPD2    H1 7124   3.923   3.159  11.152 -0.3116  0.5765  0.6925
  475MPD2    H2 7125   4.217   3.267  11.441 -1.7790  0.1054  1.0474
  475MPD2    H3 7126   3.995   3.231  11.387  0.0172 -4.0716  0.2709
  475MPD2     N 7127   4.103   3.157  10.942 -0.0244  0.1003 -0.2963
  475MPD2    H5 7128   4.185   3.166  10.883  1.0018  0.8281  1.2376
  475MPD2    N1 7129   4.421   3.288  11.270 -0.6548 -0.4855  0.0721
  475MPD2    H7 7130   4.427   3.347  11.352 -0.0692 -1.8210  0.9735
  476TMC3    C1 7131   4.656   3.353  11.244 -0.1574 -0.5515 -0.6735
  476TMC3    C2 7132   0.016   3.377  11.160 -0.1327  0.5875 -0.2664
  476TMC3    C3 7133   0.091   3.489  11.172 -0.0419 -0.2806 -0.0426
  476TMC3    C4 7134   4.650   3.431  11.362 -0.5180 -0.4862  0.3750
  476TMC3    C5 7135   0.005   3.528  11.382  0.2762  0.8404 -0.1811
  476TMC3    C6 7136   0.093   3.569  11.288  0.6728  0.2707 -0.3367
  476TMC3     C 7137   4.545   3.272  11.198  0.1958 -0.2249 -0.1972
  476TMC3     O 7138   4.566   3.204  11.100  0.1026  0.6189 -0.0085
  476TMC3     H 7139   0.036   3.305  11.082  0.0593 -0.2898  0.5942
  476TMC3    H1 7140   4.569   3.412  11.432 -0.6958 -0.4280  0.1848
  476TMC3    H2 7141   0.169   3.644  11.306  1.1171 -0.1308 -0.5348
  476TMC3    C7 7142   4.717   3.617  11.492  0.4808  0.1247  0.3796
  476TMC3    C8 7143   0.160   3.541  11.055 -0.8102 -0.0898  0.6787
  476TMC3    O1 7144   4.630   3.579  11.575  0.2288 -0.1278 -0.0548
  476TMC3    O2 7145   0.183   3.663  11.053 -0.3379 -0.1168  0.1165
  477MPD2     C 7146   2.476   4.244  11.806  0.8093  0.0077  0.2437
  477MPD2    C1 7147   2.393   4.172  11.724 -0.1946 -0.0276  0.5015
  477MPD2    C2 7148   2.383   4.036  11.745 -0.1492  0.1554 -0.5881
  477MPD2    C3 7149   2.444   3.975  11.860  0.8386 -0.1167 -0.7118
  477MPD2    C4 7150   2.529   4.049  11.940 -0.3421  0.0827  0.4929
  477MPD2    C5 7151   2.537   4.188  11.919 -0.2221  0.5855 -0.8534
  477MPD2     H 7152   2.322   3.969  11.684 -2.2540  0.1970  1.4601
  477MPD2    H1 7153   2.575   4.001  12.025  0.4542 -0.5731 -0.3107
  477MPD2    H2 7154   2.498   4.348  11.789  0.2057 -0.0103 -0.6195
  477MPD2    H3 7155   2.610   4.240  11.981  0.1175 -0.1902 -0.6095
  477MPD2     N 7156   2.417   3.835  11.888  0.0339  0.3415 -0.7730
  477MPD2    H5 7157   2.363   3.787  11.817 -1.2152  0.3963  0.1410
  477MPD2    N1 7158   2.328   4.242  11.624  0.0235 -0.2455 -0.4198
  477MPD2    H7 7159   2.334   4.343  11.618 -0.3716 -0.1844  0.2718
  478TMC3    C1 7160   2.223   4.287  11.412  0.2114 -0.6623 -0.2616
  478TMC3    C2 7161   2.233   4.422  11.428 -0.5431  0.0233  0.4941
  478TMC3    C3 7162   2.177   4.498  11.329 -0.4942  0.1497 -0.7719
  478TMC3    C4 7163   2.176   4.237  11.294 -0.1550 -0.4406  0.2224
  478TMC3    C5 7164   2.148   4.322  11.188 -0.1049  0.4923  0.0968
  478TMC3    C6 7165   2.136   4.455  11.206  0.0093  0.7785 -0.4238
  478TMC3     C 7166   2.264   4.188  11.517 -0.3774  0.5031  0.3103
  478TMC3     O 7167   2.230   4.069  11.501 -0.7394 -0.3520  0.5538
  478TMC3     H 7168   2.243   4.468  11.526 -0.6441  0.6642  0.1967
  478TMC3    H1 7169   2.187   4.131  11.277 -0.4757 -0.0768 -2.2084
  478TMC3    H2 7170   2.116   4.526  11.127 -2.6475 -0.0940 -0.5229
  478TMC3    C7 7171   2.097   4.246  11.072  0.1823 -0.0743  0.2889
  478TMC3    C8 7172   2.191   4.641  11.339 -0.0159  0.2717  0.1878
  478TMC3    O1 7173   2.070   4.129  11.094 -0.0585  0.0403  0.6652
  478TMC3    O2 7174   2.287   4.681  11.404  0.3978  0.2878 -0.0082
  479MPD2     C 7175   1.212   1.367  14.890  0.6328 -0.5962 -0.2362
  479MPD2    C1 7176   1.145   1.292  14.983 -0.2715 -0.0312 -0.2397
  479MPD2    C2 7177   1.198   1.291  15.109 -0.2513 -0.7562 -0.2480
  479MPD2    C3 7178   1.323   1.349  15.140 -0.1395 -0.3416 -0.0813
  479MPD2    C4 7179   1.396   1.407  15.036  0.4196 -0.2466  0.0414
  479MPD2    C5 7180   1.340   1.416  14.915 -0.0048 -0.5786 -0.4037
  479MPD2     H 7181   1.151   1.228  15.184  1.0884  0.8407  1.9337
  479MPD2    H1 7182   1.483   1.470  15.047  0.3551  0.2581 -2.2406
  479MPD2    H2 7183   1.171   1.378  14.790 -0.9539  1.3461  0.6354
  479MPD2    H3 7184   1.394   1.470  14.838 -1.5792  1.6617  0.0688
  479MPD2     N 7185   1.384   1.332  15.268 -0.3783  0.3757 -0.4615
  479MPD2    H5 7186   1.484   1.351  15.269 -0.2233 -0.5349  2.2640
  479MPD2    N1 7187   1.018   1.236  14.953  0.4781  0.2842  0.6266
  479MPD2    H7 7188   1.003   1.241  14.853 -0.0117  0.7074  0.7237
  480TMC3    C1 7189   0.968   1.318  15.509 -0.4673 -0.3902 -0.1879
  480TMC3    C2 7190   0.924   1.431  15.450 -0.2003 -0.4562  0.3364
  480TMC3    C3 7191   1.012   1.510  15.373  0.2157  0.2740  0.0769
  480TMC3    C4 7192   1.103   1.284  15.489 -0.7434 -0.3318  0.1403
  480TMC3    C5 7193   1.188   1.360  15.411  0.5399 -0.3506 -0.3450
  480TMC3    C6 7194   1.142   1.472  15.354  0.2743 -0.1584 -0.0408
  480TMC3     C 7195   0.900   1.250  15.608  0.0672 -0.3232  0.0092
  480TMC3     O 7196   0.959   1.203  15.704 -0.5943 -0.5890 -0.2524
  480TMC3     H 7197   0.823   1.463  15.473  0.4730  0.3397  2.2073
  480TMC3    H1 7198   1.143   1.210  15.557  1.2911 -0.3331 -1.0568
  480TMC3    H2 7199   1.205   1.547  15.310  1.9176 -0.1435  2.3457
  480TMC3    C7 7200   1.327   1.309  15.394 -0.4369  0.0033  0.0599
  480TMC3    C8 7201   0.932   1.556  15.255  0.1588 -0.4439  0.7208
  480TMC3    O1 7202   1.387   1.279  15.499 -0.2436 -0.2682 -0.3157
  480TMC3    O2 7203   0.811   1.574  15.264 -0.0177 -0.0612 -0.7805
  481MPD2     C 7204   2.969   1.316  14.120  0.1454  0.1699 -0.3351
  481MPD2    C1 7205   2.892   1.207  14.133 -0.2758  0.1450  0.2922
  481MPD2    C2 7206   2.929   1.120  14.233 -0.2198  0.4154 -0.1672
  481MPD2    C3 7207   3.049   1.117  14.304  0.4894  0.4404  0.1893
  481MPD2    C4 7208   3.124   1.231  14.291 -0.6004  0.0556  0.0967
  481MPD2    C5 7209   3.083   1.333  14.203  0.3961 -0.3090  0.9331
  481MPD2     H 7210   2.866   1.034  14.255  1.2049 -0.2572  1.3361
  481MPD2    H1 7211   3.218   1.238  14.346 -0.1224 -0.0499 -0.7108
  481MPD2    H2 7212   2.945   1.393  14.048 -0.9628  0.7769  0.6797
  481MPD2    H3 7213   3.151   1.418  14.192 -1.0555  0.7975  0.5192
  481MPD2     N 7214   3.081   1.020  14.402 -0.3902  0.7769 -0.3284
  481MPD2    H5 7215   3.153   1.047  14.468  0.4048 -0.8693 -0.5243
  481MPD2    N1 7216   2.775   1.197  14.050  1.2492 -0.1840 -0.1144
  481MPD2    H7 7217   2.756   1.272  13.984 -0.7131 -0.2486  0.3890
  482TMC3    C1 7218   2.555   1.121  13.999 -0.5573 -0.8457  0.0995
  482TMC3    C2 7219   2.469   1.018  13.969  0.0449 -0.7115  0.4429
  482TMC3    C3 7220   2.347   1.055  13.931 -0.0398 -0.5478  0.1348
  482TMC3    C4 7221   2.527   1.257  13.969  0.0753  0.3447 -0.8422
  482TMC3    C5 7222   2.403   1.278  13.921 -0.6384  0.3891  0.0551
  482TMC3    C6 7223   2.313   1.182  13.906  0.8402  0.8044 -0.1189
  482TMC3     C 7224   2.682   1.096  14.061  0.1447  0.3377 -0.3396
  482TMC3     O 7225   2.691   0.990  14.124  0.1291  0.2928 -0.3547
  482TMC3     H 7226   2.488   0.914  13.992  0.0500 -1.4285 -2.8198
  482TMC3    H1 7227   2.590   1.339  14.003 -1.3438  0.8162  0.6640
  482TMC3    H2 7228   2.221   1.215  13.859  0.3866 -1.1544 -0.5811
  482TMC3    C7 7229   2.395   1.384  13.820 -0.8970  0.3397  0.0570
  482TMC3    C8 7230   2.265   0.953  13.873 -0.0899 -0.3552  0.1606
  482TMC3    O1 7231   2.306   1.374  13.740 -0.2298  1.0409  0.0579
  482TMC3    O2 7232   2.324   0.856  13.828 -0.1162 -0.1226 -0.4003
  483TMC3    C1 7233   0.345   0.010   0.427  0.0803  0.1578  1.0277
  483TMC3    C2 7234   0.463   0.077   0.407  0.3345  0.3041  0.4752
  483TMC3    C3 7235   0.571   0.059   0.486 -0.1409  0.3250 -0.6276
  483TMC3    C4 7236   0.336   4.668   0.537  0.1466  0.8396 -0.2120
  483TMC3    C5 7237   0.438   4.657   0.625 -1.1613  0.3756  0.5759
  483TMC3    C6 7238   0.558   4.719   0.599 -0.4434  0.4433  0.8497
  483TMC3     C 7239   0.231   0.026   0.336 -0.5901 -0.1176 -0.1645
  483TMC3     O 7240   0.241   0.108   0.246  0.2868 -0.2920  0.2085
  483TMC3     H 7241   0.454   0.145   0.323  2.2561 -0.8180 -0.6339
  483TMC3    H1 7242   0.242   4.626   0.569  0.7749 -0.9896 -0.6954
  483TMC3    H2 7243   0.653   4.703   0.649 -0.8635 -2.1997  0.8319
  483TMC3    C7 7244   0.426   4.562   0.736 -0.3906  0.4942  0.0543
  483TMC3    C8 7245   0.673   0.157   0.471 -0.2507  0.1168  0.4125
  483TMC3    O1 7246   0.322   4.496   0.737 -0.0770 -0.4158  0.1213
  483TMC3    O2 7247   0.697   0.196   0.360 -0.1815  0.1830 -0.3525
  484MPD2     C 7248   3.012   3.055  12.094 -0.9057  0.2408 -0.1541
  484MPD2    C1 7249   3.064   3.000  12.202 -0.0402 -0.4771  0.1417
  484MPD2    C2 7250   3.184   3.057  12.251 -0.2386  0.1644  0.4370
  484MPD2    C3 7251   3.250   3.163  12.190 -0.3576 -0.5426  0.0790
  484MPD2    C4 7252   3.200   3.215  12.077  0.0821  0.2534  0.4769
  484MPD2    C5 7253   3.073   3.167  12.041 -0.3505  0.1961  0.3179
  484MPD2     H 7254   3.225   3.019  12.344 -1.7716 -2.2014  0.1559
  484MPD2    H1 7255   3.236   3.305  12.029 -1.3658  0.4955 -0.1630
  484MPD2    H2 7256   2.913   3.032  12.056 -1.0297 -1.7076  1.3337
  484MPD2    H3 7257   3.022   3.220  11.962  2.7290  1.7111 -0.6813
  484MPD2     N 7258   3.353   3.220  12.255  0.0624 -0.5667 -1.1385
  484MPD2    H5 7259   3.381   3.165  12.336 -0.8626  1.2174  0.4127
  484MPD2    N1 7260   2.983   2.899  12.256 -0.2645  0.3627  0.1961
  484MPD2    H7 7261   2.891   2.877  12.219  1.3473 -0.7727 -3.0912
  485TMC3    C1 7262   3.526   3.377  12.310  0.0301 -0.1280  0.7139
  485TMC3    C2 7263   3.568   3.286  12.407  0.1185  0.1985 -0.4761
  485TMC3    C3 7264   3.644   3.336  12.507 -1.0518  0.0412  0.1889
  485TMC3    C4 7265   3.573   3.504  12.300 -0.4334 -0.5479 -0.6468
  485TMC3    C5 7266   3.656   3.550  12.400  0.4150 -0.0040  0.4650
  485TMC3    C6 7267   3.671   3.471  12.515 -0.1670 -0.5286 -0.1985
  485TMC3     C 7268   3.422   3.334  12.218  0.1927 -0.5532  0.3455
  485TMC3     O 7269   3.389   3.418  12.138 -0.3452  0.2044 -0.0005
  485TMC3     H 7270   3.532   3.185  12.393  0.3722  0.3088 -1.9200
  485TMC3    H1 7271   3.540   3.567  12.218  0.7671  1.2275  0.2478
  485TMC3    H2 7272   3.730   3.509  12.598  2.9720 -0.8031 -2.2921
  485TMC3    C7 7273   3.780   3.622  12.371  0.1472  0.0608  0.1802
  485TMC3    C8 7274   3.750   3.252  12.557  0.0777  0.3836 -0.2508
  485TMC3    O1 7275   3.860   3.641  12.464  0.0307  0.3021 -0.4194
  485TMC3    O2 7276   3.842   3.318  12.608 -0.0422  0.3366 -0.5745
  486MPD2     C 7277   0.596   1.609  12.986 -0.2926  1.0137 -0.6715
  486MPD2    C1 7278   0.490   1.607  12.901  0.0975  0.4924  0.2289
  486MPD2    C2 7279   0.453   1.723  12.832 -0.1207 -0.1171 -0.1976
  486MPD2    C3 7280   0.519   1.841  12.866  0.2854 -0.9621 -0.3681
  486MPD2    C4 7281   0.620   1.842  12.956  0.7071 -0.0742 -0.1592
  486MPD2    C5 7282   0.653   1.724  13.021 -0.7152 -0.5522 -0.3598
  486MPD2     H 7283   0.374   1.728  12.758 -1.4997 -0.8985  1.2346
  486MPD2    H1 7284   0.666   1.933  12.993 -1.7606  0.4414  1.6377
  486MPD2    H2 7285   0.634   1.519  13.033 -0.0653  1.8178  0.7006
  486MPD2    H3 7286   0.726   1.727  13.101 -0.8121 -0.3374 -0.2801
  486MPD2     N 7287   0.467   1.962  12.832  0.3293  0.5159  0.1833
  486MPD2    H5 7288   0.417   1.959  12.744  0.1587 -3.2078  0.4327
  486MPD2    N1 7289   0.445   1.478  12.868 -0.0605 -0.1435  0.1160
  486MPD2    H7 7290   0.495   1.397  12.903  0.9783  0.3871 -0.1575
  487TMC3    C1 7291   0.297   1.306  12.789  0.3431  0.1037  0.3075
  487TMC3    C2 7292   0.200   1.261  12.702 -0.6661  0.6067  0.2878
  487TMC3    C3 7293   0.162   1.126  12.709  0.0166 -0.0333 -0.4424
  487TMC3    C4 7294   0.352   1.215  12.880  0.4040  0.3208 -0.2227
  487TMC3    C5 7295   0.299   1.089  12.891  0.6275 -0.0035  0.2419
  487TMC3    C6 7296   0.205   1.046  12.803  0.0092 -0.0452 -0.0496
  487TMC3     C 7297   0.325   1.451  12.807  0.4284 -0.5315 -0.3673
  487TMC3     O 7298   0.242   1.526  12.759  0.2304 -0.5001  0.4741
  487TMC3     H 7299   0.141   1.333  12.646 -1.9492 -0.5359  0.1742
  487TMC3    H1 7300   0.424   1.247  12.954  1.1159 -1.0753 -0.2926
  487TMC3    H2 7301   0.143   0.957  12.802 -2.4832  1.6466  3.7192
  487TMC3    C7 7302   0.297   1.036  13.027 -0.4952 -0.7147  0.9869
  487TMC3    C8 7303   0.025   1.100  12.693  0.3917 -0.2414 -0.7906
  487TMC3    O1 7304   0.385   1.077  13.104  0.5166  0.2827  0.0430
  487TMC3    O2 7305   4.735   1.010  12.614 -0.5631  0.3298 -0.5219
  488MPD2     C 7306   0.788   3.402  16.468 -0.1920 -0.9498 -0.0225
  488MPD2    C1 7307   0.813   3.536  16.490  0.4879  1.1219  0.7487
  488MPD2    C2 7308   0.759   3.601  16.602  0.1891  0.0705  0.4170
  488MPD2    C3 7309   0.674   3.533  16.691 -0.1857  0.7404  0.4510
  488MPD2    C4 7310   0.660   3.397  16.671  0.1491 -0.2101 -0.3554
  488MPD2    C5 7311   0.720   3.334  16.566 -0.5592 -0.5573  0.4228
  488MPD2     H 7312   0.776   3.704  16.629 -0.1743  0.4673 -0.8655
  488MPD2    H1 7313   0.595   3.337  16.733  1.6096 -1.2871  0.1359
  488MPD2    H2 7314   0.821   3.346  16.382  2.7793  1.6233 -0.5521
  488MPD2    H3 7315   0.701   3.229  16.548  0.7950 -0.6890 -0.2448
  488MPD2     N 7316   0.630   3.608  16.811 -0.3917  0.2958  0.0959
  488MPD2    H5 7317   0.654   3.707  16.810  1.5224 -0.1754 -0.2185
  488MPD2    N1 7318   0.878   3.617  16.394  0.3835  0.2188 -0.3640
  488MPD2    H7 7319   0.895   3.712  16.427 -2.6084  0.2034  1.2789
  489TMC3    C1 7320   0.535   3.648  17.021  0.2663  0.3194 -0.0478
  489TMC3    C2 7321   0.633   3.744  17.028 -0.1545  0.3748  0.2591
  489TMC3    C3 7322   0.595   3.867  17.080  1.1304  0.4608 -0.1960
  489TMC3    C4 7323   0.400   3.673  17.046  0.7062 -0.0009 -0.9012
  489TMC3    C5 7324   0.368   3.802  17.080 -0.4207  0.7135  0.2843
  489TMC3    C6 7325   0.464   3.901  17.102  0.1547  0.9896 -0.1534
  489TMC3     C 7326   0.553   3.553  16.910 -0.0038 -0.4001  0.1671
  489TMC3     O 7327   0.497   3.444  16.906  0.0933  0.2031  0.0394
  489TMC3     H 7328   0.735   3.714  17.011 -0.6468 -1.5245  0.7018
  489TMC3    H1 7329   0.328   3.602  17.009  3.4621 -2.3534 -1.7360
  489TMC3    H2 7330   0.447   4.004  17.130  1.3035  1.3891 -0.9328
  489TMC3    C7 7331   0.225   3.834  17.071 -0.1071  0.3251  0.3998
  489TMC3    C8 7332   0.685   3.978  17.035 -0.5206  0.3364 -0.0011
  489TMC3    O1 7333   0.158   3.767  16.991  0.0752  0.5444  0.6013
  489TMC3    O2 7334   0.726   3.952  16.923  0.6807 -0.0521  0.0276
  490MPD2     C 7335   1.230   2.955  17.682 -0.7311 -0.2827  0.2128
  490MPD2    C1 7336   1.300   2.862  17.604  0.4508  0.0708 -0.2822
  490MPD2    C2 7337   1.416   2.902  17.544 -0.8652  0.7071 -0.2041
  490MPD2    C3 7338   1.467   3.024  17.571  0.6429 -0.8171  0.2332
  490MPD2    C4 7339   1.401   3.114  17.645  0.3677 -0.4704  0.0326
  490MPD2    C5 7340   1.277   3.079  17.700  0.5564  0.2257  0.2939
  490MPD2     H 7341   1.470   2.831  17.483 -0.6393  2.9086 -2.5797
  490MPD2    H1 7342   1.447   3.211  17.662 -0.0375 -0.3463  0.4258
  490MPD2    H2 7343   1.136   2.932  17.732  0.0216 -2.1797  0.7126
  490MPD2    H3 7344   1.226   3.138   0.027 -0.8062 -0.4851 -0.0596
  490MPD2     N 7345   1.589   3.065  17.512  0.3268 -1.0800  0.1847
  490MPD2    H5 7346   1.615   3.162  17.532  0.1929 -1.2036  0.9384
  490MPD2    N1 7347   1.259   2.729  17.585  0.3481  0.0079  0.7821
  490MPD2    H7 7348   1.311   2.674  17.517  2.4466  2.2743  0.5796
  491TMC3    C1 7349   1.151   2.522  17.622 -0.3579 -0.2740 -0.3637
  491TMC3    C2 7350   1.111   2.448  17.725  0.4737  0.3532  0.6412
  491TMC3    C3 7351   1.070   2.319  17.700  0.4354  0.9151  0.9648
  491TMC3    C4 7352   1.143   2.490  17.491  0.2310 -0.6382 -0.6879
  491TMC3    C5 7353   1.090   2.359  17.470 -0.8214 -0.7614 -0.1717
  491TMC3    C6 7354   1.059   2.273  17.575 -0.0271 -0.4302 -0.2519
  491TMC3     C 7355   1.164   2.661  17.662 -0.3105  0.1910 -0.3321
  491TMC3     O 7356   1.101   2.707   0.007 -0.2099  0.4958 -0.0959
  491TMC3     H 7357   1.097   2.493   0.074  1.0151  2.1338 -0.0932
  491TMC3    H1 7358   1.181   2.555  17.413  1.0741 -0.7732 -0.3830
  491TMC3    H2 7359   1.021   2.175  17.552  1.0164 -0.8095 -0.3422
  491TMC3    C7 7360   1.023   2.327  17.340 -0.3992  0.1911 -0.5746
  491TMC3    C8 7361   0.978   2.263   0.052 -0.2358  0.0768  0.3652
  491TMC3    O1 7362   0.958   2.224  17.339  0.7500  0.0245  0.0926
  491TMC3    O2 7363   0.929   2.341   0.127  0.0322 -0.5803 -0.0222
  492MPD2     C 7364   1.859   2.546  11.363  0.5984  0.6552  0.2393
  492MPD2    C1 7365   1.733   2.576  11.314  0.2147  0.4006 -0.2119
  492MPD2    C2 7366   1.625   2.529  11.374 -0.6082 -0.2340  0.3284
  492MPD2    C3 7367   1.636   2.449  11.495  0.5634  0.0697 -0.9379
  492MPD2    C4 7368   1.759   2.430  11.545  0.5070  0.0598 -0.1066
  492MPD2    C5 7369   1.873   2.474  11.483 -0.7501  0.4769 -0.0524
  492MPD2     H 7370   1.527   2.567  11.347 -0.4518  0.6340  1.0026
  492MPD2    H1 7371   1.777   2.375  11.637  0.5208  0.1680 -0.0436
  492MPD2    H2 7372   1.945   2.586  11.312  1.1724 -2.1891 -1.0039
  492MPD2    H3 7373   1.972   2.454  11.523 -0.5960  1.1220 -0.1059
  492MPD2     N 7374   1.534   2.389  11.564  0.2250 -0.4247 -0.0041
  492MPD2    H5 7375   1.549   2.350  11.657 -1.6300  1.5685  1.1324
  492MPD2    N1 7376   1.721   2.677  11.214 -0.6467 -0.3468  0.0532
  492MPD2    H7 7377   1.804   2.718  11.173 -0.5258 -1.5046 -0.8463
  493TMC3    C1 7378   1.630   2.838  11.072  0.2401 -0.5063 -0.0542
  493TMC3    C2 7379   1.756   2.892  11.058  0.0712  0.0942 -0.4548
  493TMC3    C3 7380   1.759   2.999  10.973  0.0905  0.6857 -0.2966
  493TMC3    C4 7381   1.519   2.875  11.002 -0.9272 -0.3039  0.0473
  493TMC3    C5 7382   1.532   2.986  10.919  0.0505  0.4086 -0.4380
  493TMC3    C6 7383   1.653   3.051  10.905  0.2584 -0.1984 -0.3498
  493TMC3     C 7384   1.606   2.726  11.160 -0.2273 -0.1041  0.3095
  493TMC3     O 7385   1.494   2.679  11.166  0.0855 -0.1503  0.2610
  493TMC3     H 7386   1.845   2.861  11.111  0.8871  1.7601 -0.8564
  493TMC3    H1 7387   1.428   2.818  10.996 -1.3069  0.2785  0.2828
  493TMC3    H2 7388   1.670   3.152  10.867 -0.9878 -0.5306 -1.8114
  493TMC3    C7 7389   1.429   3.017  10.819  0.3648 -0.4146  0.1204
  493TMC3    C8 7390   1.869   3.085  10.999 -0.3649 -0.0190 -0.2716
  493TMC3    O1 7391   1.335   2.936  10.814 -0.5230  0.5662  0.3179
  493TMC3    O2 7392   1.906   3.078  11.115  0.5011  0.1077  0.5339
  494TMC3    C1 7393   1.969   4.372   0.506  0.3145  0.1021 -0.0460
  494TMC3    C2 7394   1.975   4.254   0.584  0.2703 -0.3757 -0.7512
  494TMC3    C3 7395   2.019   4.144   0.526 -0.2904 -0.3590  0.4394
  494TMC3    C4 7396   2.008   4.373   0.372  0.4022 -0.6912  0.7221
  494TMC3    C5 7397   2.044   4.252   0.315  0.2601  0.1802  0.3784
  494TMC3    C6 7398   2.057   4.144   0.395  0.5628 -0.3625 -0.7351
  494TMC3     C 7399   1.907   4.475   0.580 -0.3859 -0.6457  0.2686
  494TMC3     O 7400   1.928   4.482   0.697  0.3739 -0.4812 -0.3260
  494TMC3     H 7401   1.953   4.254   0.690 -1.3373  1.2034 -1.0742
  494TMC3    H1 7402   2.008   4.469   0.321 -1.7145  0.2767  2.5476
  494TMC3    H2 7403   2.070   4.049   0.344  0.2432 -0.3396 -0.8571
  494TMC3    C7 7404   2.079   4.247   0.178 -0.3328 -0.7783 -0.4426
  494TMC3    C8 7405   1.981   4.009   0.572 -0.1043  0.3563  0.1727
  494TMC3    O1 7406   2.151   4.158   0.135 -0.8124  0.7890  0.9391
  494TMC3    O2 7407   2.023   3.908   0.516  0.0768  0.1287  0.1418
  495TMC3    C1 7408   1.431   1.735  14.427 -0.2474  0.1719 -0.8942
  495TMC3    C2 7409   1.333   1.759  14.335 -0.1796  0.0600 -0.3746
  495TMC3    C3 7410   1.222   1.824  14.383 -0.0696  0.4951 -0.2316
  495TMC3    C4 7411   1.424   1.775  14.560 -0.2904  0.2331  0.1084
  495TMC3    C5 7412   1.312   1.840  14.603 -0.1416  0.0574  0.4117
  495TMC3    C6 7413   1.216   1.876  14.511  0.2544  0.2628  0.0155
  495TMC3     C 7414   1.512   1.626  14.407  0.6021 -0.0024  0.0474
  495TMC3     O 7415   1.628   1.629  14.443  0.6707 -0.0209  0.6392
  495TMC3     H 7416   1.347   1.719  14.235  0.3790 -2.2292  0.6339
  495TMC3    H1 7417   1.494   1.745  14.638  0.8025 -2.1745 -1.8035
  495TMC3    H2 7418   1.137   1.945  14.539  0.6736  0.5038  0.5958
  495TMC3    C7 7419   1.263   1.796  14.724 -0.2143  0.0877  0.7691
  495TMC3    C8 7420   1.093   1.801  14.328  0.5669  0.0631  0.5607
  495TMC3    O1 7421   1.334   1.782  14.821 -0.2824 -0.3525 -0.6065
  495TMC3    O2 7422   1.004   1.768  14.410 -0.4203 -0.5572 -0.0505
  496MPD2     C 7423   2.844   1.592  15.470 -0.2184 -0.5875 -0.8442
  496MPD2    C1 7424   2.729   1.514  15.453  0.3581  0.0113 -0.1269
  496MPD2    C2 7425   2.662   1.461  15.560 -0.5961  0.2521  0.7075
  496MPD2    C3 7426   2.703   1.489  15.688  0.0227  0.2194 -1.0013
  496MPD2    C4 7427   2.817   1.565  15.711  0.0019  0.0783  0.0053
  496MPD2    C5 7428   2.887   1.612  15.600 -0.4423 -0.1478  0.2366
  496MPD2     H 7429   2.579   1.393  15.544 -1.0424  0.5807  1.5871
  496MPD2    H1 7430   2.853   1.599  15.808  0.6486 -0.1312 -0.1688
  496MPD2    H2 7431   2.898   1.635  15.387  3.1334 -0.6857  1.2618
  496MPD2    H3 7432   2.973   1.679  15.602  0.1074 -0.8033 -2.3507
  496MPD2     N 7433   2.614   1.445  15.792  0.3582  0.2558  0.0450
  496MPD2    H5 7434   2.520   1.417  15.766  0.4139 -0.0238  0.1410
  496MPD2    N1 7435   2.682   1.470  15.324 -0.4434  0.0085  0.1101
  496MPD2    H7 7436   2.612   1.396  15.319  0.3301 -0.6562 -0.9761
  497TMC3    C1 7437   2.531   1.393  16.003 -0.3942 -1.2677  0.5691
  497TMC3    C2 7438   2.411   1.419  15.943  0.3947 -0.0734  0.4720
  497TMC3    C3 7439   2.304   1.349  15.993  0.1271 -0.0381  0.4204
  497TMC3    C4 7440   2.549   1.303  16.099  0.3603  0.6047  0.0096
  497TMC3    C5 7441   2.440   1.236  16.142 -0.5366  0.6428 -0.6920
  497TMC3    C6 7442   2.315   1.255  16.091  0.2015  0.1508  0.3412
  497TMC3     C 7443   2.651   1.437  15.924  0.1633 -0.2134 -0.3324
  497TMC3     O 7444   2.756   1.452  15.980  0.1020  0.1931 -0.4338
  497TMC3     H 7445   2.397   1.496  15.868  1.4798 -1.6524 -1.3699
  497TMC3    H1 7446   2.648   1.283  16.139  0.5450  4.7591  1.6618
  497TMC3    H2 7447   2.229   1.213  16.142  0.4102  0.3162  0.8336
  497TMC3    C7 7448   2.457   1.115  16.217 -0.1848  0.1106  0.0023
  497TMC3    C8 7449   2.169   1.360  15.945  0.1561  0.1398 -0.2732
  497TMC3    O1 7450   2.387   1.025  16.191 -0.1585 -0.2582  0.1541
  497TMC3    O2 7451   2.092   1.272  15.978  0.8977  0.2217  0.1111
  498MPD2     C 7452   3.933   3.153   9.593  0.3394  0.3004  0.1054
  498MPD2    C1 7453   4.009   3.145   9.706 -1.0026 -0.2255 -0.5623
  498MPD2    C2 7454   3.965   3.059   9.801  0.0799 -0.9770  0.2728
  498MPD2    C3 7455   3.855   2.980   9.790  0.6839  0.0763 -0.1457
  498MPD2    C4 7456   3.785   2.984   9.667 -0.1506 -0.0614  0.6979
  498MPD2    C5 7457   3.829   3.063   9.570  0.2404 -0.3858  0.7145
  498MPD2     H 7458   4.028   3.039   9.887  0.0758  1.2229  0.7865
  498MPD2    H1 7459   3.698   2.921   9.651 -0.0722  0.0208 -0.0376
  498MPD2    H2 7460   3.960   3.212   9.506 -1.2285 -1.0042 -1.2404
  498MPD2    H3 7461   3.774   3.064   9.476  1.3622 -0.2343  0.0493
  498MPD2     N 7462   3.826   2.889   9.899  0.5371  0.9486 -0.0146
  498MPD2    H5 7463   3.890   2.886   9.977  1.3201  0.9929 -0.6566
  498MPD2    N1 7464   4.132   3.206   9.728  0.0051 -0.0352 -0.2421
  498MPD2    H7 7465   4.170   3.184   9.820  1.2397 -2.1256 -1.2472
  499TMC3    C1 7466   4.313   3.356   9.698  0.0837 -0.0154  0.2625
  499TMC3    C2 7467   4.398   3.284   9.764  0.1150 -0.4032 -0.0262
  499TMC3    C3 7468   4.514   3.338   9.805 -0.0734 -0.8284 -1.0670
  499TMC3    C4 7469   4.337   3.481   9.655 -0.7303 -0.6448  0.3695
  499TMC3    C5 7470   4.455   3.540   9.706  0.4507 -0.6819  0.0402
  499TMC3    C6 7471   4.543   3.466   9.782 -0.2022  0.0779  0.2704
  499TMC3     C 7472   4.192   3.297   9.645 -0.2573  0.3857  0.3432
  499TMC3     O 7473   4.152   3.350   9.540 -0.0444 -0.2954  0.4792
  499TMC3     H 7474   4.386   3.179   9.789  0.2472 -0.7225 -1.3243
  499TMC3    H1 7475   4.255   3.533   9.606  0.7129  1.5749  0.3306
  499TMC3    H2 7476   4.634   3.509   9.822  1.1893 -1.6632 -1.0648
  499TMC3    C7 7477   4.474   3.674   9.704 -0.3796  0.0597 -0.1587
  499TMC3    C8 7478   4.618   3.248   9.856  0.3739 -0.6818 -0.4994
  499TMC3    O1 7479   4.588   3.718   9.713  0.0349 -0.5491  0.4725
  499TMC3    O2 7480   4.614   3.133   9.819 -0.3496  0.4980  0.0001
  500MPD2     C 7481   0.867   3.959  11.053  0.1436  0.0960 -0.1718
  500MPD2    C1 7482   0.924   3.921  10.936 -0.1952 -0.4185 -0.1579
  500MPD2    C2 7483   0.841   3.918  10.821  0.9286  0.8347  0.1464
  500MPD2    C3 7484   0.709   3.948  10.841  0.0180  0.1436 -0.1561
  500MPD2    C4 7485   0.657   3.991  10.958 -0.4140  0.5854  1.0324
  500MPD2    C5 7486   0.743   4.000  11.064 -0.2502  0.5139 -0.5766
  500MPD2     H 7487   0.879   3.875  10.730  1.5910  0.8832  0.3999
  500MPD2    H1 7488   0.551   4.006  10.972 -0.7739 -1.6812  0.7335
  500MPD2    H2 7489   0.922   3.947  11.146 -0.7188 -0.9238  0.1933
  500MPD2    H3 7490   0.714   4.038  11.162 -0.4934  1.1564 -0.9005
  500MPD2     N 7491   0.618   3.946  10.731  0.7774 -0.0834  0.9013
  500MPD2    H5 7492   0.521   3.950  10.760 -0.1868 -0.6466 -2.2033
  500MPD2    N1 7493   1.060   3.885  10.927  0.1055 -0.3003  0.9154
  500MPD2    H7 7494   1.081   3.855  10.832 -1.9714  2.8879 -0.5547
  501TMC3    C1 7495   1.295   3.854  10.988 -0.3409 -0.2302  0.3990
  501TMC3    C2 7496   1.334   3.886  10.858  0.4894  0.2754 -1.0210
  501TMC3    C3 7497   1.463   3.856  10.824 -0.1099  0.8396  0.2562
  501TMC3    C4 7498   1.382   3.823  11.087  0.6148 -0.6737  0.2708
  501TMC3    C5 7499   1.513   3.804  11.049 -0.4590 -0.7537  0.5678
  501TMC3    C6 7500   1.555   3.814  10.918  0.2336  0.2933 -0.1828
  501TMC3     C 7501   1.157   3.880  11.029 -0.4366  0.8248 -0.5002
  501TMC3     O 7502   1.142   3.916  11.147 -0.8218 -0.0971  0.7555
  501TMC3     H 7503   1.273   3.952  10.796  0.2331  0.7360 -0.2806
  501TMC3    H1 7504   1.344   3.808  11.188  1.5353  1.3457  0.9183
  501TMC3    H2 7505   1.659   3.792  10.899 -0.2556 -0.8299 -1.5209
  501TMC3    C7 7506   1.607   3.767  11.155  0.7289  0.5579  0.3184
  501TMC3    C8 7507   1.510   3.907  10.698  0.2487 -0.3607 -0.0380
  501TMC3    O1 7508   1.711   3.715  11.109  0.3220  0.4846 -0.0838
  501TMC3    O2 7509   1.631   3.907  10.676 -0.0705 -0.8739  0.2936
  502TMC3    C1 7510   0.818   2.424  14.816 -0.9154 -0.0415  0.5332
  502TMC3    C2 7511   0.861   2.521  14.730  0.5526  0.2979 -0.1545
  502TMC3    C3 7512   0.766   2.618  14.705 -0.7616 -0.0596  0.1348
  502TMC3    C4 7513   0.684   2.403  14.848  0.4754 -0.3481 -0.3941
  502TMC3    C5 7514   0.597   2.496  14.811  0.1505 -0.3910  0.4316
  502TMC3    C6 7515   0.640   2.602  14.744  0.3749 -0.7528  0.4680
  502TMC3     C 7516   0.926   2.371  14.898 -0.2282 -0.2399 -0.3770
  502TMC3     O 7517   1.042   2.392  14.864 -0.0970 -0.0245 -0.4892
  502TMC3     H 7518   0.964   2.531  14.698  0.6153  0.4227  0.0803
  502TMC3    H1 7519   0.657   2.308  14.893 -0.6456 -0.8650 -2.1389
  502TMC3    H2 7520   0.567   2.680  14.725  0.9007 -0.5650 -0.7536
  502TMC3    C7 7521   0.467   2.492  14.873  0.5463  0.4729  0.5372
  502TMC3    C8 7522   0.817   2.745  14.684 -0.2013 -0.3587 -0.2114
  502TMC3    O1 7523   0.419   2.600  14.906 -0.2214 -0.4046 -0.4408
  502TMC3    O2 7524   0.758   2.828  14.618  0.1364 -0.0210 -0.0312
  503MPD2     C 7525   2.654   3.181  16.707  0.4869  0.1566 -0.6254
  503MPD2    C1 7526   2.691   3.183  16.836  0.5720  0.4241  0.0545
  503MPD2    C2 7527   2.707   3.062  16.907 -0.3603 -1.1306  0.0804
  503MPD2    C3 7528   2.713   2.945  16.835  0.4794  0.5370 -0.4049
  503MPD2    C4 7529   2.680   2.942  16.700 -0.0252 -0.0313  0.0348
  503MPD2    C5 7530   2.650   3.063  16.644 -0.3060 -0.1503 -0.5702
  503MPD2     H 7531   2.729   3.058  17.014 -1.1581 -0.9918  0.2490
  503MPD2    H1 7532   2.682   2.851  16.640  2.6848  0.0597 -0.0090
  503MPD2    H2 7533   2.635   3.271  16.650 -1.1974 -0.7764 -1.5284
  503MPD2    H3 7534   2.631   3.068  16.538 -1.5294  0.3031 -0.3401
  503MPD2     N 7535   2.753   2.824  16.904 -0.3609 -0.1356  0.3418
  503MPD2    H5 7536   2.763   2.820  17.004  1.3499  2.0861  0.2622
  503MPD2    N1 7537   2.684   3.307  16.906  0.3715 -0.0690 -0.5887
  503MPD2    H7 7538   2.669   3.303  17.006 -3.9281  1.2084 -1.1958
  504TMC3    C1 7539   2.840   2.607  16.936  0.0416  0.4468 -0.0071
  504TMC3    C2 7540   2.776   2.610  17.060  0.4034 -0.1214  0.0633
  504TMC3    C3 7541   2.849   2.583  17.171  0.2769 -0.8536  0.1287
  504TMC3    C4 7542   2.971   2.580  16.922 -0.2564  0.0674 -0.0197
  504TMC3    C5 7543   3.042   2.566  17.042 -0.3619 -0.0818 -0.6002
  504TMC3    C6 7544   2.982   2.573  17.161 -0.4576  0.3146  0.0148
  504TMC3     C 7545   2.799   2.714  16.839 -0.3934 -0.7124 -0.9323
  504TMC3     O 7546   2.844   2.690  16.727  0.1799  0.5730  0.1692
  504TMC3     H 7547   2.670   2.624  17.076  0.4788  0.6977 -0.1410
  504TMC3    H1 7548   3.033   2.582  16.833 -0.4214  0.2719 -0.1295
  504TMC3    H2 7549   3.037   2.540  17.248 -1.4139  0.8931  0.8528
  504TMC3    C7 7550   3.186   2.566  17.037 -0.5616  0.5246 -0.4853
  504TMC3    C8 7551   2.781   2.563  17.292 -0.0629 -0.5318 -0.0120
  504TMC3    O1 7552   3.241   2.550  16.933  0.1642 -0.1961 -0.3737
  504TMC3    O2 7553   2.661   2.530  17.286  0.0648  0.1796  0.1083
  505MPD2     C 7554   3.290   2.734  11.054 -0.1200 -0.3633 -0.0459
  505MPD2    C1 7555   3.354   2.611  11.073  0.2591  0.1884  0.6792
  505MPD2    C2 7556   3.487   2.613  11.110  0.1321  0.2201 -0.9377
  505MPD2    C3 7557   3.560   2.730  11.129  0.2328 -0.2950  0.3154
  505MPD2    C4 7558   3.492   2.852  11.112 -0.2281  0.3687  0.1221
  505MPD2    C5 7559   3.360   2.850  11.069 -0.4134  0.1205 -0.2287
  505MPD2     H 7560   3.539   2.517  11.109  0.1277  0.2184 -1.7666
  505MPD2    H1 7561   3.545   2.946  11.116  3.0736 -1.4216 -0.8834
  505MPD2    H2 7562   3.184   2.740  11.033 -0.0203 -0.8255 -0.6685
  505MPD2    H3 7563   3.303   2.941  11.054  1.2455  1.1315 -0.4142
  505MPD2     N 7564   3.697   2.714  11.168 -0.1581 -0.3684  0.8287
  505MPD2    H5 7565   3.723   2.619  11.194  0.1858 -0.6030 -0.3683
  505MPD2    N1 7566   3.268   2.499  11.054  0.1449 -0.5235  0.2430
  505MPD2    H7 7567   3.173   2.516  11.020 -0.2670 -0.8448  1.2305
  506TMC3    C1 7568   3.216   2.261  11.047 -0.1350  0.5290 -0.3186
  506TMC3    C2 7569   3.191   2.250  10.912  0.1665 -0.2113  0.3077
  506TMC3    C3 7570   3.201   2.126  10.854  0.7412  0.0273  0.1798
  506TMC3    C4 7571   3.239   2.150  11.121  0.1788  0.3298 -0.2270
  506TMC3    C5 7572   3.270   2.027  11.064  0.0705  0.5573 -0.4328
  506TMC3    C6 7573   3.235   2.013  10.933 -0.6374 -0.1307 -0.4588
  506TMC3     C 7574   3.313   2.369  11.073 -0.4192  0.0774  0.8854
  506TMC3     O 7575   3.421   2.322  11.108 -0.1488 -0.2478  0.1417
  506TMC3     H 7576   3.167   2.335  10.850  2.1439 -0.8990 -1.3983
  506TMC3    H1 7577   3.285   2.152  11.219 -0.0200  0.8232 -0.1416
  506TMC3    H2 7578   3.264   1.922  10.881  2.1841 -0.0613  1.0035
  506TMC3    C7 7579   3.394   1.967  11.092 -0.4174 -0.7089 -0.3984
  506TMC3    C8 7580   3.203   2.115  10.710  0.8706  0.2876 -0.1418
  506TMC3    O1 7581   3.403   1.846  11.076 -0.3038  0.0884 -0.3882
  506TMC3    O2 7582   3.169   2.006  10.658 -0.5211 -0.1264  0.2746
  507TMC3    C1 7583   3.819   2.414  15.536  0.9996 -0.2107 -0.2675
  507TMC3    C2 7584   3.752   2.314  15.467 -0.1923  0.1233  0.3304
  507TMC3    C3 7585   3.754   2.309  15.333  0.4698 -0.2681  0.0513
  507TMC3    C4 7586   3.887   2.513  15.464  0.0965  0.3762 -0.5954
  507TMC3    C5 7587   3.908   2.494  15.329 -0.8552 -0.3008 -0.0726
  507TMC3    C6 7588   3.839   2.391  15.266 -0.3509  0.3699 -0.2971
  507TMC3     C 7589   3.817   2.420  15.682  0.3503  0.3685  0.1037
  507TMC3     O 7590   3.873   2.517  15.734 -0.0766  0.2875  0.7301
  507TMC3     H 7591   3.663   2.269  15.509  0.6721 -0.6123  1.3734
  507TMC3    H1 7592   3.946   2.584  15.521 -2.0730  0.8948  1.0132
  507TMC3    H2 7593   3.855   2.372  15.160 -0.6784  3.2619 -0.8452
  507TMC3    C7 7594   3.893   2.609  15.246 -0.3814  0.4329  1.0482
  507TMC3    C8 7595   3.619   2.314  15.270 -0.4109 -0.3384  0.4789
  507TMC3    O1 7596   3.831   2.591  15.141 -0.2514  0.4839 -0.7163
  507TMC3    O2 7597   3.539   2.226  15.289 -0.1258  0.0076  0.0664
  508MPD2     C 7598   4.015   0.509  16.347 -0.8469  0.1649 -0.8797
  508MPD2    C1 7599   4.136   0.472  16.289 -0.0413 -0.2251  0.1633
  508MPD2    C2 7600   4.158   0.508  16.158  0.4606 -0.1570 -0.7035
  508MPD2    C3 7601   4.059   0.569  16.082 -0.3246 -0.0148 -0.1336
  508MPD2    C4 7602   3.931   0.598  16.140  0.2818 -0.0277 -0.1582
  508MPD2    C5 7603   3.914   0.567  16.274  0.3161  0.1204 -0.4833
  508MPD2     H 7604   4.252   0.496  16.105  0.9585 -2.7686  0.7409
  508MPD2    H1 7605   3.846   0.641  16.088  0.6160  1.4231  0.4937
  508MPD2    H2 7606   3.991   0.488  16.451  0.4994  0.3618 -0.5309
  508MPD2    H3 7607   3.820   0.592  16.323 -0.3176 -0.5339 -1.3497
  508MPD2     N 7608   4.090   0.604  15.950 -0.2945  0.3493 -0.4294
  508MPD2    H5 7609   4.185   0.579  15.922 -0.5308 -0.8038 -0.1920
  508MPD2    N1 7610   4.238   0.410  16.366 -0.4142  0.5403  0.0600
  508MPD2    H7 7611   4.216   0.412  16.465 -0.5762 -0.8973  0.0522
  509TMC3    C1 7612   4.099   0.919  15.604 -0.6573 -0.2707  0.2525
  509TMC3    C2 7613   4.233   0.914  15.600  1.1042  0.2362  0.0356
  509TMC3    C3 7614   4.302   0.844  15.699  0.0343 -0.0810  0.3678
  509TMC3    C4 7615   4.027   0.841  15.687 -0.0572  0.4283 -0.7123
  509TMC3    C5 7616   4.098   0.750  15.770  0.4027 -0.7099  0.4074
  509TMC3    C6 7617   4.233   0.760  15.787 -0.0586 -0.2642  0.3512
  509TMC3     C 7618   4.020   1.013  15.521  0.5036  0.2536 -0.3949
  509TMC3     O 7619   3.904   0.989  15.497  0.3577  0.3246  0.3339
  509TMC3     H 7620   4.287   0.974  15.527 -2.3698 -0.1281 -2.8389
  509TMC3    H1 7621   3.919   0.830  15.688  0.2636 -2.5730  0.5735
  509TMC3    H2 7622   4.292   0.710  15.863  1.9663  1.9904  0.2604
  509TMC3    C7 7623   4.016   0.689  15.871  0.1434  0.9368  0.0861
  509TMC3    C8 7624   4.435   0.881  15.733 -0.7931  0.2517 -0.6471
  509TMC3    O1 7625   3.905   0.740  15.882 -0.0503 -0.3886 -0.0856
  509TMC3    O2 7626   4.497   0.800  15.796 -0.0751  0.2021 -0.4558
  510MPD2     C 7627   2.474   2.113  14.303 -0.0256  0.2638  0.8226
  510MPD2    C1 7628   2.572   2.119  14.403 -0.6210 -1.2536 -0.0960
  510MPD2    C2 7629   2.703   2.156  14.377 -0.6986  0.7381 -0.0801
  510MPD2    C3 7630   2.743   2.181  14.244 -0.0196  0.2668 -0.4192
  510MPD2    C4 7631   2.651   2.139  14.146 -0.2771 -0.1235  0.3080
  510MPD2    C5 7632   2.518   2.115  14.176 -0.6917 -0.5653  0.0821
  510MPD2     H 7633   2.781   2.169  14.452 -0.6027  1.2057 -0.2634
  510MPD2    H1 7634   2.667   2.151  14.040  0.8057  1.4896  0.6458
  510MPD2    H2 7635   2.375   2.078  14.332 -0.8912  0.8019 -1.4559
  510MPD2    H3 7636   2.444   2.102  14.098 -1.5294 -2.0919  1.1362
  510MPD2     N 7637   2.880   2.219  14.220  0.6037 -0.3435  0.2642
  510MPD2    H5 7638   2.944   2.232  14.297  2.3040 -1.0176 -1.0369
  510MPD2    N1 7639   2.529   2.063  14.529  0.4387  0.0081  0.4716
  510MPD2    H7 7640   2.432   2.039  14.547  0.1718  0.2402 -0.6987
  511TMC3    C1 7641   2.529   1.954  14.732 -0.3378 -0.6859 -0.3841
  511TMC3    C2 7642   2.438   2.029  14.806 -0.6996 -0.4483 -0.6661
  511TMC3    C3 7643   2.352   1.956  14.887 -0.2878  0.1945  0.5956
  511TMC3    C4 7644   2.538   1.822  14.742  0.3490 -0.2295 -0.2824
  511TMC3    C5 7645   2.442   1.758  14.810 -0.1541  0.4507  0.3940
  511TMC3    C6 7646   2.350   1.819  14.890  0.2938  0.4089  0.3525
  511TMC3     C 7647   2.616   2.022  14.632 -0.9032  0.0411 -0.0516
  511TMC3     O 7648   2.737   1.997  14.644  0.4038 -0.5379 -0.1759
  511TMC3     H 7649   2.439   2.137  14.799  0.6867 -0.2574  2.6359
  511TMC3    H1 7650   2.610   1.767  14.682  0.8671 -0.5935  0.6789
  511TMC3    H2 7651   2.266   1.765  14.932  1.8028 -2.0044  0.2851
  511TMC3    C7 7652   2.435   1.614  14.777 -0.1137  0.2591 -0.3484
  511TMC3    C8 7653   2.263   2.027  14.977 -0.2619  0.1377 -0.3096
  511TMC3    O1 7654   2.492   1.575  14.679  0.2035 -1.2219 -0.4834
  511TMC3    O2 7655   2.207   2.131  14.931  0.7221 -0.8201  0.4452
  512TMC3    C1 7656   1.383   1.456  13.256  0.5728 -0.5523  0.2035
  512TMC3    C2 7657   1.496   1.450  13.327  0.9433  0.8293 -0.1454
  512TMC3    C3 7658   1.513   1.338  13.404 -0.5924 -0.2361 -1.0845
  512TMC3    C4 7659   1.276   1.379  13.275  0.1134  0.3992 -0.2635
  512TMC3    C5 7660   1.306   1.263  13.346 -0.0926  0.9891  0.0587
  512TMC3    C6 7661   1.419   1.234  13.416  0.2272  0.2088  1.0101
  512TMC3     C 7662   1.356   1.583  13.204  0.1377  0.6807 -0.5165
  512TMC3     O 7663   1.238   1.608  13.174  0.6171 -0.3722 -0.2468
  512TMC3     H 7664   1.581   1.516  13.316 -0.4770  2.3919 -1.8634
  512TMC3    H1 7665   1.182   1.393  13.223  1.0478 -2.3622 -2.6864
  512TMC3    H2 7666   1.442   1.149  13.478 -0.2108 -0.5865  0.0902
  512TMC3    C7 7667   1.189   1.172  13.358  0.7653 -0.0179  0.1343
  512TMC3    C8 7668   1.611   1.345  13.506 -0.4732 -0.7122 -0.1189
  512TMC3    O1 7669   1.078   1.219  13.330 -0.5399  0.0780  0.4784
  512TMC3    O2 7670   1.660   1.237  13.544  0.2271 -0.2421  0.1739
  513MPD2     C 7671   3.503   1.826  13.099  0.6471  0.1483 -0.6913
  513MPD2    C1 7672   3.562   1.938  13.136 -0.6730 -0.9241 -1.2392
  513MPD2    C2 7673   3.589   1.963  13.266  0.1688  0.4307  0.3061
  513MPD2    C3 7674   3.541   1.882  13.370  0.0956 -0.4210 -0.4947
  513MPD2    C4 7675   3.476   1.768  13.330  0.1242 -0.2244 -0.2796
  513MPD2    C5 7676   3.456   1.741  13.197 -0.0310  0.1545 -0.4962
  513MPD2     H 7677   3.637   2.058  13.287  0.3955  0.1738  0.9542
  513MPD2    H1 7678   3.421   1.700  13.395 -0.3603  1.3884  1.0146
  513MPD2    H2 7679   3.497   1.800  12.994 -0.8070  0.9921 -0.8231
  513MPD2    H3 7680   3.415   1.642  13.180  0.8060  0.1748 -2.6808
  513MPD2     N 7681   3.556   1.927  13.505  0.3112  0.0435 -0.1318
  513MPD2    H5 7682   3.611   2.011  13.518  0.0973  0.1555  0.0467
  513MPD2    N1 7683   3.627   2.017  13.044 -0.1673  0.3301 -0.3620
  513MPD2    H7 7684   3.708   2.069  13.077  0.0954 -1.0763  1.1749
  514TMC3    C1 7685   3.702   2.118  12.856  0.3096 -0.1162 -0.0075
  514TMC3    C2 7686   3.644   2.235  12.817  0.0659 -1.0739 -0.1869
  514TMC3    C3 7687   3.720   2.348  12.844 -0.0642 -0.4508 -0.7443
  514TMC3    C4 7688   3.826   2.111  12.915  0.8450  0.0718 -0.2303
  514TMC3    C5 7689   3.890   2.223  12.957  1.0414 -0.6071 -0.4383
  514TMC3    C6 7690   3.843   2.347  12.912 -0.6865 -0.0624 -0.2480
  514TMC3     C 7691   3.609   2.019  12.910 -0.6238  1.1087 -0.1268
  514TMC3     O 7692   3.523   1.975  12.839 -0.0536 -0.3166 -0.0387
  514TMC3     H 7693   3.546   2.243  12.773  0.8508  1.8327 -1.4268
  514TMC3    H1 7694   3.853   2.015  12.956 -0.8637 -0.1640  0.3629
  514TMC3    H2 7695   3.898   2.436  12.938  1.2743 -1.0491 -0.9886
  514TMC3    C7 7696   3.918   2.213  13.103  0.2499  0.0340 -0.2331
  514TMC3    C8 7697   3.727   2.437  12.730  0.1546 -0.0041 -0.3704
  514TMC3    O1 7698   3.844   2.276  13.175  0.2624  0.1121  0.5487
  514TMC3    O2 7699   3.778   2.552  12.729  0.6869  0.4434 -0.4175
  515MPD2     C 7700   1.518   2.876  15.013  0.3560 -0.2501  0.2091
  515MPD2    C1 7701   1.527   2.964  14.904 -0.2569 -0.1968 -0.5010
  515MPD2    C2 7702   1.569   3.093  14.936  0.1666  0.4721 -0.5246
  515MPD2    C3 7703   1.623   3.117  15.067 -0.2376  0.6266  0.0826
  515MPD2    C4 7704   1.609   3.025  15.167  0.5644 -0.3976 -0.0602
  515MPD2    C5 7705   1.549   2.910  15.144 -0.4972 -0.7674 -0.3389
  515MPD2     H 7706   1.570   3.168  14.858 -2.6477  1.2255  0.1863
  515MPD2    H1 7707   1.647   3.055  15.264 -1.3414 -2.0223  1.1755
  515MPD2    H2 7708   1.470   2.779  15.005 -2.4423  1.0851  1.0081
  515MPD2    H3 7709   1.548   2.841  15.228  2.7671  0.2830  0.5571
  515MPD2     N 7710   1.687   3.248  15.099  0.0127  0.0951  0.0184
  515MPD2    H5 7711   1.718   3.271  15.193 -1.2538  0.0521  0.4411
  515MPD2    N1 7712   1.485   2.941  14.776  0.2599 -0.1558 -0.6079
  515MPD2    H7 7713   1.463   3.017  14.712  1.8462 -1.3624 -2.6031
  516TMC3    C1 7714   1.365   2.795  14.619 -0.0262  0.1735  0.5748
  516TMC3    C2 7715   1.294   2.895  14.550  0.4243 -1.3031  0.2593
  516TMC3    C3 7716   1.185   2.860  14.470  0.1241  0.2150 -0.6594
  516TMC3    C4 7717   1.336   2.661  14.586 -0.3177 -0.2074  0.0603
  516TMC3    C5 7718   1.239   2.633  14.495 -0.1380 -0.3655 -0.8732
  516TMC3    C6 7719   1.160   2.728  14.435 -0.2437 -0.2400  0.2449
  516TMC3     C 7720   1.448   2.814  14.741  0.2685 -0.0959 -0.2293
  516TMC3     O 7721   1.505   2.718  14.789  0.1119  0.7309  0.0262
  516TMC3     H 7722   1.311   3.001  14.567  0.4057 -0.8562 -2.5127
  516TMC3    H1 7723   1.389   2.583  14.639 -1.7354 -0.1446  1.5500
  516TMC3    H2 7724   1.074   2.712  14.370 -0.2468 -0.3540  0.2773
  516TMC3    C7 7725   1.187   2.495  14.513  0.0268 -0.4334 -0.8081
  516TMC3    C8 7726   1.089   2.957  14.405 -0.2689  0.0960  0.1880
  516TMC3    O1 7727   1.230   2.435  14.609  0.3335 -0.2578 -0.1148
  516TMC3    O2 7728   0.983   2.912  14.363  0.1611  0.2105 -0.1177
  517MPD2     C 7729   0.798   0.087  17.598  0.3501  0.2195 -0.5027
  517MPD2    C1 7730   0.933   0.098  17.566 -0.0062 -0.5338  0.4083
  517MPD2    C2 7731   1.011   0.202  17.608  0.0779  0.4021 -0.5250
  517MPD2    C3 7732   0.953   0.289  17.704 -0.3496  0.2678  0.7257
  517MPD2    C4 7733   0.823   0.259   0.005 -0.3860  0.0663  0.4593
  517MPD2    C5 7734   0.747   0.162  17.694 -0.3830 -0.0785 -0.3002
  517MPD2     H 7735   1.113   0.211  17.572  1.1869  0.4607  2.6054
  517MPD2    H1 7736   0.774   0.312   0.087  0.9762  0.4227  1.0467
  517MPD2    H2 7737   0.730   0.008  17.566  1.0015  0.1460 -1.6986
  517MPD2    H3 7738   0.641   0.149  17.717  0.1177 -0.6903  1.6458
  517MPD2     N 7739   1.027   0.389   0.017 -0.3938 -0.4695 -0.3988
  517MPD2    H5 7740   0.977   0.439   0.089 -2.5580 -1.0409 -1.5181
  517MPD2    N1 7741   0.996   0.000  17.487  0.6879 -0.7253 -0.4082
  517MPD2    H7 7742   1.086   0.022  17.445  0.1507 -1.8549 -2.1322
  518TMC3    C1 7743   1.038   4.515  17.407  0.2135  0.2071  0.0823
  518TMC3    C2 7744   1.010   4.381  17.431  0.0475  0.1067  0.0543
  518TMC3    C3 7745   1.061   4.286  17.342 -0.1729  0.9513  0.6072
  518TMC3    C4 7746   1.106   4.565  17.295 -0.3868  0.5609 -0.1983
  518TMC3    C5 7747   1.147   4.471  17.205 -0.1568 -0.5267  0.1351
  518TMC3    C6 7748   1.131   4.334  17.230 -0.0142  0.1582  0.2749
  518TMC3     C 7749   0.950   4.607  17.480 -0.0493  0.5277  0.6878
  518TMC3     O 7750   0.853   4.559  17.537 -0.5815  0.5454 -0.0653
  518TMC3     H 7751   0.956   4.356  17.521 -2.1697  0.4415 -1.1776
  518TMC3    H1 7752   1.114   4.671  17.275 -1.7710  0.4320 -1.4242
  518TMC3    H2 7753   1.156   4.264  17.151 -1.6915 -0.4007  0.2363
  518TMC3    C7 7754   1.215   4.499  17.077 -0.3587  0.5985 -0.3452
  518TMC3    C8 7755   1.027   4.144  17.338 -0.1752 -0.2826  0.7446
  518TMC3    O1 7756   1.181   4.597  17.008 -0.4072 -0.2417 -0.4185
  518TMC3    O2 7757   1.098   4.067  17.272  0.4993 -0.5940 -0.3910
  519MPD2     C 7758   2.287   2.269  13.953  0.4777 -0.6400  0.6184
  519MPD2    C1 7759   2.326   2.365  14.052 -0.5713  0.5889 -0.2457
  519MPD2    C2 7760   2.445   2.435  14.036 -0.2655 -0.1262 -0.3646
  519MPD2    C3 7761   2.516   2.414  13.916 -0.4445 -0.0541  0.2697
  519MPD2    C4 7762   2.481   2.323  13.820  0.0196 -0.5515 -0.0087
  519MPD2    C5 7763   2.363   2.257  13.841 -0.1627  0.2719 -0.3003
  519MPD2     H 7764   2.472   2.521  14.097 -0.2997 -1.0201  0.9201
  519MPD2    H1 7765   2.537   2.303  13.729 -1.0873  0.8872 -1.0108
  519MPD2    H2 7766   2.198   2.208  13.963 -0.6362  0.7040 -0.9893
  519MPD2    H3 7767   2.316   2.188  13.771  2.7237 -1.2091 -0.7856
  519MPD2     N 7768   2.637   2.486  13.894  0.3308  0.1326 -0.0771
  519MPD2    H5 7769   2.686   2.475  13.806  0.5722 -0.1531  0.0917
  519MPD2    N1 7770   2.225   2.389  14.147  0.1456  0.0193  0.0617
  519MPD2    H7 7771   2.140   2.336  14.134  0.1735  0.2692 -1.1408
  520TMC3    C1 7772   2.794   2.647  13.906 -0.6878  0.4302 -0.0798
  520TMC3    C2 7773   2.762   2.687  13.776 -0.4774 -1.0949  0.3619
  520TMC3    C3 7774   2.860   2.744  13.701 -0.0501 -1.2358  0.0060
  520TMC3    C4 7775   2.921   2.650  13.957  0.1205 -0.2500 -1.0534
  520TMC3    C5 7776   3.019   2.693  13.872  0.4216 -0.1857 -0.0603
  520TMC3    C6 7777   2.994   2.753  13.751 -0.2062 -0.4131  0.4287
  520TMC3     C 7778   2.706   2.565  13.981  0.6524 -0.8058 -0.0151
  520TMC3     O 7779   2.716   2.556  14.104  0.1974  0.0225 -0.3094
  520TMC3     H 7780   2.657   2.672  13.753 -0.5296 -0.2534  0.0639
  520TMC3    H1 7781   2.946   2.620  14.057 -1.5315  0.2549 -0.4764
  520TMC3    H2 7782   3.073   2.801  13.695  0.7215 -1.4559  0.8409
  520TMC3    C7 7783   3.152   2.648  13.903  0.4916  0.5975 -0.1275
  520TMC3    C8 7784   2.839   2.762  13.560  0.0932  0.0285 -0.0879
  520TMC3    O1 7785   3.182   2.649  14.020  0.0668  0.0037  0.0674
  520TMC3    O2 7786   2.939   2.756  13.493  0.0496 -0.2905  0.3637
  521MPD2     C 7787   3.135   0.249  17.571  0.6570  0.2380  0.1793
  521MPD2    C1 7788   3.148   0.367  17.505 -0.3758 -0.5470  0.0662
  521MPD2    C2 7789   3.270   0.409  17.448  0.5205  0.7838 -0.2904
  521MPD2    C3 7790   3.382   0.328  17.465  0.2657 -0.7347  0.7588
  521MPD2    C4 7791   3.370   0.204  17.527 -0.4143  0.1739  0.5702
  521MPD2    C5 7792   3.246   0.160  17.575  0.1139 -0.1514 -0.4374
  521MPD2     H 7793   3.291   0.503  17.397 -0.4727  1.0265 -0.2453
  521MPD2    H1 7794   3.463   0.151  17.543  0.3869  0.5044 -2.8898
  521MPD2    H2 7795   3.041   0.201  17.596  0.9653  0.1534  1.2173
  521MPD2    H3 7796   3.233   0.061  17.616  0.4983 -1.0724 -2.5507
  521MPD2     N 7797   3.504   0.389  17.426  0.5673 -0.2307  0.1815
  521MPD2    H5 7798   3.498   0.470  17.365  1.1510 -1.9976 -2.2239
  521MPD2    N1 7799   3.026   0.439  17.502 -0.1477  0.0891 -0.3106
  521MPD2    H7 7800   2.943   0.395  17.540 -0.1642  1.5308  1.3240
  522TMC3    C1 7801   3.742   0.403  17.380  0.4495  0.2340 -0.2167
  522TMC3    C2 7802   3.864   0.367  17.421 -0.3570 -0.1917  0.1449
  522TMC3    C3 7803   3.968   0.441  17.366 -0.4131 -0.7389  0.7739
  522TMC3    C4 7804   3.712   0.519  17.309 -0.2113  0.0402  0.1190
  522TMC3    C5 7805   3.827   0.575  17.250 -0.2903  0.6306  0.2001
  522TMC3    C6 7806   3.956   0.530  17.269 -0.5285  0.4338 -0.0404
  522TMC3     C 7807   3.627   0.334  17.444  0.0507  0.4979  0.2151
  522TMC3     O 7808   3.666   0.239  17.508  0.8156 -0.4454  0.0513
  522TMC3     H 7809   3.883   0.300  17.504 -1.4569  2.0950  2.2279
  522TMC3    H1 7810   3.615   0.560  17.285  0.6942  0.6605 -2.4525
  522TMC3    H2 7811   4.041   0.592  17.247  0.4547 -0.5675  0.9557
  522TMC3    C7 7812   3.823   0.661  17.129  0.1270 -0.2326 -0.5293
  522TMC3    C8 7813   4.097   0.367  17.367 -0.0239  0.0148 -0.1123
  522TMC3    O1 7814   3.920   0.734  17.115  0.3162 -0.0223 -0.3572
  522TMC3    O2 7815   4.122   0.288  17.457 -0.0775 -0.0408  0.0914
  523MPD2     C 7816   1.706   1.538  10.510  0.0840  0.2796  0.0474
  523MPD2    C1 7817   1.658   1.484  10.396  0.2385 -0.2293 -0.1364
  523MPD2    C2 7818   1.634   1.573  10.289 -0.0032  0.8737  0.1698
  523MPD2    C3 7819   1.656   1.707  10.305 -0.1184  0.1015  0.6454
  523MPD2    C4 7820   1.699   1.759  10.425  0.4006 -0.2464  0.1507
  523MPD2    C5 7821   1.730   1.673  10.527 -0.1755 -0.3756  0.1372
  523MPD2     H 7822   1.605   1.528  10.195  1.4301  0.5252 -0.1129
  523MPD2    H1 7823   1.724   1.863  10.437  1.7239 -0.1880 -3.3057
  523MPD2    H2 7824   1.716   1.462  10.587  1.6800  0.0816 -0.3575
  523MPD2    H3 7825   1.762   1.716  10.622  1.5316 -3.2862  0.8809
  523MPD2     N 7826   1.635   1.798  10.200 -0.4534  0.2670 -0.2699
  523MPD2    H5 7827   1.631   1.895  10.227 -2.0746  0.2503 -0.4048
  523MPD2    N1 7828   1.635   1.346  10.393  0.0532 -0.1734 -0.8713
  523MPD2    H7 7829   1.678   1.293  10.467  2.7010 -0.2215 -2.4257
  524TMC3    C1 7830   1.590   1.875   9.977 -0.2563 -0.4428 -0.4772
  524TMC3    C2 7831   1.568   1.849   9.849 -0.5765 -0.3729  0.9734
  524TMC3    C3 7832   1.517   1.938   9.757  0.6838 -0.1358  0.5882
  524TMC3    C4 7833   1.542   1.993  10.028 -0.0048  0.4675  0.0298
  524TMC3    C5 7834   1.461   2.066   9.939  0.4009 -0.5264 -0.2431
  524TMC3    C6 7835   1.458   2.050   9.805  0.2487  0.0875 -0.0211
  524TMC3     C 7836   1.618   1.763  10.069 -0.2934 -0.5130  0.4277
  524TMC3     O 7837   1.621   1.655  10.009 -0.6391 -0.5251  0.0136
  524TMC3     H 7838   1.624   1.760   9.823 -0.4146 -0.3531  1.2548
  524TMC3    H1 7839   1.550   2.015  10.133  0.1938  1.9471 -0.3012
  524TMC3    H2 7840   1.393   2.115   9.748  2.5671  0.9211 -1.7094
  524TMC3    C7 7841   1.391   2.169  10.009 -0.0619  0.8415  0.0538
  524TMC3    C8 7842   1.459   1.882   9.641  0.1041  0.0221  0.4236
  524TMC3    O1 7843   1.369   2.160  10.127  0.1158  0.0880  0.6474
  524TMC3    O2 7844   1.346   1.922   9.614  0.1383 -0.2204  0.1106
  525MPD2     C 7845   4.173   2.874  14.371  1.0817  0.6744  0.5161
  525MPD2    C1 7846   4.231   2.879  14.495 -0.3971  0.1293 -0.4079
  525MPD2    C2 7847   4.282   2.993  14.542 -0.4369  0.6948  0.2316
  525MPD2    C3 7848   4.274   3.112  14.475 -0.1732 -0.6535 -0.6234
  525MPD2    C4 7849   4.231   3.105  14.347  0.3361 -0.2006 -0.2196
  525MPD2    C5 7850   4.175   2.987  14.303  0.4228  0.1585 -0.0575
  525MPD2     H 7851   4.332   3.002  14.638 -2.5038 -0.3652  1.4184
  525MPD2    H1 7852   4.219   3.189  14.279 -0.0930  0.8481  1.1231
  525MPD2    H2 7853   4.125   2.788  14.324  2.0600  1.3336 -1.7093
  525MPD2    H3 7854   4.128   2.971  14.206 -0.8296  2.3368  0.1829
  525MPD2     N 7855   4.333   3.233  14.519  0.4079  0.4438  0.9062
  525MPD2    H5 7856   4.351   3.307  14.451  0.7556 -0.0153  0.4971
  525MPD2    N1 7857   4.259   2.768  14.574  0.1973  0.3376  0.2347
  525MPD2    H7 7858   4.293   2.784  14.668  0.3663  0.1644  0.2028
  526TMC3    C1 7859   4.309   2.545  14.617  0.0708  0.7952  0.0111
  526TMC3    C2 7860   4.249   2.423  14.641 -0.4997  0.0680  0.6914
  526TMC3    C3 7861   4.307   2.340  14.736  0.3718 -0.4817  0.1434
  526TMC3    C4 7862   4.425   2.580  14.665 -0.2484 -0.2146  0.3806
  526TMC3    C5 7863   4.497   2.480  14.737  0.4276  0.3629 -1.0065
  526TMC3    C6 7864   4.443   2.354  14.762 -1.1444  0.5699  0.4844
  526TMC3     C 7865   4.238   2.638  14.537  0.2129 -0.7938 -0.2887
  526TMC3     O 7866   4.163   2.591  14.458 -0.3572  0.0653 -0.3008
  526TMC3     H 7867   4.153   2.399  14.598 -1.8552 -0.2421  3.8356
  526TMC3    H1 7868   4.470   2.673  14.633  0.6561 -0.2911  1.4148
  526TMC3    H2 7869   4.502   2.279  14.813  1.1224  0.8707 -1.7188
  526TMC3    C7 7870   4.639   2.489  14.711  0.5005  0.5807  0.0838
  526TMC3    C8 7871   4.215   2.266  14.815  0.6658  0.4525 -0.0830
  526TMC3    O1 7872   4.686   2.599  14.724 -0.0465  0.4569  0.7701
  526TMC3    O2 7873   4.104   2.235  14.766 -0.6792  0.0795  0.4882
  527MPD2     C 7874   1.403   0.218   1.329  0.2282  0.0029 -0.3329
  527MPD2    C1 7875   1.410   0.274   1.201  0.2219 -0.0162  0.7444
  527MPD2    C2 7876   1.515   0.235   1.121 -0.2890 -0.6252  0.4475
  527MPD2    C3 7877   1.603   0.134   1.153  0.0146 -0.1103  0.1703
  527MPD2    C4 7878   1.584   0.073   1.279 -0.0646 -0.1254 -0.0565
  527MPD2    C5 7879   1.486   0.120   1.364  0.2302 -0.4739 -0.0803
  527MPD2     H 7880   1.519   0.293   1.030  1.6749 -2.5234 -0.6772
  527MPD2    H1 7881   1.664   0.011   1.320  2.1351  2.3855 -0.5909
  527MPD2    H2 7882   1.327   0.253   1.398  0.9944 -1.4380  1.2484
  527MPD2    H3 7883   1.469   0.080   1.464  1.6984 -3.1219 -0.8781
  527MPD2     N 7884   1.714   0.114   1.065  0.2870 -0.3764 -0.1052
  527MPD2    H5 7885   1.716   0.174   0.983  2.0863  0.7855  0.7800
  527MPD2    N1 7886   1.344   0.394   1.165 -0.0329  0.0259  0.1662
  527MPD2    H7 7887   1.379   0.446   1.085  0.6598  1.4164  1.3807
  528TMC3    C1 7888   1.168   0.556   1.168 -0.1114 -0.2888 -0.3362
  528TMC3    C2 7889   1.202   0.680   1.203  0.4912 -1.1310 -0.2782
  528TMC3    C3 7890   1.099   0.776   1.224 -0.2198 -0.1212 -0.4584
  528TMC3    C4 7891   1.031   0.525   1.168  0.0797 -0.2352  0.0969
  528TMC3    C5 7892   0.932   0.617   1.188  0.0170  0.6618 -0.1217
  528TMC3    C6 7893   0.967   0.748   1.218 -0.4751 -0.0158 -0.2503
  528TMC3     C 7894   1.234   0.444   1.236 -0.3004  0.3830 -0.0360
  528TMC3     O 7895   1.174   0.399   1.334  0.1822  0.7109  0.3768
  528TMC3     H 7896   1.306   0.702   1.225 -0.1163 -1.1310  2.5948
  528TMC3    H1 7897   1.008   0.419   1.165  2.5236 -0.7894  1.3178
  528TMC3    H2 7898   0.899   0.833   1.212 -1.9972 -1.2880 -1.2414
  528TMC3    C7 7899   0.793   0.580   1.175 -1.2344 -0.4591  0.2390
  528TMC3    C8 7900   1.149   0.903   1.269  0.2780 -0.2349 -0.7071
  528TMC3    O1 7901   0.769   0.477   1.115  0.1243  0.2227  0.1159
  528TMC3    O2 7902   1.263   0.934   1.243  0.3448  0.6236 -0.5117
  529MPD2     C 7903   4.265   3.617   1.045 -0.2145 -0.1840  0.3382
  529MPD2    C1 7904   4.361   3.545   0.976  0.2802  0.2605 -0.0737
  529MPD2    C2 7905   4.336   3.521   0.837  0.0478  0.4605 -0.9243
  529MPD2    C3 7906   4.214   3.560   0.778  0.5693 -0.5843 -0.2237
  529MPD2    C4 7907   4.118   3.612   0.859 -0.1865 -0.3190 -0.0550
  529MPD2    C5 7908   4.153   3.652   0.984 -0.7247 -0.7787 -0.1415
  529MPD2     H 7909   4.409   3.466   0.779  0.7982  1.2379 -0.7269
  529MPD2    H1 7910   4.018   3.637   0.825 -0.3618 -0.3683  0.4338
  529MPD2    H2 7911   4.272   3.638   1.152  4.5033  2.2683 -0.4425
  529MPD2    H3 7912   4.079   3.702   1.045 -1.9943 -2.3997 -0.3492
  529MPD2     N 7913   4.189   3.552   0.644  0.1246 -0.1127  0.3065
  529MPD2    H5 7914   4.103   3.595   0.612  1.4975  1.2640 -1.5335
  529MPD2    N1 7915   4.482   3.494   1.037 -0.4152 -0.0541 -0.0016
  529MPD2    H7 7916   4.538   3.425   0.988 -0.5733 -0.2700  0.1199
  530TMC3    C1 7917   4.668   3.479   1.196  0.1531  0.4504  0.4290
  530TMC3    C2 7918   0.021   3.549   1.263 -0.7650 -0.5296  0.6883
  530TMC3    C3 7919   0.130   3.488   1.312 -0.2677  0.1010  0.0352
  530TMC3    C4 7920   4.663   3.342   1.191  0.1012 -0.0294  0.0802
  530TMC3    C5 7921   0.034   3.278   1.250  0.3613  0.2719  0.3838
  530TMC3    C6 7922   0.144   3.348   1.305  1.1848  0.8364  0.1133
  530TMC3     C 7923   4.542   3.541   1.152  0.0070 -0.0469  0.3811
  530TMC3     O 7924   4.519   3.638   1.225  0.2695  1.1260 -0.4063
  530TMC3     H 7925   0.014   3.656   1.278  1.2314 -0.3696  0.5334
  530TMC3    H1 7926   4.586   3.294   1.132 -0.8695 -0.5635  1.7930
  530TMC3    H2 7927   0.232   3.297   1.343  0.3630  0.2477  1.1932
  530TMC3    C7 7928   0.035   3.137   1.266 -0.6519 -0.3794  0.6338
  530TMC3    C8 7929   0.238   3.572   1.349  0.3563  0.1534  0.1996
  530TMC3    O1 7930   0.120   3.091   1.337  0.1097  0.8706  0.8691
  530TMC3    O2 7931   0.209   3.690   1.366 -0.2606 -0.1445 -0.3623
  531MPD2     C 7932   4.040   1.910  13.506 -0.2548 -0.3232  0.1778
  531MPD2    C1 7933   3.968   2.030  13.506 -0.4121  0.0117 -0.5317
  531MPD2    C2 7934   3.949   2.094  13.386 -0.2689  0.3043  0.7634
  531MPD2    C3 7935   4.005   2.040  13.270 -0.5286 -0.0693  0.3189
  531MPD2    C4 7936   4.085   1.930  13.277 -1.1108 -0.2730  0.0527
  531MPD2    C5 7937   4.113   1.873  13.393 -0.2945 -0.7781  0.0622
  531MPD2     H 7938   3.897   2.189  13.384 -1.3431 -0.2857  0.2076
  531MPD2    H1 7939   4.136   1.888  13.192 -1.4000  1.0518 -0.7730
  531MPD2    H2 7940   4.049   1.857  13.600 -3.5576  0.1729  0.7849
  531MPD2    H3 7941   4.182   1.789  13.394  0.3000 -0.2906 -0.1513
  531MPD2     N 7942   3.994   2.098  13.139  0.0319 -0.3653  0.3249
  531MPD2    H5 7943   4.039   2.040  13.069 -1.2995 -2.1720  0.9604
  531MPD2    N1 7944   3.903   2.058  13.626  0.4916 -0.3996  0.1551
  531MPD2    H7 7945   3.931   2.001  13.705  0.7855 -3.1148 -1.9396
  532TMC3    C1 7946   3.733   2.087  13.766 -0.0782 -0.4617 -0.3053
  532TMC3    C2 7947   3.612   2.035  13.732 -1.1542  0.2372  0.6395
  532TMC3    C3 7948   3.589   1.909  13.743  1.2232 -0.1587 -1.0461
  532TMC3    C4 7949   3.827   2.014  13.832 -0.0533 -0.2108 -0.0825
  532TMC3    C5 7950   3.795   1.885  13.858  0.0952 -0.2597  0.0264
  532TMC3    C6 7951   3.676   1.827  13.813  0.0570  0.0172  0.4616
  532TMC3     C 7952   3.787   2.135  13.641 -0.1266 -0.2925 -0.2393
  532TMC3     O 7953   3.706   2.157  13.552  0.2759  0.3792  0.0351
  532TMC3     H 7954   3.543   2.104  13.684 -1.4839  0.8999  2.0742
  532TMC3    H1 7955   3.915   2.056  13.879  0.3401 -0.1788 -0.8541
  532TMC3    H2 7956   3.660   1.720  13.817  0.4524 -0.1157 -1.7457
  532TMC3    C7 7957   3.908   1.804  13.904  0.3211  1.5860 -0.1369
  532TMC3    C8 7958   3.545   1.844  13.617 -0.4354 -0.1597 -0.5064
  532TMC3    O1 7959   4.010   1.861  13.934  0.1220 -0.1328  0.2012
  532TMC3    O2 7960   3.509   1.726  13.613  0.3450 -0.7741  0.4467
  533TMC3    C1 7961   4.470   3.358  14.645 -0.1817 -0.1033 -0.4255
  533TMC3    C2 7962   4.572   3.342  14.559  1.0101 -0.3150  0.2699
  533TMC3    C3 7963   4.695   3.384  14.597  0.2359  0.4211 -0.1947
  533TMC3    C4 7964   4.493   3.416  14.767  0.1041 -0.1581  0.2868
  533TMC3    C5 7965   4.620   3.442  14.807  0.6781 -0.4253 -0.1814
  533TMC3    C6 7966   4.727   3.420  14.724 -0.3883  0.4061  0.3899
  533TMC3     C 7967   4.372   3.256  14.653  0.0600 -0.2995 -0.0257
  533TMC3     O 7968   4.359   3.194  14.758 -0.5225 -0.2468 -0.1805
  533TMC3     H 7969   4.563   3.311  14.455  0.2297 -0.0224  0.2440
  533TMC3    H1 7970   4.412   3.421  14.839 -0.3649 -1.7281 -0.1257
  533TMC3    H2 7971   0.092   3.425  14.761  0.5674 -1.8261 -1.9623
  533TMC3    C7 7972   4.651   3.415  14.943 -0.5478 -0.0534 -0.3969
  533TMC3    C8 7973   0.049   3.410  14.489 -0.6155 -0.1135  0.8281
  533TMC3    O1 7974   0.015   3.358  14.971 -0.6347 -0.1688  0.0190
  533TMC3    O2 7975   4.734   3.447  14.384 -0.0490 -0.4339 -0.2859
  534MPD2     C 7976   1.601   3.244   1.317  0.2935 -0.2530  0.0226
  534MPD2    C1 7977   1.661   3.337   1.232  0.0487 -0.7382 -0.2830
  534MPD2    C2 7978   1.617   3.356   1.104  0.1909 -0.1326  0.5611
  534MPD2    C3 7979   1.501   3.294   1.059  0.1712 -0.0622 -0.1269
  534MPD2    C4 7980   1.439   3.210   1.145 -0.9782 -0.5113  0.3081
  534MPD2    C5 7981   1.488   3.182   1.270 -0.0228  0.2521 -0.7130
  534MPD2     H 7982   1.674   3.422   1.039 -0.2993 -1.2633 -1.0065
  534MPD2    H1 7983   1.347   3.159   1.116 -0.7770 -1.2421  0.9616
  534MPD2    H2 7984   1.642   3.227   1.415  1.7763  0.1565 -0.5166
  534MPD2    H3 7985   1.446   3.111   1.341 -0.7262  1.1273 -0.2537
  534MPD2     N 7986   1.442   3.321   0.936  0.1292 -0.4066 -0.0874
  534MPD2    H5 7987   1.350   3.284   0.913 -0.5852  2.0914 -1.2479
  534MPD2    N1 7988   1.776   3.414   1.268  0.2996 -0.2108 -0.6021
  534MPD2    H7 7989   1.823   3.460   1.191  0.4896  0.5545 -0.0258
  535TMC3    C1 7990   1.422   3.479   0.759 -0.0140  0.1372 -0.2201
  535TMC3    C2 7991   1.310   3.538   0.820  0.0918  0.3814  0.0284
  535TMC3    C3 7992   1.294   3.670   0.790  0.3478  0.4222  0.3041
  535TMC3    C4 7993   1.489   3.537   0.654  0.6304 -0.3427  0.3554
  535TMC3    C5 7994   1.462   3.662   0.615 -0.3314  0.6502  0.8478
  535TMC3    C6 7995   1.371   3.736   0.690  0.1863  0.1016 -0.3494
  535TMC3     C 7996   1.499   3.394   0.840 -0.8934  0.0301  0.0764
  535TMC3     O 7997   1.613   3.412   0.817  0.4387  0.1168  0.4518
  535TMC3     H 7998   1.253   3.488   0.898 -2.6875  1.6065 -1.2086
  535TMC3    H1 7999   1.575   3.486   0.613  0.2637  0.6935 -1.6997
  535TMC3    H2 8000   1.368   3.844   0.680 -0.2857  0.1590  0.4315
  535TMC3    C7 8001   1.552   3.720   0.521 -0.2090 -0.0814 -0.6222
  535TMC3    C8 8002   1.220   3.750   0.883  0.1797  0.6783  0.0163
  535TMC3    O1 8003   1.591   3.642   0.433 -0.5933 -0.0559  0.4368
  535TMC3    O2 8004   1.265   3.867   0.896 -0.0776  0.2274 -0.7141
  536MPD2     C 8005   1.008   2.023  16.252  0.2232 -0.3712  1.3897
  536MPD2    C1 8006   0.870   2.005  16.267  0.4207  0.0750 -0.0468
  536MPD2    C2 8007   0.794   2.003  16.153 -0.5515 -0.0852 -0.0507
  536MPD2    C3 8008   0.844   2.034  16.028 -1.1637  0.1515 -0.1837
  536MPD2    C4 8009   0.980   2.051  16.016 -0.5492 -0.0417 -0.0346
  536MPD2    C5 8010   1.063   2.037  16.129 -0.7432 -0.1102  0.3306
  536MPD2     H 8011   0.686   2.005  16.165 -0.6963 -4.7071 -0.3885
  536MPD2    H1 8012   1.026   2.080  15.923 -0.6688 -2.6344 -0.9145
  536MPD2    H2 8013   1.069   2.034  16.340  1.9004 -1.3932  0.3359
  536MPD2    H3 8014   1.170   2.054  16.119 -0.3627 -2.0287  1.1932
  536MPD2     N 8015   0.766   2.056  15.907  0.2031 -0.1645 -0.6600
  536MPD2    H5 8016   0.814   2.095  15.827  0.0868 -2.0155 -1.6375
  536MPD2    N1 8017   0.816   1.988  16.401  1.1934  0.0688 -0.4966
  536MPD2    H7 8018   0.876   1.997  16.482  0.2871  0.8254  0.1069
  537TMC3    C1 8019   0.677   1.939  16.577 -0.5793  1.2272  0.4407
  537TMC3    C2 8020   0.727   2.032  16.665  0.0800 -0.1422  0.1434
  537TMC3    C3 8021   0.719   2.007  16.800 -0.2868 -0.3224 -0.1830
  537TMC3    C4 8022   0.615   1.819  16.616  0.0654  0.5169  0.1906
  537TMC3    C5 8023   0.633   1.791  16.753 -0.3477  0.1309 -0.5821
  537TMC3    C6 8024   0.682   1.880  16.843 -0.6732  0.2883  0.2533
  537TMC3     C 8025   0.689   1.958  16.435  0.2252  0.1102 -0.5041
  537TMC3     O 8026   0.590   1.928  16.369  0.3929  0.2219 -0.2444
  537TMC3     H 8027   0.776   2.124  16.635  1.0031 -0.3287  1.0616
  537TMC3    H1 8028   0.574   1.739  16.555  0.0116  0.9111 -0.2904
  537TMC3    H2 8029   0.683   1.849  16.947 -1.1063  0.5103  0.3249
  537TMC3    C7 8030   0.587   1.660  16.807 -0.3992  0.1572  0.6245
  537TMC3    C8 8031   0.763   2.098  16.904 -0.0586 -0.1394  0.0065
  537TMC3    O1 8032   0.643   1.613  16.903 -0.2631  0.3140 -0.1135
  537TMC3    O2 8033   0.776   2.050  17.015 -0.1035  0.5054 -0.4615
  538TMC3    C1 8034   1.968   0.772  10.934 -0.1707  0.8120 -0.4116
  538TMC3    C2 8035   2.076   0.695  10.942  0.2972 -0.2810 -0.8479
  538TMC3    C3 8036   2.195   0.734  10.888  0.3148  0.6218 -0.2264
  538TMC3    C4 8037   1.967   0.892  10.864  0.4168  0.4984 -0.1388
  538TMC3    C5 8038   2.082   0.931  10.800  0.0006  0.4373  0.0617
  538TMC3    C6 8039   2.201   0.860  10.820 -0.8448  0.1338  0.4668
  538TMC3     C 8040   1.860   0.756  11.021 -0.0943 -0.4370 -0.2975
  538TMC3     O 8041   1.749   0.768  10.972 -0.4137  0.2444 -0.2075
  538TMC3     H 8042   2.068   0.597  10.987  2.9462  1.5721  3.6119
  538TMC3    H1 8043   1.882   0.957  10.879  0.2123  0.4700 -1.1438
  538TMC3    H2 8044   2.291   0.899  10.773  0.0638 -0.0261  2.0366
  538TMC3    C7 8045   2.094   1.076  10.794  0.0098  0.1086  0.0799
  538TMC3    C8 8046   2.309   0.639  10.880 -0.8322 -0.2909  0.2058
  538TMC3    O1 8047   2.018   1.142  10.723  0.3116  0.4796 -0.4858
  538TMC3    O2 8048   2.295   0.534  10.942 -0.1856 -0.2394 -0.2425
  539MPD2     C 8049   2.196   0.191  11.270  0.1967  0.5187 -0.4455
  539MPD2    C1 8050   2.090   0.108  11.249 -0.1043  0.1092 -0.6329
  539MPD2    C2 8051   1.973   0.154  11.186 -0.2719  0.6615  0.1358
  539MPD2    C3 8052   1.958   0.297  11.179 -0.2619  0.3330 -0.1323
  539MPD2    C4 8053   2.062   0.378  11.216 -0.5872  0.4425 -0.4958
  539MPD2    C5 8054   2.182   0.329  11.257  0.1925 -0.1901 -0.6225
  539MPD2     H 8055   1.901   0.084  11.147  0.4313 -0.4018  0.7461
  539MPD2    H1 8056   2.048   0.486  11.219 -0.8024  0.4147 -0.4670
  539MPD2    H2 8057   2.291   0.155  11.307 -0.8434  0.4907  2.1486
  539MPD2    H3 8058   2.266   0.394  11.277  0.6659 -0.7909 -0.6693
  539MPD2     N 8059   1.842   0.362  11.145  0.2757  0.2731  0.4452
  539MPD2    H5 8060   1.832   0.463  11.154  0.9637  0.4992 -1.4658
  539MPD2    N1 8061   2.092   4.710  11.275  0.1524  0.0495  1.2986
  539MPD2    H7 8062   2.014   4.653  11.244  0.0691  0.5447  0.6097
  540TMC3    C1 8063   1.616   0.391  11.095  0.3638 -0.1055  0.1233
  540TMC3    C2 8064   1.541   0.344  10.994 -0.9499 -0.3832 -0.1276
  540TMC3    C3 8065   1.403   0.338  11.011 -0.1969 -0.1286  0.5338
  540TMC3    C4 8066   1.566   0.421  11.219  1.1151  0.3472  0.4647
  540TMC3    C5 8067   1.429   0.399  11.236 -0.3316  0.0933  0.1135
  540TMC3    C6 8068   1.347   0.362  11.137  0.4820 -0.1412  0.2268
  540TMC3     C 8069   1.731   0.299  11.102 -0.5113  0.6505 -0.4835
  540TMC3     O 8070   1.705   0.180  11.083 -0.2431  0.1568  0.3547
  540TMC3     H 8071   1.599   0.319  10.906  0.1805  0.7509  0.2854
  540TMC3    H1 8072   1.631   0.447  11.302  1.5647 -1.1066  0.5691
  540TMC3    H2 8073   1.242   0.354  11.161  0.3115  0.3959 -0.3751
  540TMC3    C7 8074   1.372   0.401  11.372  0.0184 -0.4853  0.3827
  540TMC3    C8 8075   1.314   0.297  10.904  0.0517 -0.2598 -0.1455
  540TMC3    O1 8076   1.252   0.386  11.377  0.5564  0.2210 -0.1248
  540TMC3    O2 8077   1.195   0.275  10.924  0.1827 -0.4106 -0.5446
  541MPD2     C 8078   0.005   1.674  13.499  0.1624 -0.0210 -0.6134
  541MPD2    C1 8079   4.675   1.601  13.403  0.2515  0.5599 -0.4928
  541MPD2    C2 8080   4.708   1.640  13.268 -0.2164 -1.1515  0.3182
  541MPD2    C3 8081   0.048   1.749  13.240 -0.3295 -0.2939 -0.6814
  541MPD2    C4 8082   0.118   1.804  13.341  0.9475  0.6087 -0.0146
  541MPD2    C5 8083   0.105   1.764  13.466  0.3156  0.0074  0.4395
  541MPD2     H 8084   4.656   1.592  13.185 -0.0920 -0.4029 -0.1904
  541MPD2    H1 8085   0.190   1.884  13.327  0.2353  0.9828 -1.4437
  541MPD2    H2 8086   4.719   1.649  13.602  3.3008  0.1733  0.1287
  541MPD2    H3 8087   0.165   1.803  13.547  0.3706  0.4751  0.1749
  541MPD2     N 8088   0.063   1.808  13.108  0.1275 -0.8383  0.3199
  541MPD2    H5 8089   0.103   1.901  13.100 -3.7765  0.9404  1.6590
  541MPD2    N1 8090   4.594   1.486  13.430 -0.0210  0.4525 -0.4008
  541MPD2    H7 8091   4.545   1.448  13.350  0.4282  0.7901 -0.8376
  542TMC3    C1 8092   0.031   1.832  12.876 -0.1559  0.0285 -0.3281
  542TMC3    C2 8093   0.051   1.771  12.757  0.6094 -0.4279 -0.2036
  542TMC3    C3 8094   0.081   1.863  12.656 -0.2470 -0.7036  0.6572
  542TMC3    C4 8095   0.020   1.966  12.896 -0.6997  0.4480 -0.4863
  542TMC3    C5 8096   0.035   2.051  12.792  0.6692  0.3746 -0.0471
  542TMC3    C6 8097   0.077   1.999  12.672  0.3918  0.5291  0.0032
  542TMC3     C 8098   0.019   1.749  12.990  0.2102  0.8200 -0.4433
  542TMC3     O 8099   4.720   1.638  12.970  0.5828 -0.4681  0.1619
  542TMC3     H 8100   0.049   1.663  12.745 -0.9062 -0.3525 -0.7304
  542TMC3    H1 8101   4.732   1.995  12.997 -0.4617 -0.9080 -0.0359
  542TMC3    H2 8102   0.098   2.060  12.585 -2.1681  2.1653  0.5509
  542TMC3    C7 8103   4.730   2.195  12.797 -0.1655  0.0712  0.5639
  542TMC3    C8 8104   0.130   1.812  12.529  0.5063  0.2483  0.3278
  542TMC3    O1 8105   4.735   2.251  12.903  0.0662  0.2396 -0.0907
  542TMC3    O2 8106   0.116   1.894  12.439 -0.1699  0.1959  0.1702
  543TMC3    C1 8107   4.432   2.973  17.322  0.2297  1.0387  0.2354
  543TMC3    C2 8108   4.435   2.835  17.346  0.0947 -0.4129  0.0790
  543TMC3    C3 8109   4.350   2.790  17.443 -0.5374 -0.1105 -0.3153
  543TMC3    C4 8110   4.369   3.063  17.399 -0.0047  0.3607 -0.1568
  543TMC3    C5 8111   4.289   3.011  17.495  0.2267 -0.2652 -0.1389
  543TMC3    C6 8112   4.279   2.876  17.523  0.2015 -0.7319  0.5950
  543TMC3     C 8113   4.497   3.009  17.206  0.1467  0.2665  0.2064
  543TMC3     O 8114   4.582   2.930  17.172 -0.3880  0.3175  0.2178
  543TMC3     H 8115   4.494   2.763  17.290  0.8228  0.9886 -0.9484
  543TMC3    H1 8116   4.381   3.170  17.386 -2.2056  0.2915 -2.7394
  543TMC3    H2 8117   4.195   2.850  17.586 -2.0181 -1.1450 -2.4979
  543TMC3    C7 8118   4.196   3.099  17.567 -0.2239  0.1525 -0.6256
  543TMC3    C8 8119   4.336   2.652  17.463 -0.0556 -0.6257  0.0123
  543TMC3    O1 8120   4.116   3.040  17.642  0.2470  0.6284  0.4889
  543TMC3    O2 8121   4.364   2.579  17.372  0.3530 -0.1090 -0.2705
  544MPD2     C 8122   4.249   2.233  17.744  0.4673 -0.4011  0.1334
  544MPD2    C1 8123   4.298   2.247  17.615  0.0380  0.0707  0.4868
  544MPD2    C2 8124   4.322   2.372  17.562 -0.3031 -0.1185 -0.7811
  544MPD2    C3 8125   4.292   2.487  17.636 -0.3809 -0.6421  0.2249
  544MPD2    C4 8126   4.252   2.468   0.018  0.1574  0.2732 -0.6051
  544MPD2    C5 8127   4.224   2.345   0.071 -0.6253 -0.1518 -0.2986
  544MPD2     H 8128   4.361   2.379  17.461  2.7635 -1.4803  0.3261
  544MPD2    H1 8129   4.238   2.553   0.084  1.0940  0.8331 -1.1240
  544MPD2    H2 8130   4.217   2.139   0.040  0.6602  0.2434  1.6406
  544MPD2    H3 8131   4.177   2.334   0.168  1.5391  2.6289  1.0609
  544MPD2     N 8132   4.313   2.620  17.597  0.0287  0.3086 -0.1800
  544MPD2    H5 8133   4.299   2.699  17.660 -1.9047 -0.8958  0.9021
  544MPD2    N1 8134   4.292   2.124  17.543 -0.2519 -0.0487 -0.2883
  544MPD2    H7 8135   4.263   2.042  17.595  0.9832 -0.8137 -0.7792
  545TMC3    C1 8136   4.338   1.961  17.374 -0.5896 -0.1325  1.1094
  545TMC3    C2 8137   4.426   1.928  17.279 -0.3553 -0.3105  0.8820
  545TMC3    C3 8138   4.453   1.800  17.261 -1.2681  0.9076 -0.5524
  545TMC3    C4 8139   4.251   1.871  17.429 -0.7056 -0.5722  0.3070
  545TMC3    C5 8140   4.272   1.744  17.398  0.2474 -0.3526 -0.2448
  545TMC3    C6 8141   4.371   1.703  17.317 -0.1216  0.0806 -0.1491
  545TMC3     C 8142   4.335   2.103  17.411 -0.2890  0.1289  0.0058
  545TMC3     O 8143   4.381   2.189  17.334 -0.0328  0.1094 -0.1205
  545TMC3     H 8144   4.497   2.001  17.243 -0.8399 -0.0857  0.3938
  545TMC3    H1 8145   4.164   1.900  17.488 -1.6633 -2.6092 -0.0831
  545TMC3    H2 8146   4.361   1.604  17.276  2.4948 -0.4461  0.4453
  545TMC3    C7 8147   4.181   1.657  17.468  0.1666 -0.1289  0.4021
  545TMC3    C8 8148   4.518   1.753  17.141 -1.1315  0.1374 -0.0939
  545TMC3    O1 8149   4.070   1.697  17.503  0.1622  0.1420 -1.1463
  545TMC3    O2 8150   4.553   1.633  17.118 -0.3873  0.4574 -0.5132
  546MPD2     C 8151   0.779   2.847   0.012 -0.1295  0.2883 -0.4428
  546MPD2    C1 8152   0.810   2.819  17.626 -0.5992 -0.0727  0.2716
  546MPD2    C2 8153   0.871   2.916  17.552 -0.4593 -0.7587  0.5428
  546MPD2    C3 8154   0.911   3.034  17.615 -0.0857 -0.1321 -0.1400
  546MPD2    C4 8155   0.890   3.055   0.006 -0.2705 -0.3065  0.0601
  546MPD2    C5 8156   0.833   2.955   0.078  0.4298 -0.1672  0.1382
  546MPD2     H 8157   0.886   2.899  17.446  1.8396 -0.6366  0.8429
  546MPD2    H1 8158   0.937   3.134   0.064  0.3211  1.0108 -2.2047
  546MPD2    H2 8159   0.727   2.770   0.068  0.5833 -1.1926 -1.8070
  546MPD2    H3 8160   0.832   2.948   0.186  1.3038  0.1555  0.1713
  546MPD2     N 8161   0.987   3.134  17.554 -0.1877  0.1594 -0.3610
  546MPD2    H5 8162   1.012   3.212  17.614  0.0355  0.8662 -1.3591
  546MPD2    N1 8163   0.751   2.708  17.563 -0.5535  0.3265  0.1605
  546MPD2    H7 8164   0.708   2.639  17.624 -3.5531  1.0532 -1.1106
  547TMC3    C1 8165   0.686   2.559  17.400 -0.6608 -0.0934 -0.2516
  547TMC3    C2 8166   0.641   2.538  17.272 -0.1977 -0.4025 -0.2658
  547TMC3    C3 8167   0.598   2.415  17.232  0.5186  0.4590 -0.0831
  547TMC3    C4 8168   0.696   2.455  17.493 -0.2913 -0.5554 -0.2337
  547TMC3    C5 8169   0.655   2.330  17.448 -0.1719  0.0080  0.8871
  547TMC3    C6 8170   0.600   2.309  17.320 -0.2184  0.3506 -0.3075
  547TMC3     C 8171   0.763   2.679  17.426 -0.1115  0.2921 -1.1138
  547TMC3     O 8172   0.811   2.739  17.325 -0.6083  0.9101 -0.4185
  547TMC3     H 8173   0.637   2.618  17.199  0.6719 -0.2735 -0.1715
  547TMC3    H1 8174   0.752   2.449  17.586  0.7534  0.7222 -0.7879
  547TMC3    H2 8175   0.547   2.217  17.298 -2.6223  1.6726 -0.0334
  547TMC3    C7 8176   0.641   2.226  17.551 -0.2713 -0.5313 -0.6972
  547TMC3    C8 8177   0.534   2.404  17.102 -0.6447  0.2628  0.2611
  547TMC3    O1 8178   0.647   2.253  17.671  0.3962  0.4592 -0.2909
  547TMC3    O2 8179   0.528   2.511  17.039  0.0950 -0.4996 -0.7321
  548MPD2     C 8180   0.502   3.419  12.390  0.0879 -0.1808 -0.6288
  548MPD2    C1 8181   0.482   3.336  12.494 -0.3741  0.0777 -0.0966
  548MPD2    C2 8182   0.587   3.237  12.523 -0.1527  0.1526 -0.2863
  548MPD2    C3 8183   0.700   3.221  12.435 -0.3919 -0.0938 -0.0255
  548MPD2    C4 8184   0.707   3.310  12.332  0.1168 -0.1100 -0.3180
  548MPD2    C5 8185   0.608   3.407  12.314  0.6392 -0.1575 -0.9260
  548MPD2     H 8186   0.585   3.166  12.605  0.6587  0.3160 -0.1250
  548MPD2    H1 8187   0.794   3.313  12.266  0.6377 -1.2110  0.3263
  548MPD2    H2 8188   0.445   3.509  12.369  0.7435  0.2559 -0.5583
  548MPD2    H3 8189   0.637   3.478  12.238 -0.6479 -0.2521 -1.5015
  548MPD2     N 8190   0.800   3.127  12.456  0.2823  0.0117  0.2025
  548MPD2    H5 8191   0.876   3.108  12.391 -0.8053 -0.1639 -1.0006
  548MPD2    N1 8192   0.372   3.345  12.579 -0.4502  0.0416 -0.1637
  548MPD2    H7 8193   0.306   3.419  12.556 -0.2693  0.9252  2.2336
  549TMC3    C1 8194   0.206   3.262  12.735 -0.3921 -0.2687  0.0720
  549TMC3    C2 8195   0.124   3.363  12.693  0.2326  0.3038 -0.0754
  549TMC3    C3 8196   4.731   3.351  12.732  0.5551 -0.0523 -0.1310
  549TMC3    C4 8197   0.162   3.159  12.819  0.0551  0.2027 -0.6434
  549TMC3    C5 8198   0.032   3.171  12.863  0.1146  0.0789 -0.0576
  549TMC3    C6 8199   4.684   3.265  12.818 -0.2594  0.4086 -0.3978
  549TMC3     C 8200   0.339   3.247  12.675  0.1848 -0.2614  0.6553
  549TMC3     O 8201   0.387   3.134  12.682  0.0588  0.4163  0.8460
  549TMC3     H 8202   0.151   3.449  12.633  0.9956 -0.2947 -0.5974
  549TMC3    H1 8203   0.228   3.091  12.872  1.0709  0.6257 -1.3717
  549TMC3    H2 8204   4.580   3.257  12.847  0.5031  0.3642  2.3201
  549TMC3    C7 8205   4.707   3.064  12.945  0.0833 -0.6366  0.4271
  549TMC3    C8 8206   4.657   3.471  12.732  0.1977 -0.3219  0.3065
  549TMC3    O1 8207   4.604   3.093  13.010 -0.5917  0.0956  0.1470
  549TMC3    O2 8208   4.647   3.521  12.620  0.7695  0.5328  0.0711
  550TMC3    C1 8209   0.089   1.429  11.929 -0.2599  0.1577  1.0551
  550TMC3    C2 8210   0.102   1.388  12.057 -0.4670 -0.0663 -0.0975
  550TMC3    C3 8211   0.091   1.489  12.152 -0.5965 -0.2932 -0.8259
  550TMC3    C4 8212   0.076   1.561  11.894  0.3375  0.1620  0.1017
  550TMC3    C5 8213   0.084   1.656  11.996  0.5830  0.3426  0.2071
  550TMC3    C6 8214   0.085   1.620  12.126 -0.0376 -0.0288  0.3791
  550TMC3     C 8215   0.059   1.337  11.823 -0.5411  0.1993 -1.0579
  550TMC3     O 8216   0.103   1.222  11.823  0.2755  0.1855  0.2106
  550TMC3     H 8217   0.121   1.283  12.078 -1.7910 -0.0839  1.0623
  550TMC3    H1 8218   0.079   1.607  11.795  0.0596  1.0624  0.5137
  550TMC3    H2 8219   0.098   1.705  12.192  1.6421  0.1848 -0.2321
  550TMC3    C7 8220   4.722   1.758  11.983  0.2595  0.7550  0.5297
  550TMC3    C8 8221   0.015   1.456  12.275 -0.0403  0.5182  0.3530
  550TMC3    O1 8222   4.646   1.766  12.081 -0.0229  0.0707 -0.3375
  550TMC3    O2 8223   0.022   1.340  12.316 -0.7301  0.4801  0.4687
  551TMC3    C1 8224   1.670   3.925  13.374  0.0518 -0.1596  0.1823
  551TMC3    C2 8225   1.786   3.896  13.300 -0.1468 -0.3845 -1.0326
  551TMC3    C3 8226   1.911   3.926  13.347 -0.1732  0.0925 -1.2607
  551TMC3    C4 8227   1.685   3.976  13.500  0.1627 -0.4970  0.0447
  551TMC3    C5 8228   1.812   4.008  13.541  0.2960  0.4515  0.0513
  551TMC3    C6 8229   1.920   3.982  13.465  0.4557 -0.1742 -0.3780
  551TMC3     C 8230   1.554   3.895  13.313 -0.0395  0.0469  0.2391
  551TMC3     O 8231   1.555   3.809  13.227  0.4069 -0.1433 -0.1319
  551TMC3     H 8232   1.775   3.849  13.203  2.2913 -0.5970 -1.1916
  551TMC3    H1 8233   1.599   3.992  13.564 -0.6692  1.6898 -1.6137
  551TMC3    H2 8234   2.015   4.012  13.509  0.6571  1.2834 -1.7773
  551TMC3    C7 8235   1.837   4.060  13.672 -0.3088 -0.2287 -0.6054
  551TMC3    C8 8236   2.005   3.943  13.247  0.1275 -0.2560 -0.1266
  551TMC3    O1 8237   1.939   4.021  13.729  0.8264  0.0499  0.0207
  551TMC3    O2 8238   2.007   3.855  13.159 -0.0061  0.2876  0.0558
  552MPD2     C 8239   3.513   1.510  14.049  0.2645 -0.1532 -0.1797
  552MPD2    C1 8240   3.513   1.375  14.061  0.5541 -0.4147  0.4582
  552MPD2    C2 8241   3.626   1.318  14.117  0.8359 -0.2324  0.5552
  552MPD2    C3 8242   3.744   1.384  14.156 -0.2465 -0.5060  0.0482
  552MPD2    C4 8243   3.736   1.525  14.147 -0.4837  0.4375 -0.7434
  552MPD2    C5 8244   3.624   1.584  14.088  0.3799  0.1818  0.4335
  552MPD2     H 8245   3.628   1.211  14.136 -1.6174 -0.8606 -2.8927
  552MPD2    H1 8246   3.810   1.593  14.188  1.2416 -0.4259 -2.4094
  552MPD2    H2 8247   3.425   1.557  14.007 -2.0834 -2.4324  2.1984
  552MPD2    H3 8248   3.615   1.692  14.084  1.3159  0.3257  2.2186
  552MPD2     N 8249   3.852   1.313  14.218  0.6487 -0.5450  0.2490
  552MPD2    H5 8250   3.928   1.367  14.259 -1.3646  0.7511  2.2999
  552MPD2    N1 8251   3.399   1.287  14.028 -0.0216 -1.1212 -0.3911
  552MPD2    H7 8252   3.404   1.193  14.066  1.1428 -0.9049 -0.0062
  553TMC3    C1 8253   3.237   1.177  13.893 -0.4116 -0.0797  0.8547
  553TMC3    C2 8254   3.180   1.176  13.769  0.7882  0.3139  0.1116
  553TMC3    C3 8255   3.120   1.060  13.726  0.5876  0.5007  0.3245
  553TMC3    C4 8256   3.227   1.077  13.987 -0.1540  0.9647  0.4945
  553TMC3    C5 8257   3.144   0.973  13.945  0.7239 -0.1666  0.0096
  553TMC3    C6 8258   3.096   0.960  13.817  0.3057 -0.1787 -0.5173
  553TMC3     C 8259   3.311   1.299  13.927  0.0546 -0.5253 -0.1068
  553TMC3     O 8260   3.304   1.397  13.856 -0.0568  0.1408  0.4393
  553TMC3     H 8261   3.206   1.255  13.699 -1.9006 -0.0609 -1.3370
  553TMC3    H1 8262   3.265   1.076  14.089 -0.3555 -1.9136  0.5379
  553TMC3    H2 8263   3.047   0.869  13.786  1.7341 -1.0154 -0.3542
  553TMC3    C7 8264   3.143   0.859  14.030 -0.7550 -0.2029 -0.0520
  553TMC3    C8 8265   3.204   1.014  13.619 -0.6158  0.5854  0.4529
  553TMC3    O1 8266   3.061   0.777  14.013 -0.0628  0.5895  0.0561
  553TMC3    O2 8267   3.282   0.929  13.659 -0.0990 -0.2253 -0.0996
  554TMC3    C1 8268   0.959   0.527  11.225  0.8006 -0.2613 -0.6141
  554TMC3    C2 8269   0.923   0.534  11.096  0.4731  0.5848  0.9734
  554TMC3    C3 8270   1.014   0.561  10.997 -0.6068  0.5186  0.1593
  554TMC3    C4 8271   1.074   0.578  11.276 -0.3562 -0.0331  0.3608
  554TMC3    C5 8272   1.154   0.635  11.177  0.2138  0.5109  0.3872
  554TMC3    C6 8273   1.134   0.609  11.039  0.4640  0.2650 -0.0542
  554TMC3     C 8274   0.882   0.440  11.316  0.1043 -0.9793  0.1614
  554TMC3     O 8275   0.760   0.426  11.301 -0.2333  0.0105 -0.2922
  554TMC3     H 8276   0.819   0.509  11.078  0.1975  2.4874 -0.0464
  554TMC3    H1 8277   1.085   0.593  11.383 -0.0616 -1.6546  0.5602
  554TMC3    H2 8278   1.197   0.663  10.969  0.2118 -1.9413 -1.9704
  554TMC3    C7 8279   1.243   0.736  11.202  0.5891 -0.0526  0.3991
  554TMC3    C8 8280   0.965   0.626  10.876  0.9953 -0.2575  0.4289
  554TMC3    O1 8281   1.298   0.779  11.103  0.3897  0.1563 -0.1440
  554TMC3    O2 8282   0.978   0.748  10.874  0.4499  0.0254 -0.5056
  555TMC3    C1 8283   0.110   4.578  15.109 -0.0721 -0.1239 -0.5681
  555TMC3    C2 8284   0.114   4.649  15.228 -0.2268  0.4140 -0.1613
  555TMC3    C3 8285   0.095   4.573  15.344  0.3019  0.0219  0.4073
  555TMC3    C4 8286   0.099   4.439  15.103  0.2485 -0.1159  1.2358
  555TMC3    C5 8287   0.077   4.379  15.220  0.0218  0.6295 -0.6945
  555TMC3    C6 8288   0.083   4.437  15.341  0.2523 -0.0501 -0.7981
  555TMC3     C 8289   0.074   4.657  14.995 -0.4280  0.9151  0.2349
  555TMC3     O 8290   0.131   0.026  14.978 -0.0744 -0.0119 -0.2554
  555TMC3     H 8291   0.125   0.019  15.234 -1.5001  0.6982 -3.0420
  555TMC3    H1 8292   0.076   4.402  15.004  1.7962  1.8182  0.1299
  555TMC3    H2 8293   0.068   4.386  15.435 -2.1516  0.0179 -1.1419
  555TMC3    C7 8294   0.059   4.238  15.229 -0.2376  0.6358 -0.5023
  555TMC3    C8 8295   0.148   4.636  15.464 -0.4490  0.5314  0.5589
  555TMC3    O1 8296   4.736   4.199  15.330  0.0055 -0.1068  0.1075
  555TMC3    O2 8297   0.118   0.017  15.476  0.1753 -0.1757 -0.1274
  556MPD2     C 8298   3.476   1.336  10.933 -0.8350  0.6892  0.9960
  556MPD2    C1 8299   3.340   1.318  10.952 -0.0299  0.0790  0.7944
  556MPD2    C2 8300   3.273   1.233  10.860 -0.0455  0.4182  0.0962
  556MPD2    C3 8301   3.339   1.168  10.758 -0.8238  0.2945 -0.2460
  556MPD2    C4 8302   3.471   1.212  10.730 -0.1459  0.2529 -0.1670
  556MPD2    C5 8303   3.535   1.287  10.825 -0.2792 -0.3980 -0.0891
  556MPD2     H 8304   3.174   1.196  10.883  0.9610 -1.3174  1.5858
  556MPD2    H1 8305   3.530   1.173  10.648  0.0515  0.1408  0.0291
  556MPD2    H2 8306   3.539   1.384  11.007 -0.2782 -1.4786  1.9294
  556MPD2    H3 8307   3.639   1.309  10.807 -0.8044  1.6679 -0.5650
  556MPD2     N 8308   3.258   1.082  10.671 -0.1556 -0.8577  0.0105
  556MPD2    H5 8309   3.168   1.062  10.713 -0.2322 -0.4200  0.0474
  556MPD2    N1 8310   3.273   1.379  11.064 -0.3424  0.4024 -0.0865
  556MPD2    H7 8311   3.181   1.342  11.084 -0.8406  1.2673 -0.7578
  557TMC3    C1 8312   3.224   0.903  10.515 -0.0008 -0.1566 -0.3198
  557TMC3    C2 8313   3.288   0.789  10.465  0.3888 -0.2511  0.3670
  557TMC3    C3 8314   3.214   0.677  10.434  0.4243  0.4254 -0.6822
  557TMC3    C4 8315   3.087   0.908  10.536 -0.4074 -0.6201 -0.4760
  557TMC3    C5 8316   3.021   0.792  10.510 -0.0141  0.3095  0.1982
  557TMC3    C6 8317   3.072   0.684  10.450  0.5305  0.0366  0.3003
  557TMC3     C 8318   3.311   0.998  10.580 -0.6938 -0.0422 -0.6843
  557TMC3     O 8319   3.428   0.989  10.543  0.4934  0.3421 -0.4122
  557TMC3     H 8320   3.392   0.792  10.433  0.0649 -0.0568 -0.6829
  557TMC3    H1 8321   3.031   0.993  10.572 -0.2531 -0.2788 -1.0463
  557TMC3    H2 8322   3.013   0.593  10.449  0.7697 -0.0925 -1.5179
  557TMC3    C7 8323   2.893   0.773  10.583 -0.2065  1.2820 -0.0600
  557TMC3    C8 8324   3.277   0.583  10.344 -0.0352  0.9428 -0.1783
  557TMC3    O1 8325   2.832   0.875  10.598  0.3691 -0.5603 -0.1471
  557TMC3    O2 8326   3.388   0.608  10.304 -0.4913  0.8895 -0.0998
  558TMC3    C1 8327   0.554   3.929  10.498  0.8526  0.8896  0.3255
  558TMC3    C2 8328   0.426   3.957  10.525  0.8281  0.1921 -0.2484
  558TMC3    C3 8329   0.336   3.953  10.425 -0.2097 -0.0780 -0.8400
  558TMC3    C4 8330   0.601   3.918  10.369 -0.2826  0.0635 -0.1287
  558TMC3    C5 8331   0.511   3.914  10.268 -0.8507 -0.6107 -0.2656
  558TMC3    C6 8332   0.377   3.926  10.295 -0.4471  0.5880  0.0630
  558TMC3     C 8333   0.659   3.942  10.603  0.7718  0.8012  0.5041
  558TMC3     O 8334   0.769   3.950  10.549  1.1206  0.2523 -0.0002
  558TMC3     H 8335   0.395   3.991  10.623 -0.0125 -1.4524  0.0511
  558TMC3    H1 8336   0.707   3.915  10.345 -0.0926 -0.2329  0.7645
  558TMC3    H2 8337   0.298   3.923  10.221 -0.9282  0.7118  0.5636
  558TMC3    C7 8338   0.558   3.942  10.134 -0.3006  0.1806 -0.0609
  558TMC3    C8 8339   0.186   3.973  10.444 -0.4182 -0.3209  0.3337
  558TMC3    O1 8340   0.675   3.918  10.111 -0.7106 -0.0037  0.1866
  558TMC3    O2 8341   0.108   3.905  10.380 -0.2493 -0.1254  0.0823
  559MPD2     C 8342   0.482   0.100  10.134  0.3015  0.2166 -0.2225
  559MPD2    C1 8343   0.432   0.015  10.228  0.6617 -0.0540  0.3097
  559MPD2    C2 8344   0.522   4.714  10.330  0.5844 -0.4734  0.6323
  559MPD2    C3 8345   0.651   0.032  10.336  0.5546  0.5713  0.7927
  559MPD2    C4 8346   0.689   0.129  10.245 -0.2576 -0.0224 -0.7428
  559MPD2    C5 8347   0.603   0.162  10.144 -0.0859  0.7449 -0.4144
  559MPD2     H 8348   0.501   4.636  10.402 -0.6597 -0.7199 -0.0025
  559MPD2    H1 8349   0.782   0.185  10.252 -1.2609  1.4965  0.3249
  559MPD2    H2 8350   0.421   0.126  10.049 -2.7052 -0.1527  1.7953
  559MPD2    H3 8351   0.622   0.246  10.077 -2.5042  0.8751 -0.9393
  559MPD2     N 8352   0.740   4.717  10.433 -0.1528 -0.7932 -0.0961
  559MPD2    H5 8353   0.700   4.646  10.493  0.8190  0.4523  2.0129
  559MPD2    N1 8354   0.300   4.705  10.229  0.0880 -0.4351 -0.3538
  559MPD2    H7 8355   0.238   0.022  10.170 -0.4698  3.0690  3.4987
  560TMC3    C1 8356   0.921   4.695  10.575  0.0982 -0.1541 -0.5620
  560TMC3    C2 8357   0.831   4.685  10.678  0.6128 -0.5567  0.7330
  560TMC3    C3 8358   0.873   4.641  10.796  0.2011  0.3250  0.0600
  560TMC3    C4 8359   1.056   4.674  10.595 -0.3242  0.1323 -0.8757
  560TMC3    C5 8360   1.093   4.645  10.721  0.3724  0.7475  0.5812
  560TMC3    C6 8361   1.004   4.630  10.825  0.4562 -0.4772 -0.3550
  560TMC3     C 8362   0.872   0.017  10.451 -0.2623 -0.3632  0.0521
  560TMC3     O 8363   0.944   0.059  10.362 -0.4072 -0.3192 -0.5886
  560TMC3     H 8364   0.728   4.710  10.656  1.1117  0.3862 -0.5289
  560TMC3    H1 8365   1.123   4.694  10.512  0.9173 -0.9204 -0.1321
  560TMC3    H2 8366   1.040   4.609  10.925 -2.3485 -0.3836  0.6601
  560TMC3    C7 8367   1.236   4.634  10.741 -0.7090  0.1826  0.0453
  560TMC3    C8 8368   0.764   4.613  10.899 -0.8530 -0.6093  0.0434
  560TMC3    O1 8369   1.302   4.641  10.643  0.5000  0.0826  0.3314
  560TMC3    O2 8370   0.656   4.665  10.873 -0.7475  0.4983  0.0771
  561TMC3    C1 8371   3.186   3.342  11.093 -0.0493  0.5728 -0.2920
  561TMC3    C2 8372   3.085   3.271  11.154 -0.0457  0.1909 -0.3584
  561TMC3    C3 8373   3.021   3.334  11.259 -0.1403 -0.6189 -0.1815
  561TMC3    C4 8374   3.217   3.470  11.130  0.3069 -0.5550 -0.1628
  561TMC3    C5 8375   3.136   3.529  11.228 -0.2458  0.2149  0.2616
  561TMC3    C6 8376   3.037   3.461  11.292  0.2669 -0.2161  0.9187
  561TMC3     C 8377   3.230   3.278  10.974 -0.6170  0.2160 -0.0402
  561TMC3     O 8378   3.170   3.186  10.925 -0.3346 -0.4181 -0.4270
  561TMC3     H 8379   3.058   3.171  11.123 -0.3697 -0.2036  1.1986
  561TMC3    H1 8380   3.278   3.524  11.059  0.2035  1.4685  1.2843
  561TMC3    H2 8381   2.980   3.511  11.370 -0.2699 -2.1819  1.7673
  561TMC3    C7 8382   3.134   3.675  11.252  0.2936  0.0477 -0.6740
  561TMC3    C8 8383   2.921   3.253  11.330  0.2144  0.7031 -0.0725
  561TMC3    O1 8384   3.049   3.722  11.327  0.1558 -0.7557 -0.1449
  561TMC3    O2 8385   2.920   3.132  11.307 -0.5249 -0.2696  0.6363
  562TMC3    C1 8386   4.272   0.223  15.946 -0.8056 -0.3605 -0.3339
  562TMC3    C2 8387   4.142   0.258  15.928  0.0620 -0.5647  0.1018
  562TMC3    C3 8388   4.047   0.198  16.003 -0.1210 -0.7363  0.1668
  562TMC3    C4 8389   4.308   0.136  16.041 -0.1170 -0.0523 -0.9795
  562TMC3    C5 8390   4.207   0.097  16.133  0.3152  0.1802  0.1524
  562TMC3    C6 8391   4.076   0.126  16.118 -0.1618  0.1921  0.3207
  562TMC3     C 8392   4.372   0.320  15.898  0.2293  0.3740 -0.7392
  562TMC3     O 8393   4.327   0.427  15.860 -0.2974 -0.0461 -0.3170
  562TMC3     H 8394   4.120   0.331  15.851 -2.3901 -0.2071  1.1613
  562TMC3    H1 8395   4.412   0.120  16.066  0.0020 -0.7707 -1.9432
  562TMC3    H2 8396   4.004   0.081  16.185  2.5078 -3.4462  0.7223
  562TMC3    C7 8397   4.257   0.041  16.262  0.3867  0.1903 -0.6280
  562TMC3    C8 8398   3.908   0.250  16.001 -0.3079  0.1589  0.7925
  562TMC3    O1 8399   4.376   0.009  16.273  0.4130 -0.4636 -0.0666
  562TMC3    O2 8400   3.852   0.258  16.112 -0.4105 -0.0321 -0.1637
  563MPD2     C 8401   1.651   1.152  15.785 -0.1876  0.0060  0.3109
  563MPD2    C1 8402   1.687   1.165  15.916 -0.5733 -0.1520  1.0573
  563MPD2    C2 8403   1.804   1.106  15.961 -0.6267  0.5958  0.2311
  563MPD2    C3 8404   1.879   1.032  15.880 -0.4013  0.1328  0.0305
  563MPD2    C4 8405   1.856   1.027  15.745  0.7375  0.0392 -0.5013
  563MPD2    C5 8406   1.746   1.099  15.698 -1.7000 -0.2647 -0.5814
  563MPD2     H 8407   1.834   1.114  16.065 -1.7647  1.8643  0.4644
  563MPD2    H1 8408   1.904   0.968  15.668 -0.6363 -0.8523 -0.6525
  563MPD2    H2 8409   1.555   1.184  15.745  0.5601 -0.0031 -1.4707
  563MPD2    H3 8410   1.706   1.089  15.598 -1.4354  0.5319 -0.7683
  563MPD2     N 8411   1.980   0.953  15.941  1.0238  0.3058  0.1226
  563MPD2    H5 8412   1.984   0.958  16.043  0.6840  1.3859  0.0874
  563MPD2    N1 8413   1.593   1.224  16.006  0.0261  0.3959 -0.2275
  563MPD2    H7 8414   1.500   1.215  15.967  0.7706 -1.3964 -1.5404
  564TMC3    C1 8415   1.517   1.202  16.225  0.4649  0.5971 -1.0261
  564TMC3    C2 8416   1.396   1.197  16.174 -0.2423 -1.4802  0.3482
  564TMC3    C3 8417   1.321   1.086  16.197 -0.5087  0.0545 -0.2648
  564TMC3    C4 8418   1.563   1.103  16.309 -0.0686  0.7968 -0.2095
  564TMC3    C5 8419   1.490   0.992  16.330 -0.3810 -0.3692  0.4569
  564TMC3    C6 8420   1.367   0.977  16.271  0.6875 -0.6102  0.0005
  564TMC3     C 8421   1.620   1.250  16.141  0.3137  0.1772  0.1049
  564TMC3     O 8422   1.726   1.298  16.189 -0.0955 -0.7953  0.0207
  564TMC3     H 8423   1.367   1.273  16.102 -3.9736 -3.1672  0.0685
  564TMC3    H1 8424   1.667   1.093  16.337 -0.1474 -0.6099 -0.4369
  564TMC3    H2 8425   1.319   0.879  16.266  1.2729 -1.0700  3.4799
  564TMC3    C7 8426   1.573   0.868  16.319  0.1478  0.1311  0.0929
  564TMC3    C8 8427   1.227   1.049  16.094 -0.4810 -0.0613  0.0175
  564TMC3    O1 8428   1.633   0.820  16.415 -0.3695 -0.0475 -0.4202
  564TMC3    O2 8429   1.160   0.951  16.120  0.2123 -0.0907 -0.1159
  565TMC3    C1 8430   3.069   3.039   9.647 -0.7089  0.0101  0.1993
  565TMC3    C2 8431   2.998   2.968   9.741 -0.4995 -0.1458  0.8739
  565TMC3    C3 8432   3.011   2.837   9.724  0.5844 -0.0571 -0.2112
  565TMC3    C4 8433   3.138   2.984   9.548 -1.0612  0.5113  0.9478
  565TMC3    C5 8434   3.147   2.849   9.542  0.2584 -0.3690 -0.0891
  565TMC3    C6 8435   3.076   2.769   9.626  0.3150 -0.2287  0.3761
  565TMC3     C 8436   3.071   3.188   9.652  0.7397  0.3151  0.5525
  565TMC3     O 8437   3.119   3.255   9.561  0.1881  0.2098  0.3600
  565TMC3     H 8438   2.932   3.019   9.810 -1.5157  0.0692 -0.2773
  565TMC3    H1 8439   3.208   3.042   9.489  2.0121 -3.1007  1.0355
  565TMC3    H2 8440   3.115   2.674   9.659 -1.4154 -1.5327 -1.3185
  565TMC3    C7 8441   3.256   2.793   9.459  0.9432  0.5772 -0.2097
  565TMC3    C8 8442   2.927   2.751   9.802  0.2738 -0.3276  0.3236
  565TMC3    O1 8443   3.275   2.674   9.476 -0.2170  0.1563 -0.1053
  565TMC3    O2 8444   2.881   2.803   9.906 -0.1454  0.0370  0.2592
  566MPD2     C 8445   4.293   4.358  14.651 -0.1744  0.2613  0.5312
  566MPD2    C1 8446   4.243   4.464  14.573  0.9780  0.1781  0.4221
  566MPD2    C2 8447   4.112   4.460  14.529  0.6645 -0.8245 -0.3277
  566MPD2    C3 8448   4.039   4.340  14.556  0.4954 -0.4342  0.0765
  566MPD2    C4 8449   4.087   4.245  14.642 -0.5027  1.0270  0.3337
  566MPD2    C5 8450   4.214   4.252  14.689 -0.1018 -0.5684  0.6941
  566MPD2     H 8451   4.070   4.543  14.473 -1.7359 -1.6211  0.2974
  566MPD2    H1 8452   4.014   4.167  14.662  0.6509 -0.4010 -1.0485
  566MPD2    H2 8453   4.390   4.365  14.699  1.1554  1.0908 -2.2294
  566MPD2    H3 8454   4.240   4.175  14.761 -1.4444 -0.5702  1.1798
  566MPD2     N 8455   3.912   4.308  14.489  0.3501 -0.6336 -0.6839
  566MPD2    H5 8456   3.864   4.222  14.514  0.3698 -0.6185 -0.5959
  566MPD2    N1 8457   4.333   4.579  14.545  0.5154 -0.1910 -0.8081
  566MPD2    H7 8458   4.428   4.559  14.576 -0.1830 -0.9707  0.7984
  567TMC3    C1 8459   4.424   0.009  14.420  0.2180  0.1827  0.7065
  567TMC3    C2 8460   4.427   0.043  14.288  0.6593  0.2981  0.2909
  567TMC3    C3 8461   4.539   0.022  14.216 -0.1044  0.3462 -0.2249
  567TMC3    C4 8462   4.532   4.712  14.485 -0.5776  0.8562 -0.8200
  567TMC3    C5 8463   4.647   4.696  14.412  0.0672  0.2802  0.0230
  567TMC3    C6 8464   4.651   4.710  14.272 -0.2661 -0.1611  0.4406
  567TMC3     C 8465   4.302   4.690  14.471 -0.0490  0.5939  0.3235
  567TMC3     O 8466   4.194   4.733  14.424  0.5023  0.4814  0.3163
  567TMC3     H 8467   4.345   0.088  14.232 -1.5428  0.8848  4.0172
  567TMC3    H1 8468   4.535   4.713  14.594 -0.2322 -1.6258 -0.8097
  567TMC3    H2 8469   4.729   4.675  14.206 -0.8841 -2.1341  0.7552
  567TMC3    C7 8470   0.002   4.598  14.459 -0.3707  0.4331 -0.1949
  567TMC3    C8 8471   4.507   0.004  14.071 -0.7903  0.2950  0.5239
  567TMC3    O1 8472   0.085   4.557  14.377 -0.5404 -0.2513 -0.2425
  567TMC3    O2 8473   4.408   0.057  14.033 -0.0308  0.1954  0.2596
  568MPD2     C 8474   1.977   4.542  16.126 -0.2861 -0.4968  0.1586
  568MPD2    C1 8475   1.873   4.581  16.207  0.0955 -0.8635 -0.0017
  568MPD2    C2 8476   1.786   4.686  16.180  0.0763  0.1977 -0.2410
  568MPD2    C3 8477   1.809   0.022  16.063 -0.2276 -0.0565 -0.4443
  568MPD2    C4 8478   1.909   4.719  15.977  0.3124  0.2554 -0.1009
  568MPD2    C5 8479   1.992   4.613  16.005 -0.0150 -0.6119  0.3516
  568MPD2     H 8480   1.709   4.713  16.250  0.5525 -0.2218  0.4405
  568MPD2    H1 8481   1.945   0.031  15.887 -0.2861 -1.0083 -1.0174
  568MPD2    H2 8482   2.043   4.464  16.161  0.5227  0.3488  0.5179
  568MPD2    H3 8483   2.074   4.588  15.938  0.4472  1.1879  0.2533
  568MPD2     N 8484   1.733   0.140  16.040 -0.3039 -0.1264 -0.2957
  568MPD2    H5 8485   1.672   0.167  16.117 -0.0347 -0.0978 -0.0915
  568MPD2    N1 8486   1.851   4.498  16.324 -0.0509  0.1361  0.2358
  568MPD2    H7 8487   1.924   4.430  16.336  0.4054  0.6795  0.5412
  569TMC3    C1 8488   1.598   0.278  15.918 -0.0084 -0.0025 -0.8299
  569TMC3    C2 8489   1.492   0.227  15.985  0.1714 -0.6096  0.4717
  569TMC3    C3 8490   1.372   0.297  15.970  0.8438  0.3198 -0.2684
  569TMC3    C4 8491   1.591   0.368  15.821 -0.8307  0.3608 -0.1358
  569TMC3    C5 8492   1.475   0.437  15.819  0.4608  0.0281 -0.2731
  569TMC3    C6 8493   1.365   0.409  15.889 -0.2856  0.4782 -0.3510
  569TMC3     C 8494   1.719   0.204  15.916 -0.4297 -0.5716  1.3093
  569TMC3     O 8495   1.791   0.210  15.815 -0.2291 -0.8388 -0.2644
  569TMC3     H 8496   1.496   0.139  16.048 -0.9522  0.5407  2.1482
  569TMC3    H1 8497   1.681   0.414  15.783  0.3715 -0.5742  1.5390
  569TMC3    H2 8498   1.274   0.467  15.893  1.3859  3.0926 -0.2359
  569TMC3    C7 8499   1.487   0.576  15.774 -0.5591 -0.1586 -0.0066
  569TMC3    C8 8500   1.270   0.291  16.077  0.1457  0.1105 -0.7435
  569TMC3    O1 8501   1.569   0.599  15.685 -0.3670 -0.4040 -0.3159
  569TMC3    O2 8502   1.157   0.316  16.040 -0.3425  0.3674 -0.3883
  570TMC3    C1 8503   0.986   3.691  16.201  0.2689  0.7283 -0.6910
  570TMC3    C2 8504   1.060   3.663  16.085  0.1782 -0.5001 -0.0786
  570TMC3    C3 8505   1.079   3.761  15.993 -0.1624 -0.0592  0.3929
  570TMC3    C4 8506   0.923   3.812  16.227 -0.2511 -0.5755  0.0823
  570TMC3    C5 8507   0.941   3.902  16.124 -0.2663  0.3279  0.2863
  570TMC3    C6 8508   1.022   3.881  16.018  0.1193  0.1625 -0.0801
  570TMC3     C 8509   0.950   3.576  16.285  0.5089  0.2543 -0.6421
  570TMC3     O 8510   0.970   3.462  16.243 -0.4605 -0.1935 -0.1493
  570TMC3     H 8511   1.117   3.571  16.078 -1.4916 -1.3041 -3.0547
  570TMC3    H1 8512   0.858   3.832  16.312  1.0318  0.5095  0.7950
  570TMC3    H2 8513   1.042   3.955  15.941 -2.5760 -2.8563 -3.6852
  570TMC3    C7 8514   0.920   4.044  16.153  0.7812  0.4408 -0.1523
  570TMC3    C8 8515   1.191   3.758  15.908 -0.1939 -0.2393 -0.0648
  570TMC3    O1 8516   0.902   4.070  16.273 -0.2635  0.4813 -0.2465
  570TMC3    O2 8517   1.232   3.862  15.859  0.1433 -0.0376  0.4991
  571MPD2     C 8518   2.662   0.533   0.399  0.4136  0.2981 -0.4042
  571MPD2    C1 8519   2.744   0.431   0.366 -0.3738  0.5418 -0.1148
  571MPD2    C2 8520   2.850   0.458   0.284  0.8645 -0.2081 -0.1117
  571MPD2    C3 8521   2.883   0.584   0.237  0.2155  0.0058 -0.4292
  571MPD2    C4 8522   2.798   0.687   0.281 -0.3538 -0.1001 -0.8046
  571MPD2    C5 8523   2.694   0.662   0.364 -0.2120 -0.8249 -0.8289
  571MPD2     H 8524   2.907   0.370   0.259 -2.4858 -2.4019 -0.0176
  571MPD2    H1 8525   2.827   0.788   0.255  0.7746 -0.1771  0.1371
  571MPD2    H2 8526   2.575   0.526   0.464  0.6207  0.0997 -0.1518
  571MPD2    H3 8527   2.620   0.733   0.399  2.4906  1.7279 -0.3076
  571MPD2     N 8528   3.004   0.619   0.168  0.2175 -0.3724  0.7017
  571MPD2    H5 8529   3.018   0.718   0.152 -0.1641 -0.2098  1.4007
  571MPD2    N1 8530   2.722   0.293   0.394  0.2907  0.3039 -0.0187
  571MPD2    H7 8531   2.801   0.238   0.362  0.3169  0.3034  0.0474
  572TMC3    C1 8532   3.223   0.589   0.064 -0.3181  0.2130 -0.6426
  572TMC3    C2 8533   3.334   0.511   0.082 -0.4547 -0.5272 -0.1056
  572TMC3    C3 8534   3.454   0.557   0.037  0.7515  0.2388 -0.2445
  572TMC3    C4 8535   3.230   0.721   0.029  0.4525 -0.9817  0.4384
  572TMC3    C5 8536   3.358   0.767   0.001  0.6313 -0.7400  0.5042
  572TMC3    C6 8537   3.471   0.687  17.736 -0.0002  0.2061 -0.1918
  572TMC3     C 8538   3.095   0.527   0.119 -0.4995 -0.2976 -0.4379
  572TMC3     O 8539   3.098   0.408   0.140 -0.3238  0.2390  0.9180
  572TMC3     H 8540   3.315   0.406   0.099  1.9179 -0.8511  0.4384
  572TMC3    H1 8541   3.142   0.783   0.018  1.8172  0.6332 -1.2856
  572TMC3    H2 8542   3.574   0.719  17.721  0.6697 -1.0421  1.7531
  572TMC3    C7 8543   3.373   0.906  17.718 -0.0254  0.2929  1.0363
  572TMC3    C8 8544   3.565   0.468   0.041 -0.3506 -0.2940  0.3318
  572TMC3    O1 8545   3.270   0.972  17.706  0.0195  0.4044 -0.0939
  572TMC3    O2 8546   3.674   0.497  17.735 -0.8666 -0.6033 -0.0050
  573MPD2     C 8547   4.325   0.551   0.616  0.1948 -0.1921  0.3326
  573MPD2    C1 8548   4.416   0.649   0.587  0.0102 -1.2323  0.5513
  573MPD2    C2 8549   4.446   0.674   0.456  0.1938  0.0089  0.5559
  573MPD2    C3 8550   4.383   0.605   0.356  0.0446  0.3860  0.3936
  573MPD2    C4 8551   4.287   0.503   0.382  0.4268  0.6107 -0.8211
  573MPD2    C5 8552   4.261   0.479   0.514 -0.4935 -0.7551 -0.2217
  573MPD2     H 8553   4.492   0.769   0.431 -0.0146 -0.6792 -2.4130
  573MPD2    H1 8554   4.231   0.451   0.306  0.3564 -2.4933  1.3654
  573MPD2    H2 8555   4.298   0.538   0.721 -0.5752 -0.3828  0.1054
  573MPD2    H3 8556   4.199   0.396   0.545 -0.5520 -1.4172 -2.0800
  573MPD2     N 8557   4.395   0.637   0.218  0.1335 -0.1964  0.3893
  573MPD2    H5 8558   4.329   0.604   0.148  1.8434 -1.4976 -0.6044
  573MPD2    N1 8559   4.453   0.735   0.695  0.4158 -0.0234 -0.1879
  573MPD2    H7 8560   4.405   0.725   0.784 -0.6932 -1.7142 -0.9762
  574TMC3    C1 8561   4.486   0.722   0.032  0.3932  0.4215 -0.8463
  574TMC3    C2 8562   4.364   0.772  17.745  0.4870  1.0195 -0.1598
  574TMC3    C3 8563   4.356   0.855  17.638  0.1875 -0.0244 -0.4149
  574TMC3    C4 8564   4.597   0.743  17.708 -0.4636  0.3518 -0.2381
  574TMC3    C5 8565   4.586   0.812  17.592  0.5332 -0.4902 -0.1079
  574TMC3    C6 8566   4.467   0.877  17.558 -0.3546 -0.5740 -0.3436
  574TMC3     C 8567   4.511   0.684   0.164 -0.3063 -0.3240  0.4202
  574TMC3     O 8568   4.617   0.714   0.220  0.2915 -0.2276  0.3849
  574TMC3     H 8569   4.277   0.763   0.060  0.0382  0.7336 -0.8287
  574TMC3    H1 8570   4.687   0.686  17.729 -0.5639  0.3129  0.0890
  574TMC3    H2 8571   4.461   0.940  17.470 -3.3083 -2.8905 -1.7824
  574TMC3    C7 8572   4.712   0.848  17.529 -0.2069  0.5779 -0.3650
  574TMC3    C8 8573   4.250   0.953  17.628 -0.1168 -0.5488  0.0488
  574TMC3    O1 8574   0.058   0.764  17.551  0.0343 -0.1100 -0.1558
  574TMC3    O2 8575   4.152   0.941  17.702 -1.4786  0.4378 -0.2930
  575TMC3    C1 8576   2.307   2.748  10.376 -0.0799  0.3503  0.5400
  575TMC3    C2 8577   2.183   2.697  10.370  0.5182 -0.2575  0.2567
  575TMC3    C3 8578   2.149   2.654  10.243 -0.0910  0.1781 -0.3223
  575TMC3    C4 8579   2.403   2.733  10.274  0.3064 -0.0590 -0.3929
  575TMC3    C5 8580   2.366   2.684  10.154 -0.4268  0.4659  0.1985
  575TMC3    C6 8581   2.235   2.654  10.137 -0.5499  0.0862 -0.4573
  575TMC3     C 8582   2.369   2.740  10.504 -0.1885 -0.2080  0.1297
  575TMC3     O 8583   2.484   2.695  10.510 -1.0288  0.3931 -0.0408
  575TMC3     H 8584   2.124   2.689  10.460 -0.0454 -0.4629 -0.1306
  575TMC3    H1 8585   2.506   2.766  10.281 -0.5316  1.8239  3.4259
  575TMC3    H2 8586   2.195   2.622  10.041  0.9791 -1.4069 -0.5943
  575TMC3    C7 8587   2.475   2.686  10.050  0.3378 -0.3976 -0.4268
  575TMC3    C8 8588   2.009   2.628  10.226  1.8317  0.6211 -0.1008
  575TMC3    O1 8589   2.568   2.764  10.068  0.6336  0.1380 -0.1606
  575TMC3    O2 8590   1.967   2.637  10.112  0.0970 -0.3321  0.5110
  576MPD2     C 8591   2.170   3.357  12.550 -0.5288 -0.1007  0.4415
  576MPD2    C1 8592   2.173   3.489  12.503  0.0521 -0.0253 -0.3174
  576MPD2    C2 8593   2.117   3.582  12.577 -0.5658  0.0257  0.0908
  576MPD2    C3 8594   2.046   3.552  12.691 -0.2537  0.0571  0.2584
  576MPD2    C4 8595   2.036   3.424  12.733  0.4983 -0.3653  0.1294
  576MPD2    C5 8596   2.098   3.327  12.665  0.5368 -0.1536  0.5440
  576MPD2     H 8597   2.121   3.686  12.546  0.5905  0.7098  2.5409
  576MPD2    H1 8598   1.986   3.407  12.827 -0.3244 -0.2089 -0.2862
  576MPD2    H2 8599   2.230   3.280  12.503  0.6632  0.2504  1.3886
  576MPD2    H3 8600   2.099   3.225  12.701 -1.4865  0.6382  2.8667
  576MPD2     N 8601   1.989   3.660  12.748  0.1062  0.4603 -0.4019
  576MPD2    H5 8602   1.993   3.748  12.698 -2.0444  0.7965  0.0248
  576MPD2    N1 8603   2.228   3.514  12.375 -0.0400 -0.1202 -0.2640
  576MPD2    H7 8604   2.227   3.609  12.341  1.1589  0.1496  0.4767
  577TMC3    C1 8605   2.303   3.478  12.157 -0.3486 -0.5436 -0.0248
  577TMC3    C2 8606   2.308   3.389  12.051  0.3909 -0.5583  0.3933
  577TMC3    C3 8607   2.360   3.429  11.929 -0.6454 -0.0877 -0.7671
  577TMC3    C4 8608   2.354   3.600  12.145  0.4676  0.1753 -0.0957
  577TMC3    C5 8609   2.391   3.635  12.018  0.1399  0.2258  0.2536
  577TMC3    C6 8610   2.401   3.552  11.910 -0.0868  0.3833  0.0253
  577TMC3     C 8611   2.254   3.421  12.278  0.2706  0.1398 -0.1836
  577TMC3     O 8612   2.239   3.301  12.282 -0.3129 -0.4970  0.6632
  577TMC3     H 8613   2.275   3.287  12.068  0.6542 -0.3115  2.3888
  577TMC3    H1 8614   2.363   3.666  12.231 -0.6082  0.6431 -0.3426
  577TMC3    H2 8615   2.414   3.592  11.810  1.1487  0.4799  0.2125
  577TMC3    C7 8616   2.448   3.773  12.008  0.2237 -0.5115 -0.2387
  577TMC3    C8 8617   2.392   3.325  11.835  0.4963 -0.2116 -0.3428
  577TMC3    O1 8618   2.484   3.818  12.115 -0.0195 -0.2404  0.5252
  577TMC3    O2 8619   2.352   3.217  11.864 -0.1511  0.1350 -0.4342
  578MPD2     C 8620   4.457   3.882   0.617 -0.0682 -0.0790  0.0147
  578MPD2    C1 8621   4.569   3.834   0.552  0.2883  0.2332  0.1070
  578MPD2    C2 8622   4.662   3.764   0.628  0.8058  0.1311  0.3924
  578MPD2    C3 8623   4.654   3.757   0.764  0.0430 -0.3733  0.2874
  578MPD2    C4 8624   4.542   3.811   0.824  0.2748 -0.3969  0.5556
  578MPD2    C5 8625   4.444   3.861   0.747 -0.4594 -0.4036  0.1260
  578MPD2     H 8626   0.005   3.716   0.575 -0.3327  0.5820 -1.7618
  578MPD2    H1 8627   4.517   3.809   0.930  0.0981  2.4251  0.5627
  578MPD2    H2 8628   4.384   3.947   0.570 -1.2781  0.3299  2.4987
  578MPD2    H3 8629   4.356   3.890   0.803  0.2815  1.0723  0.5257
  578MPD2     N 8630   0.020   3.690   0.834 -0.4987  0.4092 -0.0554
  578MPD2    H5 8631   0.102   3.660   0.783 -0.1657  1.5471 -0.2008
  578MPD2    N1 8632   4.587   3.865   0.410  0.4173 -0.1089 -0.0727
  578MPD2    H7 8633   4.505   3.901   0.362  1.2485  0.7095 -0.8799
  579TMC3    C1 8634   0.181   3.655   0.987  0.5300  0.2335 -0.4448
  579TMC3    C2 8635   0.281   3.733   1.034 -0.2670 -1.3053 -0.0742
  579TMC3    C3 8636   0.406   3.673   1.040  0.5422 -0.0419  0.4414
  579TMC3    C4 8637   0.193   3.524   0.943  0.4462 -0.2873  1.3189
  579TMC3    C5 8638   0.315   3.468   0.965 -0.4409  0.2848  0.2346
  579TMC3    C6 8639   0.417   3.542   1.006  0.4692 -0.5860 -0.6894
  579TMC3     C 8640   0.054   3.713   0.963 -0.4988  0.3611  0.5346
  579TMC3     O 8641   0.033   3.798   1.048 -0.0156  0.5267 -0.4608
  579TMC3     H 8642   0.281   3.841   1.043 -0.3281 -1.3107 -0.0157
  579TMC3    H1 8643   0.113   3.461   0.908  0.2690 -0.7286  2.5275
  579TMC3    H2 8644   0.510   3.487   1.005  0.4470 -0.6023 -1.8607
  579TMC3    C7 8645   0.326   3.324   0.982  0.0765 -0.2877 -0.5518
  579TMC3    C8 8646   0.523   3.756   1.074 -0.2640 -0.6349 -0.0056
  579TMC3    O1 8647   0.402   3.286   1.069  0.0196 -0.4063 -0.0889
  579TMC3    O2 8648   0.510   3.871   1.110  0.2058 -0.5865 -0.4279
  580TMC3    C1 8649   0.279   3.222  12.009 -0.7626 -0.0061 -0.1627
  580TMC3    C2 8650   0.331   3.174  11.887  0.0657  0.3836 -0.0758
  580TMC3    C3 8651   0.342   3.042  11.867 -0.1336 -0.9344 -0.5307
  580TMC3    C4 8652   0.263   3.134  12.114 -0.3644 -0.3940  0.4819
  580TMC3    C5 8653   0.284   3.001  12.089 -0.0731 -1.4378 -0.4008
  580TMC3    C6 8654   0.325   2.953  11.971  0.7316 -1.1368  0.2282
  580TMC3     C 8655   0.286   3.360  12.034  0.7333  0.0062 -0.4426
  580TMC3     O 8656   0.358   3.424  11.960  0.5529  0.7819  0.0523
  580TMC3     H 8657   0.361   3.244  11.810  1.7023 -1.2361 -0.9178
  580TMC3    H1 8658   0.239   3.166  12.215  2.3821 -0.1094  1.0409
  580TMC3    H2 8659   0.352   2.848  11.960 -1.2163 -1.5051 -0.9634
  580TMC3    C7 8660   0.315   2.921  12.206  0.4303  0.7247 -0.1867
  580TMC3    C8 8661   0.395   2.987  11.745  0.4578 -0.1584  0.2398
  580TMC3    O1 8662   0.240   2.932  12.303 -0.5495 -0.4324  0.2554
  580TMC3    O2 8663   0.378   2.866  11.727 -0.2436 -0.4599 -0.4819
  581MPD2     C 8664   2.515   2.394  14.631  0.1058  0.2398  0.1899
  581MPD2    C1 8665   2.523   2.483  14.742 -0.7836 -0.2145  0.1266
  581MPD2    C2 8666   2.403   2.551  14.773 -0.0568  0.1050  0.0923
  581MPD2    C3 8667   2.287   2.528  14.701 -0.0959  0.4920 -0.6438
  581MPD2    C4 8668   2.288   2.443  14.601  0.1847 -0.4143 -0.1670
  581MPD2    C5 8669   2.401   2.381  14.562 -0.0861  0.3027  0.2813
  581MPD2     H 8670   2.407   2.617  14.859  0.1404 -0.6880  0.6936
  581MPD2    H1 8671   2.200   2.399  14.554  1.0786 -1.6842 -0.6552
  581MPD2    H2 8672   2.601   2.335  14.601  1.1022  2.0843 -0.5857
  581MPD2    H3 8673   2.398   2.311  14.480  0.0293 -1.3855  1.7156
  581MPD2     N 8674   2.165   2.601  14.726 -0.6308 -0.0435 -0.1704
  581MPD2    H5 8675   2.179   2.683  14.784  1.0561 -0.8562  0.5849
  581MPD2    N1 8676   2.648   2.499  14.802  0.0596 -0.2664  0.7438
  581MPD2    H7 8677   2.729   2.464  14.753  0.7795  2.1769  0.2129
  582TMC3    C1 8678   2.795   2.517  14.996  0.0696  0.0286  0.5326
  582TMC3    C2 8679   2.786   2.489  15.129 -1.0075  0.3204  0.2375
  582TMC3    C3 8680   2.860   2.386  15.183  0.0953 -0.6111  0.8740
  582TMC3    C4 8681   2.882   2.436  14.927  0.3237  0.3117 -1.1245
  582TMC3    C5 8682   2.923   2.316  14.979  0.4879 -0.3824  0.1246
  582TMC3    C6 8683   2.917   2.289  15.107  0.0726 -0.0462 -0.1321
  582TMC3     C 8684   2.667   2.544  14.929  0.5659 -0.0643  0.2798
  582TMC3     O 8685   2.578   2.554  15.014 -0.0525 -0.5960 -0.5782
  582TMC3     H 8686   2.738   2.563  15.193 -0.7308  0.4683  0.2766
  582TMC3    H1 8687   2.891   2.443  14.819  0.4253  0.1759 -1.1234
  582TMC3    H2 8688   2.965   2.198  15.142 -0.2487 -0.1467  0.0455
  582TMC3    C7 8689   2.915   2.206  14.877 -0.2920  0.1284 -0.6680
  582TMC3    C8 8690   2.829   2.361  15.322 -0.0246 -0.2289  0.0358
  582TMC3    O1 8691   2.986   2.230  14.776  0.1028 -0.3641 -0.2034
  582TMC3    O2 8692   2.771   2.444  15.387  0.7505 -0.5735 -0.1651
  583MPD2     C 8693   2.931   3.825  16.778  0.0618 -0.6207 -0.2361
  583MPD2    C1 8694   2.929   3.949  16.734 -0.4752  0.3868 -0.1149
  583MPD2    C2 8695   2.867   4.044  16.804 -0.3280 -0.1650 -0.2356
  583MPD2    C3 8696   2.815   4.018  16.932  1.0224  0.2146 -0.0502
  583MPD2    C4 8697   2.815   3.887  16.978  0.3604  0.1187 -0.0992
  583MPD2    C5 8698   2.867   3.786  16.896  0.1484 -0.3409  0.3372
  583MPD2     H 8699   2.873   4.143  16.761 -0.6744 -0.4816 -1.0049
  583MPD2    H1 8700   2.777   3.855  17.075 -0.3098  0.0235 -0.3938
  583MPD2    H2 8701   2.962   3.739  16.719 -1.1020 -0.4703 -1.0734
  583MPD2    H3 8702   2.873   3.681  16.923  1.8804  0.6823  4.0568
  583MPD2     N 8703   2.753   4.121  17.010  0.3687  0.2916  0.2868
  583MPD2    H5 8704   2.761   4.214  16.968 -3.9238 -0.3231 -1.8564
  583MPD2    N1 8705   3.001   3.979  16.616 -0.0995  0.0360  0.4080
  583MPD2    H7 8706   2.982   4.071  16.578  2.5770  0.5564  0.3032
  584TMC3    C1 8707   2.620   4.220  17.182 -0.0409  0.2171  0.0836
  584TMC3    C2 8708   2.673   4.342  17.142  0.1816 -0.6320  0.6677
  584TMC3    C3 8709   2.613   4.451  17.207  0.3472 -0.8272  0.0572
  584TMC3    C4 8710   2.519   4.203  17.277 -0.0283 -0.3773  1.3226
  584TMC3    C5 8711   2.462   4.315  17.329  0.2649  0.2372  0.1490
  584TMC3    C6 8712   2.509   4.440  17.299  0.0019 -0.1254  0.4307
  584TMC3     C 8713   2.668   4.096  17.120 -0.1140  0.0749  1.1918
  584TMC3     O 8714   2.622   3.992  17.166  0.0325  0.0202  0.3671
  584TMC3     H 8715   2.744   4.348  17.060 -1.0908  0.5257 -0.3573
  584TMC3    H1 8716   2.474   4.106  17.292 -1.6857  0.4002  1.3943
  584TMC3    H2 8717   2.453   4.525  17.334 -0.8561 -0.5893  0.1845
  584TMC3    C7 8718   2.363   4.298  17.442 -0.0930  0.0896  0.0029
  584TMC3    C8 8719   2.618   4.575  17.130  0.3232 -0.1240 -0.0904
  584TMC3    O1 8720   2.388   4.221  17.534 -0.1215 -0.2375  0.0519
  584TMC3    O2 8721   2.623   4.562  17.006 -0.2586 -0.1699 -0.1537
  585MPD2     C 8722   2.118   3.374   0.288 -0.4323 -0.6907  0.0737
  585MPD2    C1 8723   2.152   3.433   0.169 -1.2905 -0.4987  0.0250
  585MPD2    C2 8724   2.134   3.366   0.049 -0.5955 -0.0406  0.2254
  585MPD2    C3 8725   2.073   3.236   0.053  0.0121  0.1556  0.1386
  585MPD2    C4 8726   2.032   3.186   0.170  0.2135 -0.0084 -0.2742
  585MPD2    C5 8727   2.056   3.251   0.289  0.0755 -0.3652  0.0048
  585MPD2     H 8728   2.151   3.410  17.699 -2.5161  0.3252  0.0413
  585MPD2    H1 8729   1.985   3.089   0.177  0.2286 -0.1448 -2.0157
  585MPD2    H2 8730   2.137   3.419   0.384 -0.6050 -0.7786  0.1477
  585MPD2    H3 8731   2.025   3.207   0.383  1.9637  1.7626  1.6272
  585MPD2     N 8732   2.033   3.162  17.684 -0.1315  0.2142 -0.2376
  585MPD2    H5 8733   1.973   3.083  17.708 -0.7468  1.0733  1.0677
  585MPD2    N1 8734   2.217   3.562   0.178  0.4004  0.2193 -0.2025
  585MPD2    H7 8735   2.210   3.612   0.266  0.3440 -0.0870 -0.0304
  586TMC3    C1 8736   2.005   3.118  17.455 -0.2927  0.0602  0.0164
  586TMC3    C2 8737   2.065   3.060  17.347  0.1891 -0.0834 -0.7521
  586TMC3    C3 8738   1.992   2.973  17.272  1.0363  0.3124 -0.0347
  586TMC3    C4 8739   1.870   3.113  17.468  0.1262  0.1245 -0.1423
  586TMC3    C5 8740   1.795   3.040  17.380 -0.2213  0.3384  0.7677
  586TMC3    C6 8741   1.859   2.955  17.290 -0.6255  0.7541  0.1108
  586TMC3     C 8742   2.085   3.188  17.556  0.4264 -0.4253 -0.0400
  586TMC3     O 8743   2.192   3.243  17.531 -0.5544  0.0704  0.0265
  586TMC3     H 8744   2.171   3.074  17.328 -0.0624  2.0250 -0.5930
  586TMC3    H1 8745   1.834   3.183  17.544  2.0661  0.4769  0.4405
  586TMC3    H2 8746   1.806   2.887  17.223 -1.0435 -0.6854  1.8833
  586TMC3    C7 8747   1.658   2.993  17.412  0.5425 -0.1683  0.1824
  586TMC3    C8 8748   2.052   2.885  17.172 -0.0946  0.1807  0.4069
  586TMC3    O1 8749   1.613   2.908  17.334  0.3458 -0.2287  0.3074
  586TMC3    O2 8750   2.013   2.773  17.152 -0.7743  0.4468  0.1171
  587TMC3    C1 8751   3.796   1.590  16.881  0.6172  0.0762  0.4758
  587TMC3    C2 8752   3.879   1.665  16.797 -0.0814  0.5538  0.3239
  587TMC3    C3 8753   3.992   1.606  16.752  1.7413 -0.1970  0.7742
  587TMC3    C4 8754   3.827   1.459  16.904 -0.3485  0.6680  0.0467
  587TMC3    C5 8755   3.941   1.402  16.847 -0.4853 -1.3063 -0.3604
  587TMC3    C6 8756   4.030   1.477  16.771  0.2407 -0.2384 -0.1109
  587TMC3     C 8757   3.667   1.643  16.910  0.8922 -0.8147 -0.3555
  587TMC3     O 8758   3.662   1.757  16.937 -0.1279 -0.5136  0.1347
  587TMC3     H 8759   3.857   1.770  16.776  1.9070  1.1622  1.3357
  587TMC3    H1 8760   3.767   1.405  16.976 -1.5648 -1.1650 -2.3214
  587TMC3    H2 8761   4.116   1.436  16.719  0.8758  0.9164  0.0408
  587TMC3    C7 8762   3.973   1.255  16.873 -0.2188  0.3495  0.1170
  587TMC3    C8 8763   4.082   1.695  16.675  0.0002  0.1358 -0.3231
  587TMC3    O1 8764   3.889   1.197  16.939  0.1264 -0.0495 -0.5070
  587TMC3    O2 8765   4.182   1.646  16.624 -0.3905 -0.0814  0.6035
  588TMC3    C1 8766   2.190   4.537   9.678 -0.0171  0.6454 -0.1084
  588TMC3    C2 8767   2.106   4.426   9.679  0.3204  0.3134  0.8657
  588TMC3    C3 8768   2.155   4.309   9.726 -0.4268 -0.0623 -0.2922
  588TMC3    C4 8769   2.318   4.524   9.729 -0.0227 -0.2351 -0.1894
  588TMC3    C5 8770   2.364   4.405   9.786 -0.3687 -0.3352  0.0701
  588TMC3    C6 8771   2.278   4.296   9.792 -0.4526 -0.0333  0.1082
  588TMC3     C 8772   2.112   4.663   9.680 -0.5022 -0.2270 -0.3727
  588TMC3     O 8773   1.992   4.659   9.661 -0.3132 -0.1409  0.0792
  588TMC3     H 8774   2.012   4.422   9.626  0.5898  0.8592  0.3408
  588TMC3    H1 8775   2.383   4.611   9.734 -0.4193  0.0579 -0.0903
  588TMC3    H2 8776   2.305   4.210   9.852  1.7693  0.2482 -0.4703
  588TMC3    C7 8777   2.449   4.413   9.907 -0.5185  0.2440 -0.4180
  588TMC3    C8 8778   2.072   4.188   9.709 -0.2075  0.4281 -0.1254
  588TMC3    O1 8779   2.494   4.308   9.949  0.7601  0.5070 -0.0005
  588TMC3    O2 8780   1.952   4.205   9.690 -0.1274 -0.1775 -0.1133
  589TMC3    C1 8781   0.375   1.425   1.001 -0.7956 -0.2304 -0.5383
  589TMC3    C2 8782   0.479   1.520   1.024  0.2616  0.3794 -0.6193
  589TMC3    C3 8783   0.598   1.489   0.975  0.0614  0.0441  0.3129
  589TMC3    C4 8784   0.396   1.304   0.940 -0.5931  0.3801  0.0792
  589TMC3    C5 8785   0.523   1.287   0.887 -0.3655 -0.3668 -0.0908
  589TMC3    C6 8786   0.628   1.372   0.912  0.2441 -0.5247 -0.2524
  589TMC3     C 8787   0.260   1.441   1.081 -0.1482  0.3255 -0.0683
  589TMC3     O 8788   0.213   1.337   1.133 -0.5537  0.3165  0.0786
  589TMC3     H 8789   0.473   1.618   1.071  1.1865  0.9589 -1.7223
  589TMC3    H1 8790   0.310   1.238   0.937  0.6003 -1.1973  0.9891
  589TMC3    H2 8791   0.730   1.345   0.888  1.4496  2.8941  1.0043
  589TMC3    C7 8792   0.550   1.162   0.819  0.1635 -0.7458  0.3873
  589TMC3    C8 8793   0.701   1.588   0.989 -0.8065  0.2214 -1.1446
  589TMC3    O1 8794   0.455   1.085   0.805  0.1052 -0.0941 -0.2895
  589TMC3    O2 8795   0.684   1.657   1.088 -0.5914  0.1865  0.1745
  590MPD2     C 8796   0.332   0.316  16.700 -0.0409  0.3472  0.3780
  590MPD2    C1 8797   0.260   0.386  16.612  0.5698 -0.3647 -0.3327
  590MPD2    C2 8798   0.325   0.456  16.505 -0.2407 -0.6652 -1.1995
  590MPD2    C3 8799   0.457   0.448  16.483 -0.2108 -0.1235 -0.1782
  590MPD2    C4 8800   0.530   0.377  16.577  0.8173 -0.6331  0.1124
  590MPD2    C5 8801   0.468   0.320  16.686 -0.3949  0.3430 -0.1512
  590MPD2     H 8802   0.268   0.511  16.432  1.4981  1.1645 -1.1769
  590MPD2    H1 8803   0.637   0.367  16.562  1.0364  0.6029  0.9138
  590MPD2    H2 8804   0.289   0.256  16.780 -2.0409 -1.9363 -2.4373
  590MPD2    H3 8805   0.537   0.265  16.749  0.5402  0.7907 -0.7834
  590MPD2     N 8806   0.512   0.524  16.375 -0.8834 -0.0236  0.1321
  590MPD2    H5 8807   0.442   0.580  16.328  0.1837 -0.3024 -1.7502
  590MPD2    N1 8808   0.121   0.362  16.610  0.1581  0.3518 -0.0540
  590MPD2    H7 8809   0.087   0.314  16.692  0.7068  0.6592  0.3470
  591TMC3    C1 8810   0.656   0.593  16.193 -0.2550 -0.0200 -0.1693
  591TMC3    C2 8811   0.772   0.566  16.129  0.5711  0.6006 -0.1434
  591TMC3    C3 8812   0.817   0.644  16.025  0.1190  0.7797  0.1905
  591TMC3    C4 8813   0.582   0.704  16.160  0.1448  0.5890 -0.4077
  591TMC3    C5 8814   0.624   0.777  16.057 -0.2656  0.4244  1.1203
  591TMC3    C6 8815   0.746   0.755  15.990  0.1048 -0.4228  0.8934
  591TMC3     C 8816   0.632   0.509  16.306 -0.7562 -0.6470 -0.0393
  591TMC3     O 8817   0.736   0.455  16.351 -0.4713 -0.6691  0.2547
  591TMC3     H 8818   0.833   0.487  16.170 -1.2541 -2.0906 -2.6768
  591TMC3    H1 8819   0.484   0.722  16.203  1.1010  0.0591  1.9815
  591TMC3    H2 8820   0.762   0.805  15.895  0.1798  0.3418  1.3036
  591TMC3    C7 8821   0.533   0.884  16.019 -0.1388  0.1339  0.1911
  591TMC3    C8 8822   0.901   0.581  15.924  0.3280  0.9931 -0.0499
  591TMC3    O1 8823   0.423   0.897  16.076 -0.0551 -0.8651 -0.3357
  591TMC3    O2 8824   0.923   0.463  15.938 -0.1771 -0.1724 -0.1179
  592MPD2     C 8825   0.881   2.352  11.834  0.4585 -0.2413 -0.6150
  592MPD2    C1 8826   0.915   2.394  11.966  0.3900  0.6007 -0.0832
  592MPD2    C2 8827   0.911   2.296  12.066 -0.3824  0.3314  0.5598
  592MPD2    C3 8828   0.870   2.163  12.046 -0.1201 -0.4279  0.0618
  592MPD2    C4 8829   0.835   2.131  11.918 -0.0069  0.4786  0.1018
  592MPD2    C5 8830   0.843   2.223  11.818  0.0988  0.1885  0.0462
  592MPD2     H 8831   0.948   2.325  12.164  1.5984  2.8737 -0.9458
  592MPD2    H1 8832   0.803   2.028  11.907 -1.7196  0.8536  1.5523
  592MPD2    H2 8833   0.890   2.417  11.748  1.5390 -1.0430 -1.1124
  592MPD2    H3 8834   0.820   2.185  11.719  1.1863  0.1018 -0.1759
  592MPD2     N 8835   0.870   2.080  12.159 -0.2196 -0.1891  0.1778
  592MPD2    H5 8836   0.885   2.121  12.250  1.3841  1.0083 -0.6076
  592MPD2    N1 8837   0.964   2.529  11.977  0.7709  0.0637  0.4229
  592MPD2    H7 8838   0.959   2.585  11.892  3.4846 -0.1551  0.1259
  593TMC3    C1 8839   1.072   2.712  12.064 -0.0790 -0.5765  0.7676
  593TMC3    C2 8840   1.055   2.807  12.164 -0.8480 -0.0103 -0.3539
  593TMC3    C3 8841   1.129   2.929  12.156 -0.0537  0.5423  0.2821
  593TMC3    C4 8842   1.156   2.731  11.967 -0.7777 -0.4334 -0.4661
  593TMC3    C5 8843   1.222   2.844  11.966  0.3825 -0.7138  0.1222
  593TMC3    C6 8844   1.221   2.944  12.060 -0.1547  0.1773 -0.0774
  593TMC3     C 8845   1.008   2.590  12.089  0.1869 -0.0414  0.9690
  593TMC3     O 8846   0.989   2.554  12.204  0.3090 -0.1901  0.0010
  593TMC3     H 8847   0.977   2.803  12.239 -0.6593 -1.1683 -0.2180
  593TMC3    H1 8848   1.181   2.654  11.895 -2.0629 -1.4742  0.1972
  593TMC3    H2 8849   1.277   3.035  12.041 -0.0813  0.3946  1.1766
  593TMC3    C7 8850   1.337   2.859  11.881  0.4396 -0.4255 -0.5316
  593TMC3    C8 8851   1.114   3.035  12.254 -0.0735  0.3195  0.1992
  593TMC3    O1 8852   1.371   2.972  11.848 -0.5084  0.0493  0.6343
  593TMC3    O2 8853   1.004   3.065  12.291 -0.3024 -0.7618  0.6339
  594MPD2     C 8854   4.499   1.268  14.055 -0.3542  0.8229 -0.1412
  594MPD2    C1 8855   4.473   1.307  14.181 -0.6116  0.5424 -0.1487
  594MPD2    C2 8856   4.559   1.401  14.241  0.5206  0.1195  1.0410
  594MPD2    C3 8857   4.684   1.430  14.182 -0.2148  0.0831 -0.3541
  594MPD2    C4 8858   4.714   1.365  14.062 -0.5621 -0.1421  0.2911
  594MPD2    C5 8859   4.627   1.280  14.001  0.0515 -0.1729 -0.2108
  594MPD2     H 8860   4.535   1.448  14.335 -0.2115  2.3700 -0.2772
  594MPD2    H1 8861   0.067   1.387  14.006  0.2305  0.3231  1.7443
  594MPD2    H2 8862   4.436   1.201  13.998 -1.1258  0.8342  0.7031
  594MPD2    H3 8863   4.653   1.256  13.898 -0.5074  0.7238 -0.5575
  594MPD2     N 8864   0.030   1.530  14.239 -0.1142 -0.7686 -0.1909
  594MPD2    H5 8865   4.730   1.592  14.311  0.5453 -0.2482 -0.3066
  594MPD2    N1 8866   4.355   1.252  14.237  0.3448 -0.6510  0.1192
  594MPD2    H7 8867   4.307   1.186  14.177  0.1017  2.9150 -3.5911
  595TMC3    C1 8868   0.438   1.750  14.280  0.3275 -0.1154 -0.3301
  595TMC3    C2 8869   0.364   1.639  14.253 -0.1170  0.4776  0.1671
  595TMC3    C3 8870   0.229   1.652  14.260  0.1253 -0.1362  0.3081
  595TMC3    C4 8871   0.381   1.867  14.319  0.3911 -0.6453 -0.2154
  595TMC3    C5 8872   0.245   1.877  14.314  0.4251 -0.3507  0.3444
  595TMC3    C6 8873   0.170   1.764  14.307 -0.1589  0.0054 -0.4112
  595TMC3     C 8874   0.578   1.755  14.245  0.0483 -0.8585 -0.4801
  595TMC3     O 8875   0.642   1.833  14.314  0.6310 -0.5634  0.6284
  595TMC3     H 8876   0.411   1.546  14.223 -0.3586  0.8577 -1.4156
  595TMC3    H1 8877   0.443   1.951  14.347  1.0584 -0.7111 -1.4644
  595TMC3    H2 8878   0.065   1.771  14.332 -0.0116 -0.9688  0.4654
  595TMC3    C7 8879   0.181   1.973  14.402  0.2375 -0.2373 -0.4947
  595TMC3    C8 8880   0.160   1.536  14.203  0.2791 -0.4011 -0.5830
  595TMC3    O1 8881   0.083   1.941  14.469  0.6148 -0.1070 -0.0858
  595TMC3    O2 8882   0.232   1.455  14.148  0.0795  0.6006 -0.2547
  596MPD2     C 8883   3.720   4.066  16.940 -0.0575 -0.1779 -0.1694
  596MPD2    C1 8884   3.682   4.168  16.858 -0.6014  0.5368  0.4289
  596MPD2    C2 8885   3.728   4.158  16.728  0.4925 -0.5940  0.9524
  596MPD2    C3 8886   3.802   4.053  16.676  0.6971 -0.3659 -1.0841
  596MPD2    C4 8887   3.851   3.961  16.767 -0.4825  0.6292 -0.0290
  596MPD2    C5 8888   3.813   3.968  16.899  0.0101  0.8921 -0.9895
  596MPD2     H 8889   3.701   4.243  16.667 -1.6686 -0.7092  1.7787
  596MPD2    H1 8890   3.912   3.874  16.743 -1.1822  0.2073 -0.2890
  596MPD2    H2 8891   3.687   4.062  17.044 -0.5632 -0.2226 -0.3329
  596MPD2    H3 8892   3.858   3.895  16.966 -0.5693  1.1140 -0.3622
  596MPD2     N 8893   3.840   4.042  16.538  0.1822 -0.3538  0.1731
  596MPD2    H5 8894   3.878   3.952  16.508  0.5280  0.0400 -0.5631
  596MPD2    N1 8895   3.593   4.271  16.893 -0.0510 -0.2774  0.5056
  596MPD2    H7 8896   3.572   4.348  16.830  0.2613  0.1233  0.8873
  597TMC3    C1 8897   3.450   4.408  17.015  0.6648  0.1185  0.2002
  597TMC3    C2 8898   3.478   4.508  16.931 -0.2503  0.4185 -0.0070
  597TMC3    C3 8899   3.389   4.611  16.923  0.4872 -1.0509  0.3049
  597TMC3    C4 8900   3.361   4.427  17.121 -0.1727 -0.2232  0.2529
  597TMC3    C5 8901   3.281   4.536  17.115 -0.2762  0.2200  0.4554
  597TMC3    C6 8902   3.283   4.624  17.011  0.2247  0.3578 -0.9026
  597TMC3     C 8903   3.527   4.284  17.014  0.2355  0.5142 -0.3263
  597TMC3     O 8904   3.516   4.202  17.102 -0.2597 -0.0348 -0.2794
  597TMC3     H 8905   3.543   4.497  16.845 -0.6399  1.4997 -0.4405
  597TMC3    H1 8906   3.356   4.351  17.199  1.3225  0.1627  0.7275
  597TMC3    H2 8907   3.208   4.699  16.987 -1.5443 -0.5119  1.9309
  597TMC3    C7 8908   3.175   4.543  17.227 -0.4033 -0.7302  0.7153
  597TMC3    C8 8909   3.414   4.724  16.829 -0.6163  0.1583  0.4223
  597TMC3    O1 8910   3.157   4.442  17.296  0.1244 -0.2422  0.1075
  597TMC3    O2 8911   3.323   0.064  16.812 -0.1567  0.6190  0.4324
  598TMC3    C1 8912   2.214   0.803  15.430 -0.1157 -1.3407 -0.0427
  598TMC3    C2 8913   2.078   0.831  15.455 -0.1245  0.3677 -0.0888
  598TMC3    C3 8914   2.027   0.930  15.377  0.7693 -0.3163 -0.3636
  598TMC3    C4 8915   2.281   0.859  15.331  0.6616  0.3707  0.4216
  598TMC3    C5 8916   2.232   0.960  15.259 -0.5220 -0.0042 -0.4191
  598TMC3    C6 8917   2.103   1.002  15.285 -0.0133 -0.8087 -0.3768
  598TMC3     C 8918   2.293   0.728  15.521  0.0244  0.9883 -0.2825
  598TMC3     O 8919   2.417   0.727  15.517  0.1488 -0.2393 -0.2709
  598TMC3     H 8920   2.020   0.785  15.534 -0.1926 -2.6580 -1.9111
  598TMC3    H1 8921   2.377   0.818  15.302  1.2211  2.3366 -0.5175
  598TMC3    H2 8922   2.060   1.076  15.219  1.1941 -0.0351 -0.2867
  598TMC3    C7 8923   2.292   0.997  15.133 -0.4211 -0.6038  0.1834
  598TMC3    C8 8924   1.884   0.957  15.367  0.0395  0.5497 -0.0775
  598TMC3    O1 8925   2.373   0.918  15.090  0.3322  0.0385 -0.4234
  598TMC3    O2 8926   1.853   1.077  15.345  0.1303  0.1538  0.1344
  599MPD2     C 8927   2.025   3.058  16.272 -0.3343  0.4887 -0.0254
  599MPD2    C1 8928   1.924   2.981  16.227  0.0416 -0.2041 -0.3209
  599MPD2    C2 8929   1.793   3.024  16.239 -0.8314 -0.1233 -0.2781
  599MPD2    C3 8930   1.775   3.155  16.290 -0.2197  0.3385 -0.5258
  599MPD2    C4 8931   1.880   3.231  16.338 -0.1202  0.3312 -0.0350
  599MPD2    C5 8932   2.002   3.178  16.332 -1.1412 -0.0018 -0.3376
  599MPD2     H 8933   1.705   2.970  16.205  0.5351 -1.4959 -1.6174
  599MPD2    H1 8934   1.860   3.325  16.387 -1.3974 -0.1471  0.3777
  599MPD2    H2 8935   2.130   3.029  16.270 -0.7493 -1.0381  1.1302
  599MPD2    H3 8936   2.091   3.233  16.362 -2.0873  1.2041  0.2209
  599MPD2     N 8937   1.643   3.219  16.301 -0.5005 -0.3442 -0.4037
  599MPD2    H5 8938   1.641   3.310  16.347  3.0363  0.0502 -1.0457
  599MPD2    N1 8939   1.953   2.860  16.155  0.3642  0.2625 -1.1171
  599MPD2    H7 8940   2.053   2.842  16.149  0.3144 -0.4758  0.3560
  600TMC3    C1 8941   1.411   3.244  16.304 -0.1391 -0.9437 -0.1847
  600TMC3    C2 8942   1.303   3.166  16.326  0.4462 -0.3522  0.0814
  600TMC3    C3 8943   1.212   3.221  16.421 -0.2204  0.8147 -0.7121
  600TMC3    C4 8944   1.429   3.373  16.350 -0.3934  0.0097  0.0678
  600TMC3    C5 8945   1.320   3.423  16.416 -0.1835 -0.6120 -0.1847
  600TMC3    C6 8946   1.210   3.351  16.452  0.1467  0.4243 -0.0048
  600TMC3     C 8947   1.525   3.168  16.256  0.6933  0.1040 -0.1986
  600TMC3     O 8948   1.508   3.074  16.177  0.6606  0.5351 -0.5761
  600TMC3     H 8949   1.306   3.059  16.309 -0.3567 -0.1243 -1.5359
  600TMC3    H1 8950   1.522   3.429  16.351 -0.0176 -0.6096 -0.3896
  600TMC3    H2 8951   1.131   3.402  16.506 -1.0709 -1.2176 -0.2323
  600TMC3    C7 8952   1.304   3.562  16.405  0.7680  0.0328 -0.6017
  600TMC3    C8 8953   1.104   3.125  16.467 -0.4241  0.1970 -0.1271
  600TMC3    O1 8954   1.224   3.616  16.480  0.0128 -0.5061 -0.0072
  600TMC3    O2 8955   1.086   3.033  16.395  1.2340 -0.4077  0.2746
  601MPD2     C 8956   3.672   1.325   0.043 -0.0518  0.1216 -0.1392
  601MPD2    C1 8957   3.544   1.322  17.739 -0.0847 -0.0097  0.2023
  601MPD2    C2 8958   3.488   1.200  17.706  0.4379  0.0171  1.0583
  601MPD2    C3 8959   3.556   1.083  17.727 -0.4471 -0.2235 -0.5471
  601MPD2    C4 8960   3.688   1.089   0.003 -0.0611 -0.2919 -0.1571
  601MPD2    C5 8961   3.746   1.206   0.050  0.1287  0.1708  0.3141
  601MPD2     H 8962   3.384   1.197  17.679  0.7756 -0.2831 -0.1994
  601MPD2    H1 8963   3.751   1.001   0.005  0.9196  0.3751 -1.9380
  601MPD2    H2 8964   3.726   1.416   0.065  0.3398 -0.3407  0.8379
  601MPD2    H3 8965   3.849   1.203   0.086  0.3303  3.8435  0.0599
  601MPD2     N 8966   3.506   0.947  17.725  0.0879 -0.2974 -0.3830
  601MPD2    H5 8967   3.583   0.885  17.745  0.9812  0.5316 -1.2535
  601MPD2    N1 8968   3.458   1.433  17.723  0.3532  0.1492  0.1022
  601MPD2    H7 8969   3.368   1.415  17.681 -0.4470  2.0546  1.0221
  602TMC3    C1 8970   3.411   1.659  17.714  0.0919 -0.4161  1.3623
  602TMC3    C2 8971   3.462   1.783  17.687  0.8829 -0.1211 -0.0222
  602TMC3    C3 8972   3.394   1.878  17.619  0.4115  0.2570  0.5655
  602TMC3    C4 8973   3.283   1.622  17.681  0.6570  0.0134  0.3316
  602TMC3    C5 8974   3.212   1.725  17.619 -0.5673  0.2650 -0.2316
  602TMC3    C6 8975   3.263   1.844  17.589 -0.2803 -0.3362  0.0093
  602TMC3     C 8976   3.491   1.557   0.013 -0.6929  0.3134 -0.2007
  602TMC3     O 8977   3.591   1.600   0.072 -0.3935  1.2195  0.3077
  602TMC3     H 8978   3.560   1.808  17.726  0.0770  1.8338  0.7960
  602TMC3    H1 8979   3.228   1.536  17.715  0.0990 -0.0840 -0.8429
  602TMC3    H2 8980   3.197   1.927  17.563 -0.5776 -0.4626  0.3633
  602TMC3    C7 8981   3.090   1.692  17.549  0.5403  0.2813 -0.3447
  602TMC3    C8 8982   3.472   1.975  17.549 -0.2171 -0.2387  0.5942
  602TMC3    O1 8983   3.042   1.584  17.569 -0.1249 -0.1449  0.0510
  602TMC3    O2 8984   3.572   2.020  17.597 -1.0942  0.6463  0.0766
  603TMC3    C1 8985   1.600   2.165  11.298  0.0315  0.5460 -0.5606
  603TMC3    C2 8986   1.678   2.072  11.360 -0.1932  0.8679  0.1976
  603TMC3    C3 8987   1.814   2.084  11.334 -0.6555 -0.1414  0.0927
  603TMC3    C4 8988   1.648   2.245  11.189 -0.0133  0.1891 -0.4712
  603TMC3    C5 8989   1.786   2.249  11.166 -0.0959  0.0645  0.4955
  603TMC3    C6 8990   1.878   2.167  11.241 -0.1296  0.3687  0.8698
  603TMC3     C 8991   1.461   2.123  11.290 -0.2836 -0.0187 -0.1458
  603TMC3     O 8992   1.415   2.107  11.403  0.5937  0.0163  1.0918
  603TMC3     H 8993   1.640   2.000  11.431  3.6208 -1.7532 -0.4429
  603TMC3    H1 8994   1.583   2.322  11.149  1.6883  2.2399  0.7604
  603TMC3    H2 8995   1.979   2.159  11.201 -0.8578  1.3715 -1.1677
  603TMC3    C7 8996   1.846   2.337  11.066  0.8862 -0.1106  0.0024
  603TMC3    C8 8997   1.893   2.017  11.424  0.6258  0.3270 -0.3885
  603TMC3    O1 8998   1.967   2.335  11.052  0.2664  0.2216  0.0902
  603TMC3    O2 8999   1.845   1.938  11.505  0.2083 -0.2296 -0.0686
  604MPD2     C 9000   2.440   4.532  16.204  0.0396 -0.5766 -0.3936
  604MPD2    C1 9001   2.387   4.646  16.157  0.1530 -0.1317 -0.5203
  604MPD2    C2 9002   2.446   4.709  16.046 -0.3386  0.0075  0.0558
  604MPD2    C3 9003   2.567   4.659  15.994 -0.2999 -0.0925  0.3217
  604MPD2    C4 9004   2.622   4.548  16.052 -0.0732 -0.2690  0.6148
  604MPD2    C5 9005   2.556   4.480  16.145 -0.0047  0.4907 -0.0070
  604MPD2     H 9006   2.407   0.066  16.010  0.0121 -0.4577 -1.5916
  604MPD2    H1 9007   2.712   4.507  16.006 -0.7477  1.5813 -2.3809
  604MPD2    H2 9008   2.396   4.478  16.287  1.5807  0.8086  1.3194
  604MPD2    H3 9009   2.614   4.403  16.194  1.0469  0.5841 -1.1182
  604MPD2     N 9010   2.633   0.002  15.896 -0.5930 -0.1960  0.0700
  604MPD2    H5 9011   2.577   0.070  15.844  0.6680  0.5217 -0.3432
  604MPD2    N1 9012   2.283   4.708  16.229  0.3290  0.1120 -0.1927
  604MPD2    H7 9013   2.262   4.677  16.324 -0.7100 -1.0178 -0.7897
  605TMC3    C1 9014   2.155   0.156  16.289  1.0671  0.3927 -0.1600
  605TMC3    C2 9015   2.222   0.160  16.409  0.1289 -0.1764  0.2120
  605TMC3    C3 9016   2.199   0.259  16.499  0.1437  0.6840  0.5353
  605TMC3    C4 9017   2.067   0.253  16.247  0.1732  0.0567  0.8650
  605TMC3    C5 9018   2.044   0.352  16.343  0.3783  0.1518 -0.2877
  605TMC3    C6 9019   2.118   0.356  16.463  0.0400 -0.4789  0.1887
  605TMC3     C 9020   2.210   0.079  16.184 -0.4523 -0.1214 -0.0967
  605TMC3     O 9021   2.185   0.127  16.070 -0.5468  0.4454 -0.4752
  605TMC3     H 9022   2.278   0.076  16.448  1.0102  0.2762 -0.0690
  605TMC3    H1 9023   1.993   0.237  16.170  2.0561 -2.5246 -0.4132
  605TMC3    H2 9024   2.096   0.444  16.522 -0.1529  0.8696 -1.8934
  605TMC3    C7 9025   1.956   0.465  16.316  0.7057  0.1413  0.5144
  605TMC3    C8 9026   2.327   0.298  16.559 -0.1266 -0.1101  0.5338
  605TMC3    O1 9027   1.904   0.521  16.411  1.0441 -0.1996  0.3680
  605TMC3    O2 9028   2.421   0.248  16.504 -0.0010 -0.7439  0.2071
  606TMC3    C1 9029   3.393   4.066  17.558  0.3936 -0.9538  0.5041
  606TMC3    C2 9030   3.344   3.996  17.665 -0.2070 -0.6711  0.0309
  606TMC3    C3 9031   3.322   3.860  17.655  0.3029 -0.4044 -0.1879
  606TMC3    C4 9032   3.414   4.007  17.436 -0.1266  0.2573 -0.8322
  606TMC3    C5 9033   3.394   3.873  17.433 -0.1557  0.1809  0.2579
  606TMC3    C6 9034   3.353   3.798  17.541 -0.0852  0.3648 -0.2236
  606TMC3     C 9035   3.423   4.213  17.561  0.2823 -0.0799  0.6440
  606TMC3     O 9036   3.487   4.254  17.466 -0.1297  0.2262 -0.5294
  606TMC3     H 9037   3.329   4.033   0.018  0.2649  0.6263 -0.3746
  606TMC3    H1 9038   3.437   4.062  17.346  0.1841 -0.8261 -1.4088
  606TMC3    H2 9039   3.351   3.690  17.536  2.1260  0.3746 -1.6833
  606TMC3    C7 9040   3.462   3.796  17.326 -0.1928 -0.3680  0.2851
  606TMC3    C8 9041   3.344   3.788   0.031  0.2641  0.2541 -0.0033
  606TMC3    O1 9042   3.549   3.852  17.263  0.1710  0.2826 -0.0158
  606TMC3    O2 9043   3.272   3.802   0.124  1.3964  0.2258 -0.2275
  607MPD2     C 9044   1.036   1.756  11.755  0.3201  0.2080  0.7143
  607MPD2    C1 9045   1.099   1.844  11.837  0.9225  0.7666  0.5917
  607MPD2    C2 9046   1.122   1.811  11.969 -0.0425 -0.1294  0.4433
  607MPD2    C3 9047   1.084   1.690  12.022  0.1684 -0.2843  0.1891
  607MPD2    C4 9048   1.029   1.592  11.940  0.0984  0.5069 -0.1798
  607MPD2    C5 9049   1.012   1.628  11.808  0.3735 -0.2691  0.2121
  607MPD2     H 9050   1.175   1.882  12.030 -0.0505 -1.3650  1.8889
  607MPD2    H1 9051   0.997   1.492  11.968  0.3215  0.3971 -0.3115
  607MPD2    H2 9052   0.990   1.783  11.661  0.6260  1.6191  0.9774
  607MPD2    H3 9053   0.956   1.561  11.745 -1.9572  0.2317  1.7474
  607MPD2     N 9054   1.108   1.667  12.158 -0.4776 -0.4267 -0.2961
  607MPD2    H5 9055   1.133   1.751  12.210 -1.6871 -0.3258  0.1281
  607MPD2    N1 9056   1.144   1.979  11.799  1.1446 -0.1038 -0.6002
  607MPD2    H7 9057   1.216   2.021  11.858  0.5784  0.6225 -0.4215
  608TMC3    C1 9058   1.174   2.181  11.701  0.3510 -0.1401 -0.0134
  608TMC3    C2 9059   1.181   2.234  11.824  0.2479  0.2717  0.4202
  608TMC3    C3 9060   1.257   2.348  11.840 -0.5550 -0.1581 -0.0960
  608TMC3    C4 9061   1.232   2.239  11.592 -0.0344  0.0844  0.0367
  608TMC3    C5 9062   1.306   2.357  11.619 -0.0947 -0.2644  0.0658
  608TMC3    C6 9063   1.317   2.408  11.736  0.1521  0.4580  0.6139
  608TMC3     C 9064   1.120   2.049  11.684  0.1716 -0.0123 -0.5459
  608TMC3     O 9065   1.071   2.012  11.578 -0.3364  0.5701 -0.4368
  608TMC3     H 9066   1.116   2.193  11.901 -0.2112 -1.3460 -0.8376
  608TMC3    H1 9067   1.214   2.210  11.489  0.6029  0.1154 -0.0832
  608TMC3    H2 9068   1.382   2.493  11.749  3.2781 -1.7925 -0.3629
  608TMC3    C7 9069   1.403   2.396  11.520  1.0590  0.3852 -0.3345
  608TMC3    C8 9070   1.312   2.384  11.969 -0.2830 -0.1048 -0.2754
  608TMC3    O1 9071   1.356   2.426  11.410 -0.1643 -0.1131  0.1254
  608TMC3    O2 9072   1.335   2.503  11.986  0.3121 -0.7261  1.0097
  609TMC3    C1 9073   0.337   1.762   9.116 -0.6264  0.0244  0.2375
  609TMC3    C2 9074   0.260   1.656   9.088 -0.1541  0.1331 -0.3310
  609TMC3    C3 9075   0.317   1.535   9.066  0.8733  0.7784 -0.0044
  609TMC3    C4 9076   0.468   1.745   9.155 -0.5927 -0.4146  0.4101
  609TMC3    C5 9077   0.516   1.613   9.154  0.6353 -0.1140  0.1241
  609TMC3    C6 9078   0.445   1.509   9.105 -0.0965 -0.8131  0.3753
  609TMC3     C 9079   0.262   1.861   9.190  0.0387  0.6745  0.3350
  609TMC3     O 9080   0.155   1.831   9.234 -0.0854  0.1591  0.2822
  609TMC3     H 9081   0.155   1.660   9.063 -0.5675 -2.5226  1.0121
  609TMC3    H1 9082   0.536   1.820   9.194  1.4072 -2.2049  0.4074
  609TMC3    H2 9083   0.474   1.409   9.136 -1.0824 -0.9084  0.9978
  609TMC3    C7 9084   0.647   1.597   9.214 -0.1562 -0.0358 -0.5435
  609TMC3    C8 9085   0.243   1.442   8.990 -0.4019  0.4801 -0.2756
  609TMC3    O1 9086   0.696   1.684   9.285 -0.0487  0.0701  0.1453
  609TMC3    O2 9087   0.126   1.470   8.969  0.4288 -0.1499  0.1938
  610TMC3    C1 9088   1.444   1.579  12.833 -0.8865  0.5414 -0.7111
  610TMC3    C2 9089   1.442   1.710  12.799 -0.9226 -0.6579  0.0660
  610TMC3    C3 9090   1.558   1.766  12.749  0.6662  0.4446  0.2615
  610TMC3    C4 9091   1.561   1.506  12.809  0.6987 -0.0644 -0.4516
  610TMC3    C5 9092   1.669   1.569  12.752 -0.0204  0.4836 -0.0615
  610TMC3    C6 9093   1.675   1.699  12.718  0.2453  0.0520 -0.7059
  610TMC3     C 9094   1.320   1.504  12.807  0.0405  0.2200 -0.5713
  610TMC3     O 9095   1.342   1.389  12.780 -0.4553  0.2113  0.3141
  610TMC3     H 9096   1.353   1.771  12.802 -0.8175 -0.5707  1.6584
  610TMC3    H1 9097   1.563   1.402  12.839  1.4110 -0.4051 -1.6704
  610TMC3    H2 9098   1.767   1.735  12.673  0.3546  0.4713 -0.1505
  610TMC3    C7 9099   1.782   1.489  12.722 -1.0968  0.7626  0.6072
  610TMC3    C8 9100   1.548   1.903  12.704  0.3509 -0.2394  0.3684
  610TMC3    O1 9101   1.801   1.395  12.800  0.5287  0.1014 -0.4471
  610TMC3    O2 9102   1.437   1.956  12.673  0.1563 -0.3510  0.5260
  611MPD2     C 9103   0.821   2.395  10.729 -0.3553  0.0074  0.2848
  611MPD2    C1 9104   0.814   2.425  10.601  0.2860 -0.5152  0.4097
  611MPD2    C2 9105   0.919   2.493  10.543 -0.3380  0.0878  0.2831
  611MPD2    C3 9106   1.028   2.538  10.617 -0.0354  0.0874 -0.3823
  611MPD2    C4 9107   1.035   2.500  10.749 -0.1541  0.4534  0.4960
  611MPD2    C5 9108   0.927   2.436  10.807 -0.3182 -0.1577 -0.5089
  611MPD2     H 9109   0.918   2.505  10.435 -3.7599 -2.3239  0.0245
  611MPD2    H1 9110   1.123   2.521  10.808 -0.1344 -0.6879  0.8622
  611MPD2    H2 9111   0.742   2.346  10.785 -0.9772  1.7565  0.9296
  611MPD2    H3 9112   0.928   2.404  10.911  0.7067 -1.3557 -0.8888
  611MPD2     N 9113   1.139   2.609  10.565  0.4219 -0.5029 -1.3685
  611MPD2    H5 9114   1.230   2.604  10.610 -0.4211 -0.1198  0.3935
  611MPD2    N1 9115   0.717   2.368  10.523 -0.0263 -0.5843 -0.3634
  611MPD2    H7 9116   0.642   2.322  10.574  0.1032  0.4827  0.7890
  612TMC3    C1 9117   1.263   2.742  10.417 -0.4212 -0.1070 -0.0731
  612TMC3    C2 9118   1.370   2.730  10.499  0.2627 -0.1858  0.4043
  612TMC3    C3 9119   1.477   2.805  10.465  0.2065  0.3282  0.3665
  612TMC3    C4 9120   1.277   2.798  10.288 -0.3384 -0.5428 -0.2652
  612TMC3    C5 9121   1.395   2.852  10.256 -0.3528 -0.5439 -0.0087
  612TMC3    C6 9122   1.500   2.854  10.343 -0.5560  0.4414 -0.1131
  612TMC3     C 9123   1.139   2.676  10.446  0.7584  0.4055 -0.5608
  612TMC3     O 9124   1.048   2.695  10.362 -0.3706  0.1908  0.7602
  612TMC3     H 9125   1.349   2.698  10.600 -2.5761  1.1275  0.2454
  612TMC3    H1 9126   1.191   2.816  10.225  0.3186  4.3749  0.2339
  612TMC3    H2 9127   1.590   2.902  10.306 -0.0625  1.7337  2.8350
  612TMC3    C7 9128   1.413   2.904  10.124 -0.5900  0.2279  0.5708
  612TMC3    C8 9129   1.595   2.799  10.547 -0.2243 -1.0944  0.5715
  612TMC3    O1 9130   1.529   2.893  10.087  0.4074  0.2814  0.1534
  612TMC3    O2 9131   1.677   2.884  10.526  0.1766  0.2099 -0.4608
  613MPD2     C 9132   0.539   4.280  16.753 -0.5168  0.0169 -0.1545
  613MPD2    C1 9133   0.470   4.222  16.653  0.1869  0.2395  0.5392
  613MPD2    C2 9134   0.338   4.187  16.688  1.0055 -1.0492 -0.9413
  613MPD2    C3 9135   0.283   4.214  16.812 -0.1279 -0.1152 -0.0778
  613MPD2    C4 9136   0.360   4.268  16.912 -0.1531 -0.0636  0.4653
  613MPD2    C5 9137   0.485   4.307  16.873  0.1813  0.0790 -0.5583
  613MPD2     H 9138   0.274   4.143  16.612 -0.4246 -2.5733  1.1580
  613MPD2    H1 9139   0.321   4.284  17.012 -0.0776 -2.1770  0.8407
  613MPD2    H2 9140   0.638   4.314  16.727  0.4962 -1.6121  1.6155
  613MPD2    H3 9141   0.544   4.370  16.939  0.7131 -0.2163 -0.7588
  613MPD2     N 9142   0.146   4.193  16.834  0.0371 -0.0494  0.0283
  613MPD2    H5 9143   0.100   4.148  16.755 -0.9047 -1.4538  1.3616
  613MPD2    N1 9144   0.517   4.203  16.523 -0.7963 -0.1168  0.3459
  613MPD2    H7 9145   0.451   4.158  16.462 -1.5385  1.7327 -0.2088
  614TMC3    C1 9146   0.618   4.224  16.323 -0.4482 -0.0272 -0.0017
  614TMC3    C2 9147   0.531   4.121  16.290 -0.1101 -0.3804  0.0015
  614TMC3    C3 9148   0.448   4.136  16.189  0.6163 -0.3065  0.0889
  614TMC3    C4 9149   0.622   4.338  16.242  0.2122  0.3215 -0.0341
  614TMC3    C5 9150   0.539   4.336  16.129 -0.7781 -0.6621 -0.1251
  614TMC3    C6 9151   0.446   4.243  16.107  0.3506  0.5811 -0.2258
  614TMC3     C 9152   0.636   4.245  16.467  0.2499 -0.2026 -0.2552
  614TMC3     O 9153   0.700   4.338  16.508  0.0500 -0.3527 -0.0265
  614TMC3     H 9154   0.525   4.027  16.343  0.9988 -0.4273  0.0514
  614TMC3    H1 9155   0.692   4.416  16.270  1.3361 -1.4276  2.0840
  614TMC3    H2 9156   0.361   4.247  16.039 -0.0995 -2.6226  0.1686
  614TMC3    C7 9157   0.546   4.454  16.050 -0.1147 -0.1710 -0.3375
  614TMC3    C8 9158   0.319   4.085  16.244  0.3530  0.5531 -0.0767
  614TMC3    O1 9159   0.581   4.559  16.095 -0.2546 -0.1371 -0.2224
  614TMC3    O2 9160   0.313   4.041  16.357 -0.3709 -0.2026  0.2889
  615MPD2     C 9161   4.041   1.247  15.991  0.8648  0.7335 -0.0628
  615MPD2    C1 9162   4.005   1.369  15.933 -0.0849  0.2732 -0.9575
  615MPD2    C2 9163   3.912   1.362  15.832 -0.0948  0.1543  0.6584
  615MPD2    C3 9164   3.874   1.237  15.781 -0.2172 -0.0911 -0.1515
  615MPD2    C4 9165   3.915   1.117  15.842 -0.3558  0.1568  0.1071
  615MPD2    C5 9166   3.993   1.129  15.948 -0.0819  0.3490  0.1825
  615MPD2     H 9167   3.877   1.455  15.789 -0.4168  0.5358  1.7566
  615MPD2    H1 9168   3.876   1.017  15.825  0.0072  0.1252 -0.5568
  615MPD2    H2 9169   4.100   1.241  16.081 -0.3728 -1.3728  0.6179
  615MPD2    H3 9170   4.014   1.039  16.005  1.4236  0.4311 -0.2513
  615MPD2     N 9171   3.783   1.232  15.666  0.7635 -0.7290 -0.7202
  615MPD2    H5 9172   3.750   1.140  15.637 -2.7853 -0.3900  2.2377
  615MPD2    N1 9173   4.062   1.489  15.994  0.4624 -0.2874  0.2077
  615MPD2    H7 9174   4.023   1.580  15.973  1.7094  0.5969  1.7204
  616TMC3    C1 9175   4.187   1.636  16.127  0.2608 -0.7498  0.5949
  616TMC3    C2 9176   4.310   1.691  16.122  0.1836 -0.1186 -0.0542
  616TMC3    C3 9177   4.328   1.817  16.174  0.2352 -0.3814 -0.1787
  616TMC3    C4 9178   4.082   1.697  16.188  0.1904  0.2743 -0.4384
  616TMC3    C5 9179   4.105   1.825  16.233 -0.5623  0.4648 -0.1767
  616TMC3    C6 9180   4.225   1.892  16.226 -0.2278 -0.0678  0.4034
  616TMC3     C 9181   4.167   1.500  16.082 -0.4010  0.2459 -0.0911
  616TMC3     O 9182   4.244   1.412  16.114  0.4975 -0.2789 -0.1331
  616TMC3     H 9183   4.395   1.636  16.081 -0.3681 -1.1319  0.1654
  616TMC3    H1 9184   3.980   1.661  16.190 -0.4101  1.9293 -1.3716
  616TMC3    H2 9185   4.248   1.994  16.256  0.3603 -0.4264  1.2053
  616TMC3    C7 9186   3.995   1.893  16.295 -0.1930  0.8340  0.2302
  616TMC3    C8 9187   4.460   1.873  16.148  0.1265  0.1270 -0.5430
  616TMC3    O1 9188   3.980   2.013  16.282 -0.1015  0.2510 -0.3120
  616TMC3    O2 9189   4.472   1.992  16.162 -0.2601  0.1960  0.3367
  617MPD2     C 9190   2.327   3.702  13.447  0.0920  0.2002  0.4214
  617MPD2    C1 9191   2.346   3.732  13.582  0.6111 -0.1283  0.6727
  617MPD2    C2 9192   2.243   3.711  13.671 -0.6501 -0.0932  0.2059
  617MPD2    C3 9193   2.128   3.663  13.629  0.6348 -0.3058 -0.3545
  617MPD2    C4 9194   2.115   3.616  13.499 -0.5974 -0.1724  0.4845
  617MPD2    C5 9195   2.212   3.639  13.410 -0.4859 -0.5278  0.1769
  617MPD2     H 9196   2.256   3.742  13.775  1.9070  1.1114 -0.4603
  617MPD2    H1 9197   2.021   3.567  13.478  0.0489 -0.3813 -1.8605
  617MPD2    H2 9198   2.405   3.698  13.372  0.5552  1.7565  0.8246
  617MPD2    H3 9199   2.199   3.601  13.309  0.9454 -0.3517 -0.0761
  617MPD2     N 9200   2.011   3.671  13.711  0.1189  0.5057 -0.4258
  617MPD2    H5 9201   1.928   3.626  13.674  0.1248 -0.7626  1.0862
  617MPD2    N1 9202   2.469   3.791  13.616  0.0776 -0.5800  0.4217
  617MPD2    H7 9203   2.547   3.791  13.551 -1.2028  0.9944 -1.0931
  618TMC3    C1 9204   2.643   3.847  13.771  0.4572  0.0608 -0.2706
  618TMC3    C2 9205   2.681   3.925  13.874  0.1043  0.3967 -0.5734
  618TMC3    C3 9206   2.814   3.942  13.898  0.2710 -0.1712 -0.4579
  618TMC3    C4 9207   2.737   3.788  13.684 -0.1446  0.5469 -0.2043
  618TMC3    C5 9208   2.870   3.811  13.714 -0.2988  0.6559  0.9185
  618TMC3    C6 9209   2.907   3.897  13.817  0.9531  0.5627  0.2272
  618TMC3     C 9210   2.495   3.844  13.739  0.3913 -0.5775  0.4085
  618TMC3     O 9211   2.418   3.889  13.824  0.0996  0.6661  0.3225
  618TMC3     H 9212   2.597   3.960  13.933  0.2550  0.3076 -0.3066
  618TMC3    H1 9213   2.716   3.710  13.611  2.0938 -1.2178  1.0387
  618TMC3    H2 9214   3.011   3.923  13.835  0.8402  1.9475 -1.1574
  618TMC3    C7 9215   2.963   3.701  13.679 -0.6049  0.4972  0.5436
  618TMC3    C8 9216   2.847   3.971  14.033  0.2640 -0.2591 -0.1685
  618TMC3    O1 9217   2.924   3.586  13.650 -0.4327  0.0978  0.2216
  618TMC3    O2 9218   2.751   3.988  14.110  0.4354 -0.1190 -0.1430
  619MPD2     C 9219   3.853   0.547  13.811 -0.3801 -0.4269  0.1573
  619MPD2    C1 9220   3.764   0.608  13.725 -0.3956  0.0659 -0.3904
  619MPD2    C2 9221   3.630   0.575  13.739  0.0528 -0.8067  0.2420
  619MPD2    C3 9222   3.582   0.485  13.830  0.3087 -0.1222  0.6271
  619MPD2    C4 9223   3.675   0.428  13.913 -0.1085 -0.2712 -0.1150
  619MPD2    C5 9224   3.806   0.453  13.901  0.0252 -0.4290 -0.1046
  619MPD2     H 9225   3.555   0.628  13.681 -0.9729 -1.6294  0.8215
  619MPD2    H1 9226   3.638   0.359  13.987 -0.0208 -0.3277 -0.1238
  619MPD2    H2 9227   3.960   0.568  13.813 -0.9262  2.3184  0.3587
  619MPD2    H3 9228   3.879   0.411  13.970  2.0477  2.8773 -0.2101
  619MPD2     N 9229   3.441   0.454  13.846 -1.1545  0.9120  0.1738
  619MPD2    H5 9230   3.417   0.395  13.925 -0.9869  0.5669 -0.0339
  619MPD2    N1 9231   3.798   0.718  13.642  0.0714 -0.0290 -0.2883
  619MPD2    H7 9232   3.717   0.758  13.596  1.1769  2.9092  0.3309
  620TMC3    C1 9233   3.912   0.915  13.577  0.7202  0.3638 -0.6927
  620TMC3    C2 9234   3.842   0.908  13.460 -0.0270  0.5141  0.5804
  620TMC3    C3 9235   3.859   1.015  13.372 -0.4999 -0.8181  0.2669
  620TMC3    C4 9236   3.983   1.023  13.619  0.4855  0.4740  0.1289
  620TMC3    C5 9237   3.985   1.130  13.536 -0.1428 -0.7048 -0.0140
  620TMC3    C6 9238   3.922   1.127  13.418 -0.2069  1.0602  0.0637
  620TMC3     C 9239   3.908   0.797  13.662  1.2887  0.2998 -0.7730
  620TMC3     O 9240   4.001   0.792  13.742  0.7392  0.2179 -0.6933
  620TMC3     H 9241   3.815   0.807  13.430  0.6865  0.3234  0.5592
  620TMC3    H1 9242   4.034   1.025  13.715 -2.6860 -1.1385  1.8169
  620TMC3    H2 9243   3.935   1.209  13.349 -3.8772 -0.1521 -2.0988
  620TMC3    C7 9244   4.021   1.265  13.587 -0.5136 -0.0555 -0.4517
  620TMC3    C8 9245   3.759   1.040  13.277  0.1929  0.5365  0.0422
  620TMC3    O1 9246   3.975   1.358  13.523  0.4693  0.0005 -0.0902
  620TMC3    O2 9247   3.786   1.121  13.190  0.6005 -0.5987 -0.1124
  621MPD2     C 9248   4.534   0.886  10.638 -0.5053 -0.0523  0.2862
  621MPD2    C1 9249   4.437   0.976  10.588  0.2993 -0.0535  0.1927
  621MPD2    C2 9250   4.475   1.063  10.485 -0.5897 -0.5857  0.1600
  621MPD2    C3 9251   4.600   1.052  10.427 -0.1645 -0.1889 -0.3469
  621MPD2    C4 9252   4.689   0.963  10.478  0.1051 -0.8698  0.3478
  621MPD2    C5 9253   4.660   0.891  10.589 -0.1904 -0.6759 -0.2376
  621MPD2     H 9254   4.403   1.136  10.449 -2.1801 -0.7226  3.0164
  621MPD2    H1 9255   0.049   0.946  10.434  0.6028 -0.2702  1.2405
  621MPD2    H2 9256   4.517   0.824  10.725 -0.5705 -2.8366 -1.7051
  621MPD2    H3 9257   4.734   0.823  10.629 -0.7212 -0.5215  1.0227
  621MPD2     N 9258   4.638   1.133  10.320 -0.4770 -0.0073 -0.3406
  621MPD2    H5 9259   0.002   1.142  10.314 -0.2750 -1.0081  1.6458
  621MPD2    N1 9260   4.309   0.992  10.646 -0.6364  0.1009 -0.1036
  621MPD2    H7 9261   4.247   1.054  10.596  1.1590  0.8207 -1.4521
  622TMC3    C1 9262   4.103   0.938  10.737 -0.5962  0.4357  0.3568
  622TMC3    C2 9263   4.078   1.071  10.740 -0.2371  0.0349 -0.5105
  622TMC3    C3 9264   3.945   1.104  10.730  0.4705 -0.0862  0.2456
  622TMC3    C4 9265   4.011   0.836  10.725 -0.5418  0.4545 -0.2394
  622TMC3    C5 9266   3.880   0.881  10.707  0.6733  1.1336  0.7424
  622TMC3    C6 9267   3.844   1.016  10.716 -0.0154  0.4595 -0.3258
  622TMC3     C 9268   4.242   0.902  10.729 -0.2987  0.6782  1.1687
  622TMC3     O 9269   4.271   0.792  10.764  0.1521  0.3219  0.1439
  622TMC3     H 9270   4.155   1.147  10.751 -0.3744  0.2748 -1.2413
  622TMC3    H1 9271   4.041   0.734  10.707 -3.6526 -0.4966 -0.1135
  622TMC3    H2 9272   3.741   1.052  10.712  0.4697  2.0180  1.1837
  622TMC3    C7 9273   3.771   0.789  10.689  0.3957  0.3544  0.3067
  622TMC3    C8 9274   3.919   1.246  10.701 -0.1433 -0.1181 -0.1688
  622TMC3    O1 9275   3.662   0.837  10.703 -0.5307 -0.1614  0.5799
  622TMC3    O2 9276   3.964   1.328  10.779  0.4897 -0.3805 -0.2297
  623MPD2     C 9277   2.758   1.058  16.014  0.0701  0.0884 -0.0761
  623MPD2    C1 9278   2.710   0.934  16.036 -0.3356 -0.3550  0.0501
  623MPD2    C2 9279   2.777   0.847  16.121 -0.6919  0.1906 -0.3148
  623MPD2    C3 9280   2.897   0.884  16.175 -0.0442 -0.6774  0.0196
  623MPD2    C4 9281   2.951   1.008  16.141 -0.0011 -0.6062 -0.2156
  623MPD2    C5 9282   2.884   1.087  16.058 -0.8645  0.0185  0.3794
  623MPD2     H 9283   2.748   0.743  16.133  1.7076 -0.4811 -0.2940
  623MPD2    H1 9284   3.047   1.039  16.182 -0.7345  0.6561  0.5482
  623MPD2    H2 9285   2.697   1.132  15.964  1.0409  0.1307 -1.1972
  623MPD2    H3 9286   2.924   1.186  16.037 -0.7715  0.3302  2.0314
  623MPD2     N 9287   2.952   0.787  16.264 -0.2003  0.7556  0.0352
  623MPD2    H5 9288   2.897   0.705  16.287 -0.2117  0.9428  0.6806
  623MPD2    N1 9289   2.587   0.896  15.975 -0.6097  0.2813  0.2120
  623MPD2    H7 9290   2.525   0.968  15.939  0.5069  1.2483  0.2095
  624TMC3    C1 9291   3.162   0.669  16.665 -0.1083  0.3129 -0.5630
  624TMC3    C2 9292   3.076   0.564  16.682 -0.2943  0.5001  0.5099
  624TMC3    C3 9293   2.997   0.532  16.578 -0.6433 -0.4997  0.5403
  624TMC3    C4 9294   3.160   0.741  16.547  0.2614  0.4359  0.3168
  624TMC3    C5 9295   3.066   0.720  16.450 -0.3439 -0.3335  0.3342
  624TMC3    C6 9296   2.986   0.605  16.464  0.0313  0.1619  0.1154
  624TMC3     C 9297   3.274   0.655  16.758  0.2818  0.3831  0.0160
  624TMC3     O 9298   3.294   0.554  16.820  0.3492 -0.0821  0.1543
  624TMC3     H 9299   3.074   0.508  16.775 -0.1930  0.3319  0.4117
  624TMC3    H1 9300   3.220   0.831  16.535  1.6689 -0.9364 -2.9459
  624TMC3    H2 9301   2.919   0.569  16.387  0.7307  0.2137 -0.5198
  624TMC3    C7 9302   3.053   0.822  16.348  0.1294  0.1229  0.0493
  624TMC3    C8 9303   2.869   0.465  16.607  0.9348  0.2245  0.4664
  624TMC3    O1 9304   3.124   0.919  16.349 -0.3501  0.0430  0.2979
  624TMC3    O2 9305   2.816   0.391  16.529  0.2214  0.0419  0.0903
  625MPD2     C 9306   3.455   2.102   0.592 -0.1124 -0.0161  0.4690
  625MPD2    C1 9307   3.530   2.215   0.557 -0.2090 -0.4742 -0.7444
  625MPD2    C2 9308   3.667   2.222   0.597  0.0683 -0.4028  0.3311
  625MPD2    C3 9309   3.726   2.105   0.647  0.5799  0.4773  0.3725
  625MPD2    C4 9310   3.652   1.994   0.678  0.3737 -0.3530  0.6341
  625MPD2    C5 9311   3.512   1.996   0.662 -0.0349 -0.0926  1.0909
  625MPD2     H 9312   3.736   2.305   0.588 -0.9022  0.4381  0.6682
  625MPD2    H1 9313   3.702   1.910   0.725 -2.2621 -1.7798  0.8622
  625MPD2    H2 9314   3.348   2.100   0.575  0.0624 -2.6834 -0.3931
  625MPD2    H3 9315   3.452   1.912   0.695 -1.1819 -0.1700 -1.2000
  625MPD2     N 9316   3.862   2.117   0.686  0.3407  0.4111  0.5758
  625MPD2    H5 9317   3.894   2.211   0.708 -1.9956  1.3706 -0.1461
  625MPD2    N1 9318   3.472   2.323   0.483 -0.6580 -0.2775  0.0718
  625MPD2    H7 9319   3.526   2.409   0.481 -0.2312 -0.5572 -0.2347
  626TMC3    C1 9320   3.320   2.445   0.371 -0.1310  0.7189 -0.0339
  626TMC3    C2 9321   3.229   2.451   0.268 -0.0969  0.8906  0.1171
  626TMC3    C3 9322   3.187   2.577   0.236 -0.2844 -0.0872  0.8049
  626TMC3    C4 9323   3.359   2.556   0.446  0.1292  0.0608 -0.3450
  626TMC3    C5 9324   3.315   2.678   0.405 -0.3674  0.3239  0.6866
  626TMC3    C6 9325   3.230   2.694   0.300 -0.5190 -0.0315 -0.4663
  626TMC3     C 9326   3.357   2.315   0.410 -0.3773 -0.4544  0.2071
  626TMC3     O 9327   3.317   2.218   0.348 -0.4884  0.4190 -0.0394
  626TMC3     H 9328   3.212   2.370   0.198 -0.9917  1.2471 -0.0764
  626TMC3    H1 9329   3.419   2.556   0.536 -1.0646 -1.7215  0.4542
  626TMC3    H2 9330   3.215   2.790   0.253 -1.2881 -0.5751 -1.3413
  626TMC3    C7 9331   3.300   2.762   0.519  0.8724 -0.4132 -0.2651
  626TMC3    C8 9332   3.102   2.588   0.110  0.0600 -0.0112  0.5039
  626TMC3    O1 9333   3.388   2.777   0.598  0.1616  0.0720  0.0965
  626TMC3    O2 9334   3.128   2.685   0.038  0.5623 -0.0967 -0.4422
  627MPD2     C 9335   1.489   2.563  14.270 -0.0776  0.0054  0.2914
  627MPD2    C1 9336   1.558   2.510  14.377 -0.6707  0.0104  0.0968
  627MPD2    C2 9337   1.578   2.374  14.384 -0.1755  0.1991  0.5259
  627MPD2    C3 9338   1.528   2.294  14.284 -0.0891  0.5053 -0.2868
  627MPD2    C4 9339   1.448   2.344  14.181  0.5603 -0.0429 -0.1612
  627MPD2    C5 9340   1.433   2.483  14.177  0.1000  0.5080  0.5249
  627MPD2     H 9341   1.644   2.331  14.459 -0.1328 -0.0589  0.3425
  627MPD2    H1 9342   1.404   2.289  14.099  2.6819 -0.9517 -0.6895
  627MPD2    H2 9343   1.483   2.670  14.257  4.0400  0.4078  1.5461
  627MPD2    H3 9344   1.373   2.527  14.098  1.9530  1.8847 -0.0851
  627MPD2     N 9345   1.566   2.163  14.280 -0.2482 -0.3310  0.4107
  627MPD2    H5 9346   1.604   2.124  14.366  1.8122  1.7734  0.4536
  627MPD2    N1 9347   1.629   2.586  14.470 -0.1697 -0.0443  0.5816
  627MPD2    H7 9348   1.682   2.535  14.541 -0.1359 -0.6329  0.1304
  628TMC3    C1 9349   1.750   2.752  14.567 -0.4083 -0.0749  0.0781
  628TMC3    C2 9350   1.818   2.651  14.641  0.9169  0.1725 -0.4575
  628TMC3    C3 9351   1.939   2.674  14.702  0.5309  0.9435  0.3893
  628TMC3    C4 9352   1.788   2.884  14.579  0.6216 -0.6527 -0.1854
  628TMC3    C5 9353   1.907   2.908  14.645  0.4743  0.1093  0.0803
  628TMC3    C6 9354   1.989   2.805  14.698 -0.6109 -0.1283 -0.6241
  628TMC3     C 9355   1.656   2.715  14.464 -1.1327  0.0273 -0.5097
  628TMC3     O 9356   1.628   2.794  14.376 -0.0381 -0.3533 -0.2905
  628TMC3     H 9357   1.787   2.548  14.653  1.9736 -0.2396 -1.2511
  628TMC3    H1 9358   1.724   2.962  14.541 -0.1315  0.4982  3.3950
  628TMC3    H2 9359   2.073   2.837  14.759  0.1685 -0.6940 -1.3987
  628TMC3    C7 9360   1.965   3.040  14.658  0.1575  0.6533 -0.3919
  628TMC3    C8 9361   2.043   2.569  14.675  0.2475 -0.1899 -0.1570
  628TMC3    O1 9362   2.032   3.069  14.756 -0.0942  0.0530 -0.2432
  628TMC3    O2 9363   2.004   2.467  14.623  0.4492 -0.2699  0.6824
  629MPD2     C 9364   0.214   1.847  16.006  0.0796 -1.2730  0.0559
  629MPD2    C1 9365   0.170   1.718  16.027 -0.5657 -0.3327  0.1693
  629MPD2    C2 9366   0.037   1.700  16.070 -0.6143  0.1041 -0.4852
  629MPD2    C3 9367   4.693   1.811  16.091 -0.1383 -0.0348  0.5007
  629MPD2    C4 9368   4.736   1.939  16.053 -0.2805  0.4957 -0.6839
  629MPD2    C5 9369   0.132   1.956  16.010 -0.0174 -0.3860 -0.0709
  629MPD2     H 9370   0.004   1.599  16.089 -0.8046  0.3082  0.2641
  629MPD2    H1 9371   4.674   2.028  16.061  1.1715  1.5793 -1.6295
  629MPD2    H2 9372   0.315   1.863  15.971  0.0440 -0.4681  0.3398
  629MPD2    H3 9373   0.172   2.056  16.000 -0.6225 -0.2222 -0.9580
  629MPD2     N 9374   4.564   1.784  16.133 -0.1810  0.2718 -0.6006
  629MPD2    H5 9375   4.539   1.687  16.150  0.9429 -0.6411 -4.1093
  629MPD2    N1 9376   0.260   1.614  16.005  0.4511  0.2875  0.9202
  629MPD2    H7 9377   0.358   1.641  15.995 -0.4829  3.3123 -0.2179
  630TMC3    C1 9378   0.349   1.391  15.997  0.3525 -0.3766 -0.0768
  630TMC3    C2 9379   0.455   1.426  15.918  0.5626  0.4520 -0.2255
  630TMC3    C3 9380   0.587   1.398  15.956  0.2456  0.0566 -0.3281
  630TMC3    C4 9381   0.373   1.306  16.109  0.3708  0.1875  0.4583
  630TMC3    C5 9382   0.504   1.268  16.144  0.1672 -0.1036  0.3318
  630TMC3    C6 9383   0.604   1.319  16.064 -0.7547  0.0937  0.2965
  630TMC3     C 9384   0.233   1.478  16.013 -0.9508  0.4629 -0.2382
  630TMC3     O 9385   0.135   1.417  16.048 -0.5236  1.1485 -0.0649
  630TMC3     H 9386   0.430   1.483  15.829 -0.3135  1.1885  0.4904
  630TMC3    H1 9387   0.301   1.320  16.189 -1.8644  0.4067 -1.6003
  630TMC3    H2 9388   0.703   1.286  16.096  0.0019  0.5176 -1.6173
  630TMC3    C7 9389   0.532   1.240  16.280 -0.9707 -0.4473  0.6415
  630TMC3    C8 9390   0.703   1.452  15.894  0.0528 -0.1630 -0.2309
  630TMC3    O1 9391   0.505   1.126  16.321  0.7475 -0.3808 -0.2471
  630TMC3    O2 9392   0.809   1.412  15.938  0.3053 -0.0762 -0.4739
  631MPD2     C 9393   2.947   0.981  15.287 -0.7685 -0.4141  0.2456
  631MPD2    C1 9394   2.988   1.058  15.188  0.5154  0.5618 -0.2594
  631MPD2    C2 9395   3.125   1.082  15.164  0.0981 -0.6880  0.7619
  631MPD2    C3 9396   3.224   1.025  15.247  1.2175 -0.4556  0.3860
  631MPD2    C4 9397   3.176   0.932  15.340 -0.2245 -0.6907 -0.3055
  631MPD2    C5 9398   3.041   0.920  15.361  0.0677  0.2563  0.1843
  631MPD2     H 9399   3.158   1.157  15.093  2.4719 -2.9021 -0.4867
  631MPD2    H1 9400   3.243   0.877  15.407  1.0996  1.2389 -0.0513
  631MPD2    H2 9401   2.842   0.956  15.296 -0.7446 -1.0190 -1.1852
  631MPD2    H3 9402   3.010   0.855  15.443  0.9911 -1.5942 -0.9289
  631MPD2     N 9403   3.352   1.086  15.235  0.0907  0.1256  0.1344
  631MPD2    H5 9404   3.358   1.163  15.169 -2.3021 -1.4234 -1.8758
  631MPD2    N1 9405   2.886   1.110  15.108 -0.0421 -0.0259 -0.4253
  631MPD2    H7 9406   2.790   1.099  15.140 -0.0638  1.3352 -0.0328
  632TMC3    C1 9407   2.778   1.273  14.980  0.1072  0.2110 -0.3922
  632TMC3    C2 9408   2.719   1.316  15.096  0.0453 -0.0848 -0.2217
  632TMC3    C3 9409   2.674   1.446  15.095  0.0361  0.5629  0.5917
  632TMC3    C4 9410   2.788   1.340  14.860  0.3121 -0.3746  0.2464
  632TMC3    C5 9411   2.755   1.472  14.867 -0.7589  0.0759  0.3835
  632TMC3    C6 9412   2.697   1.523  14.979  0.7402  0.2385 -0.2731
  632TMC3     C 9413   2.900   1.193  15.000  0.1731  0.1780 -0.6258
  632TMC3     O 9414   3.000   1.219  14.933  0.8443  0.3288  0.8791
  632TMC3     H 9415   2.732   1.263  15.190  1.5450 -1.0620 -0.9818
  632TMC3    H1 9416   2.831   1.298  14.770  1.4197  2.7450 -0.6910
  632TMC3    H2 9417   2.671   1.628  14.985  0.8125  0.3159 -1.3753
  632TMC3    C7 9418   2.836   1.568  14.800 -0.3929 -0.2674  0.3663
  632TMC3    C8 9419   2.711   1.533  15.204  0.2518  0.2741 -0.4097
  632TMC3    O1 9420   2.854   1.550  14.679  0.1537 -0.3965 -0.3417
  632TMC3    O2 9421   2.796   1.616  15.169 -0.2585  0.4520 -0.4052
  633MPD2     C 9422   3.073   3.681  17.363  0.0144  0.0043  0.0570
  633MPD2    C1 9423   3.089   3.628  17.236  0.3314 -0.0188  0.2779
  633MPD2    C2 9424   3.072   3.488  17.212  0.1713  0.4289  0.2828
  633MPD2    C3 9425   3.056   3.401  17.320 -0.5629 -0.2819  0.2408
  633MPD2    C4 9426   3.058   3.459  17.443  0.1566  0.5939 -0.4343
  633MPD2    C5 9427   3.072   3.591  17.463  0.4953 -0.3188 -0.4875
  633MPD2     H 9428   3.075   3.448  17.112 -0.1845  0.4101  0.2775
  633MPD2    H1 9429   3.063   3.400  17.534  2.6261  1.0590 -0.2818
  633MPD2    H2 9430   3.107   3.781  17.389  0.3959 -0.1237  0.0568
  633MPD2    H3 9431   3.079   3.617  17.568 -1.6575 -0.7568 -0.2317
  633MPD2     N 9432   3.044   3.261  17.310 -0.1980  0.0715 -0.1734
  633MPD2    H5 9433   3.064   3.201  17.389 -2.0742 -2.0445 -1.2920
  633MPD2    N1 9434   3.130   3.714  17.127 -0.1866 -0.1532 -0.0341
  633MPD2    H7 9435   3.134   3.675  17.033  0.6427 -3.0940  1.2022
  634TMC3    C1 9436   3.225   3.906  17.019  0.3417  0.1336  0.2884
  634TMC3    C2 9437   3.307   3.833  16.934 -0.5710 -0.3215  0.2964
  634TMC3    C3 9438   3.354   3.889  16.815  0.1023  0.1878 -0.2564
  634TMC3    C4 9439   3.199   4.034  16.992 -0.0396 -0.4912  0.3822
  634TMC3    C5 9440   3.235   4.081  16.871 -0.7700  0.0035  0.4007
  634TMC3    C6 9441   3.310   4.008  16.776 -0.1839  0.7062 -0.3166
  634TMC3     C 9442   3.147   3.853  17.129 -0.2731  0.0998  0.4843
  634TMC3     O 9443   3.121   3.932  17.222  0.3837 -0.2546 -0.4695
  634TMC3     H 9444   3.348   3.735  16.955 -1.3296 -0.2894  1.9438
  634TMC3    H1 9445   3.132   4.089  17.056 -0.1919 -0.1890 -0.0368
  634TMC3    H2 9446   3.329   4.044  16.676 -0.0931 -0.4997 -0.7244
  634TMC3    C7 9447   3.196   4.217  16.821  0.0019 -0.0831  0.6327
  634TMC3    C8 9448   3.412   3.802  16.713  0.4090  0.0505 -0.2877
  634TMC3    O1 9449   3.252   4.254  16.721  0.0589  0.7551  0.2397
  634TMC3    O2 9450   3.401   3.679  16.732  0.2518 -0.0874  0.6166
  635TMC3    C1 9451   2.621   0.094   0.474 -0.0059 -0.5803  0.6330
  635TMC3    C2 9452   2.719   0.020   0.403  0.2940  0.1561 -0.1646
  635TMC3    C3 9453   2.704   4.624   0.387 -0.4466 -0.7280 -0.3757
  635TMC3    C4 9454   2.515   0.025   0.541  0.1266 -0.5716 -0.1393
  635TMC3    C5 9455   2.511   4.627   0.529 -0.0405 -0.3155  0.4421
  635TMC3    C6 9456   2.610   4.559   0.453 -0.2732  0.3306 -0.1828
  635TMC3     C 9457   2.615   0.243   0.469 -0.1005  1.2720 -0.8424
  635TMC3     O 9458   2.527   0.303   0.524 -0.1164  0.2047 -0.2461
  635TMC3     H 9459   2.803   0.069   0.356  0.1587  0.3960 -0.1602
  635TMC3    H1 9460   2.453   0.073   0.615 -0.1173 -0.0380 -0.6987
  635TMC3    H2 9461   2.580   4.459   0.423  0.9789 -0.5169  1.3888
  635TMC3    C7 9462   2.410   4.555   0.607 -0.2915  0.3918  0.7451
  635TMC3    C8 9463   2.793   4.558   0.291 -0.4247  0.1331  0.0945
  635TMC3    O1 9464   2.317   4.623   0.639  0.2714  0.2416  0.0255
  635TMC3    O2 9465   2.860   4.631   0.218 -0.9020  0.6193 -0.6292
  636MPD2     C 9466   4.075   0.036  16.594  0.0664  0.1351 -0.0457
  636MPD2    C1 9467   4.170   4.731  16.499  0.2550 -0.3975  0.7520
  636MPD2    C2 9468   4.255   4.631  16.541 -0.1989 -0.5629 -0.5711
  636MPD2    C3 9469   4.251   4.583  16.670  0.2677 -0.0101  0.3260
  636MPD2    C4 9470   4.146   4.620  16.759  0.2300 -0.1341  0.2237
  636MPD2    C5 9471   4.063   4.722  16.723 -0.6478  0.5728 -0.8722
  636MPD2     H 9472   4.340   4.603  16.479  2.2512  2.5474  1.3793
  636MPD2    H1 9473   4.144   4.564  16.852  1.7185  1.5551  1.2703
  636MPD2    H2 9474   4.023   0.126  16.563 -0.1056  0.3083  0.7451
  636MPD2    H3 9475   4.000   0.034  16.796  2.0338  1.9439  0.5318
  636MPD2     N 9476   4.360   4.496  16.704  0.5060  0.0026 -0.1958
  636MPD2    H5 9477   4.425   4.467  16.632 -0.2073  1.2628 -1.3509
  636MPD2    N1 9478   4.161   0.044  16.364 -0.7174 -0.3463 -0.2495
  636MPD2    H7 9479   4.080   0.102  16.343 -2.3364 -1.8722  1.8797
  637TMC3    C1 9480   4.498   4.343  16.822  0.2927  0.3085  0.7501
  637TMC3    C2 9481   4.596   4.337  16.919 -0.6801 -0.1190 -0.3132
  637TMC3    C3 9482   4.669   4.223  16.924  0.1963  0.0704 -0.4492
  637TMC3    C4 9483   4.485   4.252  16.712  0.4207  0.7823 -0.8422
  637TMC3    C5 9484   4.571   4.142  16.727 -0.2702  0.5648  0.1276
  637TMC3    C6 9485   4.646   4.119  16.841  0.3385  0.1167 -0.4705
  637TMC3     C 9486   4.395   4.450  16.830  0.0521 -0.5153 -0.2215
  637TMC3     O 9487   4.362   4.485  16.944  0.1443  0.0784 -0.1652
  637TMC3     H 9488   4.598   4.423  16.985 -0.5446  2.1279 -3.2801
  637TMC3    H1 9489   4.406   4.257  16.638  1.1608 -0.8886 -1.7470
  637TMC3    H2 9490   4.701   4.026  16.847  1.0881  0.6769  1.3880
  637TMC3    C7 9491   4.642   4.109  16.602 -0.8210 -0.0357  0.3366
  637TMC3    C8 9492   0.070   4.254  16.933  0.5279  0.2716 -0.6229
  637TMC3    O1 9493   0.022   4.074  16.618 -0.4445  0.0891  0.4036
  637TMC3    O2 9494   0.102   4.346  17.010  0.4468  0.3177  0.7040
  638MPD2     C 9495   4.390   3.406  15.187 -0.1079 -0.2597  0.2794
  638MPD2    C1 9496   4.497   3.357  15.120 -1.0040 -0.6566 -0.2716
  638MPD2    C2 9497   4.529   3.223  15.134  0.2024  0.4592 -0.0839
  638MPD2    C3 9498   4.460   3.137  15.219  0.2493  0.1922 -0.6451
  638MPD2    C4 9499   4.353   3.193  15.290 -0.7922  0.2758 -0.2060
  638MPD2    C5 9500   4.320   3.326  15.267  0.8041 -0.2885 -0.0271
  638MPD2     H 9501   4.596   3.179  15.061  3.4757  2.7841  1.5545
  638MPD2    H1 9502   4.295   3.136  15.361 -1.2774  1.7102  0.5533
  638MPD2    H2 9503   4.363   3.510  15.177 -2.0490 -0.8345 -0.5731
  638MPD2    H3 9504   4.235   3.370  15.319  1.9978 -0.7642  2.3510
  638MPD2     N 9505   4.487   2.995  15.215  0.3925 -0.2201  0.3471
  638MPD2    H5 9506   4.557   2.955  15.154  1.9272 -0.0867  2.0127
  638MPD2    N1 9507   4.552   3.452  15.030 -0.0713 -0.4004 -0.4486
  638MPD2    H7 9508   4.500   3.538  15.018  0.1709 -0.2245 -0.2379
  639TMC3    C1 9509   4.418   2.779  15.212  0.8418 -0.3017 -0.0827
  639TMC3    C2 9510   4.299   2.781  15.143 -0.5592  0.2777  0.8338
  639TMC3    C3 9511   4.275   2.674  15.062  0.3585  0.3177  0.9931
  639TMC3    C4 9512   4.519   2.692  15.215 -0.4717 -0.2428 -0.1614
  639TMC3    C5 9513   4.497   2.592  15.122 -0.4694  0.0385  0.1595
  639TMC3    C6 9514   4.373   2.579  15.055 -0.3858 -0.2571  0.3302
  639TMC3     C 9515   4.425   2.902  15.288  0.3094  0.3864  0.0343
  639TMC3     O 9516   4.345   2.914  15.381  0.0087 -0.2634  0.1936
  639TMC3     H 9517   4.221   2.855  15.158 -0.5309  0.0912  1.8676
  639TMC3    H1 9518   4.608   2.708  15.274 -0.4483 -1.4009  0.1212
  639TMC3    H2 9519   4.351   2.508  14.976  0.7699 -0.7294  0.4409
  639TMC3    C7 9520   4.577   2.467  15.115 -0.3309 -0.1969  0.3121
  639TMC3    C8 9521   4.163   2.675  14.966  0.8616 -0.0291  0.0239
  639TMC3    O1 9522   4.520   2.365  15.082  0.2139  0.4857 -0.0771
  639TMC3    O2 9523   4.137   2.565  14.917  1.0180 -1.0071  0.1239
  640MPD2     C 9524   0.686   2.720  10.423 -0.5047  0.3477 -0.4440
  640MPD2    C1 9525   0.613   2.722  10.304 -0.0696 -0.2720 -0.3245
  640MPD2    C2 9526   0.491   2.774  10.314 -0.0487 -0.4559  0.1179
  640MPD2    C3 9527   0.439   2.832  10.430 -0.0025  0.9138 -0.5321
  640MPD2    C4 9528   0.519   2.840  10.539  0.4147 -0.1844 -0.2236
  640MPD2    C5 9529   0.642   2.777  10.545 -0.3520 -0.5368  0.8361
  640MPD2     H 9530   0.423   2.752  10.232 -0.0303 -1.0771  0.2732
  640MPD2    H1 9531   0.500   2.909  10.620 -0.8004  0.1015 -0.7485
  640MPD2    H2 9532   0.788   2.684  10.416  0.1051  1.5340  2.1574
  640MPD2    H3 9533   0.714   2.784  10.625 -0.6917  0.3005  1.0744
  640MPD2     N 9534   0.314   2.903  10.418 -0.1842  0.0959 -0.2928
  640MPD2    H5 9535   0.295   2.969  10.493  0.7722  2.6785 -2.3084
  640MPD2    N1 9536   0.657   2.664  10.182  0.3713 -0.3339  0.8232
  640MPD2    H7 9537   0.744   2.611  10.182  0.4040 -0.2986 -1.3479
  641TMC3    C1 9538   0.669   2.620   9.948 -0.5268 -0.4379 -0.1091
  641TMC3    C2 9539   0.751   2.516   9.977  0.2339 -0.5950 -1.0248
  641TMC3    C3 9540   0.818   2.458   9.873  0.2745  0.2855  0.2454
  641TMC3    C4 9541   0.658   2.679   9.822 -0.7725 -0.2891  0.5037
  641TMC3    C5 9542   0.729   2.617   9.725  0.7213  0.1136 -0.2579
  641TMC3    C6 9543   0.808   2.506   9.750 -0.2991 -0.4009 -0.0406
  641TMC3     C 9544   0.601   2.691  10.059 -0.2892  0.3601  0.0335
  641TMC3     O 9545   0.518   2.776  10.026 -0.4541  0.6477 -0.0459
  641TMC3     H 9546   0.728   2.452  10.062  2.3857 -0.4147 -0.3173
  641TMC3    H1 9547   0.592   2.764   9.806  0.7503  0.9928  1.0468
  641TMC3    H2 9548   0.856   2.449   9.672  0.0714  1.2428 -0.9973
  641TMC3    C7 9549   0.711   2.671   9.602  0.4691 -0.0874  0.0017
  641TMC3    C8 9550   0.897   2.334   9.890  0.2176 -0.2750 -0.1435
  641TMC3    O1 9551   0.632   2.766   9.594  0.2817 -0.0803  0.2684
  641TMC3    O2 9552   0.936   2.281   9.787 -0.4524  0.4885  0.2963
  642TMC3    C1 9553   0.936   2.973  12.585 -0.2159  0.4900 -0.0322
  642TMC3    C2 9554   1.051   3.044  12.590 -0.8317  0.2610 -0.1676
  642TMC3    C3 9555   1.162   2.978  12.627  0.3565 -0.3893 -0.4391
  642TMC3    C4 9556   0.930   2.841  12.628  0.1706 -0.0204  0.3753
  642TMC3    C5 9557   1.043   2.782  12.663 -0.1880 -0.5553  0.1970
  642TMC3    C6 9558   1.161   2.852  12.665 -0.0407 -0.0282 -0.4712
  642TMC3     C 9559   0.810   3.049  12.570 -0.6988 -0.3275  0.0038
  642TMC3     O 9560   0.728   3.007  12.649  0.4706  0.1462 -0.6166
  642TMC3     H 9561   1.048   3.149  12.565  2.4111  0.7971  1.6677
  642TMC3    H1 9562   0.832   2.795  12.634 -0.0223  0.3212 -0.2218
  642TMC3    H2 9563   1.251   2.819  12.716 -0.9024 -0.4018  0.7952
  642TMC3    C7 9564   1.047   2.641  12.632 -0.4202  0.2110 -0.7973
  642TMC3    C8 9565   1.277   3.064  12.656  0.2965 -0.2307 -0.3300
  642TMC3    O1 9566   0.949   2.585  12.584  0.2784  0.2739 -0.1051
  642TMC3    O2 9567   1.383   3.006  12.666 -0.4223  0.1736  0.1267
  643TMC3    C1 9568   0.295   2.173   0.233 -0.6326  0.2034  0.3339
  643TMC3    C2 9569   0.215   2.174   0.126  0.0914 -0.1116  0.2767
  643TMC3    C3 9570   0.230   2.082   0.027 -0.3354 -0.7995 -0.1841
  643TMC3    C4 9571   0.394   2.082   0.250  0.1660  0.1596  1.1829
  643TMC3    C5 9572   0.412   1.991   0.150  0.1653 -0.0732  0.1385
  643TMC3    C6 9573   0.325   1.979   0.035  0.0776  0.4349  0.0580
  643TMC3     C 9574   0.309   2.305   0.294 -0.2578 -0.2856  0.4728
  643TMC3     O 9575   0.276   2.399   0.222 -0.4320  0.2103  0.8834
  643TMC3     H 9576   0.140   2.253   0.127  0.8903  0.6148  1.8674
  643TMC3    H1 9577   0.458   2.073   0.337  0.3445 -1.4415  0.8945
  643TMC3    H2 9578   0.332   1.897  17.711  1.3551 -0.2812  1.0143
  643TMC3    C7 9579   0.485   1.867   0.190  0.6863  0.2999  0.5820
  643TMC3    C8 9580   0.225   2.148  17.642  0.6546  0.5638  0.4161
  643TMC3    O1 9581   0.459   1.819   0.301  0.4215  0.0821 -0.0991
  643TMC3    O2 9582   0.233   2.080  17.541 -0.5475 -0.2662  0.6480
  644MPD2     C 9583   0.442   3.052   9.642 -0.3148 -0.4348  0.3361
  644MPD2    C1 9584   0.563   3.120   9.623  0.0341 -0.1529 -0.7968
  644MPD2    C2 9585   0.562   3.258   9.635  0.0369  0.2132 -0.6241
  644MPD2    C3 9586   0.449   3.331   9.661 -0.4048 -0.4249  0.5220
  644MPD2    C4 9587   0.330   3.259   9.666  0.9389  0.5412  1.0424
  644MPD2    C5 9588   0.329   3.124   9.661  0.4098  0.3212 -0.4094
  644MPD2     H 9589   0.649   3.324   9.638 -1.7058  2.5497 -1.7198
  644MPD2    H1 9590   0.232   3.303   9.678 -0.0263 -1.3979  0.1642
  644MPD2    H2 9591   0.441   2.944   9.649 -3.1332 -0.4345 -0.3244
  644MPD2    H3 9592   0.237   3.067   9.664  1.7120 -1.8124 -0.6658
  644MPD2     N 9593   0.458   3.473   9.665  0.0866  0.1279 -0.4065
  644MPD2    H5 9594   0.543   3.513   9.626  2.0129 -3.3360  0.2934
  644MPD2    N1 9595   0.686   3.052   9.598  0.2972 -0.0451  0.8884
  644MPD2    H7 9596   0.687   2.950   9.598  1.0233 -0.0363 -0.4122
  645TMC3    C1 9597   0.389   3.695   9.651  0.4769 -0.0603  0.4476
  645TMC3    C2 9598   0.514   3.719   9.606  0.4418  0.4434 -0.1624
  645TMC3    C3 9599   0.541   3.816   9.520 -0.2355 -0.1722  0.0933
  645TMC3    C4 9600   0.286   3.771   9.607 -0.5130 -0.0136 -0.1027
  645TMC3    C5 9601   0.311   3.874   9.522  0.2176  0.6529 -0.5868
  645TMC3    C6 9602   0.439   3.892   9.470  0.8022 -0.3341  0.0223
  645TMC3     C 9603   0.353   3.564   9.683  0.8416  0.2808  0.2082
  645TMC3     O 9604   0.245   3.535   9.730 -0.1342  0.8632  0.5236
  645TMC3     H 9605   0.596   3.658   9.642 -1.2814 -3.0938 -2.3008
  645TMC3    H1 9606   0.186   3.741   9.637 -1.1087  0.9793 -1.0544
  645TMC3    H2 9607   0.466   3.977   9.409 -0.1593  0.6866  1.0135
  645TMC3    C7 9608   0.192   3.934   9.469  0.1382  0.0475  0.0768
  645TMC3    C8 9609   0.681   3.854   9.498 -0.1580  0.3718 -0.4199
  645TMC3    O1 9610   0.086   3.901   9.514 -0.7989  0.1136  0.0803
  645TMC3    O2 9611   0.713   3.894   9.381 -0.7048  0.0088 -0.5191
  646MPD2     C 9612   4.504   2.037  14.473  0.1617  0.3877  0.0267
  646MPD2    C1 9613   4.387   2.011  14.552  0.6627 -0.3015 -0.3366
  646MPD2    C2 9614   4.266   2.074  14.521 -0.1773  0.3423 -0.8220
  646MPD2    C3 9615   4.256   2.153  14.411  0.0657 -0.2118  0.3008
  646MPD2    C4 9616   4.371   2.170  14.329  0.1083  0.7959 -0.4057
  646MPD2    C5 9617   4.496   2.118  14.363 -0.7157 -0.3605 -0.3063
  646MPD2     H 9618   4.179   2.065  14.585  0.1140  1.9412 -0.1893
  646MPD2    H1 9619   4.367   2.218  14.232  0.3527  0.6531 -0.4874
  646MPD2    H2 9620   4.600   1.992  14.493  0.9679  1.4609 -1.4152
  646MPD2    H3 9621   4.582   2.127  14.298 -1.5873  2.6365 -1.0784
  646MPD2     N 9622   4.131   2.213  14.379 -0.0788  0.5091  0.4263
  646MPD2    H5 9623   4.054   2.224  14.444 -1.3076 -0.5535 -0.8537
  646MPD2    N1 9624   4.411   1.937  14.663 -0.0946 -0.2085  0.1891
  646MPD2    H7 9625   4.507   1.909  14.680 -0.1883  0.4684  1.8046
  647TMC3    C1 9626   4.379   1.810  14.867  0.2855 -0.1656 -0.3972
  647TMC3    C2 9627   4.281   1.759  14.950  0.0440  0.0702  0.8235
  647TMC3    C3 9628   4.306   1.646  15.023 -0.2878  0.3596  0.4123
  647TMC3    C4 9629   4.500   1.749  14.857 -0.3144 -0.3027  0.7048
  647TMC3    C5 9630   4.538   1.655  14.953 -0.5941  0.4169  0.8193
  647TMC3    C6 9631   4.438   1.604  15.036  0.0473 -0.0609 -0.1324
  647TMC3     C 9632   4.327   1.901  14.763  0.2002 -0.5348 -0.4965
  647TMC3     O 9633   4.210   1.933  14.771 -0.2362 -0.2270  0.2339
  647TMC3     H 9634   4.182   1.804  14.950  1.5626  3.4977 -1.5579
  647TMC3    H1 9635   4.569   1.782  14.780 -2.0561 -1.6387 -1.4558
  647TMC3    H2 9636   4.463   1.522  15.103 -2.0890  1.0201  1.9851
  647TMC3    C7 9637   4.640   1.550  14.928  0.4601  0.1052 -0.7816
  647TMC3    C8 9638   4.193   1.586  15.094  0.5610 -0.1509  1.0089
  647TMC3    O1 9639   4.669   1.474  15.019 -0.3133 -0.2105  0.2080
  647TMC3    O2 9640   4.081   1.633  15.074 -0.9879  0.0386  0.5539
  648TMC3    C1 9641   3.860   4.102  16.301  0.6564 -0.0520  0.4446
  648TMC3    C2 9642   3.947   3.994  16.274 -0.1619  0.5770  0.1850
  648TMC3    C3 9643   3.959   3.952  16.145  0.0034 -0.1116  0.5170
  648TMC3    C4 9644   3.800   4.166  16.202  0.6930 -0.5701  0.0929
  648TMC3    C5 9645   3.813   4.123  16.071  0.4953 -0.0306 -0.1675
  648TMC3    C6 9646   3.891   4.011  16.040 -0.2250  0.1944 -0.0919
  648TMC3     C 9647   3.830   4.138  16.443 -0.7577 -0.5664  0.0658
  648TMC3     O 9648   3.789   4.247  16.456  0.6305  0.1185  0.6481
  648TMC3     H 9649   3.998   3.944  16.356 -0.6568 -1.9795 -1.0713
  648TMC3    H1 9650   3.735   4.251  16.219  0.6971 -0.4188 -0.6628
  648TMC3    H2 9651   3.888   3.976  15.937 -0.5156 -0.8169  0.2644
  648TMC3    C7 9652   3.749   4.203  15.971  0.0176  0.1953  0.7019
  648TMC3    C8 9653   3.992   3.814  16.125  0.2132 -0.4766 -0.3682
  648TMC3    O1 9654   3.791   4.195  15.855 -0.0465  0.3792 -0.3032
  648TMC3    O2 9655   3.947   3.733  16.210  0.2583 -0.5770 -0.2754
  649TMC3    C1 9656   2.931   0.715  12.931  0.6890  0.2210 -0.6665
  649TMC3    C2 9657   3.064   0.689  12.960 -0.3139 -0.5426  0.2293
  649TMC3    C3 9658   3.096   0.618  13.075 -0.5071  0.5007  0.9515
  649TMC3    C4 9659   2.834   0.653  13.003 -0.5700 -1.1340 -0.0613
  649TMC3    C5 9660   2.870   0.591  13.119  0.0211 -0.8041  0.6060
  649TMC3    C6 9661   2.996   0.578  13.162 -0.0110 -0.4833 -0.2505
  649TMC3     C 9662   2.882   0.729  12.797 -0.2957  0.7444 -1.0208
  649TMC3     O 9663   2.769   0.762  12.784 -0.4101 -0.1077 -0.6921
  649TMC3     H 9664   3.146   0.736  12.908  0.2481 -1.2853  0.4451
  649TMC3    H1 9665   2.729   0.651  12.976 -1.0337  0.8304  1.5284
  649TMC3    H2 9666   3.026   0.506  13.238 -1.2572 -0.1298  0.5708
  649TMC3    C7 9667   2.760   0.516  13.189 -1.0383  0.8571 -0.1695
  649TMC3    C8 9668   3.231   0.582  13.108  0.2204 -0.1191 -0.2533
  649TMC3    O1 9669   2.653   0.509  13.131 -0.1729  0.5470  0.5837
  649TMC3    O2 9670   3.257   0.542  13.219 -0.8322 -0.0886  0.0576
  650TMC3    C1 9671   0.408   2.187  12.832  0.2984 -0.7919 -0.1585
  650TMC3    C2 9672   0.344   2.272  12.916  0.2769  0.4082 -0.4775
  650TMC3    C3 9673   0.305   2.390  12.868 -0.2518 -0.6154 -0.3918
  650TMC3    C4 9674   0.433   2.204  12.703 -0.2206  0.2463  0.2207
  650TMC3    C5 9675   0.401   2.327  12.658  0.2595 -0.4521 -0.3339
  650TMC3    C6 9676   0.331   2.417  12.737 -0.0309  0.1964 -0.8086
  650TMC3     C 9677   0.480   2.079  12.900 -0.2200  0.1742  0.4039
  650TMC3     O 9678   0.528   2.101  13.013 -0.6761 -0.2063 -0.7045
  650TMC3     H 9679   0.334   2.248  13.021 -0.5953 -1.1270 -0.9038
  650TMC3    H1 9680   0.511   2.148  12.653 -1.4443  0.6790 -2.1842
  650TMC3    H2 9681   0.330   2.523  12.715  1.5497  0.3184 -0.2971
  650TMC3    C7 9682   0.486   2.385  12.561  0.5434 -0.1869  0.7264
  650TMC3    C8 9683   0.283   2.505  12.951  0.7546  0.5198 -0.3156
  650TMC3    O1 9684   0.588   2.326  12.529 -0.1147 -0.0536 -0.2784
  650TMC3    O2 9685   0.367   2.593  12.959  0.3397  0.5078 -0.4627
  651MPD2     C 9686   4.189   4.057  10.460 -0.7295 -0.3136  0.1393
  651MPD2    C1 9687   4.196   4.157  10.555 -0.6360 -0.0539 -0.6351
  651MPD2    C2 9688   4.278   4.266  10.538  0.1786  0.9077  0.6905
  651MPD2    C3 9689   4.373   4.262  10.441  0.8427 -0.1181  0.4426
  651MPD2    C4 9690   4.375   4.152  10.354 -0.2043 -0.1591 -0.3676
  651MPD2    C5 9691   4.281   4.053  10.358 -0.2345  0.3244 -0.0736
  651MPD2     H 9692   4.284   4.342  10.615 -0.6917  4.0737 -2.3985
  651MPD2    H1 9693   4.446   4.144  10.273  1.7318  0.9748  1.2281
  651MPD2    H2 9694   4.111   3.983  10.452 -0.1505 -0.7562 -1.4878
  651MPD2    H3 9695   4.272   3.970  10.290 -1.9611 -0.1957  0.7946
  651MPD2     N 9696   4.468   4.364  10.438  0.6053  0.2940  0.3667
  651MPD2    H5 9697   4.459   4.436  10.509 -0.2849  0.6885 -0.1423
  651MPD2    N1 9698   4.108   4.166  10.664 -0.1541 -0.2855  0.0799
  651MPD2    H7 9699   4.105   4.252  10.718 -0.8781  0.0576 -0.5004
  652TMC3    C1 9700   0.107   4.604  10.318  0.0992  0.4055  0.5041
  652TMC3    C2 9701   0.059   4.487  10.359  0.2811 -0.3855 -0.1121
  652TMC3    C3 9702   4.668   4.486  10.398 -0.1537  0.1945  0.1062
  652TMC3    C4 9703   0.044   4.727  10.320  0.1006 -0.2218 -0.2832
  652TMC3    C5 9704   4.653   4.724  10.367  0.5151 -0.0364 -0.1267
  652TMC3    C6 9705   4.595   4.608  10.410  0.2099  0.2646  0.1513
  652TMC3     C 9706   0.252   4.603  10.300 -0.2087  0.0063 -0.7166
  652TMC3     O 9707   0.311   4.498  10.337  0.6487  0.4539  0.0875
  652TMC3     H 9708   0.119   4.398  10.347  0.9340 -0.0764  0.8840
  652TMC3    H1 9709   0.077   0.086  10.281 -1.5433  0.1537 -0.7404
  652TMC3    H2 9710   4.488   4.615  10.421  0.1122  0.0984 -0.7100
  652TMC3    C7 9711   4.586   0.099  10.423  0.0545 -0.3406  0.0589
  652TMC3    C8 9712   4.588   4.361  10.373 -0.0381  0.3142 -0.2087
  652TMC3    O1 9713   4.464   0.100  10.434  0.1422  0.4553  0.1192
  652TMC3    O2 9714   4.647   4.267  10.315 -0.4858 -0.5140 -0.1906
  653MPD2     C 9715   2.724   3.876  17.739 -0.8974  0.0898  0.1488
  653MPD2    C1 9716   2.674   3.974  17.648 -0.6958 -0.2853 -0.0077
  653MPD2    C2 9717   2.661   3.941  17.518  0.0615  0.5660 -0.0746
  653MPD2    C3 9718   2.673   3.809  17.474  0.3799  1.0521  0.3932
  653MPD2    C4 9719   2.719   3.717  17.565 -0.4353 -0.1142  0.2005
  653MPD2    C5 9720   2.733   3.747  17.698 -0.1699  0.0071 -0.2492
  653MPD2     H 9721   2.620   4.010  17.445 -3.0505 -0.3125  0.8459
  653MPD2    H1 9722   2.721   3.611  17.546 -2.2384 -0.2274  0.6203
  653MPD2    H2 9723   2.738   3.891   0.097  1.7243  1.4931 -0.3982
  653MPD2    H3 9724   2.764   3.668   0.019 -0.0108 -0.0723 -0.4129
  653MPD2     N 9725   2.649   3.774  17.340  0.0568 -0.1028  0.3982
  653MPD2    H5 9726   2.629   3.853  17.280  1.3217  1.8650  2.5711
  653MPD2    N1 9727   2.632   4.102  17.683  0.0776  0.0867  0.2339
  653MPD2    H7 9728   2.617   4.167  17.606  0.5399 -2.0055 -1.6363
  654TMC3    C1 9729   2.630   3.638  17.148 -0.7827  0.4224  0.3219
  654TMC3    C2 9730   2.535   3.729  17.100 -0.0928 -0.2364 -0.1115
  654TMC3    C3 9731   2.495   3.726  16.968  0.3007  0.5533 -0.4444
  654TMC3    C4 9732   2.664   3.527  17.073  0.0780  0.3678 -0.5765
  654TMC3    C5 9733   2.629   3.527  16.936  0.1566  0.3142 -0.3045
  654TMC3    C6 9734   2.548   3.628  16.883 -0.3429 -0.4106 -0.0886
  654TMC3     C 9735   2.666   3.643  17.279  0.7197 -0.2227  0.3047
  654TMC3     O 9736   2.707   3.540  17.326  0.4336 -0.2411  0.2514
  654TMC3     H 9737   2.488   3.808  17.158  0.4377  2.2354 -3.0669
  654TMC3    H1 9738   2.730   3.455  17.120 -0.7029  0.1559  0.2032
  654TMC3    H2 9739   2.525   3.642  16.778 -0.0474 -0.4219 -0.1561
  654TMC3    C7 9740   2.668   3.430  16.850 -0.4946 -0.1122  0.0628
  654TMC3    C8 9741   2.370   3.791  16.929  0.5029 -0.3577 -0.5349
  654TMC3    O1 9742   2.677   3.472  16.735  0.9016  0.5254  0.5800
  654TMC3    O2 9743   2.329   3.882  16.999  0.0340  0.3047 -0.4073
  655MPD2     C 9744   4.424   4.470  15.789  0.4800  0.1241  0.1300
  655MPD2    C1 9745   4.307   4.425  15.735  0.4515  0.1623  0.2370
  655MPD2    C2 9746   4.314   4.335  15.630  0.9946  0.2019  0.1660
  655MPD2    C3 9747   4.438   4.298  15.577  0.3674 -0.0868 -0.2068
  655MPD2    C4 9748   4.553   4.350  15.627 -0.7251  1.0525  0.9286
  655MPD2    C5 9749   4.543   4.428  15.736  0.5006  0.4432 -0.7893
  655MPD2     H 9750   4.222   4.292  15.593  1.7280 -1.1032 -0.1337
  655MPD2    H1 9751   4.651   4.317  15.594 -2.2329 -1.0778 -1.4330
  655MPD2    H2 9752   4.423   4.542  15.869 -1.6880  0.6439 -0.3499
  655MPD2    H3 9753   4.638   4.454  15.781  1.1907  0.7731 -2.4410
  655MPD2     N 9754   4.451   4.215  15.467  0.6754  0.4554  0.2437
  655MPD2    H5 9755   4.538   4.211  15.414 -1.2289  0.7910 -2.9568
  655MPD2    N1 9756   4.178   4.468  15.785  0.2806 -0.3398  0.1832
  655MPD2    H7 9757   4.095   4.448  15.730  0.5544  1.6254 -0.9347
  656TMC3    C1 9758   4.022   4.560  15.929  0.0496 -0.7784  0.1785
  656TMC3    C2 9759   3.979   4.549  16.063 -0.0909  0.0502 -0.3499
  656TMC3    C3 9760   3.854   4.601  16.090 -0.4719  0.2332  0.4465
  656TMC3    C4 9761   3.941   4.608  15.833 -0.1009 -0.1204  0.5557
  656TMC3    C5 9762   3.811   4.643  15.865  0.7818  0.4000  0.5757
  656TMC3    C6 9763   3.769   4.642  15.995 -0.1540 -0.1689  0.2909
  656TMC3     C 9764   4.161   4.529  15.909  0.6230  0.1031 -0.0939
  656TMC3     O 9765   4.225   4.528  16.014 -0.2674  0.2973 -0.1248
  656TMC3     H 9766   4.038   4.510  16.145 -2.0303 -1.6634  0.2218
  656TMC3    H1 9767   3.983   4.625  15.735  0.6058  1.9603  1.2069
  656TMC3    H2 9768   3.669   4.671  16.027 -0.1948  1.6658 -1.5179
  656TMC3    C7 9769   3.757   0.001  15.769  0.4020 -0.5495  0.4422
  656TMC3    C8 9770   3.795   4.553  16.210 -0.3005  0.2101  0.1764
  656TMC3    O1 9771   3.823   0.037  15.672 -0.2278 -0.0187  0.5299
  656TMC3    O2 9772   3.841   4.454  16.261 -0.3471  0.1938  0.6816
  657TMC3    C1 9773   2.947   3.423  15.455  0.3014  1.1412  0.3668
  657TMC3    C2 9774   3.076   3.440  15.419  1.1825  0.0569  0.0161
  657TMC3    C3 9775   3.124   3.567  15.405 -0.3908 -0.5714  0.2376
  657TMC3    C4 9776   2.872   3.541  15.481 -0.3991  0.0392  0.0813
  657TMC3    C5 9777   2.927   3.666  15.457 -1.6036  0.8879 -0.7342
  657TMC3    C6 9778   3.054   3.684  15.422 -0.2575 -0.2585 -0.2313
  657TMC3     C 9779   2.881   3.323  15.384  0.3074  0.6000 -1.0333
  657TMC3     O 9780   2.777   3.362  15.332  0.1849 -0.2383 -0.5077
  657TMC3     H 9781   3.134   3.359  15.376  2.1122  0.8289 -0.2059
  657TMC3    H1 9782   2.773   3.531  15.525 -0.3771 -0.3403  0.0431
  657TMC3    H2 9783   3.104   3.779  15.408  1.3102 -1.2202 -1.1704
  657TMC3    C7 9784   2.839   3.779  15.475  0.1609 -0.9453  0.1280
  657TMC3    C8 9785   3.263   3.567  15.374 -0.9275 -0.0963  0.4510
  657TMC3    O1 9786   2.723   3.744  15.464 -0.0967 -0.1263  0.0213
  657TMC3    O2 9787   3.335   3.488  15.428 -0.2426 -0.3627 -0.2599
  658MPD2     C 9788   4.707   4.133  14.661  0.1130 -0.5764 -0.0103
  658MPD2    C1 9789   4.646   4.221  14.749 -0.5884 -0.2228 -0.7560
  658MPD2    C2 9790   4.649   4.358  14.720  0.0274 -0.1449 -0.2423
  658MPD2    C3 9791   4.711   4.405  14.609 -0.4787 -0.6329  0.2021
  658MPD2    C4 9792   0.023   4.317  14.516 -0.0350  0.1712  0.1140
  658MPD2    C5 9793   0.019   4.184  14.542  0.1561  0.3759  0.6271
  658MPD2     H 9794   4.609   4.426  14.794  1.2103  0.2944 -0.0034
  658MPD2    H1 9795   0.065   4.342  14.418 -2.5449 -0.2541 -1.0536
  658MPD2    H2 9796   4.715   4.025  14.668 -0.2038 -0.6629 -0.9610
  658MPD2    H3 9797   0.054   4.117  14.464  1.2054  0.3115  1.1505
  658MPD2     N 9798   4.697   4.539  14.579 -0.5794  0.6464 -0.1605
  658MPD2    H5 9799   4.658   4.603  14.647  0.4765 -0.1982  1.2273
  658MPD2    N1 9800   4.583   4.162  14.861 -0.1243 -0.0302  0.3797
  658MPD2    H7 9801   4.574   4.061  14.854 -0.3793  0.0211 -0.0576
  659TMC3    C1 9802   4.486   4.146  15.067  0.0868  0.7750 -0.5162
  659TMC3    C2 9803   4.465   4.192  15.194  0.5683  0.3487 -0.0789
  659TMC3    C3 9804   4.409   4.094  15.276  0.1301  0.0671 -0.0467
  659TMC3    C4 9805   4.453   4.017  15.029  0.1926  0.5702  0.6909
  659TMC3    C5 9806   4.387   3.928  15.111 -0.0869 -0.2562  0.2578
  659TMC3    C6 9807   4.369   3.964  15.246 -0.1058  0.0105 -0.2183
  659TMC3     C 9808   4.551   4.232  14.970 -0.4254 -0.0963  0.1324
  659TMC3     O 9809   4.575   4.350  15.001 -0.3866  0.1810  0.0013
  659TMC3     H 9810   4.481   4.296  15.221  0.8394 -0.1065  1.5176
  659TMC3    H1 9811   4.455   3.980  14.926  0.0557 -3.4112  2.1105
  659TMC3    H2 9812   4.332   3.896  15.322  1.1451  1.5927  1.7941
  659TMC3    C7 9813   4.370   3.790  15.067  0.0194  0.0198 -0.3358
  659TMC3    C8 9814   4.353   4.144  15.403 -0.5085  0.0259 -0.5366
  659TMC3    O1 9815   4.449   3.732  14.991  0.1574  0.7141 -0.0576
  659TMC3    O2 9816   4.245   4.105  15.440  0.0723 -0.0317 -0.3211
  660MPD2     C 9817   2.092   2.985  12.386  0.3624  0.1830 -0.5429
  660MPD2    C1 9818   1.988   3.063  12.426  0.0094  0.4010  0.6462
  660MPD2    C2 9819   1.918   3.022  12.538  1.1250 -0.4970 -0.2498
  660MPD2    C3 9820   1.943   2.903  12.604  0.0198  0.3827 -0.3703
  660MPD2    C4 9821   2.040   2.822  12.557 -0.2216 -1.4279 -0.1162
  660MPD2    C5 9822   2.113   2.865  12.449 -0.0739  0.1410 -0.3225
  660MPD2     H 9823   1.839   3.083  12.582  1.0123 -1.0784  0.3569
  660MPD2    H1 9824   2.058   2.725  12.600  1.6022 -1.0175  0.0725
  660MPD2    H2 9825   2.162   3.022  12.312  0.3647 -0.7403 -1.0011
  660MPD2    H3 9826   2.204   2.814  12.421 -0.1123 -0.7662  1.1857
  660MPD2     N 9827   1.871   2.857  12.720 -0.7546  0.0200 -0.3181
  660MPD2    H5 9828   1.886   2.759  12.742  0.4657  0.6878  1.8459
  660MPD2    N1 9829   1.974   3.182  12.360 -0.6814  0.1941 -0.2489
  660MPD2    H7 9830   2.054   3.217  12.308 -0.0905 -2.0138 -0.8451
  661TMC3    C1 9831   1.893   3.397  12.360  0.1888  0.2441 -0.0933
  661TMC3    C2 9832   1.943   3.447  12.244  1.4234 -0.4210  0.0715
  661TMC3    C3 9833   1.886   3.566  12.206 -0.0364  0.5404  0.7598
  661TMC3    C4 9834   1.792   3.456  12.432  0.2194  0.0482 -0.4666
  661TMC3    C5 9835   1.733   3.569  12.379 -0.1574 -0.3539  0.2557
  661TMC3    C6 9836   1.789   3.635  12.273 -0.2234 -0.1186 -0.3664
  661TMC3     C 9837   1.864   3.261  12.385  0.2057 -0.4090  0.6085
  661TMC3     O 9838   1.748   3.226  12.398  0.2054  0.7334  0.4573
  661TMC3     H 9839   1.996   3.380  12.177 -0.1050  0.1185 -1.6748
  661TMC3    H1 9840   1.743   3.414  12.520  0.3795 -0.6488 -0.7114
  661TMC3    H2 9841   1.739   3.720  12.227  1.2541  0.2914 -1.2044
  661TMC3    C7 9842   1.587   3.567  12.376 -0.6445 -0.5266 -0.2015
  661TMC3    C8 9843   1.933   3.622  12.077  0.9770 -0.2644  0.3385
  661TMC3    O1 9844   1.533   3.663  12.318  0.2408  0.1731 -0.5344
  661TMC3    O2 9845   2.005   3.545  12.019 -0.8002  0.5855  0.5408
  662MPD2     C 9846   2.396   2.770  16.804  0.0377 -0.0090  0.5231
  662MPD2    C1 9847   2.344   2.698  16.902  0.6360 -0.5703 -0.6231
  662MPD2    C2 9848   2.248   2.754  16.983  0.7704  0.3438  0.6488
  662MPD2    C3 9849   2.229   2.890  16.995  0.6475  0.3714  0.0262
  662MPD2    C4 9850   2.294   2.968  16.901  0.0568 -0.0027 -0.2148
  662MPD2    C5 9851   2.362   2.908  16.799 -0.3582  0.2911  0.0415
  662MPD2     H 9852   2.197   2.690  17.054 -0.5531 -0.6613 -1.2373
  662MPD2    H1 9853   2.284   3.075  16.899 -0.7658 -0.0781 -0.0187
  662MPD2    H2 9854   2.466   2.734  16.731 -0.4228 -0.7142  0.4248
  662MPD2    H3 9855   2.397   2.978  16.724  4.0547 -1.2433  0.6898
  662MPD2     N 9856   2.146   2.954  17.092 -0.2207  0.6075  0.7399
  662MPD2    H5 9857   2.135   3.054  17.102  1.7307  0.7975  0.8927
  662MPD2    N1 9858   2.383   2.562  16.929  0.5324  0.1452 -0.7293
  662MPD2    H7 9859   2.336   2.512  17.004 -0.9971  2.3645 -0.2083
  663TMC3    C1 9860   2.520   2.368  16.937  0.1951 -0.1859  0.3090
  663TMC3    C2 9861   2.504   2.350  17.068  0.1744  0.1423  0.5808
  663TMC3    C3 9862   2.573   2.253  17.124 -0.4942 -0.6207 -0.2122
  663TMC3    C4 9863   2.585   2.283  16.855  0.1405 -0.7683  0.0976
  663TMC3    C5 9864   2.627   2.167  16.919  0.3680  1.0302  0.4535
  663TMC3    C6 9865   2.619   2.143  17.054  0.1114  0.0680 -0.2416
  663TMC3     C 9866   2.497   2.497  16.877 -0.3139  0.0302 -0.0969
  663TMC3     O 9867   2.573   2.527  16.786 -0.8367 -0.3626 -0.3441
  663TMC3     H 9868   2.478   2.439  17.124  0.4197 -0.9300  2.4165
  663TMC3    H1 9869   2.583   2.298  16.747  0.1836 -0.6466  0.1129
  663TMC3    H2 9870   2.630   2.049  17.106  0.6291  1.2771  1.8398
  663TMC3    C7 9871   2.655   2.055  16.842  0.3254 -0.2394 -0.4351
  663TMC3    C8 9872   2.522   2.205  17.249  0.2999 -0.1402  0.1094
  663TMC3    O1 9873   2.714   2.052  16.738 -0.6138 -0.5343 -0.3835
  663TMC3    O2 9874   2.581   2.117  17.307  0.2382 -0.2657 -0.2505
  664MPD2     C 9875   0.248   0.504  17.052 -0.2547 -0.4219  0.5949
  664MPD2    C1 9876   0.267   0.613  17.132 -0.0561 -0.8724  0.4329
  664MPD2    C2 9877   0.219   0.611  17.256 -0.7005 -0.0215  0.6749
  664MPD2    C3 9878   0.138   0.501  17.303 -0.8976 -0.0719  0.2541
  664MPD2    C4 9879   0.120   0.393  17.219  0.1492 -0.5715  0.0674
  664MPD2    C5 9880   0.174   0.390  17.097 -0.2168  0.2035 -0.4204
  664MPD2     H 9881   0.237   0.693  17.324  2.1529  0.4101 -0.5934
  664MPD2    H1 9882   0.081   0.300  17.256 -0.5046 -0.7710 -1.1007
  664MPD2    H2 9883   0.277   0.490  16.948 -0.6890 -0.9909  0.5551
  664MPD2    H3 9884   0.153   0.319  17.018 -0.3318 -0.8556  0.5752
  664MPD2     N 9885   0.080   0.500  17.433 -0.2668  1.0504 -0.6586
  664MPD2    H5 9886   0.082   0.590  17.480  0.6851  1.1880 -0.9689
  664MPD2    N1 9887   0.345   0.724  17.096  0.1227 -0.5366  0.7095
  664MPD2    H7 9888   0.370   0.787  17.170  1.6100 -0.7930  0.4125
  665TMC3    C1 9889   0.008   0.408  17.634  0.2007  0.1815  0.1178
  665TMC3    C2 9890   4.647   0.356  17.711  0.2173  0.2841  0.0333
  665TMC3    C3 9891   4.654   0.371   0.101 -0.6691  0.4859 -0.4780
  665TMC3    C4 9892   0.115   0.477  17.690  0.3011  0.0220  0.0715
  665TMC3    C5 9893   0.117   0.499   0.080 -1.1191 -0.1940 -0.0889
  665TMC3    C6 9894   0.028   0.429   0.162 -0.1392  0.1197 -0.2054
  665TMC3     C 9895   0.017   0.390  17.493 -0.8127 -0.3118 -0.4830
  665TMC3     O 9896   4.723   0.277  17.457 -0.4194  0.5334  0.0438
  665TMC3     H 9897   4.568   0.290  17.677  0.9324 -1.9331  2.6393
  665TMC3    H1 9898   0.203   0.506  17.634 -0.1631  0.6135 -0.3668
  665TMC3    H2 9899   0.021   0.462   0.265 -2.9743  0.3381 -0.4587
  665TMC3    C7 9900   0.211   0.598   0.130  0.0628 -0.3712 -0.0715
  665TMC3    C8 9901   4.551   0.308   0.185  0.4359 -0.5555  0.1312
  665TMC3    O1 9902   0.270   0.662   0.042  0.2308  0.2690  0.7678
  665TMC3    O2 9903   4.440   0.284   0.135 -0.2037  0.8396  0.7781
  666TMC3    C1 9904   4.643   1.304  10.161 -0.3460 -0.1276  0.3561
  666TMC3    C2 9905   0.030   1.251  10.146 -0.1558 -0.2670 -0.0084
  666TMC3    C3 9906   0.134   1.339  10.125  0.0900  0.0210 -1.0866
  666TMC3    C4 9907   4.623   1.439  10.170 -0.2387 -0.0650  0.8159
  666TMC3    C5 9908   4.732   1.519  10.148 -0.9976  0.6343  0.5454
  666TMC3    C6 9909   0.122   1.473  10.131 -0.8576 -0.7233 -0.4923
  666TMC3     C 9910   4.557   1.216  10.239 -0.8754 -1.2774 -0.2210
  666TMC3     O 9911   4.444   1.258  10.268  0.1631  0.7476  0.6292
  666TMC3     H 9912   0.050   1.146  10.127  1.4031  0.1100 -0.4090
  666TMC3    H1 9913   4.525   1.484  10.181 -0.7372 -1.9399  4.1363
  666TMC3    H2 9914   0.209   1.535  10.111 -0.1342 -1.6564 -0.2090
  666TMC3    C7 9915   4.709   1.664  10.143  0.1034 -0.4526 -0.2632
  666TMC3    C8 9916   0.260   1.281  10.172  0.1738 -0.2173 -0.2601
  666TMC3    O1 9917   4.617   1.707  10.207 -0.3851 -0.4208 -0.0395
  666TMC3    O2 9918   0.286   1.167  10.138  0.7003  0.0880 -0.2537
  667MPD2     C 9919   1.920   0.869  14.496  0.9961 -0.1793  0.1185
  667MPD2    C1 9920   1.821   0.965  14.524  0.2517 -0.2798  0.2453
  667MPD2    C2 9921   1.686   0.925  14.540  0.5008  0.3258 -0.7605
  667MPD2    C3 9922   1.647   0.790  14.517  0.0088 -0.0288  0.2758
  667MPD2    C4 9923   1.742   0.698  14.476  0.2042  0.2183 -0.2806
  667MPD2    C5 9924   1.878   0.736  14.475 -0.0553  0.2994  0.3394
  667MPD2     H 9925   1.614   1.000  14.570  1.8716  1.4764 -0.3001
  667MPD2    H1 9926   1.720   0.599  14.438 -0.4665  1.0300 -2.0201
  667MPD2    H2 9927   2.027   0.885  14.493  1.0665 -0.4792  1.1724
  667MPD2    H3 9928   1.948   0.659  14.444  0.6120  1.9566 -2.3341
  667MPD2     N 9929   1.515   0.742  14.533  0.7709 -0.2590 -0.2758
  667MPD2    H5 9930   1.498   0.646  14.502  3.9133 -0.7544 -0.5410
  667MPD2    N1 9931   1.853   1.098  14.554  0.0835  0.6370  0.1896
  667MPD2    H7 9932   1.777   1.163  14.569 -0.5200  0.3073 -1.4353
  668TMC3    C1 9933   1.976   1.294  14.575 -0.3348 -0.0389  0.6353
  668TMC3    C2 9934   2.066   1.369  14.508 -0.2624 -0.9497 -0.3096
  668TMC3    C3 9935   2.096   1.497  14.547  0.1828  0.0613  0.0074
  668TMC3    C4 9936   1.923   1.340  14.692  0.0610  0.5156  0.1023
  668TMC3    C5 9937   1.965   1.466  14.738  0.6429 -0.4113  0.4074
  668TMC3    C6 9938   2.044   1.552  14.662 -0.0708  0.2238  0.2465
  668TMC3     C 9939   1.984   1.151  14.563 -0.6761 -0.3757 -0.5948
  668TMC3     O 9940   2.095   1.103  14.542  0.5955  0.4784 -0.4492
  668TMC3     H 9941   2.117   1.324  14.423 -0.7503 -1.3200 -0.4093
  668TMC3    H1 9942   1.858   1.282  14.756  0.2846 -0.6628 -0.7257
  668TMC3    H2 9943   2.063   1.654  14.692  1.0589  0.4532 -1.2250
  668TMC3    C7 9944   1.924   1.520  14.863  0.3555  0.6903  0.0941
  668TMC3    C8 9945   2.181   1.588  14.472  0.5448 -1.1989 -0.0481
  668TMC3    O1 9946   1.975   1.626  14.896  0.3160  0.0700 -0.1543
  668TMC3    O2 9947   2.220   1.693  14.531  0.3755  0.3544  0.4645
  669TMC3    C1 9948   4.056   1.047  14.508 -0.0504 -0.0476  0.3082
  669TMC3    C2 9949   3.969   1.052  14.410  0.4782  0.5245  0.7379
  669TMC3    C3 9950   3.978   1.134  14.302  0.1915  0.1216 -0.0437
  669TMC3    C4 9951   4.174   1.119  14.486  0.0628  0.2890  0.5500
  669TMC3    C5 9952   4.193   1.194  14.375  0.1448 -0.1589 -0.3478
  669TMC3    C6 9953   4.092   1.202  14.282 -0.4728  0.4321  0.0509
  669TMC3     C 9954   4.021   0.978  14.636 -0.4974 -0.4543  0.1986
  669TMC3     O 9955   3.908   0.933  14.640  0.2529 -0.2570  0.2302
  669TMC3     H 9956   3.889   0.979  14.415  1.6430 -0.8615 -0.6986
  669TMC3    H1 9957   4.260   1.120  14.552 -0.1124  0.1988  0.7794
  669TMC3    H2 9958   4.108   1.267  14.197  0.3209 -1.4989 -1.2887
  669TMC3    C7 9959   4.312   1.274  14.360 -0.0899  0.2411 -0.2955
  669TMC3    C8 9960   3.853   1.178  14.248  0.5431  0.4551  0.3709
  669TMC3    O1 9961   4.371   1.330  14.454  0.1685  0.1978  0.3129
  669TMC3    O2 9962   3.774   1.089  14.251 -0.5161  0.1743  0.7559
  670MPD2     C 9963   2.424   3.191  14.175  0.5436  0.0435  0.5442
  670MPD2    C1 9964   2.474   3.067  14.179  0.5176 -0.1579  0.3023
  670MPD2    C2 9965   2.396   2.961  14.213  0.6017  0.2577  0.0336
  670MPD2    C3 9966   2.262   2.971  14.240 -0.4689  0.3444  0.3441
  670MPD2    C4 9967   2.204   3.096  14.225 -0.4713  0.5054 -0.7485
  670MPD2    C5 9968   2.286   3.206  14.201 -0.3226  0.3531  0.3810
  670MPD2     H 9969   2.435   2.861  14.227  0.4701  0.5083  2.1790
  670MPD2    H1 9970   2.097   3.103  14.237 -0.4393  0.0358 -0.1835
  670MPD2    H2 9971   2.476   3.285  14.157 -1.6754  1.4002  1.0907
  670MPD2    H3 9972   2.247   3.307  14.199 -1.1727  0.0734  3.3726
  670MPD2     N 9973   2.190   2.856  14.277 -0.3318  0.3395  0.7214
  670MPD2    H5 9974   2.242   2.769  14.273  0.4252  0.8675 -1.3138
  670MPD2    N1 9975   2.610   3.045  14.146  0.2575  0.3493 -0.4411
  670MPD2    H7 9976   2.651   2.957  14.178 -1.6794  0.5901  2.7033
  671TMC3    C1 9977   2.007   2.712  14.330 -0.3194 -0.3560  0.0662
  671TMC3    C2 9978   2.101   2.625  14.368  0.1975  0.0619 -0.0886
  671TMC3    C3 9979   2.098   2.500  14.304  0.0385  0.2660  0.1805
  671TMC3    C4 9980   1.895   2.684  14.255  0.7088  0.2452  0.3099
  671TMC3    C5 9981   1.896   2.561  14.186 -0.6886 -0.3969  0.4961
  671TMC3    C6 9982   1.992   2.473  14.219  0.6728  0.5193  0.0047
  671TMC3     C 9983   2.057   2.848  14.310 -0.4897  0.7322 -0.1275
  671TMC3     O 9984   1.969   2.931  14.296 -0.2602 -0.2038 -0.1156
  671TMC3     H 9985   2.180   2.649  14.438  0.5433 -0.6743 -0.2271
  671TMC3    H1 9986   1.833   2.765  14.217 -2.2863 -1.9541  0.5380
  671TMC3    H2 9987   1.981   2.378  14.168 -0.4018  0.6433  0.0086
  671TMC3    C7 9988   1.852   2.552  14.048 -0.3351  0.5790  0.5327
  671TMC3    C8 9989   2.227   2.485  14.245  0.1278  0.1381  0.2327
  671TMC3    O1 9990   1.931   2.507  13.967 -0.1467 -0.1029 -0.0835
  671TMC3    O2 9991   2.308   2.576  14.259  0.0709 -0.1483 -0.0720
  672MPD2     C 9992   2.535   3.379   1.337  0.3036  0.1126  0.1025
  672MPD2    C1 9993   2.445   3.469   1.278  0.1066  0.2290  0.0759
  672MPD2    C2 9994   2.469   3.610   1.285  0.4672 -0.4382  0.9128
  672MPD2    C3 9995   2.587   3.650   1.348  0.2410 -0.3396 -0.0163
  672MPD2    C4 9996   2.660   3.558   1.416  0.1379  0.4159  0.1610
  672MPD2    C5 9997   2.643   3.423   1.404 -0.0555 -0.1748  0.6568
  672MPD2     H 9998   2.397   3.687   1.261  0.3893  0.3737  3.8158
  672MPD2    H1 9999   2.746   3.595   1.471  0.0188 -0.3313  0.8578
  672MPD2    H210000   2.529   3.272   1.323  1.9208  0.0425 -0.0477
  672MPD2    H310001   2.719   3.356   1.443 -0.8583 -1.0014  0.7690
  672MPD2     N10002   2.637   3.783   1.338 -0.7119  0.0320 -0.8642
  672MPD2    H510003   2.721   3.794   1.394 -0.1472  2.0979 -2.1269
  672MPD2    N110004   2.331   3.426   1.206  0.0510  0.0191  0.7821
  672MPD2    H710005   2.262   3.497   1.184 -0.4035 -0.2291  1.4350
  673TMC3    C110006   2.220   3.287   1.050  0.6245  0.9355  0.0911
  673TMC3    C210007   2.248   3.227   0.930  0.0066  0.0230 -0.9705
  673TMC3    C310008   2.183   3.274   0.817  0.1295  0.6459 -0.9431
  673TMC3    C410009   2.115   3.373   1.060 -0.1279  0.3068  0.1310
  673TMC3    C510010   2.028   3.392   0.952 -0.3226  0.0189  0.4790
  673TMC3    C610011   2.069   3.351   0.828 -0.0251 -0.3576  0.3175
  673TMC3     C10012   2.319   3.299   1.152  0.2403 -0.2016 -0.3828
  673TMC3     O10013   2.406   3.210   1.145  0.3211 -0.2525 -0.6959
  673TMC3     H10014   2.333   3.164   0.906  1.5822  1.3863  1.0807
  673TMC3    H110015   2.088   3.407   1.159 -0.5655  0.6332 -0.0985
  673TMC3    H210016   2.012   3.381   0.741 -0.5767 -2.0190  0.1126
  673TMC3    C710017   1.947   3.507   0.962  0.1796  0.2303 -0.4838
  673TMC3    C810018   2.244   3.262   0.688  0.0689 -0.7552 -0.1671
  673TMC3    O110019   1.907   3.532   1.076 -0.7543 -0.3228  0.1324
  673TMC3    O210020   2.169   3.234   0.593  0.3045 -0.1694  0.4353
  674MPD2     C10021   2.333   3.437  17.173 -0.0790 -0.5468 -0.2048
  674MPD2    C110022   2.403   3.430  17.289  0.1436  0.0062 -0.4823
  674MPD2    C210023   2.392   3.528  17.380 -0.6158 -0.2848 -0.3581
  674MPD2    C310024   2.320   3.643  17.357 -0.5319  0.2702  0.6854
  674MPD2    C410025   2.250   3.652  17.237 -0.1828  0.3992  0.7881
  674MPD2    C510026   2.263   3.551  17.145 -0.7054 -0.1846  1.0124
  674MPD2     H10027   2.458   3.521  17.466  0.4971 -1.3265 -1.3086
  674MPD2    H110028   2.207   3.746  17.203 -1.8233 -0.7047 -0.2145
  674MPD2    H210029   2.347   3.363  17.095  0.2131  0.0887 -0.7458
  674MPD2    H310030   2.219   3.570  17.048 -2.5661 -1.1072  1.6700
  674MPD2     N10031   2.326   3.733  17.462 -0.5773  0.0467  0.5537
  674MPD2    H510032   2.365   3.700  17.550  1.7940  0.1664 -0.4477
  674MPD2    N110033   2.489   3.329  17.322  0.5748  0.7535  0.0969
  674MPD2    H710034   2.551   3.342  17.401 -0.6272  1.8376  0.8646
  675TMC3    C110035   2.605   3.144  17.323 -0.1132 -0.3936 -0.3397
  675TMC3    C210036   2.517   3.047  17.363 -0.0094  0.5814 -0.5090
  675TMC3    C310037   2.504   3.029  17.501  0.8882 -0.1340 -0.5607
  675TMC3    C410038   2.677   3.219  17.412 -0.2745 -0.3961 -0.9713
  675TMC3    C510039   2.663   3.195  17.546  0.0142 -0.2863 -0.0223
  675TMC3    C610040   2.579   3.100  17.591  0.6032 -0.1839 -0.5137
  675TMC3     C10041   2.527   3.230  17.240  0.4026 -0.2269 -0.0159
  675TMC3     O10042   2.495   3.190  17.131  0.5043  0.1156 -0.3129
  675TMC3     H10043   2.444   3.002  17.298  0.0474 -1.6351  0.9672
  675TMC3    H110044   2.759   3.281  17.380  0.7927 -1.9231 -1.2011
  675TMC3    H210045   2.574   3.079  17.697 -1.0335  1.9562 -0.1678
  675TMC3    C710046   2.740   3.270  17.644  0.7504  0.4760 -0.4081
  675TMC3    C810047   2.385   2.958  17.543  0.3043  0.0670  0.1020
  675TMC3    O110048   2.861   3.276  17.619 -0.2130  0.1543 -0.3329
  675TMC3    O210049   2.337   2.890  17.456 -0.4179  0.1646  0.0212
  676MPD2     C10050   0.683   2.405  11.234 -0.2562  0.6388 -0.2650
  676MPD2    C110051   0.646   2.332  11.344 -0.4642 -0.0451  0.1527
  676MPD2    C210052   0.620   2.206  11.319  0.0784  0.0006 -0.0210
  676MPD2    C310053   0.626   2.148  11.193 -1.1397 -0.3645  0.5942
  676MPD2    C410054   0.672   2.218  11.086  0.4242 -0.3369  0.6090
  676MPD2    C510055   0.701   2.348  11.112 -0.1716 -0.9257  0.1943
  676MPD2     H10056   0.593   2.145  11.406  1.6112 -2.8820 -1.5690
  676MPD2    H110057   0.682   2.179  10.986  3.0937  3.1678 -0.4890
  676MPD2    H210058   0.699   2.512  11.237 -0.5263  0.5970  2.8552
  676MPD2    H310059   0.716   2.413  11.027  0.7331 -1.1155  0.2080
  676MPD2     N10060   0.580   2.018  11.163 -0.3509  0.3350  1.1281
  676MPD2    H510061   0.596   1.992  11.067 -0.6851 -3.4317  2.1084
  676MPD2    N110062   0.635   2.381  11.478 -0.0220 -0.3888  0.8311
  676MPD2    H710063   0.598   2.306  11.535 -0.9277 -0.3521  0.2977
  677TMC3    C110064   0.627   2.536  11.658 -0.1335 -0.2378  0.0414
  677TMC3    C210065   0.554   2.449  11.730 -0.2646 -0.3195 -0.2470
  677TMC3    C310066   0.511   2.480  11.862  0.6067 -0.2801  0.4704
  677TMC3    C410067   0.674   2.652  11.711  0.2614  0.3040  0.3366
  677TMC3    C510068   0.647   2.673  11.845  0.5162  0.3978 -0.2143
  677TMC3    C610069   0.554   2.599  11.911  0.1164  0.8662 -0.1452
  677TMC3     C10070   0.641   2.515  11.515  0.2411  0.4224 -0.5138
  677TMC3     O10071   0.697   2.603  11.451 -0.1695  0.3797 -0.6708
  677TMC3     H10072   0.517   2.355  11.690  1.9367 -1.9288  1.5167
  677TMC3    H110073   0.728   2.720  11.646 -0.1240 -1.6535 -2.0629
  677TMC3    H210074   0.537   2.624  12.015  0.2431 -0.7535  0.2598
  677TMC3    C710075   0.693   2.799  11.908 -0.0055  0.3151  0.7721
  677TMC3    C810076   0.495   2.366  11.951  0.2393  0.3888 -0.1116
  677TMC3    O110077   0.622   2.857  11.988  0.7304  0.2756  0.6179
  677TMC3    O210078   0.546   2.259  11.921  0.0092 -0.0437 -0.3848
  678MPD2     C10079   1.019   1.936   0.780  0.4031  0.0569  0.5969
  678MPD2    C110080   1.002   1.836   0.689 -0.3563  0.2111  0.1165
  678MPD2    C210081   0.931   1.722   0.727  0.4737 -0.0444 -0.0585
  678MPD2    C310082   0.863   1.716   0.846 -0.2802  0.5094  0.0671
  678MPD2    C410083   0.889   1.808   0.939 -0.6805 -0.1271 -0.4210
  678MPD2    C510084   0.971   1.908   0.907  0.7994 -0.0376 -0.3547
  678MPD2     H10085   0.926   1.639   0.658  1.3597  0.7506 -1.0730
  678MPD2    H110086   0.860   1.811   1.043 -1.3517 -0.7703 -0.5869
  678MPD2    H210087   1.079   2.024   0.760  0.2355  0.5575  2.2334
  678MPD2    H310088   0.995   1.975   0.989 -1.7097 -2.4838  2.3746
  678MPD2     N10089   0.778   1.604   0.872  0.3046 -0.7954  0.4649
  678MPD2    H510090   0.776   1.531   0.802 -1.0539  0.0523 -0.3991
  678MPD2    N110091   1.046   1.847   0.553  0.0644  0.3465  0.5935
  678MPD2    H710092   1.034   1.766   0.492  0.2925  0.6787  0.1042
  679TMC3    C110093   1.305   1.749   0.240 -0.1406  0.7245  0.5052
  679TMC3    C210094   1.225   1.778   0.351  0.8502 -0.1864  0.3083
  679TMC3    C310095   1.171   1.906   0.363 -0.2512 -0.5025  0.2930
  679TMC3    C410096   1.335   1.842   0.144  0.3924  0.4364  0.0936
  679TMC3    C510097   1.281   1.965   0.167 -0.1665 -0.3516 -0.0816
  679TMC3    C610098   1.202   2.003   0.277  0.8624  0.4084  0.3096
  679TMC3     C10099   1.366   1.618   0.231 -0.5127  0.7077 -0.8142
  679TMC3     O10100   1.466   1.609   0.160  0.1930  0.4002  0.3116
  679TMC3     H10101   1.196   1.695   0.415  0.5786 -0.5912 -0.3369
  679TMC3    H110102   1.415   1.815   0.075 -0.0144 -0.6403  0.0557
  679TMC3    H210103   1.154   2.100   0.291 -0.9088 -0.4240 -0.0391
  679TMC3    C710104   1.305   2.062   0.063 -0.0203  0.7249 -0.0759
  679TMC3    C810105   1.104   1.951   0.482 -0.5267 -0.3687 -0.0571
  679TMC3    O110106   1.300   2.179   0.088  0.0391 -0.0744  0.3101
  679TMC3    O210107   1.097   2.072   0.501  0.5201 -0.0935  0.0845
  680MPD2     C10108   1.850   0.785  13.645  0.2073  0.2407  1.2638
  680MPD2    C110109   1.971   0.723  13.672 -0.0968 -0.4003  0.1031
  680MPD2    C210110   2.059   0.789  13.748 -0.2937 -0.1666 -0.2519
  680MPD2    C310111   2.042   0.925  13.784 -0.4770  0.3183 -0.0498
  680MPD2    C410112   1.925   0.991  13.758 -0.1030 -0.3526 -0.2052
  680MPD2    C510113   1.833   0.916  13.689  0.3673  0.3703 -0.2909
  680MPD2     H10114   2.151   0.735  13.768 -0.4560 -0.7645 -1.1471
  680MPD2    H110115   1.898   1.088  13.797  1.7715 -0.5138  1.5043
  680MPD2    H210116   1.766   0.740  13.593  0.7631  1.5396 -0.7320
  680MPD2    H310117   1.734   0.956  13.669  0.6715  0.5753 -1.3768
  680MPD2     N10118   2.144   0.999  13.847 -0.5174  0.2417 -0.3163
  680MPD2    H510119   2.121   1.091  13.883 -2.6477  0.6363 -2.6998
  680MPD2    N110120   2.003   0.591  13.632  0.2301  0.1887 -0.6866
  680MPD2    H710121   2.098   0.558  13.648  0.3146  0.6102 -0.3254
  681TMC3    C110122   1.985   0.364  13.573  0.4306  0.4653 -0.1740
  681TMC3    C210123   1.903   0.255  13.586  0.1219  0.7358  0.0684
  681TMC3    C310124   1.960   0.128  13.594 -0.1440  0.2165  1.0261
  681TMC3    C410125   2.115   0.353  13.553 -0.1579 -0.4069 -0.2977
  681TMC3    C510126   2.169   0.228  13.565  0.7842  0.2748  0.1683
  681TMC3    C610127   2.094   0.118  13.598  0.9965 -0.1321  0.0541
  681TMC3     C10128   1.915   0.492  13.588  0.4009 -0.0519  0.1634
  681TMC3     O10129   1.793   0.485  13.574 -0.0973  0.0074  0.2267
  681TMC3     H10130   1.797   0.265  13.610 -0.4724 -0.5637 -1.9581
  681TMC3    H110131   2.181   0.434  13.524  0.0369 -0.5234 -0.1788
  681TMC3    H210132   2.141   0.021  13.602  2.2835  0.4142 -1.7367
  681TMC3    C710133   2.312   0.208  13.577 -0.5266  0.5640 -0.3756
  681TMC3    C810134   1.887   0.065  13.694 -1.2194 -0.3711  0.5096
  681TMC3    O110135   2.355   0.109  13.634 -0.2376 -0.1211  0.4344
  681TMC3    O210136   1.778   0.016  13.665  0.1421  0.0125 -0.3893
  682MPD2     C10137   4.458   2.812  10.852  0.2625 -0.3830  0.8786
  682MPD2    C110138   4.428   2.679  10.881 -0.1642 -0.3899  0.5126
  682MPD2    C210139   4.365   2.651  10.996  0.0635 -0.4299 -0.5412
  682MPD2    C310140   4.344   2.748  11.095  1.1382 -0.4493 -0.0541
  682MPD2    C410141   4.375   2.878  11.070  0.1499  0.9254 -0.4816
  682MPD2    C510142   4.434   2.909  10.952  0.2866  0.4453 -0.6804
  682MPD2     H10143   4.336   2.549  11.018  1.6157 -0.9231 -0.7692
  682MPD2    H110144   4.374   2.961  11.139  0.8920  0.1397  0.4778
  682MPD2    H210145   4.505   2.852  10.763  1.5983 -2.9826  0.4176
  682MPD2    H310146   4.459   3.014  10.939  1.2519  0.0706 -1.8585
  682MPD2     N10147   4.303   2.719  11.226  0.1234  0.3311 -0.0317
  682MPD2    H510148   4.269   2.793  11.286  0.3306 -0.2463  0.8000
  682MPD2    N110149   4.457   2.568  10.794 -0.3971  0.0574  0.3934
  682MPD2    H710150   4.428   2.474  10.816  0.9609 -0.9843 -2.2081
  683TMC3    C110151   4.239   2.685  11.639 -0.4295 -0.4024  0.0269
  683TMC3    C210152   4.175   2.578  11.681 -0.3092  0.2239 -0.4146
  683TMC3    C310153   4.144   2.480  11.596  0.1936 -0.6383  0.2364
  683TMC3    C410154   4.290   2.686  11.512 -0.2021  0.2851  0.5260
  683TMC3    C510155   4.259   2.592  11.423 -0.0833 -0.3774 -0.7464
  683TMC3    C610156   4.181   2.484  11.461  0.5621  0.2439  0.0969
  683TMC3     C10157   4.303   2.773  11.744  0.5338 -0.5048  0.6651
  683TMC3     O10158   4.238   2.810  11.841  0.4310  0.1022  0.2579
  683TMC3     H10159   4.148   2.564  11.786 -0.5187  1.9980 -0.2330
  683TMC3    H110160   4.343   2.777  11.485 -0.5857  0.3960  0.1637
  683TMC3    H210161   4.139   2.415  11.388  3.4059  0.8275 -2.0988
  683TMC3    C710162   4.302   2.591  11.286 -0.7336 -0.0151  0.5820
  683TMC3    C810163   4.021   2.422  11.614  0.1096  1.3809 -0.6103
  683TMC3    O110164   4.329   2.483  11.237  0.5113 -0.0617  0.1831
  683TMC3    O210165   3.941   2.486  11.679 -0.3175 -0.2798  0.2098
  684MPD2     C10166   2.277   0.796  16.557  0.2800 -0.1494  1.1410
  684MPD2    C110167   2.225   0.864  16.450  0.0858  0.0568 -0.6888
  684MPD2    C210168   2.201   1.002  16.458  0.2271 -0.3098 -0.3860
  684MPD2    C310169   2.252   1.081  16.561 -0.2736 -0.5583 -0.0192
  684MPD2    C410170   2.307   1.006  16.665 -0.3424  0.0842  0.1913
  684MPD2    C510171   2.312   0.872  16.664  0.6133 -0.4426 -0.3478
  684MPD2     H10172   2.149   1.057  16.380  0.9453  1.0719  0.1047
  684MPD2    H110173   2.346   1.054  16.754  0.5168 -2.0989  0.9802
  684MPD2    H210174   2.284   0.688  16.570  0.8617 -0.4735 -1.8524
  684MPD2    H310175   2.349   0.821  16.753 -1.6491  0.3664  1.0817
  684MPD2     N10176   2.244   1.225  16.572  0.9097  0.7459 -1.0621
  684MPD2    H510177   2.282   1.261  16.659 -2.1549  1.0955  0.1662
  684MPD2    N110178   2.190   0.808  16.321  0.2281  0.2044  0.2058
  684MPD2    H710179   2.162   0.871  16.247  4.1048 -0.1498 -1.5397
  685TMC3    C110180   2.231   0.695  16.129  0.1449 -0.0131  0.3899
  685TMC3    C210181   2.148   0.791  16.075  0.6903  0.5191  0.4167
  685TMC3    C310182   2.188   0.855  15.962 -0.4184  0.1027  0.3102
  685TMC3    C410183   2.360   0.684  16.085  0.5337  0.0570  0.2379
  685TMC3    C510184   2.402   0.761  15.976 -0.0467 -0.7220 -0.3041
  685TMC3    C610185   2.319   0.851  15.917 -0.4493  0.5078 -0.8915
  685TMC3     C10186   2.225   0.683  16.280  0.4529  0.4465  0.2396
  685TMC3     O10187   2.289   0.595  16.333 -0.1080 -0.1753  0.7205
  685TMC3     H10188   2.043   0.784  16.101  0.5324 -1.4113 -0.8029
  685TMC3    H110189   2.429   0.616  16.133  0.6159  0.0349  0.0889
  685TMC3    H210190   2.341   0.901  15.823 -1.0684  0.0365 -1.2939
  685TMC3    C710191   2.547   0.766  15.959  0.2439  0.4741  0.4024
  685TMC3    C810192   2.089   0.901  15.874  0.0828  0.4487  0.2542
  685TMC3    O110193   2.613   0.664  15.984  0.2108 -0.6583 -0.4923
  685TMC3    O210194   2.118   0.911  15.756  0.3437 -0.1089 -0.5956
  686MPD2     C10195   3.041   1.396  15.262  0.0221 -0.1505  0.2199
  686MPD2    C110196   3.146   1.369  15.350 -0.5970  0.1464  0.2450
  686MPD2    C210197   3.274   1.426  15.326 -0.3857 -0.0458  0.3580
  686MPD2    C310198   3.298   1.505  15.209 -0.4085  0.2741 -0.8063
  686MPD2    C410199   3.191   1.520  15.118  0.0023 -0.4156  0.4216
  686MPD2    C510200   3.070   1.464  15.148  0.2874 -0.0061  0.1972
  686MPD2     H10201   3.357   1.404  15.393 -0.7091 -1.3062  0.3433
  686MPD2    H110202   3.192   1.570  15.022 -1.6370  1.8613  1.5932
  686MPD2    H210203   2.939   1.363  15.276 -1.0548  2.1519 -2.1093
  686MPD2    H310204   3.003   1.474  15.063  0.0103  1.4253  0.5861
  686MPD2     N10205   3.423   1.561  15.173 -0.7297  0.0831 -0.0322
  686MPD2    H510206   3.417   1.619  15.090 -1.2955  0.9607  0.6222
  686MPD2    N110207   3.118   1.281  15.453  0.1432 -0.2004  0.0116
  686MPD2    H710208   3.030   1.232  15.444  0.2984 -0.3966 -0.4857
  687TMC3    C110209   3.586   1.414  15.280 -1.1700 -0.3849 -0.7424
  687TMC3    C210210   3.527   1.298  15.237 -0.2178 -0.1278  0.2366
  687TMC3    C310211   3.544   1.187  15.325 -0.3909  0.4309 -0.4506
  687TMC3    C410212   3.661   1.418  15.387 -0.3276 -0.0430  0.1282
  687TMC3    C510213   3.677   1.311  15.470 -0.3686 -0.2079  0.6803
  687TMC3    C610214   3.617   1.192  15.441  0.3441 -0.2891 -0.3127
  687TMC3     C10215   3.556   1.544  15.227 -0.1922  0.6072 -0.4610
  687TMC3     O10216   3.655   1.612  15.206  0.0587 -0.2532  0.1338
  687TMC3     H10217   3.486   1.288  15.137  0.1189 -1.3730  0.2139
  687TMC3    H110218   3.700   1.516  15.414 -1.4053  0.2086  0.7634
  687TMC3    H210219   3.628   1.104  15.502  1.2615 -0.4222 -0.6731
  687TMC3    C710220   3.750   1.339  15.588  0.1865 -0.3939  0.1901
  687TMC3    C810221   3.459   1.067  15.310 -0.2603  0.5342 -0.0476
  687TMC3    O110222   3.764   1.460  15.598  0.0358  0.2272 -0.2101
  687TMC3    O210223   3.478   0.980  15.389  0.1266  0.5278 -0.5144
  688MPD2     C10224   2.783   0.043  17.465 -0.6693  0.4946  0.0062
  688MPD2    C110225   2.814   4.644  17.457 -0.1064  0.6290 -0.3021
  688MPD2    C210226   2.929   4.608  17.387 -0.0490 -1.0857  0.7693
  688MPD2    C310227   2.992   4.699  17.305 -0.1298 -0.2814 -0.1272
  688MPD2    C410228   2.948   0.089  17.287 -0.3052 -0.6371 -0.1484
  688MPD2    C510229   2.854   0.135  17.379 -0.3105 -0.4230  0.1090
  688MPD2     H10230   2.957   4.504  17.390 -1.5486 -1.4807  0.6744
  688MPD2    H110231   3.001   0.154  17.218 -1.8353 -1.0955 -1.7697
  688MPD2    H210232   2.703   0.074  17.532 -1.1708  0.5008 -0.5969
  688MPD2    H310233   2.836   0.241  17.371 -2.3014 -0.8130 -0.6886
  688MPD2     N10234   3.104   4.661  17.229 -0.0288  0.1112  0.5344
  688MPD2    H510235   3.141   4.732  17.167  0.2973 -0.1956  0.3769
  688MPD2    N110236   2.736   4.546  17.515 -0.2395  0.3354  0.0226
  688MPD2    H710237   2.780   4.457  17.536  0.5732 -0.0948 -3.4745
  689TMC3    C110238   2.567   4.494  17.671 -0.0725  0.1473  0.2916
  689TMC3    C210239   2.458   4.537  17.742 -0.5453 -0.0719  0.2868
  689TMC3    C310240   2.426   4.460   0.109  0.5900 -0.7514  0.2486
  689TMC3    C410241   2.624   4.371  17.696  0.3005  0.3600  0.0875
  689TMC3    C510242   2.580   4.295   0.056  0.0912  0.5541 -0.5320
  689TMC3    C610243   2.484   4.339   0.142  0.2061  0.0451  0.6254
  689TMC3     C10244   2.613   4.584  17.563 -0.1377  0.0544 -0.3234
  689TMC3     O10245   2.541   4.666  17.506  0.2620  0.1730  0.3548
  689TMC3     H10246   2.417   4.636  17.726  1.8375  0.8935  0.0968
  689TMC3    H110247   2.703   4.342  17.628  1.2755 -0.6892  1.6517
  689TMC3    H210248   2.462   4.285   0.233  3.2749  0.5204  1.6609
  689TMC3    C710249   2.612   4.152   0.057 -0.2119  0.4979  0.1205
  689TMC3    C810250   2.325   4.506   0.202  0.5825  0.4154 -0.9809
  689TMC3    O110251   2.598   4.097   0.163  0.0739  0.2364  0.3363
  689TMC3    O210252   2.332   4.482   0.324 -0.7586  0.7346 -0.1543
  690MPD2     C10253   0.223   2.195  15.482  0.0862  0.1315 -0.3042
  690MPD2    C110254   0.263   2.066  15.505  0.0952  0.1951  0.5809
  690MPD2    C210255   0.362   2.013  15.429 -0.4471  0.0367 -0.0408
  690MPD2    C310256   0.422   2.091  15.332 -0.3860 -0.0197  0.9698
  690MPD2    C410257   0.387   2.223  15.310  0.2512  0.3267 -0.4270
  690MPD2    C510258   0.297   2.273  15.399 -0.7337 -0.1520 -0.5765
  690MPD2     H10259   0.385   1.908  15.441  1.7240  0.4284 -0.7132
  690MPD2    H110260   0.421   2.288  15.230 -0.0963 -0.7373 -1.4396
  690MPD2    H210261   0.145   2.250  15.534 -0.0183  0.4110 -0.7536
  690MPD2    H310262   0.271   2.377  15.384 -4.2121 -1.4601 -3.6592
  690MPD2     N10263   0.521   2.026  15.255 -0.2148  0.5922  0.0161
  690MPD2    H510264   0.549   1.930  15.272 -1.1665  0.0873 -1.2971
  690MPD2    N110265   0.191   1.972  15.592 -0.6600 -0.1421 -0.3417
  690MPD2    H710266   0.242   1.885  15.599  0.2590  0.4142 -0.1192
  691TMC3    C110267   4.732   1.884  15.671 -0.2450  0.4139 -0.6616
  691TMC3    C210268   4.602   1.914  15.703  0.3886  0.0163 -0.0084
  691TMC3    C310269   4.537   1.803  15.754  0.2878 -0.3206 -0.1468
  691TMC3    C410270   0.056   1.762  15.671  0.6109  0.4263 -0.1798
  691TMC3    C510271   4.718   1.659  15.706  0.0944  0.3370  0.2632
  691TMC3    C610272   4.586   1.677  15.741  0.1965  0.0936 -0.4411
  691TMC3     C10273   0.077   2.002  15.651 -0.2453 -0.0983 -0.1817
  691TMC3     O10274   0.029   2.113  15.666  0.0414 -0.0636  0.3251
  691TMC3     H10275   4.564   2.015  15.710 -1.8591 -0.5748 -3.6527
  691TMC3    H110276   0.162   1.751  15.652  0.4699 -1.1867 -0.0405
  691TMC3    H210277   4.538   1.592  15.788  0.4791  0.8754  1.2761
  691TMC3    C710278   0.041   1.531  15.703 -0.4776  0.1488 -0.1120
  691TMC3    C810279   4.393   1.815  15.796 -0.3770 -0.2365 -0.7295
  691TMC3    O110280   0.161   1.518  15.711 -0.2307  0.4966  0.1981
  691TMC3    O210281   4.331   1.709  15.798  0.2860  0.3500  0.5723
  692TMC3    C110282   1.941   2.641  16.072  0.0732  0.3410  0.0187
  692TMC3    C210283   2.081   2.655  16.067 -0.0489  0.2879 -0.2981
  692TMC3    C310284   2.160   2.538  16.067 -0.2794  0.3282 -0.2257
  692TMC3    C410285   1.887   2.518  16.080 -0.1603 -0.0317  0.2992
  692TMC3    C510286   1.964   2.405  16.098  0.2287  0.3054 -0.3683
  692TMC3    C610287   2.103   2.416  16.098 -0.8976  0.1287  0.0174
  692TMC3     C10288   1.864   2.756  16.117 -0.2007 -0.6651 -0.2968
  692TMC3     O10289   1.743   2.746  16.112  0.0875  0.3098  0.0449
  692TMC3     H10290   2.115   2.748  16.022 -1.6484  1.1977  0.3945
  692TMC3    H110291   1.780   2.509  16.060 -0.2553 -0.4914  0.9967
  692TMC3    H210292   2.156   2.327  16.068  1.3270  1.3102  0.4312
  692TMC3    C710293   1.901   2.282  16.056  0.3098 -0.1505 -0.0305
  692TMC3    C810294   2.285   2.578  16.133  0.5414 -0.3453  0.4470
  692TMC3    O110295   1.832   2.296  15.956 -1.0512 -0.0740  0.4954
  692TMC3    O210296   2.328   2.686  16.092 -0.2430 -0.0844  0.3931
  693MPD2     C10297   2.091   1.428  11.148 -0.4406  0.2102 -0.1857
  693MPD2    C110298   2.000   1.402  11.054 -0.1325  0.4252 -0.7881
  693MPD2    C210299   2.032   1.300  10.963  0.5462 -0.6393  0.1322
  693MPD2    C310300   2.154   1.237  10.963 -0.0756  0.0424 -0.0016
  693MPD2    C410301   2.249   1.273  11.052 -0.2789 -0.1594  0.6478
  693MPD2    C510302   2.212   1.367  11.147 -0.1460  0.0339 -0.2963
  693MPD2     H10303   1.953   1.268  10.895 -2.5533  2.8761  2.0232
  693MPD2    H110304   2.343   1.219  11.046  0.1907  0.7628 -0.2050
  693MPD2    H210305   2.080   1.511  11.217  3.2629  0.6689 -0.1238
  693MPD2    H310306   2.287   1.386  11.222 -1.4487  3.3744  0.1524
  693MPD2     N10307   2.186   1.128  10.884  0.1382  0.0841  0.4226
  693MPD2    H510308   2.258   1.066  10.918  0.3414  0.3105  0.4036
  693MPD2    N110309   1.874   1.461  11.061 -0.3300  0.0384  0.8568
  693MPD2    H710310   1.855   1.519  11.142 -0.0872  1.7279 -0.3023
  694TMC3    C110311   1.632   1.496  11.012 -0.3166  0.0427 -0.8615
  694TMC3    C210312   1.546   1.508  10.908 -0.3616 -0.0162  0.5166
  694TMC3    C310313   1.419   1.459  10.924  0.1312 -0.4031  0.8846
  694TMC3    C410314   1.592   1.448  11.135  1.0245 -0.7777  0.6603
  694TMC3    C510315   1.462   1.413  11.150 -0.0332 -0.9580  0.6427
  694TMC3    C610316   1.376   1.415  11.046 -0.1869 -0.5551  0.2953
  694TMC3     C10317   1.771   1.451  10.965  0.8893  0.4563 -0.3251
  694TMC3     O10318   1.778   1.394  10.856 -0.1068  0.0105 -0.0790
  694TMC3     H10319   1.573   1.532  10.806  1.5308 -1.6946  0.6283
  694TMC3    H110320   1.657   1.415  11.215  0.6771 -1.9303  0.4606
  694TMC3    H210321   1.273   1.382  11.057 -0.5751  1.2647  1.9277
  694TMC3    C710322   1.420   1.360  11.277 -0.2743 -0.5435 -0.0600
  694TMC3    C810323   1.321   1.464  10.819 -0.6160  0.1598  0.6908
  694TMC3    O110324   1.474   1.408  11.375 -0.1671  0.0176 -0.5140
  694TMC3    O210325   1.236   1.375  10.817  0.4348  0.0896  0.5741
  695MPD2     C10326   2.720   2.756  13.284  0.4341  0.2604 -0.7586
  695MPD2    C110327   2.651   2.765  13.405  0.7416  0.3481  0.1497
  695MPD2    C210328   2.513   2.758  13.399 -0.1835 -0.2033  0.4361
  695MPD2    C310329   2.444   2.732  13.285  0.2079  0.1565  0.1741
  695MPD2    C410330   2.518   2.713  13.165  0.2584  0.1029  0.2945
  695MPD2    C510331   2.654   2.731  13.167  0.6970  0.7181  0.1517
  695MPD2     H10332   2.459   2.750  13.492 -1.0703 -0.5137 -0.1013
  695MPD2    H110333   2.472   2.695  13.068  4.6073 -3.0760 -1.1390
  695MPD2    H210334   2.825   2.780  13.279  0.2310  1.5854  1.4386
  695MPD2    H310335   2.705   2.722  13.071 -2.2563 -1.3361 -1.2007
  695MPD2     N10336   2.303   2.733  13.299 -0.2150  0.4315 -0.2956
  695MPD2    H510337   2.268   2.757  13.391  1.1885 -0.1382  0.3829
  695MPD2    N110338   2.707   2.771  13.530 -0.5590 -0.3177 -1.1668
  695MPD2    H710339   2.634   2.776  13.600  0.6413 -4.6082  0.3872
  696TMC3    C110340   2.084   2.769  13.241  0.5672  0.0460  0.4894
  696TMC3    C210341   2.042   2.707  13.354  0.5804  0.5336 -0.4154
  696TMC3    C310342   1.932   2.762  13.410  0.4926 -0.4514 -0.7174
  696TMC3    C410343   2.030   2.888  13.184  0.1925 -0.2007 -0.1048
  696TMC3    C510344   1.921   2.936  13.256  0.1788  0.4994 -0.5881
  696TMC3    C610345   1.870   2.878  13.370 -0.4782 -0.5853  0.0001
  696TMC3     C10346   2.211   2.728  13.191 -0.0787 -0.6747  0.5224
  696TMC3     O10347   2.233   2.732  13.070 -0.3031 -0.1275  0.3581
  696TMC3     H10348   2.088   2.616  13.391  0.4138  0.6539  0.0812
  696TMC3    H110349   2.072   2.932  13.095 -0.1041 -0.2424 -0.2660
  696TMC3    H210350   1.783   2.926  13.414  0.6341  0.9278  0.5414
  696TMC3    C710351   1.892   3.074  13.228  0.7541  0.1538 -0.7259
  696TMC3    C810352   1.889   2.701  13.535 -0.1961 -0.2602  0.5844
  696TMC3    O110353   1.896   3.104  13.109  0.2321 -0.0895 -0.1693
  696TMC3    O210354   1.968   2.621  13.582  0.4370  0.2719  0.4068
  697MPD2     C10355   2.258   4.353  15.760  0.1674 -0.2177  0.4048
  697MPD2    C110356   2.216   4.316  15.638  0.7296  0.4818  0.5134
  697MPD2    C210357   2.243   4.397  15.528  0.3956 -0.7024  0.4124
  697MPD2    C310358   2.312   4.512  15.539 -0.6682  0.0705 -0.1097
  697MPD2    C410359   2.361   4.545  15.669  0.4033 -0.1594  0.7634
  697MPD2    C510360   2.341   4.463  15.780 -0.1189  0.2349  0.2850
  697MPD2     H10361   2.208   4.367  15.430  1.1976  2.2236 -0.7604
  697MPD2    H110362   2.420   4.635  15.680 -0.1199  0.2311  0.3736
  697MPD2    H210363   2.236   4.305  15.855  1.9960  1.5224  1.6922
  697MPD2    H310364   2.385   4.488  15.876 -1.1871  1.3496  0.4793
  697MPD2     N10365   2.344   4.588  15.424 -0.4168 -0.2388 -0.2333
  697MPD2    H510366   2.296   4.555  15.340 -1.7302  1.5301 -0.1725
  697MPD2    N110367   2.131   4.204  15.614  0.3188 -0.7551  0.1200
  697MPD2    H710368   2.100   4.195  15.518  1.3916  1.8060 -0.4630
  698TMC3    C110369   2.461   4.734  15.281 -0.5782 -0.4165  0.1665
  698TMC3    C210370   2.593   0.017  15.243  0.5829 -0.3337  1.1175
  698TMC3    C310371   2.608   0.053  15.111  0.3581  0.3176  0.1933
  698TMC3    C410372   2.353   0.001  15.197 -0.2376  0.2514 -0.0334
  698TMC3    C510373   2.380   0.038  15.063  0.1679  0.5487  0.5787
  698TMC3    C610374   2.509   0.062  15.021 -0.8565 -0.4902  0.0953
  698TMC3     C10375   2.452   4.674  15.415 -0.0057 -0.3817 -0.2758
  698TMC3     O10376   2.543   4.696  15.494 -0.0207 -0.0044  0.2211
  698TMC3     H10377   2.674   0.014  15.315  0.7059 -0.4607  0.9757
  698TMC3    H110378   2.250   4.717  15.224  0.3077 -2.5550 -0.1880
  698TMC3    H210379   2.525   0.103  14.922 -1.0061 -1.4399 -0.3187
  698TMC3    C710380   2.266   0.024  14.968  0.5322 -0.3184  0.0451
  698TMC3    C810381   2.744   0.052  15.067  0.0159 -0.8377  0.0108
  698TMC3    O110382   2.152   4.728  15.003  0.1263 -1.0147  0.2255
  698TMC3    O210383   2.811   4.699  15.115 -0.0298  0.1746  0.5029
  699TMC3    C110384   1.700   2.859  12.903  0.1455 -0.8626  0.4901
  699TMC3    C210385   1.746   2.737  12.953 -0.5179 -0.4814 -0.2026
  699TMC3    C310386   1.698   2.701  13.076 -0.1097  0.0855  0.7167
  699TMC3    C410387   1.627   2.944  12.979 -0.5182  0.4174 -0.4604
  699TMC3    C510388   1.588   2.911  13.105  0.3785 -0.8131 -0.0871
  699TMC3    C610389   1.611   2.785  13.148  0.2663  0.1468 -0.4197
  699TMC3     C10390   1.773   2.931  12.791  1.0864 -0.0053  0.5621
  699TMC3     O10391   1.779   3.053  12.790 -0.4337 -0.2931  0.2937
  699TMC3     H10392   1.810   2.671  12.896  2.5437  0.5452  2.0497
  699TMC3    H110393   1.598   3.035  12.928 -0.5186  0.0437 -1.1340
  699TMC3    H210394   1.562   2.755  13.240  0.2492 -2.5097 -1.2686
  699TMC3    C710395   1.536   3.009  13.185  0.1326 -0.2737 -0.2215
  699TMC3    C810396   1.744   2.588  13.159  0.1148  0.7131  0.2819
  699TMC3    O110397   1.511   2.978  13.301  0.2057  0.1538  0.2589
  699TMC3    O210398   1.691   2.577  13.267  0.2594 -0.5435 -0.0628
  700TMC3    C110399   0.984   0.239  17.093 -0.3722 -0.3555 -0.2373
  700TMC3    C210400   1.089   0.169  17.049  0.0559 -0.1510  0.2806
  700TMC3    C310401   1.213   0.189  17.111  0.0748 -0.6115 -0.3951
  700TMC3    C410402   0.988   0.323  17.200  0.0973 -0.0326 -0.3827
  700TMC3    C510403   1.112   0.337  17.274 -0.2022  0.5428  0.4069
  700TMC3    C610404   1.219   0.268  17.231 -0.0270 -0.3031  0.1898
  700TMC3     C10405   0.897   0.285  16.986 -0.4068 -0.0765 -0.2058
  700TMC3     O10406   0.864   0.217  16.892  0.2276  0.2300 -0.3649
  700TMC3     H10407   1.080   0.105  16.962  0.1136  0.3042 -0.0543
  700TMC3    H110408   0.894   0.366  17.233 -0.9572 -1.1939 -1.8825
  700TMC3    H210409   1.314   0.281  17.281  0.5555  1.4652 -1.3571
  700TMC3    C710410   1.141   0.464  17.335 -0.0427  0.4660  0.2575
  700TMC3    C810411   1.334   0.128  17.065  0.3500  0.7112 -0.3146
  700TMC3    O110412   1.258   0.491  17.360 -0.5293  0.3628 -0.3174
  700TMC3    O210413   1.366   0.138  16.946  0.0720 -0.2689  0.1279
  701TMC3    C110414   1.197   3.727  15.471 -0.1479  0.1928  0.5426
  701TMC3    C210415   1.275   3.671  15.373  0.0260  0.6187  0.2581
  701TMC3    C310416   1.395   3.736  15.361 -0.1669 -0.0826 -1.0164
  701TMC3    C410417   1.221   3.844  15.535 -0.1621 -0.9897  0.3556
  701TMC3    C510418   1.347   3.890  15.523  0.1795  0.4877  1.0367
  701TMC3    C610419   1.433   3.840  15.433  0.1941  0.2152  0.5627
  701TMC3     C10420   1.088   3.650  15.528  0.2976  0.7668  0.2704
  701TMC3     O10421   1.007   3.702  15.606 -0.7073 -0.1228  0.0076
  701TMC3     H10422   1.255   3.572  15.334  0.4728  0.2951  0.8470
  701TMC3    H110423   1.150   3.885  15.606 -0.7526  1.5415 -1.6722
  701TMC3    H210424   1.538   3.869  15.439 -0.1923  1.2471  2.4265
  701TMC3    C710425   1.386   4.026  15.568 -0.1975  0.1155  0.1033
  701TMC3    C810426   1.471   3.709  15.246  0.4396 -0.3304  0.2674
  701TMC3    O110427   1.467   4.091  15.502  0.1093 -0.7848  0.2846
  701TMC3    O210428   1.595   3.712  15.256 -0.1410  0.6454 -0.0646
  702MPD2     C10429   0.682   1.680  10.612 -0.3989 -0.5025 -0.3773
  702MPD2    C110430   0.577   1.751  10.654 -0.4141  0.4692  0.1003
  702MPD2    C210431   0.510   1.833  10.558  0.6380  1.1097  0.5780
  702MPD2    C310432   0.560   1.842  10.425 -0.4727 -0.1047 -0.2606
  702MPD2    C410433   0.673   1.771  10.394  0.3718  0.0227 -0.2839
  702MPD2    C510434   0.736   1.696  10.488 -0.5084  0.2511  0.6016
  702MPD2     H10435   0.427   1.894  10.591  0.6447  0.0339  2.5799
  702MPD2    H110436   0.711   1.763  10.292  0.1470 -1.3219 -0.2614
  702MPD2    H210437   0.729   1.601  10.669  0.0100  0.4121  0.5306
  702MPD2    H310438   0.821   1.636  10.456  0.0148  0.8081  0.9337
  702MPD2     N10439   0.498   1.939  10.351 -0.3430 -0.4804 -0.5452
  702MPD2    H510440   0.415   1.980  10.393 -0.5805  0.1337 -1.6258
  702MPD2    N110441   0.519   1.728  10.781 -0.6215 -0.6118 -0.1292
  702MPD2    H710442   0.440   1.783  10.812  0.7981  1.8030 -0.7209
  703TMC3    C110443   0.482   2.135  10.218  1.2056  1.2863  0.0511
  703TMC3    C210444   0.364   2.140  10.290 -0.1270  0.3441  0.0211
  703TMC3    C310445   0.339   2.231  10.389  0.3303 -0.5135  0.4394
  703TMC3    C410446   0.578   2.232  10.247  0.0741 -0.1043  0.1966
  703TMC3    C510447   0.558   2.330  10.345 -0.1712  0.0879  0.3289
  703TMC3    C610448   0.436   2.326  10.419 -0.3134  0.1388 -0.0484
  703TMC3     C10449   0.547   2.005  10.240  0.0338  0.6620  0.0163
  703TMC3     O10450   0.649   1.977  10.173  0.0506 -0.0062  0.3133
  703TMC3     H10451   0.284   2.069  10.272 -1.2790  1.9068 -0.9881
  703TMC3    H110452   0.678   2.211  10.210  0.2390  1.3631 -0.1795
  703TMC3    H210453   0.416   2.388  10.506  0.5125  2.1095 -1.2755
  703TMC3    C710454   0.686   2.390  10.384  0.4701 -0.5927  0.0924
  703TMC3    C810455   0.263   2.177  10.501  0.3842 -0.2401  0.2431
  703TMC3    O110456   0.760   2.417  10.290 -0.1754 -0.1315  0.2966
  703TMC3    O210457   0.250   2.057  10.513 -0.0533 -0.2758  0.3479
  704TMC3    C110458   3.034   4.659  12.466  0.5458  0.1638 -0.2341
  704TMC3    C210459   3.065   4.643  12.329  0.7222 -0.1648 -0.2502
  704TMC3    C310460   3.154   4.545  12.305  0.2559  0.0019 -0.1838
  704TMC3    C410461   3.083   4.581  12.563  0.0748 -0.3242  1.0454
  704TMC3    C510462   3.168   4.480  12.534  0.2444  0.7871 -0.4048
  704TMC3    C610463   3.206   4.458  12.402 -0.2875  0.2659  0.0293
  704TMC3     C10464   2.894   4.700  12.489 -0.3444 -0.8637  0.4111
  704TMC3     O10465   2.842   4.681  12.600 -0.0742 -0.3899 -0.0011
  704TMC3     H10466   3.017   4.690  12.244 -0.8883  1.0482  1.3487
  704TMC3    H110467   3.032   4.573  12.658 -1.6157 -1.7374  0.0216
  704TMC3    H210468   3.262   4.373  12.365  1.3342  1.2097  0.2633
  704TMC3    C710469   3.237   4.405  12.638 -0.1555  0.0648 -0.1877
  704TMC3    C810470   3.136   4.496  12.175  0.5089 -0.0588 -0.3668
  704TMC3    O110471   3.259   4.468  12.742  1.2620 -0.1644  0.1591
  704TMC3    O210472   3.022   4.508  12.130 -0.3151  0.4266  0.2991
  705MPD2     C10473   2.387   2.171  16.607 -0.0968  0.5659 -0.1890
  705MPD2    C110474   2.377   2.300  16.551 -0.0484  0.0732 -0.2360
  705MPD2    C210475   2.286   2.390  16.611 -0.2216 -0.4396  0.1874
  705MPD2    C310476   2.214   2.349  16.719 -0.0417  0.1850 -0.0764
  705MPD2    C410477   2.234   2.232  16.787 -0.9611  0.4660  0.3685
  705MPD2    C510478   2.325   2.143  16.732 -0.2223  0.2087 -0.6620
  705MPD2     H10479   2.285   2.493  16.579  2.3622  0.2620  2.3454
  705MPD2    H110480   2.185   2.202  16.879 -2.6449  3.9337  0.5939
  705MPD2    H210481   2.443   2.092  16.558 -0.4893  0.0393  0.1989
  705MPD2    H310482   2.356   2.046  16.768  0.1672  0.4601 -0.3271
  705MPD2     N10483   2.110   2.437  16.749 -0.2245 -0.0007  0.1715
  705MPD2    H510484   2.117   2.536  16.727  2.6200 -0.8083 -2.5134
  705MPD2    N110485   2.454   2.346  16.446 -0.3717  0.6933  0.5448
  705MPD2    H710486   2.428   2.435  16.405 -0.9727 -1.2110 -3.2099
  706TMC3    C110487   2.679   2.307  16.049  0.5341  0.2699  0.0549
  706TMC3    C210488   2.664   2.442  16.024  0.3260 -0.2292 -0.2955
  706TMC3    C310489   2.632   2.519  16.129 -0.1634  0.2733 -0.1298
  706TMC3    C410490   2.648   2.250  16.170 -0.1107  0.4997  0.5683
  706TMC3    C510491   2.600   2.332  16.265  0.3396 -0.0797 -0.5442
  706TMC3    C610492   2.599   2.470  16.252 -0.3286  0.7416  0.3284
  706TMC3     C10493   2.693   2.209  15.947 -0.0054 -0.1428 -0.3605
  706TMC3     O10494   2.679   2.090  15.973 -1.0362 -0.1503  0.7228
  706TMC3     H10495   2.688   2.491  15.931 -2.2123  2.7405  0.6003
  706TMC3    H110496   2.668   2.145  16.186 -0.4826  0.4213  0.4997
  706TMC3    H210497   2.564   2.541  16.326  0.9384 -1.0263  2.6359
  706TMC3    C710498   2.550   2.269  16.384  0.5486 -0.0063  0.3642
  706TMC3    C810499   2.648   2.662  16.126  0.0959 -0.1871  0.3434
  706TMC3    O110500   2.583   2.153  16.409  0.4113  0.1581  0.4693
  706TMC3    O210501   2.641   2.708  16.015  0.3935  0.6474 -0.0041
  707TMC3    C110502   3.654   1.208   0.399 -0.9948 -0.3989 -0.6242
  707TMC3    C210503   3.599   1.082   0.386 -0.5104  0.0529  0.5279
  707TMC3    C310504   3.464   1.083   0.347 -0.6101 -0.1589  0.3817
  707TMC3    C410505   3.583   1.328   0.389  0.1140  0.1560  0.2166
  707TMC3    C510506   3.451   1.319   0.364 -0.0332 -0.6039  0.2398
  707TMC3    C610507   3.390   1.199   0.346  0.1713 -0.9400  0.0692
  707TMC3     C10508   3.780   1.204   0.456  0.5656  0.6157 -0.1666
  707TMC3     O10509   3.799   1.120   0.540  0.4099  0.1369  0.4148
  707TMC3     H10510   3.671   1.000   0.389  1.1734  1.4937 -0.7673
  707TMC3    H110511   3.637   1.418   0.413  1.4493 -0.3563 -0.8554
  707TMC3    H210512   3.288   1.188   0.312  0.4422  2.9438 -1.9812
  707TMC3    C710513   3.365   1.432   0.339  0.0240  0.4362 -0.0562
  707TMC3    C810514   3.383   0.958   0.332  0.8948  0.6360  0.6930
  707TMC3    O110515   3.245   1.411   0.341 -0.0702 -0.0715  0.5407
  707TMC3    O210516   3.262   0.971   0.337  0.3211 -0.0666  0.5497
  708MPD2     C10517   0.833   1.251  13.688 -0.1112  0.0865  0.5146
  708MPD2    C110518   0.767   1.165  13.778 -0.0706 -0.4822 -0.5554
  708MPD2    C210519   0.844   1.069  13.837  0.3880  0.5198 -0.1021
  708MPD2    C310520   0.983   1.067  13.818  0.1538 -0.0583 -0.0803
  708MPD2    C410521   1.041   1.151  13.720 -0.6254 -0.1446 -0.3633
  708MPD2    C510522   0.959   1.237  13.649  0.0243  0.3948  0.4810
  708MPD2     H10523   0.794   0.995  13.897  0.6333 -1.5909 -2.4941
  708MPD2    H110524   1.147   1.155  13.702 -0.4710 -0.0739  0.5697
  708MPD2    H210525   0.775   1.325  13.634  2.2940  2.3773  1.0680
  708MPD2    H310526   1.006   1.299  13.574 -3.2764 -1.5378 -3.1455
  708MPD2     N10527   1.058   0.972  13.886  0.3809  0.1355 -0.7962
  708MPD2    H510528   1.156   0.995  13.899  0.7865 -0.8842 -2.0436
  708MPD2    N110529   0.631   1.168  13.803 -0.6458 -0.8924  0.0186
  708MPD2    H710530   0.590   1.116  13.880 -0.2985 -1.3354 -0.0896
  709TMC3    C110531   0.407   1.208  13.796  0.0387  0.0730 -0.1886
  709TMC3    C210532   0.314   1.169  13.704 -0.1485 -0.1708 -0.4131
  709TMC3    C310533   0.222   1.080  13.752 -0.3002 -0.6624 -0.3665
  709TMC3    C410534   0.411   1.162  13.933  0.2390 -0.1598  0.1135
  709TMC3    C510535   0.323   1.065  13.967  0.0477  0.1320 -0.0060
  709TMC3    C610536   0.222   1.026  13.883  0.9052  0.5195  0.8562
  709TMC3     C10537   0.537   1.237  13.734  0.0288  0.5553 -0.1146
  709TMC3     O10538   0.545   1.261  13.612  0.2841  0.2054  0.2056
  709TMC3     H10539   0.300   1.220  13.609 -0.5888  0.2270 -0.1372
  709TMC3    H110540   0.488   1.186  14.004 -0.1618  1.4748 -0.0180
  709TMC3    H210541   0.160   0.939  13.897 -0.7046  1.7036  1.0850
  709TMC3    C710542   0.401   0.955  14.007  0.3775 -0.2953 -0.2758
  709TMC3    C810543   0.121   1.043  13.660  0.9556 -0.0897 -0.9230
  709TMC3    O110544   0.520   0.972  13.976 -0.0956  0.0337  0.2941
  709TMC3    O210545   0.015   1.005  13.707  0.0217  0.2186  0.6195
  710TMC3    C110546   1.758   2.728  17.646 -0.1545  0.4171  1.0794
  710TMC3    C210547   1.869   2.687  17.583  0.5826  0.4623 -0.5360
  710TMC3    C310548   1.866   2.566  17.522 -0.5805  0.3790 -0.4164
  710TMC3    C410549   1.640   2.666  17.640 -0.2244 -0.2137  0.0119
  710TMC3    C510550   1.635   2.551  17.559 -0.0082  0.2212 -0.4394
  710TMC3    C610551   1.751   2.497  17.508  0.5155  0.3621 -0.4644
  710TMC3     C10552   1.770   2.847  17.727  1.0423 -0.2730 -0.3080
  710TMC3     O10553   1.850   2.931  17.688  0.5432  0.0509  0.2762
  710TMC3     H10554   1.959   2.748  17.592  0.8295 -0.0123  0.1426
  710TMC3    H110555   1.555   2.695  17.701  1.2327 -0.6558  2.2467
  710TMC3    H210556   1.756   2.392  17.484 -2.0858  0.3240 -0.9170
  710TMC3    C710557   1.532   2.456  17.573 -0.6324 -0.5121  0.5356
  710TMC3    C810558   1.990   2.513  17.484 -0.0830 -0.6588 -0.2256
  710TMC3    O110559   1.443   2.469  17.658 -0.2136  0.2280 -0.1190
  710TMC3    O210560   2.067   2.593  17.431  0.4185 -0.2807  0.4696
  711TMC3    C110561   1.833   3.412  15.047  0.7220 -0.1582  0.4480
  711TMC3    C210562   1.827   3.467  15.177 -0.4791 -0.3411 -0.4072
  711TMC3    C310563   1.935   3.458  15.260  0.5838  0.1025  0.6969
  711TMC3    C410564   1.947   3.336  15.010 -0.1812 -0.1602  0.3098
  711TMC3    C510565   2.046   3.324  15.101  0.1818 -0.1918  0.9826
  711TMC3    C610566   2.043   3.383  15.223  0.2508  0.1016  0.2455
  711TMC3     C10567   1.712   3.346  15.007 -0.3389 -0.0729 -0.3361
  711TMC3     O10568   1.707   3.340  14.887  0.4805 -0.5391  0.3181
  711TMC3     H10569   1.740   3.524  15.210  0.0098  1.3896 -2.0915
  711TMC3    H110570   1.943   3.281  14.917 -0.7086  1.0826 -0.3955
  711TMC3    H210571   2.113   3.356  15.301 -0.9709 -0.7791  1.0364
  711TMC3    C710572   2.085   3.190  15.122  0.0536  0.4959 -0.4489
  711TMC3    C810573   1.921   3.509  15.402 -0.2954 -0.1906 -0.5263
  711TMC3    O110574   2.206   3.174  15.148 -0.3860 -0.0731 -0.0757
  711TMC3    O210575   1.809   3.527  15.444  0.2998 -0.0110 -0.0735
  712MPD2     C10576   3.140   4.414  13.903 -0.2942 -0.2357  0.1566
  712MPD2    C110577   3.048   4.485  13.824  0.4468 -0.1562  0.0981
  712MPD2    C210578   3.045   4.618  13.836 -0.5446  0.3498  0.2633
  712MPD2    C310579   3.134   4.686  13.916 -0.2435 -0.2461  0.1547
  712MPD2    C410580   3.229   4.613  13.990  0.5800 -0.3226  0.4493
  712MPD2    C510581   3.226   4.477  13.984  0.2132 -0.6857 -0.7974
  712MPD2     H10582   2.971   4.667  13.774 -1.6329 -0.3770  0.9934
  712MPD2    H110583   3.295   4.653  14.066  0.5042 -1.1861  0.9661
  712MPD2    H210584   3.145   4.306  13.901 -0.2406 -0.2693  2.4736
  712MPD2    H310585   3.285   4.410  14.045  0.9875 -1.1063 -2.0349
  712MPD2     N10586   3.135   0.087  13.934  0.3496 -0.2566 -0.8036
  712MPD2    H510587   3.216   0.121  13.985 -1.5723  0.9052  1.4676
  712MPD2    N110588   2.978   4.432  13.708  0.0556 -0.0693 -0.4286
  712MPD2    H710589   2.917   4.496  13.658 -1.3439 -0.1359  1.2019
  713TMC3    C110590   3.059   0.309  13.900  0.5717  0.0997 -0.1535
  713TMC3    C210591   3.191   0.355  13.895  0.5007  0.4986 -0.4787
  713TMC3    C310592   3.211   0.478  13.840  0.0365  0.0054 -0.2396
  713TMC3    C410593   2.963   0.403  13.868  0.4098 -0.1210  0.0767
  713TMC3    C510594   2.990   0.520  13.819  0.0797 -0.3333  0.1251
  713TMC3    C610595   3.114   0.563  13.796 -0.1465 -0.9221 -0.2238
  713TMC3     C10596   3.026   0.162  13.907 -0.1340  0.7778 -0.2168
  713TMC3     O10597   2.913   0.140  13.867  0.7434 -0.0860  0.5648
  713TMC3     H10598   3.269   0.282  13.881  1.0471  1.4979 -2.5884
  713TMC3    H110599   2.859   0.372  13.871 -0.0803  1.5945  1.3215
  713TMC3    H210600   3.136   0.667  13.776 -0.1895 -0.7029  0.8450
  713TMC3    C710601   2.900   0.578  13.725  0.1675  0.8986 -0.2914
  713TMC3    C810602   3.337   0.505  13.780  0.0484 -0.2585 -0.6770
  713TMC3    O110603   2.778   0.570  13.750 -0.6263 -0.2924  0.1384
  713TMC3    O210604   3.334   0.561  13.671 -0.3437  0.4094  0.3852
  714MPD2     C10605   0.739   3.688   1.402 -0.0507 -0.3560 -0.8718
  714MPD2    C110606   0.731   3.556   1.361  0.0620 -0.0765 -0.3361
  714MPD2    C210607   0.599   3.503   1.340 -0.8842  0.0495  0.2038
  714MPD2    C310608   0.489   3.574   1.363 -0.5913  0.2178  0.1032
  714MPD2    C410609   0.501   3.702   1.421  0.3330 -0.3914 -0.5228
  714MPD2    C510610   0.624   3.752   1.436 -0.2780  0.2761 -0.8678
  714MPD2     H10611   0.573   3.400   1.318  0.5652 -0.0157 -1.2456
  714MPD2    H110612   0.415   3.758   1.453  1.0100  1.6971 -2.3703
  714MPD2    H210613   0.837   3.731   1.419 -0.4196  0.4800 -0.8581
  714MPD2    H310614   0.627   3.853   1.476 -0.9133  0.1383 -0.4673
  714MPD2     N10615   0.360   3.515   1.338 -0.2031 -0.4293 -0.5980
  714MPD2    H510616   0.364   3.415   1.320  0.9624 -0.1389 -1.9509
  714MPD2    N110617   0.849   3.487   1.344 -1.1247  0.3192  0.1227
  714MPD2    H710618   0.937   3.537   1.352 -0.6001 -1.1124  3.4700
  715TMC3    C110619   0.994   3.305   1.329  0.0590 -0.7412  0.0812
  715TMC3    C210620   1.003   3.169   1.291 -0.4223  0.1239 -0.0269
  715TMC3    C310621   1.090   3.090   1.358  0.3966 -0.0603  0.5801
  715TMC3    C410622   1.079   3.360   1.418  0.3202 -0.1586  0.2155
  715TMC3    C510623   1.160   3.275   1.483 -0.1230 -0.4956 -0.1038
  715TMC3    C610624   1.179   3.136   1.451 -0.1713 -0.4029 -0.5858
  715TMC3     C10625   0.854   3.350   1.330 -0.4948  0.0509 -0.5004
  715TMC3     O10626   0.760   3.273   1.343 -0.5596  0.3068 -0.1478
  715TMC3     H10627   0.939   3.128   1.215  2.2002 -1.3727 -1.4434
  715TMC3    H110628   1.073   3.462   1.454 -1.4362 -0.5043  0.8841
  715TMC3    H210629   1.253   3.073   1.498 -0.7976  0.4289  1.5213
  715TMC3    C710630   1.277   3.330   1.562  0.7382 -0.4781 -0.1650
  715TMC3    C810631   1.082   2.948   1.324 -0.1516  0.6960 -1.3517
  715TMC3    O110632   1.332   3.245   1.632 -0.3273  0.0298 -0.4669
  715TMC3    O210633   1.037   2.919   1.212  0.1045  0.0853  0.1827
  716MPD2     C10634   0.964   2.159  10.215 -0.6552 -0.0541 -0.1991
  716MPD2    C110635   0.965   2.183  10.080 -0.6047  0.0702 -0.4422
  716MPD2    C210636   1.019   2.083  10.001  0.2985  0.2338  0.1035
  716MPD2    C310637   1.088   1.973  10.047  0.2607 -0.0614 -0.0390
  716MPD2    C410638   1.088   1.957  10.182 -0.3022  0.1726 -0.1572
  716MPD2    C510639   1.020   2.046  10.268  0.2309  0.7758  0.3573
  716MPD2     H10640   1.008   2.095   9.894 -2.2605  0.5287  0.4210
  716MPD2    H110641   1.130   1.866  10.222 -0.8070 -0.1222 -0.2923
  716MPD2    H210642   0.908   2.214  10.290  1.9611  0.6028  1.2686
  716MPD2    H310643   1.014   2.024  10.374 -0.7006 -1.7789 -0.2281
  716MPD2     N10644   1.135   1.884   9.949  0.2417 -0.1925 -0.3159
  716MPD2    H510645   1.115   1.896   9.850 -1.0680 -0.3189 -0.0691
  716MPD2    N110646   0.902   2.301  10.024  0.9565  0.1174 -0.6753
  716MPD2    H710647   0.871   2.372  10.090  2.7528 -0.6060  0.9726
  717TMC3    C110648   1.252   1.695   9.864 -0.0617  0.0280  0.5182
  717TMC3    C210649   1.178   1.703   9.746 -0.5162 -0.2384 -0.0087
  717TMC3    C310650   1.183   1.597   9.658  0.8007 -0.5676 -0.6732
  717TMC3    C410651   1.327   1.584   9.891 -0.2364 -0.5921  0.2588
  717TMC3    C510652   1.341   1.491   9.792 -0.1556  0.0642  0.3986
  717TMC3    C610653   1.264   1.494   9.676  0.0762 -0.2026 -0.3377
  717TMC3     C10654   1.217   1.778   9.981  0.6901  0.8888  0.1254
  717TMC3     O10655   1.277   1.753  10.085 -0.3519  0.4714 -0.3502
  717TMC3     H10656   1.107   1.783   9.725  1.8534  1.1208 -2.8591
  717TMC3    H110657   1.383   1.578   9.983 -0.3260 -0.7653  0.3030
  717TMC3    H210658   1.280   1.410   9.610 -1.5869 -0.2454 -0.6849
  717TMC3    C710659   1.424   1.372   9.816 -0.4707  0.1588 -0.4880
  717TMC3    C810660   1.089   1.591   9.543  0.4280 -0.5529  0.7108
  717TMC3    O110661   1.397   1.272   9.752 -0.0484 -0.2049  0.7489
  717TMC3    O210662   1.013   1.685   9.523 -0.2812  0.5394  0.1667
  718MPD2     C10663   0.015   0.174  12.861  0.6141 -0.5206  0.1965
  718MPD2    C110664   4.658   0.131  12.765  0.3409  0.1793 -0.1312
  718MPD2    C210665   4.627   4.734  12.762 -0.0500 -0.0049  0.2796
  718MPD2    C310666   4.675   4.641  12.851 -0.3200 -0.0438  0.0047
  718MPD2    C410667   0.024   4.690  12.953 -0.2201  0.9371  0.4233
  718MPD2    C510668   0.062   0.086  12.955  0.3954  0.1887  0.1367
  718MPD2     H10669   4.567   4.700  12.679 -0.5915 -1.5623  1.2934
  718MPD2    H110670   0.058   4.625  13.033  1.5109  1.2398 -0.0700
  718MPD2    H210671   0.049   0.277  12.866 -1.9056  0.3450 -0.2062
  718MPD2    H310672   0.123   0.132  13.032  0.8206  0.2125 -0.2138
  718MPD2     N10673   4.658   4.503  12.824  0.3409 -0.2225  0.6181
  718MPD2    H510674   4.607   4.484  12.738  1.8505 -0.1794 -0.3027
  718MPD2    N110675   4.609   0.229  12.669  0.3527  0.2757  0.0965
  718MPD2    H710676   4.650   0.322  12.670 -1.8659  1.2600  0.5764
  719TMC3    C110677   4.509   0.285  12.468 -0.0668  0.3086 -0.2457
  719TMC3    C210678   4.438   0.224  12.369 -0.3128  0.2908  0.5420
  719TMC3    C310679   4.499   0.186  12.253  0.1957  0.1089 -0.3020
  719TMC3    C410680   4.635   0.329  12.442 -0.5543 -0.6294  0.5121
  719TMC3    C510681   4.681   0.302  12.321  0.3120  0.2724 -0.0582
  719TMC3    C610682   4.622   0.226  12.228  0.4471 -0.1513 -0.1752
  719TMC3     C10683   4.498   0.213  12.590 -0.4047  0.1020  0.8780
  719TMC3     O10684   4.405   0.141  12.623 -0.1190 -0.0403  0.1563
  719TMC3     H10685   4.342   0.177  12.387  0.2218 -0.3736  1.6382
  719TMC3    H110686   4.704   0.382  12.507 -0.9177  1.1602 -0.5363
  719TMC3    H210687   4.669   0.195  12.136  0.0508 -0.2216 -0.3561
  719TMC3    C710688   0.088   0.295  12.321  0.2594  0.0307 -0.1310
  719TMC3    C810689   4.500   0.039  12.249  0.2653 -0.2067  0.2905
  719TMC3    O110690   0.158   0.388  12.369  0.5260 -0.6089  0.6324
  719TMC3    O210691   4.605   4.727  12.288 -0.0756  0.0329  0.0849
  720MPD2     C10692   2.988   1.640  13.706 -0.3610  0.2131  0.6617
  720MPD2    C110693   3.006   1.776  13.703  0.1927 -0.0315 -0.1271
  720MPD2    C210694   3.075   1.833  13.810  0.6279 -0.6194  0.9013
  720MPD2    C310695   3.130   1.756  13.913 -0.6004  0.8194  0.4910
  720MPD2    C410696   3.107   1.619  13.914 -0.1346 -0.5601  0.0612
  720MPD2    C510697   3.036   1.565  13.810  0.6626 -0.1774 -0.3321
  720MPD2     H10698   3.094   1.940  13.815 -1.7071 -0.0964 -1.3682
  720MPD2    H110699   3.140   1.552  13.993  0.8942 -0.2869 -0.1288
  720MPD2    H210700   2.929   1.587  13.632 -0.9860 -1.2012  2.1758
  720MPD2    H310701   3.012   1.460  13.804 -0.1940 -0.0587  1.3380
  720MPD2     N10702   3.221   1.805  14.009  0.6428 -0.1573 -0.7145
  720MPD2    H510703   3.247   1.902  13.996  1.6256 -0.3147  0.0554
  720MPD2    N110704   2.963   1.859  13.602 -0.1111  0.7516  0.0025
  720MPD2    H710705   2.955   1.958  13.623 -0.7873  1.0968 -1.8635
  721TMC3    C110706   3.327   1.846  14.203 -0.1470 -0.1329 -0.1377
  721TMC3    C210707   3.292   1.851  14.332  0.2535 -0.2445 -0.6805
  721TMC3    C310708   3.371   1.926  14.421  0.3922  0.1363 -0.0673
  721TMC3    C410709   3.441   1.912  14.160  0.1265  0.2909 -0.9586
  721TMC3    C510710   3.517   1.988  14.246 -0.3994  0.1364 -0.3900
  721TMC3    C610711   3.482   1.990  14.377 -0.3985  0.1346  0.6797
  721TMC3     C10712   3.249   1.746  14.126  0.4366  0.2156 -0.5177
  721TMC3     O10713   3.213   1.645  14.184 -0.9972  0.8486 -0.4657
  721TMC3     H10714   3.190   1.822  14.353  0.3802 -0.6549 -0.6274
  721TMC3    H110715   3.476   1.899  14.058 -1.5553  1.1264 -1.6454
  721TMC3    H210716   3.540   2.049  14.447  0.5048  1.0329 -0.8287
  721TMC3    C710717   3.658   1.993  14.232  0.0916 -0.0761  0.7599
  721TMC3    C810718   3.326   1.942  14.555  0.2586 -0.1009  1.1023
  721TMC3    O110719   3.706   2.011  14.118  0.7939  0.1546  0.5253
  721TMC3    O210720   3.384   2.031  14.616 -0.1570  0.6797  0.2334
  722MPD2     C10721   2.047   0.246  13.240  0.5203  0.1512  0.5668
  722MPD2    C110722   1.978   0.368  13.252  0.6363 -0.5510  0.4049
  722MPD2    C210723   1.836   0.370  13.266 -0.6150 -0.5148  0.0228
  722MPD2    C310724   1.766   0.247  13.268 -0.2237 -0.8536 -0.3986
  722MPD2    C410725   1.833   0.126  13.254 -0.2645 -0.0449 -1.0233
  722MPD2    C510726   1.971   0.129  13.235  0.2813 -0.0440  0.7692
  722MPD2     H10727   1.770   0.454  13.251  2.0736  1.2310 -2.0036
  722MPD2    H110728   1.783   0.030  13.253  1.1940 -0.8179  0.4205
  722MPD2    H210729   2.155   0.245  13.225  0.5057  0.1735  0.4641
  722MPD2    H310730   2.027   0.037  13.223 -0.8864 -0.6318 -0.0863
  722MPD2     N10731   1.628   0.259  13.297  0.0124  0.2001 -0.1190
  722MPD2    H510732   1.579   0.347  13.311  3.3953  1.6686  2.4597
  722MPD2    N110733   2.048   0.494  13.231 -0.1950 -0.4030  0.0478
  722MPD2    H710734   1.994   0.580  13.224 -0.1287 -0.1558  2.6262
  723TMC3    C110735   1.408   0.207  13.343 -0.1958  0.3239  0.7058
  723TMC3    C210736   1.307   0.136  13.284 -0.0478 -0.1891  0.5787
  723TMC3    C310737   1.180   0.190  13.294  0.5186  0.5083 -0.0931
  723TMC3    C410738   1.390   0.327  13.409  0.4610 -0.3156  0.4909
  723TMC3    C510739   1.265   0.386  13.409  0.2158  0.1236  0.1414
  723TMC3    C610740   1.156   0.314  13.353  0.1888  0.0600 -0.6130
  723TMC3     C10741   1.542   0.156  13.334 -0.3236 -0.0569 -0.1669
  723TMC3     O10742   1.558   0.034  13.356  0.9624 -0.4439 -0.4930
  723TMC3     H10743   1.331   0.042  13.236  1.7309  0.3965  0.3310
  723TMC3    H110744   1.478   0.379  13.445 -0.2332  1.7553 -0.8017
  723TMC3    H210745   1.063   0.364  13.332 -1.2656 -2.8932 -1.1716
  723TMC3    C710746   1.250   0.525  13.445 -0.7146  0.0466  0.1297
  723TMC3    C810747   1.080   0.148  13.202 -0.3454 -0.4417  0.2955
  723TMC3    O110748   1.353   0.591  13.454 -0.9807 -0.4079 -0.4164
  723TMC3    O210749   0.967   0.188  13.218  0.4141  0.1059 -0.0249
  724TMC3    C110750   2.694   3.721  10.277  0.7438  0.0025  0.6362
  724TMC3    C210751   2.681   3.681  10.147  0.0720  0.9716  0.3982
  724TMC3    C310752   2.710   3.774  10.053 -0.9487 -0.2427 -0.5693
  724TMC3    C410753   2.707   3.856  10.304 -0.4096  0.0959  0.2887
  724TMC3    C510754   2.699   3.948  10.199 -0.0268 -0.4038  0.5884
  724TMC3    C610755   2.705   3.911  10.073 -0.3464  0.3471 -0.2325
  724TMC3     C10756   2.675   3.628  10.384  0.2488  0.4097  0.2143
  724TMC3     O10757   2.727   3.660  10.492 -0.2254  0.1603  0.1411
  724TMC3     H10758   2.703   3.578  10.122 -0.1120  0.3872  2.6551
  724TMC3    H110759   2.728   3.885  10.406 -0.5117  1.9669 -0.2363
  724TMC3    H210760   2.683   3.980   9.992  0.0578  2.0955  1.1503
  724TMC3    C710761   2.753   4.085  10.220  0.0878  0.9654 -0.4935
  724TMC3    C810762   2.680   3.721   9.920 -0.2333 -0.7869  0.2148
  724TMC3    O110763   2.806   4.135  10.124 -0.1661  0.5692  0.0967
  724TMC3    O210764   2.626   3.610   9.907 -0.5275 -0.5946  0.2299
  725TMC3    C110765   4.293   2.277  12.793 -0.1588  0.3443  0.1865
  725TMC3    C210766   4.276   2.329  12.667  0.1074  0.3732  0.0275
  725TMC3    C310767   4.309   2.249  12.561  0.8088  0.0326 -0.7643
  725TMC3    C410768   4.331   2.143  12.814  0.3925 -0.1524  0.0314
  725TMC3    C510769   4.358   2.067  12.703 -0.3217  0.2180 -0.0055
  725TMC3    C610770   4.341   2.120  12.582  0.9005 -0.5616 -0.9287
  725TMC3     C10771   4.248   2.352  12.908  0.0647 -0.2764 -0.5111
  725TMC3     O10772   4.212   2.464  12.888  0.2726  0.2792 -0.4686
  725TMC3     H10773   4.258   2.436  12.658 -2.1663 -0.0776 -0.7844
  725TMC3    H110774   4.356   2.099  12.910  0.0559  0.8223  0.5628
  725TMC3    H210775   4.351   2.060  12.493  0.0171  1.1074 -2.1445
  725TMC3    C710776   4.409   1.933  12.718 -0.4185 -0.4074 -0.0007
  725TMC3    C810777   4.278   2.292  12.420  0.0853 -0.6350  0.4155
  725TMC3    O110778   4.412   1.896  12.835 -0.0302 -0.4705 -0.0998
  725TMC3    O210779   4.333   2.228  12.330 -0.8241  0.3667  0.1836
  726MPD2     C10780   1.951   4.032  10.277 -0.3050 -0.4772 -0.5537
  726MPD2    C110781   1.844   4.041  10.190  0.0395  0.2306  0.4994
  726MPD2    C210782   1.749   3.940  10.203  0.5953 -0.0266 -0.1779
  726MPD2    C310783   1.770   3.836  10.298 -0.7194  0.7916 -0.1715
  726MPD2    C410784   1.883   3.832  10.370 -0.1289 -0.2315 -0.0197
  726MPD2    C510785   1.971   3.929  10.361 -0.5997  0.1352  0.3590
  726MPD2     H10786   1.658   3.940  10.143  0.4311  0.1803  0.0723
  726MPD2    H110787   1.909   3.750  10.436  0.2349 -0.1109 -0.0117
  726MPD2    H210788   2.029   4.105  10.258 -0.7719  0.0204 -0.5567
  726MPD2    H310789   2.067   3.930  10.410  0.2207 -0.4201 -1.2156
  726MPD2     N10790   1.674   3.735  10.322  0.5183  0.7103 -0.2792
  726MPD2    H510791   1.693   3.684  10.408 -2.3154 -1.6813 -1.0857
  726MPD2    N110792   1.847   4.145  10.092  0.2361 -0.4018 -0.5499
  726MPD2    H710793   1.927   4.206  10.098  0.1628 -0.1733 -1.9194
  727TMC3    C110794   1.766   4.307   9.937  1.0519  0.0448 -0.9134
  727TMC3    C210795   1.882   4.386   9.950  0.1037  0.2622 -0.8224
  727TMC3    C310796   1.869   4.520   9.927 -0.5309 -0.5726 -0.5089
  727TMC3    C410797   1.641   4.359   9.893  0.7702  0.2164  0.6151
  727TMC3    C510798   1.640   4.495   9.871  0.1818  0.7530  0.2612
  727TMC3    C610799   1.751   4.577   9.887  0.9395  1.2679  0.4425
  727TMC3     C10800   1.753   4.171   9.994  0.1134 -0.4511 -0.2364
  727TMC3     O10801   1.659   4.097   9.968 -0.4663  0.1701 -0.3730
  727TMC3     H10802   1.967   4.343  10.000 -1.2403 -1.2318  0.1860
  727TMC3    H110803   1.555   4.296   9.878  0.9676  0.1434 -0.2180
  727TMC3    H210804   1.744   4.681   9.861 -1.1674  1.4944  1.8807
  727TMC3    C710805   1.515   4.562   9.821  0.1506  0.8697  0.0209
  727TMC3    C810806   1.972   4.600   9.996  0.0098 -0.0864  0.5935
  727TMC3    O110807   1.511   4.685   9.805  0.0578 -0.3231 -0.4443
  727TMC3    O210808   2.073   4.539  10.031  0.2316 -0.3525  0.0301
  728TMC3    C110809   0.677   1.980  15.080 -0.8510  0.1073  0.4154
  728TMC3    C210810   0.792   1.959  15.153  0.2319  0.6036 -0.1677
  728TMC3    C310811   0.911   1.962  15.099 -0.2540  0.0512 -0.2477
  728TMC3    C410812   0.695   2.007  14.950  0.1516  0.2292  0.1296
  728TMC3    C510813   0.818   2.009  14.893  0.0728 -0.4616  0.2313
  728TMC3    C610814   0.934   1.991  14.968 -0.1246 -0.1596  0.1719
  728TMC3     C10815   0.591   2.084  15.148 -0.2071  0.4186  0.6107
  728TMC3     O10816   0.594   2.197  15.102 -0.4377  0.6523 -0.0866
  728TMC3     H10817   0.782   1.932  15.258  0.2666  0.3110 -0.2376
  728TMC3    H110818   0.609   2.040  14.893 -1.3033  1.5822  3.1231
  728TMC3    H210819   1.032   1.973  14.926  0.2494 -0.7403  1.3326
  728TMC3    C710820   0.820   2.016  14.747  0.3522  0.0115 -0.1506
  728TMC3    C810821   1.019   1.946  15.194 -1.0087 -0.0877 -0.1520
  728TMC3    O110822   0.726   1.973  14.685  0.3031  0.0927 -0.2532
  728TMC3    O210823   0.991   1.899  15.305 -0.4866 -0.4149 -0.1643
  729MPD2     C10824   3.106   3.278  16.507 -0.4651 -0.3132  0.3679
  729MPD2    C110825   3.191   3.177  16.527  0.1898  0.5091  0.2323
  729MPD2    C210826   3.187   3.097  16.642 -0.7452 -0.3339  0.5692
  729MPD2    C310827   3.083   3.112  16.734  0.4371 -0.0497 -0.0537
  729MPD2    C410828   3.001   3.219  16.717 -0.5438  0.1445  0.1796
  729MPD2    C510829   3.003   3.291  16.605 -0.1246  0.2176  0.6776
  729MPD2     H10830   3.265   3.025  16.664 -0.1903  0.1958  0.3125
  729MPD2    H110831   2.929   3.251  16.792  0.8926 -0.6513  1.9041
  729MPD2    H210832   3.121   3.344  16.423 -0.1171  0.9961  1.4695
  729MPD2    H310833   2.941   3.378  16.588 -1.2680 -0.4018  1.6966
  729MPD2     N10834   3.076   3.046  16.859 -0.7093 -0.4624 -0.3898
  729MPD2    H510835   3.020   3.097  16.927 -1.4233 -2.3571  0.4468
  729MPD2    N110836   3.308   3.165  16.435 -0.2953 -0.1341 -0.2492
  729MPD2    H710837   3.317   3.236  16.363 -0.4775  0.8809  0.7397
  730TMC3    C110838   3.157   2.917  17.030 -0.1045  0.2379 -0.0350
  730TMC3    C210839   3.285   2.919  17.072  0.8022  0.4726  0.2675
  730TMC3    C310840   3.314   3.007  17.174  0.1277  0.5321  0.2233
  730TMC3    C410841   3.057   2.983  17.092  0.7612  0.3102 -0.4652
  730TMC3    C510842   3.087   3.051  17.205  0.1024  0.0387 -0.7240
  730TMC3    C610843   3.215   3.061  17.254 -0.4633 -0.1484 -0.2837
  730TMC3     C10844   3.154   2.938  16.891 -0.2315  0.2493  0.6197
  730TMC3     O10845   3.231   2.873  16.822 -0.1185 -0.0332  0.0909
  730TMC3     H10846   3.362   2.870  17.013 -2.4594 -0.4445 -3.1973
  730TMC3    H110847   2.954   2.973  17.061  0.8204  1.7987 -1.1599
  730TMC3    H210848   3.244   3.112  17.345 -1.7364  1.4222 -0.7401
  730TMC3    C710849   3.024   3.181  17.193 -0.0427  0.1587  0.0599
  730TMC3    C810850   3.417   3.102  17.142 -0.0070 -0.3015  0.0438
  730TMC3    O110851   2.973   3.213  17.088 -0.3143 -0.0709  0.1500
  730TMC3    O210852   3.494   3.067  17.049  0.3929  0.5203  0.2738
  731MPD2     C10853   3.775   2.494  12.220 -0.2360 -0.1533  0.5677
  731MPD2    C110854   3.770   2.361  12.252  0.3031  0.3835 -0.3836
  731MPD2    C210855   3.740   2.317  12.382 -0.3782  0.4382  0.0839
  731MPD2    C310856   3.722   2.410  12.479  0.9902  0.1342 -0.1406
  731MPD2    C410857   3.724   2.547  12.448 -0.1743 -0.0971 -0.6979
  731MPD2    C510858   3.754   2.583  12.320 -0.2446  0.6205  0.7791
  731MPD2     H10859   3.745   2.214  12.418 -2.7140 -0.4088 -2.0521
  731MPD2    H110860   3.698   2.619  12.525 -1.5967 -0.2249 -1.0707
  731MPD2    H210861   3.803   2.531  12.122  0.1244 -2.6891 -0.2909
  731MPD2    H310862   3.749   2.688  12.292  0.8004  0.0280 -1.6380
  731MPD2     N10863   3.714   2.360  12.618 -0.0572 -0.3880  0.6037
  731MPD2    H510864   3.709   2.260  12.637  2.1316 -0.7156 -0.5645
  731MPD2    N110865   3.798   2.265  12.152  0.6909 -0.4346 -0.2415
  731MPD2    H710866   3.821   2.297  12.059 -0.7389  0.6448 -0.2247
  732TMC3    C110867   3.863   2.068  12.043 -0.0842 -0.2538 -0.0892
  732TMC3    C210868   3.838   1.930  12.027  0.2877  0.4436  0.7680
  732TMC3    C310869   3.938   1.853  11.962  0.1975 -0.1015 -0.5571
  732TMC3    C410870   3.957   2.136  11.972 -0.2341 -0.1958  0.5216
  732TMC3    C510871   4.051   2.054  11.912 -0.4278  0.4272 -0.3670
  732TMC3    C610872   4.040   1.913  11.907  1.3396  0.7470  0.2843
  732TMC3     C10873   3.809   2.128  12.165  0.1699  0.0849  0.1793
  732TMC3     O10874   3.770   2.049  12.252 -0.1533 -0.8634 -0.6402
  732TMC3     H10875   3.769   1.878  12.093  0.8326 -0.7052  0.4421
  732TMC3    H110876   3.976   2.242  11.990  1.8034 -0.8010  1.9490
  732TMC3    H210877   4.114   1.860  11.848 -0.3669 -2.1212  0.7535
  732TMC3    C710878   4.183   2.108  11.881  0.5698 -0.6321 -0.4135
  732TMC3    C810879   3.925   1.712  11.951  0.9896  0.5400 -0.4608
  732TMC3    O110880   4.191   2.231  11.883  0.2277  0.0149  0.0768
  732TMC3    O210881   4.026   1.653  11.912  0.8731  0.0717  0.0861
  733TMC3    C110882   4.486   4.102  12.903  0.1179  0.8008  0.3736
  733TMC3    C210883   4.585   4.193  12.949  0.2634 -0.6258  0.5601
  733TMC3    C310884   4.639   4.276  12.850  1.0466 -0.6436 -0.1678
  733TMC3    C410885   4.434   4.108  12.777 -0.0700  0.0166 -0.1567
  733TMC3    C510886   4.497   4.189  12.680  0.6840  0.3551 -0.0745
  733TMC3    C610887   4.595   4.278  12.718  0.2926 -0.0178  0.1761
  733TMC3     C10888   4.391   4.079  13.005  0.1374  0.1978  1.0301
  733TMC3     O10889   4.426   4.024  13.110  0.5183  0.1292 -0.5349
  733TMC3     H10890   4.604   4.202  13.056  0.7285  1.7750  0.2739
  733TMC3    H110891   4.356   4.041  12.744  0.8850 -0.0736 -2.2465
  733TMC3    H210892   4.663   4.322  12.645 -2.8704  2.6929 -1.1468
  733TMC3    C710893   4.432   4.205  12.552  0.2475 -0.3289 -0.6652
  733TMC3    C810894   4.688   4.397  12.903 -0.0701  0.0376  0.3405
  733TMC3    O110895   4.337   4.129  12.541  0.6180  0.3036  0.3908
  733TMC3    O210896   4.722   4.392  13.019 -0.2144  0.2503 -0.0461
  734MPD2     C10897   1.351   2.246  12.460  0.1826  0.4532 -0.0189
  734MPD2    C110898   1.336   2.133  12.380  0.9314 -0.1002  0.0301
  734MPD2    C210899   1.332   2.155  12.249  0.6121 -0.6176 -0.4670
  734MPD2    C310900   1.338   2.279  12.190  0.1149  0.2152 -0.1376
  734MPD2    C410901   1.345   2.390  12.272  0.4401 -0.3882 -0.1163
  734MPD2    C510902   1.358   2.373  12.405 -0.2125  0.0538  0.4922
  734MPD2     H10903   1.326   2.068  12.184 -0.7436  0.6519 -2.0486
  734MPD2    H110904   1.342   2.490  12.231  0.6892 -0.4929 -0.3922
  734MPD2    H210905   1.373   2.238  12.566  0.1513  0.0368 -0.0471
  734MPD2    H310906   1.373   2.456  12.473  1.6718 -0.3669  0.6102
  734MPD2     N10907   1.326   2.274  12.051  0.0201 -0.5843 -0.0176
  734MPD2    H510908   1.323   2.183  12.006  0.8512 -1.6928  2.1920
  734MPD2    N110909   1.324   2.004  12.437  0.0034  0.1761  0.3624
  734MPD2    H710910   1.358   1.990  12.532  1.2697 -0.3022 -0.1558
  735TMC3    C110911   1.261   1.767  12.437 -0.7768 -0.1514  0.1227
  735TMC3    C210912   1.153   1.695  12.400 -0.3153 -0.0556  0.2786
  735TMC3    C310913   1.170   1.566  12.356  0.3299  0.2664  0.3123
  735TMC3    C410914   1.383   1.719  12.440 -0.2328  0.5707  0.3038
  735TMC3    C510915   1.396   1.582  12.428 -0.7057  0.3855  0.9254
  735TMC3    C610916   1.291   1.501  12.383 -0.5666  1.1440 -0.3666
  735TMC3     C10917   1.252   1.904  12.377 -0.8010  0.0184  0.6479
  735TMC3     O10918   1.183   1.914  12.277 -0.4308 -0.2825 -0.2030
  735TMC3     H10919   1.058   1.746  12.407  1.0550  2.2310  2.5847
  735TMC3    H110920   1.472   1.777  12.463  0.3682  0.9260 -2.9812
  735TMC3    H210921   1.308   1.399  12.351 -0.8814  0.4326  1.7457
  735TMC3    C710922   1.536   1.537  12.403 -0.1582  0.4777 -0.4895
  735TMC3    C810923   1.127   1.551  12.218 -0.3592  0.3009 -0.0447
  735TMC3    O110924   1.610   1.633  12.369  0.0311  0.3651  0.0703
  735TMC3    O210925   1.115   1.441  12.166 -0.4880 -0.6079  0.2302
  736MPD2     C10926   1.655   1.194  12.341 -0.2953 -0.2286 -0.1557
  736MPD2    C110927   1.665   1.333  12.346  0.4314  0.2759 -0.6535
  736MPD2    C210928   1.777   1.395  12.287  0.4163  0.4010 -0.0349
  736MPD2    C310929   1.868   1.315  12.215  0.0801 -0.5315  0.1709
  736MPD2    C410930   1.864   1.177  12.224 -0.0126 -1.0572 -0.5927
  736MPD2    C510931   1.757   1.117  12.286  0.1335  0.0175 -0.0924
  736MPD2     H10932   1.784   1.503  12.284  0.3578  0.4602  2.1171
  736MPD2    H110933   1.944   1.117  12.182  1.4111 -0.6786  1.5291
  736MPD2    H210934   1.568   1.139  12.376 -0.3163 -0.8440 -1.1862
  736MPD2    H310935   1.737   1.011  12.290 -1.6210  0.3423 -0.2855
  736MPD2     N10936   1.977   1.365  12.140 -0.0213  0.0567 -0.8197
  736MPD2    H510937   2.048   1.297  12.117 -2.0564 -1.3749 -2.8856
  736MPD2    N110938   1.556   1.399  12.403 -0.6010  0.8686 -0.2340
  736MPD2    H710939   1.481   1.344  12.443 -1.6255  1.6272 -1.1408
  737TMC3    C110940   2.134   1.514  12.044  0.5251 -0.0015  0.1515
  737TMC3    C210941   2.152   1.639  11.988 -0.4934 -0.1154 -0.1464
  737TMC3    C310942   2.278   1.679  11.967  0.7274 -0.2330 -0.4243
  737TMC3    C410943   2.236   1.420  12.032 -0.1561 -0.0146 -0.5321
  737TMC3    C510944   2.352   1.460  11.974  0.7576 -0.9971  0.0862
  737TMC3    C610945   2.384   1.592  11.953  0.2796 -0.4500 -0.7284
  737TMC3     C10946   2.007   1.496  12.113  0.2908  0.7051  0.1355
  737TMC3     O10947   1.938   1.594  12.134 -0.0674 -0.3612  0.4112
  737TMC3     H10948   2.069   1.708  11.992  0.3295  0.9066 -1.1128
  737TMC3    H110949   2.233   1.321  12.078  0.7363  0.9759  1.6578
  737TMC3    H210950   2.483   1.634  11.941  0.0808  0.3795  0.5018
  737TMC3    C710951   2.436   1.351  11.933  0.0770  0.0243  0.3989
  737TMC3    C810952   2.292   1.817  11.911  0.0856 -0.1869  0.9936
  737TMC3    O110953   2.409   1.240  11.975  0.2166 -0.4433  0.5691
  737TMC3    O210954   2.404   1.857  11.926  0.0380 -0.2702  0.0732
  738MPD2     C10955   3.029   0.103  15.002 -0.1943 -0.0619  0.5600
  738MPD2    C110956   2.924   0.190  14.966 -0.0813 -0.1303  0.4388
  738MPD2    C210957   2.953   0.302  14.894  0.1146 -0.1080  0.0352
  738MPD2    C310958   3.090   0.345  14.870  0.4394  0.2079 -0.0709
  738MPD2    C410959   3.192   0.268  14.917 -0.1691  0.0145 -0.5156
  738MPD2    C510960   3.160   0.147  14.973 -0.7187  0.2057 -0.0825
  738MPD2     H10961   2.875   0.374  14.872 -0.3880 -0.4105  0.8336
  738MPD2    H110962   3.297   0.292  14.903 -0.0171 -0.3687 -0.0102
  738MPD2    H210963   3.018   0.010  15.056 -0.2973  0.8146  2.0583
  738MPD2    H310964   3.243   0.080  14.995 -0.4671  0.3069 -0.7202
  738MPD2     N10965   3.125   0.460  14.809 -0.0550  0.2908  0.0188
  738MPD2    H510966   3.217   0.500  14.824  0.7328 -2.4170  2.3698
  738MPD2    N110967   2.789   0.160  14.993  0.0898 -0.3452 -0.1454
  738MPD2    H710968   2.722   0.234  14.976  0.5555  0.9072  3.4505
  739TMC3    C110969   3.094   0.655  14.688  0.7276 -0.2131 -0.2349
  739TMC3    C210970   3.048   0.710  14.573  0.6227  0.8223 -0.5366
  739TMC3    C310971   3.090   0.836  14.544 -0.0507 -0.2707 -0.2516
  739TMC3    C410972   3.172   0.724  14.774  0.1105  0.6963  0.1359
  739TMC3    C510973   3.209   0.850  14.742  0.3738  0.1350 -0.0877
  739TMC3    C610974   3.179   0.909  14.626  0.0682  0.2148 -0.1230
  739TMC3     C10975   3.035   0.531  14.728  0.8964 -1.0788  0.0385
  739TMC3     O10976   2.940   0.485  14.662 -0.1137 -0.2289  0.6632
  739TMC3     H10977   2.977   0.661  14.506  0.6495  0.8591 -0.5926
  739TMC3    H110978   3.183   0.693  14.877  0.5177  1.1777  0.2360
  739TMC3    H210979   3.214   1.008  14.600 -2.7151  0.9209 -1.2202
  739TMC3    C710980   3.305   0.904  14.839 -0.2990 -0.4356  0.0802
  739TMC3    C810981   3.030   0.893  14.419  0.4899 -0.4678 -0.4840
  739TMC3    O110982   3.367   0.829  14.909  0.1165 -0.2731 -0.3338
  739TMC3    O210983   2.941   0.838  14.355 -0.0045  0.0786 -0.2920
  740TMC3    C110984   3.069   2.276  14.089  0.6889 -0.7543  0.1837
  740TMC3    C210985   3.154   2.296  14.194 -0.2716  0.0428  0.2874
  740TMC3    C310986   3.286   2.295  14.167  0.2173  0.4300 -0.5961
  740TMC3    C410987   3.116   2.253  13.960  0.1099 -0.9233  0.3080
  740TMC3    C510988   3.253   2.247  13.937 -0.0277  0.2324  0.0495
  740TMC3    C610989   3.338   2.261  14.043 -0.5145 -0.0301 -0.3313
  740TMC3     C10990   2.926   2.244  14.094  0.0720 -0.7825  0.0986
  740TMC3     O10991   2.867   2.234  13.988 -0.3096 -0.2936 -0.0926
  740TMC3     H10992   3.122   2.336  14.290  0.2908 -0.0212  0.5016
  740TMC3    H110993   3.048   2.237  13.877  1.1915 -1.2490 -0.5138
  740TMC3    H210994   3.443   2.268  14.020 -0.3953  0.4788  0.3896
  740TMC3    C710995   3.285   2.156  13.830  0.4586 -0.4011  0.6250
  740TMC3    C810996   3.381   2.334  14.266  0.4156 -0.1121 -0.1319
  740TMC3    O110997   3.308   2.046  13.870  0.5545  0.5854 -0.4666
  740TMC3    O210998   3.497   2.302  14.246 -0.9227  0.1068 -0.4737
  741TMC3    C110999   2.580   1.355  14.385  0.0487 -0.3718  0.2416
  741TMC3    C211000   2.461   1.294  14.339 -0.2871  0.0246  0.2997
  741TMC3    C311001   2.435   1.166  14.385 -0.2811 -0.3920  0.2371
  741TMC3    C411002   2.671   1.293  14.465  0.1073  0.4982 -0.3441
  741TMC3    C511003   2.647   1.160  14.488  0.2548 -0.5914  0.1253
  741TMC3    C611004   2.529   1.097  14.462 -0.2494  0.4339 -0.0909
  741TMC3     C11005   2.633   1.471  14.308  0.3242 -0.2668 -0.4794
  741TMC3     O11006   2.609   1.477  14.191  0.0888  0.0180  0.1199
  741TMC3     H11007   2.387   1.345  14.278 -2.0222 -2.0336  0.7037
  741TMC3    H111008   2.767   1.341  14.478 -0.0260  0.6760 -0.0186
  741TMC3    H211009   2.519   0.992  14.483  0.5711 -0.3350 -3.5536
  741TMC3    C711010   2.731   1.089  14.587 -0.4238 -0.3087 -0.1265
  741TMC3    C811011   2.343   1.095  14.309  0.4597  0.4723 -0.2930
  741TMC3    O111012   2.844   1.126  14.591  0.5791 -0.6841  0.0982
  741TMC3    O211013   2.261   1.162  14.246  0.5691 -0.7830 -0.6687
  742TMC3    C111014   3.219   4.358  14.900 -0.3803 -0.1638  0.1121
  742TMC3    C211015   3.145   4.413  14.800 -0.0269  0.6903 -0.0903
  742TMC3    C311016   3.109   4.324  14.704  0.4010  0.5205 -0.4501
  742TMC3    C411017   3.276   4.233  14.910  0.4072  0.3322  0.5378
  742TMC3    C511018   3.237   4.150  14.805  0.2143  0.1357  0.1558
  742TMC3    C611019   3.153   4.192  14.708 -0.4227 -0.0643  0.5123
  742TMC3     C11020   3.235   4.441  15.010  0.4342 -0.1029 -0.0534
  742TMC3     O11021   3.264   4.556  14.985  0.3429  0.2232  0.6352
  742TMC3     H11022   3.096   4.509  14.808 -0.7026  0.4179 -0.9145
  742TMC3    H111023   3.334   4.200  14.995 -0.4052 -1.1707  0.5031
  742TMC3    H211024   3.136   4.129  14.621 -0.6352  3.1189 -1.7925
  742TMC3    C711025   3.273   4.011  14.809  0.0079 -0.6679 -0.1040
  742TMC3    C811026   2.987   4.355  14.624  0.2012  0.4519 -0.4553
  742TMC3    O111027   3.385   3.982  14.848 -0.2539 -0.0077 -0.5494
  742TMC3    O211028   2.947   4.261  14.558 -0.5620  0.9109 -0.5960
  743MPD2     C11029   3.765   0.516   1.122 -0.2758  0.4756  0.2269
  743MPD2    C111030   3.861   0.442   1.057 -0.1987 -0.4455 -0.3619
  743MPD2    C211031   3.979   0.447   1.125  0.1645  0.2096  0.6645
  743MPD2    C311032   4.009   0.506   1.241 -0.4187 -0.4132  0.9374
  743MPD2    C411033   3.909   0.576   1.302  0.0906 -0.6031 -0.1716
  743MPD2    C511034   3.786   0.571   1.243  0.1083 -0.8904  0.3994
  743MPD2     H11035   4.069   0.397   1.091 -0.0795  1.2977 -1.6051
  743MPD2    H111036   3.919   0.621   1.400  0.2582  0.3903 -0.6384
  743MPD2    H211037   3.669   0.520   1.070 -1.0872  0.9618  1.7628
  743MPD2    H311038   3.710   0.626   1.297 -0.7035 -3.6157  2.0528
  743MPD2     N11039   4.139   0.490   1.289 -0.1076 -0.2733 -0.0707
  743MPD2    H511040   4.196   0.441   1.221 -0.0817  0.4913 -0.5957
  743MPD2    N111041   3.839   0.375   0.935 -0.1414  0.6009  0.4056
  743MPD2    H711042   3.746   0.354   0.902  0.0018  1.6745 -0.6561
  744TMC3    C111043   3.900   0.271   0.728  0.0681 -0.2847 -0.1003
  744TMC3    C211044   3.796   0.331   0.662 -0.1766  0.1395 -0.2642
  744TMC3    C311045   3.790   0.309   0.528 -0.1364  0.2041  0.1348
  744TMC3    C411046   3.988   0.188   0.667  1.1379  0.2859 -0.0035
  744TMC3    C511047   3.980   0.171   0.533  0.9069  0.6003 -0.2765
  744TMC3    C611048   3.892   0.250   0.468 -0.0024 -1.0412 -0.4878
  744TMC3     C11049   3.943   0.317   0.860  0.2851  0.8710  0.1531
  744TMC3     O11050   4.061   0.307   0.886  0.5982  0.0205 -0.5385
  744TMC3     H11051   3.744   0.417   0.703 -0.5723 -0.4031  0.3593
  744TMC3    H111052   4.080   0.167   0.721  1.4385  1.8342  0.0864
  744TMC3    H211053   3.893   0.250   0.359 -0.1069  0.1279 -0.4948
  744TMC3    C711054   4.098   0.146   0.456 -0.5671 -0.8024  0.0436
  744TMC3    C811055   3.718   0.417   0.461  0.3638  0.3824  0.2943
  744TMC3    O111056   4.113   0.193   0.345 -0.0313  0.3646 -0.4080
  744TMC3    O211057   3.777   0.484   0.381 -0.1709 -0.0728  0.2490
  745TMC3    C111058   2.923   4.286  13.527 -1.1451 -0.4913  0.5700
  745TMC3    C211059   2.841   4.174  13.537  0.2068  0.0163  0.2004
  745TMC3    C311060   2.730   4.178  13.464 -0.3126 -0.3962  0.6336
  745TMC3    C411061   2.890   4.398  13.461 -0.2292 -0.0125 -0.8773
  745TMC3    C511062   2.790   4.384  13.372  0.4567  0.2341  1.1625
  745TMC3    C611063   2.706   4.279  13.380  0.0310  0.6210  0.1918
  745TMC3     C11064   2.981   4.307  13.658  0.7300 -0.3635  0.4038
  745TMC3     O11065   3.021   4.204  13.716  0.3919  0.2564  0.1934
  745TMC3     H11066   2.872   4.097  13.608 -0.5028 -2.0761 -1.7846
  745TMC3    H111067   2.947   4.490  13.474  1.4306 -1.2393  0.4601
  745TMC3    H211068   2.615   4.291  13.323  0.5981  1.9566 -0.4358
  745TMC3    C711069   2.792   4.464  13.251 -0.6181  0.4766 -0.2904
  745TMC3    C811070   2.613   4.171  13.554  0.7459  0.6812 -0.9958
  745TMC3    O111071   2.700   4.461  13.171 -0.4964  0.7661  0.7371
  745TMC3    O211072   2.503   4.178  13.507 -0.2684 -0.5411  0.1552
  746TMC3    C111073   0.486   1.804  11.193  0.3961 -0.5799 -0.8378
  746TMC3    C211074   0.520   1.775  11.062 -0.1780 -0.6158 -0.2766
  746TMC3    C311075   0.502   1.657  11.006  0.4553  0.7169 -0.5861
  746TMC3    C411076   0.420   1.709  11.266 -0.2321  0.1060 -0.3051
  746TMC3    C511077   0.394   1.587  11.206 -0.7651  0.3113 -0.1933
  746TMC3    C611078   0.442   1.563  11.080  0.3146 -0.0802  0.4538
  746TMC3     C11079   0.518   1.931  11.252  0.3524  0.2898  0.4020
  746TMC3     O11080   0.475   1.953  11.363  0.1002  0.0831  0.5721
  746TMC3     H11081   0.581   1.850  11.012  1.1991 -0.8102  1.0762
  746TMC3    H111082   0.389   1.733  11.367  1.7361  0.4825  0.2263
  746TMC3    H211083   0.433   1.470  11.025 -0.2902 -0.6237  1.4749
  746TMC3    C711084   0.258   1.531  11.217  0.1510  0.4758 -0.0337
  746TMC3    C811085   0.564   1.637  10.876  0.3255  0.0211  0.2489
  746TMC3    O111086   0.218   1.450  11.132  1.3497 -0.0275 -0.4726
  746TMC3    O211087   0.644   1.545  10.863  0.4181  0.2483  0.3707
  747TMC3    C111088   3.244   1.516  11.251 -0.2142  0.3425  0.2951
  747TMC3    C211089   3.150   1.424  11.294  0.2676 -0.6093 -0.3415
  747TMC3    C311090   3.063   1.465  11.383 -0.6292  0.0310 -0.9549
  747TMC3    C411091   3.258   1.640  11.306  0.6640  0.3332  0.4723
  747TMC3    C511092   3.160   1.683  11.393 -0.0131 -0.3369 -0.6995
  747TMC3    C611093   3.057   1.592  11.433 -0.1464 -0.5821 -0.1833
  747TMC3     C11094   3.329   1.476  11.146 -0.2943  0.2890 -0.3179
  747TMC3     O11095   3.425   1.543  11.118  0.1227  0.9171 -0.0380
  747TMC3     H11096   3.144   1.318  11.275  0.8704 -1.0603  1.9565
  747TMC3    H111097   3.333   1.706  11.266 -0.3134 -1.3379 -4.1226
  747TMC3    H211098   2.991   1.637  11.506 -0.8331 -2.3684  0.2696
  747TMC3    C711099   3.167   1.815  11.458  0.4984  0.1375 -0.1963
  747TMC3    C811100   2.990   1.360  11.453  0.2856  0.1385 -0.0787
  747TMC3    O111101   3.056   1.857  11.492  0.2684 -0.7260  0.2319
  747TMC3    O211102   3.042   1.245  11.455  0.5089 -0.4525  0.2543
  748MPD2     C11103   3.640   1.837   1.064  0.5859  0.1540  0.7081
  748MPD2    C111104   3.719   1.730   1.092  0.1983  0.0279  0.5002
  748MPD2    C211105   3.858   1.742   1.090  0.2738  0.2189 -0.0769
  748MPD2    C311106   3.917   1.864   1.074  0.8714  0.2914 -0.6003
  748MPD2    C411107   3.837   1.973   1.054  0.0514 -0.5238  0.0345
  748MPD2    C511108   3.700   1.961   1.046 -0.1990 -0.3729 -0.5602
  748MPD2     H11109   3.924   1.656   1.092  0.0501  0.0549  0.2904
  748MPD2    H111110   3.885   2.069   1.046  0.6791 -0.8856 -0.5448
  748MPD2    H211111   3.532   1.832   1.061  0.5968  0.3866 -0.0505
  748MPD2    H311112   3.643   2.049   1.021  0.8924  1.0750  2.1125
  748MPD2     N11113   4.059   1.866   1.078  0.6858  0.1755 -1.3751
  748MPD2    H511114   4.110   1.778   1.068  0.5799  0.0568 -0.8712
  748MPD2    N111115   3.651   1.611   1.105  0.5398 -0.3593 -0.5492
  748MPD2    H711116   3.550   1.603   1.100  0.6810 -1.2770 -1.8021
  749TMC3    C111117   4.278   1.936   1.066  0.2552 -0.4045  0.5147
  749TMC3    C211118   4.317   1.805   1.075 -0.0936  0.8658  0.0701
  749TMC3    C311119   4.455   1.779   1.056 -0.3627  0.3243  0.5271
  749TMC3    C411120   4.361   2.026   1.014 -0.6255 -1.0402  0.6671
  749TMC3    C511121   4.493   1.999   0.996  0.6912  0.0030 -0.2094
  749TMC3    C611122   4.541   1.873   1.013  0.2689  0.1510 -0.4442
  749TMC3     C11123   4.139   1.972   1.082 -0.1300  0.3456  0.7385
  749TMC3     O11124   4.110   2.092   1.086 -0.1156  0.0979 -0.2530
  749TMC3     H11125   4.252   1.723   1.103  0.0909  0.8688  0.5100
  749TMC3    H111126   4.323   2.128   1.013 -0.5349 -1.0291 -1.4770
  749TMC3    H211127   4.647   1.850   1.007  0.0874 -0.6107 -0.6290
  749TMC3    C711128   4.561   2.097   0.912 -0.1894  0.5809 -0.1596
  749TMC3    C811129   4.490   1.640   1.046  0.1036  0.3436 -0.0969
  749TMC3    O111130   4.538   2.218   0.915  0.3028  0.1622  0.1824
  749TMC3    O211131   4.587   1.617   0.979  0.1913  0.4222  0.5131
  750MPD2     C11132   0.927   4.072  11.622  0.8029 -1.0516  0.2434
  750MPD2    C111133   0.803   4.009  11.641 -0.2058 -0.7513 -0.0986
  750MPD2    C211134   0.764   3.910  11.557 -0.7901 -0.6165  0.4601
  750MPD2    C311135   0.843   3.872  11.446 -1.0554  0.0666 -0.4216
  750MPD2    C411136   0.966   3.929  11.428 -0.2265 -0.5386  0.6930
  750MPD2    C511137   1.005   4.028  11.517  0.5192 -0.4724  0.2472
  750MPD2     H11138   0.665   3.869  11.572 -1.0908 -0.3182 -0.7584
  750MPD2    H111139   1.029   3.889  11.349 -0.6316  1.0301 -0.4195
  750MPD2    H211140   0.961   4.146  11.693  1.1043 -0.5371 -0.4339
  750MPD2    H311141   1.105   4.068  11.499  0.1962 -0.0982 -0.7498
  750MPD2     N11142   0.804   3.768  11.360  0.0975  0.2673 -0.0251
  750MPD2    H511143   0.878   3.747  11.294 -1.2166 -0.5357 -1.2491
  750MPD2    N111144   0.726   4.045  11.755  0.1011 -0.2632 -0.2766
  750MPD2    H711145   0.758   4.126  11.807  0.3871 -0.3976 -0.2462
  751TMC3    C111146   0.679   3.585  11.265 -0.1266 -0.6022  0.4077
  751TMC3    C211147   0.590   3.490  11.299  0.0709 -0.1653  0.3701
  751TMC3    C311148   0.514   3.442  11.192  0.2613  0.5800  0.3885
  751TMC3    C411149   0.698   3.628  11.138 -0.0374 -0.1027 -0.6051
  751TMC3    C511150   0.616   3.579  11.041 -0.1357 -0.1730 -0.2070
  751TMC3    C611151   0.529   3.484  11.064 -0.2457 -0.0428  0.1828
  751TMC3     C11152   0.694   3.685  11.373  0.3573  0.5379 -0.3468
  751TMC3     O11153   0.606   3.679  11.462 -0.3083 -0.2209  0.0057
  751TMC3     H11154   0.596   3.445  11.398 -2.1594 -0.8814  0.1888
  751TMC3    H111155   0.775   3.698  11.109 -0.7407  1.7624  2.0267
  751TMC3    H211156   0.468   3.439  10.986 -0.6757 -1.6006  1.4089
  751TMC3    C711157   0.661   3.594  10.903 -0.7136 -0.3688  0.0129
  751TMC3    C811158   0.412   3.340  11.224  0.3395  0.6563 -0.5314
  751TMC3    O111159   0.772   3.557  10.876  0.8590  0.0149  0.0820
  751TMC3    O211160   0.360   3.272  11.136  0.2471  0.0374  0.0847
  752TMC3    C111161   4.018   2.952  17.215  0.3894 -0.6867  0.8254
  752TMC3    C211162   4.035   2.857  17.311  0.1108  0.5792  1.0733
  752TMC3    C311163   3.968   2.862  17.429  0.7730  0.4383  0.3912
  752TMC3    C411164   3.931   3.064  17.233  0.3413 -0.3526 -1.1420
  752TMC3    C511165   3.867   3.069  17.355 -0.0569  0.6491 -0.4752
  752TMC3    C611166   3.879   2.965  17.452 -0.2842 -0.1994  0.1348
  752TMC3     C11167   4.068   2.912  17.088  0.7107 -0.0841 -0.1562
  752TMC3     O11168   4.173   2.846  17.088  0.0194 -0.5294 -0.0700
  752TMC3     H11169   4.112   2.782  17.294  0.9256  1.6436  0.0842
  752TMC3    H111170   3.913   3.146  17.165  1.1409  0.9176  0.1842
  752TMC3    H211171   3.844   2.974  17.554 -0.2062  0.4854  0.0977
  752TMC3    C711172   3.792   3.190  17.389  0.0350 -0.6216 -0.2352
  752TMC3    C811173   3.960   2.749  17.519  0.1830  0.6861  0.7647
  752TMC3    O111174   3.812   3.285  17.317  0.3513  0.1984 -0.3416
  752TMC3    O211175   3.918   2.771  17.631  0.3326  0.3597 -0.2399
  753TMC3    C111176   0.951   4.148  13.676 -0.2562  0.0637  0.6998
  753TMC3    C211177   1.068   4.122  13.744 -0.1761 -0.7234  0.0826
  753TMC3    C311178   1.127   4.000  13.728 -0.3236  0.1591  0.0167
  753TMC3    C411179   0.906   4.052  13.584  0.2426  0.1026  0.1213
  753TMC3    C511180   0.970   3.933  13.568  0.1647  0.4167  0.7767
  753TMC3    C611181   1.081   3.899  13.644 -0.5288  0.5587 -0.2150
  753TMC3     C11182   0.909   4.280  13.649 -0.3198  0.3773 -0.7288
  753TMC3     O11183   0.867   4.306  13.538 -0.3205  0.0245 -0.7011
  753TMC3     H11184   1.115   4.206  13.792  0.0451 -0.6152 -0.3271
  753TMC3    H111185   0.814   4.071  13.530  0.2645  0.2195  0.1258
  753TMC3    H211186   1.135   3.806  13.632 -0.7219  0.4726 -0.4270
  753TMC3    C711187   0.905   3.848  13.473 -1.1149  0.3352  0.3817
  753TMC3    C811188   1.259   3.980  13.786 -0.1563 -0.5767 -0.1078
  753TMC3    O111189   0.784   3.839  13.470 -0.3694 -0.5377 -0.3020
  753TMC3    O211190   1.327   3.896  13.730 -0.0506 -0.4756 -0.0885
  754MPD2     C11191   0.251   3.071  13.426  0.1909  0.1337 -0.7794
  754MPD2    C111192   0.192   2.952  13.410 -0.0116 -0.2661  0.6522
  754MPD2    C211193   0.055   2.954  13.415  0.1901  0.7091  0.5935
  754MPD2    C311194   4.714   3.064  13.448 -0.0708  0.4776  0.1226
  754MPD2    C411195   0.037   3.187  13.449 -0.2258  0.4592 -0.2567
  754MPD2    C511196   0.171   3.184  13.434 -0.2490 -0.0706  0.2706
  754MPD2     H11197   0.011   2.862  13.379  0.3316  0.5552  0.8116
  754MPD2    H111198   4.727   3.284  13.459 -0.3401  0.2260  1.5667
  754MPD2    H211199   0.359   3.081  13.420  0.2149  0.6192  0.4737
  754MPD2    H311200   0.213   3.282  13.415  0.1846 -0.5083 -1.0364
  754MPD2     N11201   4.567   3.061  13.448 -1.0271  0.1736 -0.6639
  754MPD2    H511202   4.523   3.153  13.446 -2.1771 -0.3709  0.2233
  754MPD2    N111203   0.273   2.842  13.370  0.0416  0.1346 -0.2149
  754MPD2    H711204   0.362   2.873  13.333  0.1449 -0.9104 -0.8343
  755MPD2     C11205   4.005   3.574  13.787  0.4206 -0.2636 -0.5345
  755MPD2    C111206   3.932   3.460  13.807 -0.9660 -0.0769  0.1694
  755MPD2    C211207   3.962   3.350  13.731  0.9760 -0.3076  0.1232
  755MPD2    C311208   4.059   3.354  13.624 -0.5162  0.2192  0.3512
  755MPD2    C411209   4.131   3.465  13.615  0.5608 -0.4330 -0.0622
  755MPD2    C511210   4.099   3.579  13.685 -0.2224 -0.1789 -0.2864
  755MPD2     H11211   3.909   3.257  13.750  0.6434  0.1036  1.1874
  755MPD2    H111212   4.210   3.474  13.542  0.2303 -2.7030 -0.7003
  755MPD2    H211213   3.989   3.663  13.848 -0.8651  0.0678 -1.3566
  755MPD2    H311214   4.155   3.671  13.665  1.0935 -0.7113  0.9088
  755MPD2     N11215   4.101   3.241  13.550  0.6961  0.2928  0.2800
  755MPD2    H511216   4.178   3.244  13.484  0.3508 -1.0152 -0.1773
  755MPD2    N111217   3.824   3.447  13.898  0.8840 -0.6992  0.4382
  755MPD2    H711218   3.771   3.362  13.882 -0.7271  0.1223  1.4270
  756MPD2     C11219   0.619   4.072   9.872 -0.3211  0.2960  0.0523
  756MPD2    C111220   0.489   4.057   9.927 -0.8340  0.2735  0.4259
  756MPD2    C211221   0.374   4.095   9.854 -0.6211  0.4050 -0.4023
  756MPD2    C311222   0.396   4.172   9.737  0.1176  0.2599 -0.2108
  756MPD2    C411223   0.523   4.189   9.686  0.3320 -0.1455 -0.1781
  756MPD2    C511224   0.631   4.144   9.750 -0.1110 -0.2729 -0.1537
  756MPD2     H11225   0.277   4.083   9.901 -0.5801 -0.6554 -0.5883
  756MPD2    H111226   0.531   4.234   9.587  0.8682  0.6679  0.2375
  756MPD2    H211227   0.716   4.044   9.913 -0.3593 -1.1788 -0.8588
  756MPD2    H311228   0.727   4.156   9.700  1.0720 -1.2844  1.8556
  756MPD2     N11229   0.288   4.235   9.679 -0.3687 -0.4306  0.0159
  756MPD2    H511230   0.193   4.211   9.704 -0.5711  0.2231 -0.1130
  756MPD2    N111231   0.460   3.992  10.050 -0.3447 -0.0526  0.0164
  756MPD2    H711232   0.367   3.983  10.090 -1.0205  0.8503 -1.3460
  757MPD2     C11233   4.217   3.934   9.613 -0.2618 -0.1469 -0.8053
  757MPD2    C111234   4.344   3.887   9.650  0.0875  0.0654 -0.3688
  757MPD2    C211235   4.444   3.983   9.669  0.5316  0.1146  0.0896
  757MPD2    C311236   4.429   4.119   9.640  0.7584  0.8181  0.0064
  757MPD2    C411237   4.303   4.157   9.598  0.4981  0.1419  1.1977
  757MPD2    C511238   4.207   4.067   9.589 -0.6286 -0.6431  0.0637
  757MPD2     H11239   4.538   3.948   9.709  0.5534  0.9278  0.7541
  757MPD2    H111240   4.287   4.262   9.576  0.7920  0.0819  0.6952
  757MPD2    H211241   4.133   3.873   9.584 -0.0851 -1.1692  0.8514
  757MPD2    H311242   4.114   4.105   9.548 -0.7476  0.9438  1.8356
  757MPD2     N11243   4.545   4.203   9.646  0.1104 -0.5470 -0.5901
  757MPD2    H511244   4.632   4.160   9.676 -0.4711 -1.2619  0.0737
  757MPD2    N111245   4.356   3.748   9.681 -0.6981  0.6483  0.0466
  757MPD2    H711246   4.270   3.695   9.664 -0.2921  0.2919 -0.8704
  758MPD2     C11247   0.246   2.731  15.764  0.2584 -0.3560 -0.0320
  758MPD2    C111248   0.267   2.610  15.836 -0.0010 -0.0801  0.6651
  758MPD2    C211249   0.211   2.602  15.967 -0.5789  0.1810 -0.0858
  758MPD2    C311250   0.123   2.703  16.010 -0.0311  0.4923 -0.0693
  758MPD2    C411251   0.103   2.822  15.933  0.6306 -0.5681 -0.5434
  758MPD2    C511252   0.162   2.835  15.810 -0.2013 -0.1536  0.8067
  758MPD2     H11253   0.217   2.515  16.032 -1.2564  1.0101  1.0902
  758MPD2    H111254   0.029   2.896  15.961  2.6133  0.7104  1.2775
  758MPD2    H211255   0.289   2.736  15.664  2.3331 -0.0728  0.8707
  758MPD2    H311256   0.147   2.925  15.752  1.5521 -2.3042 -2.9394
  758MPD2     N11257   0.075   2.721  16.142  0.7703  0.1563  0.4953
  758MPD2    H511258   0.028   2.810  16.157  1.4838  0.6700 -0.3773
  758MPD2    N111259   0.333   2.505  15.760  0.5085  0.0044  0.1840
  758MPD2    H711260   0.391   2.531  15.681 -0.5785  0.7620 -0.3617
  759MPD2     C11261   4.136   1.415   9.635 -0.1527  0.5084  0.2416
  759MPD2    C111262   4.072   1.505   9.727 -0.3247 -0.6456 -0.2991
  759MPD2    C211263   4.128   1.629   9.749 -0.1740  0.3883  0.3749
  759MPD2    C311264   4.245   1.665   9.683 -0.3968  0.2001 -0.2904
  759MPD2    C411265   4.300   1.575   9.585 -0.5708  0.4175  0.9026
  759MPD2    C511266   4.249   1.451   9.573 -0.6439  0.1268 -0.3978
  759MPD2     H11267   4.088   1.697   9.824 -1.2005 -0.1566  0.3191
  759MPD2    H111268   4.390   1.593   9.529 -0.6594  1.8509  1.2235
  759MPD2    H211269   4.092   1.320   9.608  1.9561  0.1147 -1.8716
  759MPD2    H311270   4.295   1.392   9.495  0.6711  0.2134  0.3182
  759MPD2     N11271   4.305   1.786   9.717  0.1747  0.2887  0.6997
  759MPD2    H511272   4.254   1.848   9.778 -0.1422  1.1469 -0.4421
  759MPD2    N111273   3.949   1.476   9.794  0.1898 -0.6997  0.0634
  759MPD2    H711274   3.923   1.536   9.871 -0.5086 -2.6248  1.3036
  760MPD2     C11275   3.402   3.314  11.599 -0.3109 -0.2779  0.2016
  760MPD2    C111276   3.484   3.404  11.668 -0.0165  0.1424  0.5580
  760MPD2    C211277   3.554   3.373  11.782 -0.2086 -1.0315 -0.5314
  760MPD2    C311278   3.552   3.242  11.831 -0.0690  0.8720 -1.0037
  760MPD2    C411279   3.458   3.155  11.773 -1.1834 -0.1090 -0.1429
  760MPD2    C511280   3.390   3.187  11.659  0.4325 -0.2335 -0.2907
  760MPD2     H11281   3.613   3.455  11.820  0.1257 -1.3321 -0.4008
  760MPD2    H111282   3.448   3.054  11.811  0.0465  0.5441  1.9398
  760MPD2    H211283   3.345   3.342  11.511  0.0153 -0.2897 -0.0132
  760MPD2    H311284   3.334   3.111  11.605  2.4526 -0.1863 -2.4494
  760MPD2     N11285   3.624   3.194  11.945 -0.0361 -0.4803  0.1243
  760MPD2    H511286   3.616   3.096  11.972  0.3293 -0.5185  0.0934
  760MPD2    N111287   3.476   3.543  11.641  0.3602 -0.4730  0.2803
  760MPD2    H711288   3.521   3.611  11.701  0.4458 -1.5852  1.4754
  761MPD2     C11289   0.043   3.168  11.523 -0.2214  0.0766 -0.5408
  761MPD2    C111290   0.098   3.121  11.405  0.5086 -0.6239  0.1975
  761MPD2    C211291   0.205   3.175  11.350 -0.9092  0.2523 -0.4143
  761MPD2    C311292   0.267   3.282  11.417  0.1635  0.1889 -0.1223
  761MPD2    C411293   0.228   3.317  11.544 -0.5638  0.3138  0.2317
  761MPD2    C511294   0.115   3.262  11.594  0.7599 -0.0304  0.7545
  761MPD2     H11295   0.240   3.139  11.254 -1.8963  0.1021 -0.7258
  761MPD2    H111296   0.282   3.392  11.600  0.3664  0.7953 -1.3164
  761MPD2    H211297   4.691   3.125  11.568  0.0631  0.2243  0.1695
  761MPD2    H311298   0.067   3.292  11.686 -1.0512  0.5356 -0.3750
  761MPD2     N11299   0.376   3.350  11.356 -0.0473 -0.3019  0.4187
  761MPD2    H511300   0.422   3.425  11.407 -1.2050  1.3080 -0.8813
  761MPD2    N111301   0.021   3.021  11.339  0.2252  0.1746 -0.0785
  761MPD2    H711302   4.665   2.999  11.370  0.1916 -1.8839 -1.5573
  762MPD2     C11303   4.666   2.216  10.873 -0.4095  0.1392 -0.0261
  762MPD2    C111304   0.014   2.323  10.882 -0.0999 -0.3787 -0.9397
  762MPD2    C211305   0.104   2.344  10.778 -0.2522  0.2072  0.3927
  762MPD2    C311306   0.114   2.253  10.677 -0.1876 -0.7926  0.5022
  762MPD2    C411307   0.027   2.147  10.671 -0.8535 -0.2457  0.1466
  762MPD2    C511308   4.673   2.128  10.769 -0.9160  0.5844 -0.2016
  762MPD2     H11309   0.169   2.430  10.764  0.2890 -0.0792  1.1228
  762MPD2    H111310   0.037   2.067  10.597  1.9121 -0.6446  0.9485
  762MPD2    H211311   4.602   2.182  10.953 -0.0472 -0.8934 -0.1745
  762MPD2    H311312   4.627   2.032  10.790 -1.1892  0.3196 -1.9938
  762MPD2     N11313   0.217   2.276  10.583  0.2091 -0.2640  0.3285
  762MPD2    H511314   0.251   2.372  10.583  0.7897 -0.4705  1.9447
  762MPD2    N111315   4.727   2.425  10.983  0.0455 -0.1687 -0.3975
  762MPD2    H711316   4.659   2.396  11.053  1.3426 -2.5814 -0.1144
  763MPD2     C11317   1.295   2.591  15.811 -0.4822 -0.4694 -0.0559
  763MPD2    C111318   1.431   2.619  15.819 -0.0225  0.5048 -0.2224
  763MPD2    C211319   1.479   2.668  15.940 -0.1147  0.4325 -0.0081
  763MPD2    C311320   1.397   2.679  16.053 -0.2386  0.1271 -0.2987
  763MPD2    C411321   1.274   2.645  16.039 -0.5478  0.4245  0.4587
  763MPD2    C511322   1.214   2.624  15.919  0.9232  0.5986  0.5902
  763MPD2     H11323   1.582   2.700  15.947  0.2047 -0.3060 -1.3501
  763MPD2    H111324   1.216   2.665  16.129 -1.7020 -0.3145 -0.1125
  763MPD2    H211325   1.244   2.573  15.717 -2.2993  0.7708  0.6952
  763MPD2    H311326   1.107   2.606  15.913  0.8523  1.1682  0.1884
  763MPD2     N11327   1.458   2.726  16.176 -0.5102  0.6214 -0.8580
  763MPD2    H511328   1.558   2.743  16.169 -0.1834 -0.5715  0.8692
  763MPD2    N111329   1.516   2.611  15.711  0.2430  0.1105 -0.5868
  763MPD2    H711330   1.608   2.650  15.721 -0.5120  1.5565  0.6659
  764MPD2     C11331   4.241   4.273  17.713  1.2180  0.0626 -0.6174
  764MPD2    C111332   4.238   4.178  17.623 -0.6511  0.5120 -0.0456
  764MPD2    C211333   4.253   4.045  17.667  0.1488  0.2569 -0.2758
  764MPD2    C311334   4.266   4.015   0.053 -0.5042  0.0475  0.3994
  764MPD2    C411335   4.269   4.125   0.141 -0.0331  0.5443  0.3310
  764MPD2    C511336   4.252   4.254   0.095 -0.2164  0.2069 -0.5606
  764MPD2     H11337   4.248   3.963  17.596 -1.1000 -1.4487  1.7706
  764MPD2    H111338   4.263   4.106   0.247 -0.7683  1.2082  0.4061
  764MPD2    H211339   4.239   4.377  17.681 -1.4436  1.2618  3.5030
  764MPD2    H311340   4.252   4.340   0.162 -0.5940 -1.2619  1.3019
  764MPD2     N11341   4.284   3.881   0.093  0.2504 -0.7852 -0.1472
  764MPD2    H511342   4.286   3.813   0.018 -0.0580  0.3777 -1.2114
  764MPD2    N111343   4.211   4.202  17.482 -0.0988 -1.2604 -0.3221
  764MPD2    H711344   4.222   4.119  17.425  2.1664  0.0751 -1.7973
  765MPD2     C11345   3.977   2.086  15.914  0.0393 -0.1624  0.2778
  765MPD2    C111346   4.081   2.170  15.911 -0.1041 -0.1026 -0.1853
  765MPD2    C211347   4.207   2.119  15.879  0.1435  0.6249 -0.1755
  765MPD2    C311348   4.225   1.984  15.855 -0.9001  0.5764 -0.2920
  765MPD2    C411349   4.115   1.906  15.863  0.7614 -1.4357  0.2546
  765MPD2    C511350   3.992   1.959  15.878  0.0617  0.1426  0.2882
  765MPD2     H11351   4.294   2.184  15.881 -0.0265  0.8445  0.0967
  765MPD2    H111352   4.120   1.799  15.847 -1.2416 -1.6948  1.3241
  765MPD2    H211353   3.873   2.113  15.931  1.0646  2.7214  1.9192
  765MPD2    H311354   3.907   1.893  15.870 -0.5566  1.0247 -0.3484
  765MPD2     N11355   4.352   1.939  15.829 -0.1113  0.2442 -0.0040
  765MPD2    H511356   4.429   2.005  15.835  0.2821 -0.1818 -0.3534
  765MPD2    N111357   4.056   2.305  15.932 -0.0893  0.2545  0.6456
  765MPD2    H711358   3.970   2.331  15.979  0.5248  0.4327  1.6614
  766MPD2     C11359   4.048   2.107  15.261 -0.8330 -0.0313  0.3411
  766MPD2    C111360   4.150   2.196  15.286  0.0003  0.1782 -0.2552
  766MPD2    C211361   4.212   2.260  15.177  0.4651  0.2395  0.4063
  766MPD2    C311362   4.188   2.209  15.050 -0.6169 -0.5242  0.0346
  766MPD2    C411363   4.090   2.112  15.028  0.4423 -0.2919  0.0352
  766MPD2    C511364   4.023   2.062  15.135 -0.1027  0.0057 -0.0395
  766MPD2     H11365   4.276   2.347  15.176 -0.1500  0.6992  0.9001
  766MPD2    H111366   4.055   2.082  14.930  2.1448 -1.6408 -0.1614
  766MPD2    H211367   3.995   2.064  15.345  0.7054 -0.5061  1.0676
  766MPD2    H311368   3.938   1.998  15.115  1.4220 -2.7357  2.1485
  766MPD2     N11369   4.253   2.269  14.943  0.7098  0.3496  0.6002
  766MPD2    H511370   4.327   2.331  14.973  1.6107 -0.2828 -0.2808
  766MPD2    N111371   4.173   2.245  15.417  1.0284 -0.3290 -0.1564
  766MPD2    H711372   4.136   2.192  15.495 -1.2820 -0.1335 -1.1170
  767MPD2     C11373   3.988   2.947  14.787  0.2321 -0.0218  0.4042
  767MPD2    C111374   4.031   2.818  14.811  0.2732 -0.0507  0.6226
  767MPD2    C211375   3.999   2.712  14.720 -0.0627  0.4808 -0.1725
  767MPD2    C311376   3.922   2.738  14.609 -1.0519  0.1943 -0.0986
  767MPD2    C411377   3.891   2.871  14.583 -0.0752  0.4323  0.2540
  767MPD2    C511378   3.913   2.971  14.675 -0.0967  1.1782  0.1838
  767MPD2     H11379   4.022   2.607  14.734 -0.6632 -0.1358 -3.7351
  767MPD2    H111380   3.840   2.896  14.491  3.1750  2.5895 -0.9605
  767MPD2    H211381   4.022   3.029  14.849  1.5651 -0.4820  0.2874
  767MPD2    H311382   3.893   3.077  14.663  0.2350  1.1084 -1.0088
  767MPD2     N11383   3.899   2.633  14.516  1.2251  0.3559  0.4204
  767MPD2    H511384   3.955   2.550  14.531 -0.4681 -1.1432 -1.5210
  767MPD2    N111385   4.113   2.800  14.926 -0.3726 -0.3701 -0.4477
  767MPD2    H711386   4.152   2.878  14.976 -1.3401  1.0739 -1.9386
  768MPD2     C11387   0.021   1.246  10.687 -0.3652  0.4407 -0.9749
  768MPD2    C111388   4.709   1.220  10.813 -0.7872 -0.1917  0.4748
  768MPD2    C211389   0.056   1.163  10.906 -0.3363  0.6269 -0.0061
  768MPD2    C311390   0.196   1.148  10.872 -0.0326 -0.2900  0.5205
  768MPD2    C411391   0.243   1.189  10.754 -0.3256 -0.4765 -0.2936
  768MPD2    C511392   0.153   1.228  10.663 -0.1278 -0.8297  0.0745
  768MPD2     H11393   0.024   1.147  11.008  1.8652 -1.0047  0.4255
  768MPD2    H111394   0.349   1.186  10.728 -0.6921 -2.1659 -1.6018
  768MPD2    H211395   4.697   1.278  10.603  0.5385 -0.9224 -2.1469
  768MPD2    H311396   0.191   1.255  10.565  0.4651 -0.0571  0.5163
  768MPD2     N11397   0.295   1.110  10.963  0.0753  0.2701 -0.2408
  768MPD2    H511398   0.388   1.126  10.926  0.3215  2.4612  1.3379
  768MPD2    N111399   4.572   1.240  10.859  0.6033  0.0016 -0.2594
  768MPD2    H711400   4.565   1.206  10.954  0.5285 -0.6273 -0.4900
  769MPD2     C11401   1.515   3.671  14.732 -0.7969  1.0283 -0.1286
  769MPD2    C111402   1.381   3.700  14.758 -0.3610 -0.5858  0.1053
  769MPD2    C211403   1.337   3.716  14.888 -0.0042  0.5632 -0.2104
  769MPD2    C311404   1.428   3.691  14.993  0.6863  0.3120  0.2057
  769MPD2    C411405   1.558   3.647  14.965 -0.3665  0.1008  0.0104
  769MPD2    C511406   1.599   3.631  14.837  0.7580 -0.1511  0.1262
  769MPD2     H11407   1.245   3.757  14.928 -0.3042  1.8827 -2.2686
  769MPD2    H111408   1.620   3.612  15.047  0.7469  0.0228 -0.8526
  769MPD2    H211409   1.556   3.669  14.632  2.1475 -1.8513  1.1283
  769MPD2    H311410   1.703   3.607  14.817 -0.0236 -1.5757 -2.3360
  769MPD2     N11411   1.389   3.711  15.131  0.4272  0.4403  0.0735
  769MPD2    H511412   1.290   3.733  15.139  0.5688  0.5739  1.4537
  769MPD2    N111413   1.297   3.722  14.646  0.4409  0.2116 -0.2310
  769MPD2    H711414   1.322   3.682  14.556 -1.0478 -1.5655  0.1287
  770MPD2     C11415   1.094   2.875  14.907 -0.2063  0.3024  0.4496
  770MPD2    C111416   0.999   2.874  14.803 -0.3890 -0.1223  0.0324
  770MPD2    C211417   0.982   2.986  14.731  0.3844 -0.4890  0.6672
  770MPD2    C311418   1.053   3.102  14.761  0.6538 -0.1753  1.0385
  770MPD2    C411419   1.139   3.103  14.871 -0.4469 -0.7979 -0.2286
  770MPD2    C511420   1.159   2.989  14.944  0.0168  0.1971  0.0190
  770MPD2     H11421   0.903   2.996  14.657 -1.0569 -1.0436  2.1389
  770MPD2    H111422   1.185   3.191  14.915 -2.2958 -0.3114  0.7603
  770MPD2    H211423   1.119   2.784  14.961  1.2912 -0.2438 -1.1719
  770MPD2    H311424   1.241   2.983  15.015 -0.5228  1.4003  0.7443
  770MPD2     N11425   1.023   3.213  14.681 -1.2859 -0.0420  0.7414
  770MPD2    H511426   0.946   3.202  14.616 -1.8956 -2.1671  1.8657
  770MPD2    N111427   0.922   2.760  14.777 -0.5816 -0.0309 -1.0098
  770MPD2    H711428   0.925   2.688  14.849  1.7561 -0.6515 -1.7261
  771MPD2     C11429   1.907   1.612  13.829 -0.0414 -0.2886  0.1382
  771MPD2    C111430   1.835   1.706  13.752  0.1058 -0.4945  0.8576
  771MPD2    C211431   1.756   1.654  13.650 -0.2020 -0.5188  0.2903
  771MPD2    C311432   1.745   1.517  13.629 -1.3357  0.0030  0.2237
  771MPD2    C411433   1.820   1.432  13.707  0.4207  0.1034 -0.1168
  771MPD2    C511434   1.907   1.478  13.804 -1.4922  0.5134 -0.2488
  771MPD2     H11435   1.686   1.715  13.594  0.2534 -1.3249 -1.1728
  771MPD2    H111436   1.817   1.325  13.689 -0.3700 -0.1786  1.6560
  771MPD2    H211437   1.966   1.637  13.916 -0.6523 -0.6815  0.6720
  771MPD2    H311438   1.969   1.409  13.859 -1.6364 -0.2069 -0.9925
  771MPD2     N11439   1.645   1.477  13.535  0.3746  0.2209 -0.0197
  771MPD2    H511440   1.582   1.547  13.498  1.7101  1.1195 -0.5938
  771MPD2    N111441   1.844   1.845  13.766 -0.0223 -0.0499 -0.2711
  771MPD2    H711442   1.794   1.899  13.696  1.5284  3.2719  1.1561
  772MPD2     C11443   1.372   2.399  13.743  0.1289  1.4573  0.5125
  772MPD2    C111444   1.389   2.269  13.790 -0.0164  0.1005 -0.6475
  772MPD2    C211445   1.278   2.197  13.832  0.0445 -0.2628  0.6207
  772MPD2    C311446   1.154   2.251  13.808  0.5341  0.3043  0.0105
  772MPD2    C411447   1.138   2.378  13.757 -0.2920 -0.4434 -0.0265
  772MPD2    C511448   1.254   2.455  13.727  0.0167  0.2594  0.1484
  772MPD2     H11449   1.290   2.100  13.879 -0.5189  0.5137  2.3979
  772MPD2    H111450   1.036   2.414  13.754  0.6972  2.1150 -2.8766
  772MPD2    H211451   1.451   2.467  13.714 -0.3255  2.1252  0.8228
  772MPD2    H311452   1.242   2.554  13.686 -0.0995  0.7088  1.2595
  772MPD2     N11453   1.036   2.181  13.842 -0.0031  0.6459  0.0037
  772MPD2    H511454   0.945   2.225  13.836  0.2559  1.3305  1.1641
  772MPD2    N111455   1.517   2.221  13.809 -0.1410  0.3707  0.2582
  772MPD2    H711456   1.528   2.150  13.881 -0.1118  1.3537  1.2233
  773MPD2     C11457   0.621   3.061   0.399 -0.3481 -0.3509  0.2431
  773MPD2    C111458   0.598   2.956   0.318 -0.5443 -0.7324 -0.1100
  773MPD2    C211459   0.639   2.836   0.359 -0.0223 -0.2977  0.3196
  773MPD2    C311460   0.693   2.818   0.487  0.0552  0.0200 -0.0383
  773MPD2    C411461   0.736   2.923   0.567  0.3167 -0.4290 -0.5461
  773MPD2    C511462   0.690   3.043   0.516 -0.3996 -0.3719 -0.4189
  773MPD2     H11463   0.610   2.752   0.296  0.4396 -0.4636  0.3215
  773MPD2    H111464   0.785   2.910   0.663 -1.6367 -1.4148  0.3069
  773MPD2    H211465   0.580   3.161   0.387 -0.4860 -0.0906  2.8895
  773MPD2    H311466   0.700   3.128   0.583 -2.1574 -0.8713  0.4936
  773MPD2     N11467   0.718   2.682   0.530  0.2935 -0.8169  1.0695
  773MPD2    H511468   0.696   2.613   0.459  2.9111 -2.9873  2.3690
  773MPD2    N111469   0.529   2.967   0.192  0.3452 -0.5831  0.1872
  773MPD2    H711470   0.513   2.879   0.143  3.0373 -1.2181  0.4359
  774MPD2     C11471   4.455   1.876  13.449  0.6263 -0.1262 -0.3805
  774MPD2    C111472   4.491   1.922  13.570 -0.7998 -0.2436 -0.2075
  774MPD2    C211473   4.546   2.041  13.581  0.0235 -0.1000  0.6898
  774MPD2    C311474   4.581   2.117  13.474 -0.1283  0.0327  0.1451
  774MPD2    C411475   4.559   2.069  13.346  0.1671  0.1723  0.7196
  774MPD2    C511476   4.504   1.941  13.336  0.2683 -0.2078 -0.2444
  774MPD2     H11477   4.562   2.083  13.679 -0.7961  2.6972 -0.3707
  774MPD2    H111478   4.584   2.122  13.255  0.8859 -1.4938 -0.0474
  774MPD2    H211479   4.417   1.775  13.440  2.0374 -0.5781 -1.2111
  774MPD2    H311480   4.498   1.902  13.235 -0.2547  0.1047 -0.3359
  774MPD2     N11481   4.643   2.247  13.502 -0.0805  0.5138  0.2713
  774MPD2    H511482   4.638   2.286  13.595 -1.3900  2.2796 -0.5369
  774MPD2    N111483   4.448   1.861  13.698 -0.1803 -0.1024  0.6725
  774MPD2    H711484   4.480   1.892  13.789  1.5616  2.0573 -0.6559
  775MPD2     C11485   1.324   3.455  15.755 -0.1801 -0.5258  0.7119
  775MPD2    C111486   1.329   3.588  15.794 -0.3097  0.2028  1.1436
  775MPD2    C211487   1.433   3.672  15.756  0.8354 -0.2060 -0.3385
  775MPD2    C311488   1.532   3.620  15.670  0.0209 -0.6773 -0.3590
  775MPD2    C411489   1.516   3.493  15.623  0.0371  1.0478  0.2013
  775MPD2    C511490   1.414   3.413  15.665 -0.1019  0.3012  0.2376
  775MPD2     H11491   1.438   3.774  15.792  2.6852 -0.7390  0.8837
  775MPD2    H111492   1.594   3.448  15.562  0.8400  1.4695  0.9194
  775MPD2    H211493   1.258   3.390  15.811 -0.6410  0.8511  1.7674
  775MPD2    H311494   1.411   3.306  15.651 -0.4038  0.0551  2.2425
  775MPD2     N11495   1.643   3.702  15.635  0.1458  0.1660  0.2804
  775MPD2    H511496   1.709   3.650  15.577  0.4428 -1.4489  2.0760
  775MPD2    N111497   1.220   3.628  15.867  0.6417 -0.6769  0.4741
  775MPD2    H711498   1.146   3.562  15.892  2.0120 -1.8493  1.4110
  776MPD2     C11499   0.170   4.629  11.948  0.7655  0.0705  0.4907
  776MPD2    C111500   0.296   4.575  11.917 -0.4106 -0.5450  0.5409
  776MPD2    C211501   0.371   4.637  11.817 -0.0611  0.1457 -0.7409
  776MPD2    C311502   0.306   4.731  11.729 -0.5104 -0.0117  0.0308
  776MPD2    C411503   0.180   0.025  11.758  1.2826  1.0371 -0.2192
  776MPD2    C511504   0.108   4.714  11.866  0.3382 -0.0353  0.4086
  776MPD2     H11505   0.473   4.609  11.797  0.0066  0.2392 -0.5285
  776MPD2    H111506   0.125   0.088  11.690 -0.3843 -0.8518 -0.6127
  776MPD2    H211507   0.110   4.598  12.032 -0.2572 -0.6564 -0.5005
  776MPD2    H311508   0.001   4.724  11.880 -0.0507 -0.9382 -2.0861
  776MPD2     N11509   0.367   0.048  11.611 -0.5121  0.1238  0.1855
  776MPD2    H511510   0.308   0.108  11.555  0.9499  0.0663 -1.3975
  776MPD2    N111511   0.345   4.456  11.984  0.1037  0.2674 -0.1888
  776MPD2    H711512   0.287   4.402  12.046  0.0165 -1.0305 -1.3889
  777MPD2     C11513   0.390   0.941   0.489 -0.0246 -0.7715  0.7020
  777MPD2    C111514   0.287   0.867   0.548 -0.8886  0.5030 -0.3313
  777MPD2    C211515   0.217   0.777   0.466 -0.2993  0.8290  0.0786
  777MPD2    C311516   0.248   0.742   0.338 -0.4292 -0.5956 -0.8642
  777MPD2    C411517   0.356   0.815   0.285 -0.1189 -0.5283 -0.7381
  777MPD2    C511518   0.422   0.915   0.356 -0.2003 -1.0434  0.0903
  777MPD2     H11519   0.141   0.715   0.513  0.0384 -1.9327 -3.0105
  777MPD2    H111520   0.394   0.794   0.186 -0.4457  0.6021 -1.1108
  777MPD2    H211521   0.454   1.006   0.547  3.1939 -2.4864 -0.8965
  777MPD2    H311522   0.498   0.974   0.306 -1.1056 -0.1237 -0.1788
  777MPD2     N11523   0.185   0.638   0.265 -0.2271 -0.3567 -0.2305
  777MPD2    H511524   0.107   0.589   0.308 -0.3158 -0.6678 -0.7425
  777MPD2    N111525   0.274   0.876   0.688  0.2562 -0.5203 -0.7331
  777MPD2    H711526   0.345   0.934   0.730 -1.2138  1.4960 -1.0110
  778MPD2     C11527   2.361   1.724  14.291 -0.6974  0.0431 -0.7355
  778MPD2    C111528   2.266   1.633  14.242  0.6176  0.4884 -0.2905
  778MPD2    C211529   2.245   1.611  14.101  0.1391 -0.4912 -0.2524
  778MPD2    C311530   2.308   1.691  14.009 -0.1565  0.4558 -0.3813
  778MPD2    C411531   2.412   1.770  14.060 -0.2781 -0.0292 -0.6509
  778MPD2    C511532   2.437   1.782  14.201 -0.4449  0.4161 -0.3437
  778MPD2     H11533   2.177   1.533  14.069 -0.1449 -0.2067 -0.3458
  778MPD2    H111534   2.471   1.849  14.016 -1.4090  0.2705 -1.6363
  778MPD2    H211535   2.386   1.731  14.397 -0.4129  2.1035 -0.9365
  778MPD2    H311536   2.520   1.847  14.225 -0.6899  0.8187 -0.5811
  778MPD2     N11537   2.266   1.693  13.872 -0.1582  0.2309  0.3483
  778MPD2    H511538   2.195   1.624  13.849 -0.5808 -0.1051  2.6828
  778MPD2    N111539   2.190   1.559  14.342 -0.0670 -0.2265  0.3725
  778MPD2    H711540   2.124   1.488  14.311 -0.5965  1.0641 -1.4446
  779MPD2     C11541   1.295   0.254  14.463  0.0248  0.0680  0.1641
  779MPD2    C111542   1.427   0.226  14.426  0.1497 -0.3754 -0.3079
  779MPD2    C211543   1.493   0.325  14.356  0.0842  0.2046 -0.1393
  779MPD2    C311544   1.427   0.440  14.319  0.2783 -0.0258  0.4798
  779MPD2    C411545   1.298   0.463  14.353 -0.3808  0.2949 -0.3645
  779MPD2    C511546   1.230   0.372  14.428 -0.3298  0.1160 -0.0473
  779MPD2     H11547   1.594   0.307  14.321 -0.4759  0.6206 -2.0072
  779MPD2    H111548   1.238   0.545  14.315 -0.9543 -0.4152 -0.9909
  779MPD2    H211549   1.233   0.178  14.510 -0.9009  0.2902 -0.6849
  779MPD2    H311550   1.132   0.396  14.466  0.3150  1.3227  0.8405
  779MPD2     N11551   1.492   0.531  14.231 -0.5082  0.3964  0.4440
  779MPD2    H511552   1.587   0.503  14.209 -0.8817 -0.1469 -0.4972
  779MPD2    N111553   1.496   0.107  14.450 -0.4428  0.6280  0.5574
  779MPD2    H711554   1.591   0.103  14.415 -0.3482  0.7778  0.7970
  780MPD2     C11555   0.794   0.381   0.752 -0.3177  0.2111  0.1237
  780MPD2    C111556   0.763   0.340   0.619 -0.5961  0.4117  0.1172
  780MPD2    C211557   0.822   0.412   0.520 -0.9683 -0.4691  0.3941
  780MPD2    C311558   0.918   0.508   0.548  0.1209  0.0341  0.3949
  780MPD2    C411559   0.943   0.552   0.677  0.3082 -0.0728  0.1660
  780MPD2    C511560   0.873   0.487   0.775 -0.1328 -0.4695  0.2760
  780MPD2     H11561   0.803   0.391   0.415  0.4140 -0.7566  0.2093
  780MPD2    H111562   1.021   0.623   0.701 -0.4727  0.6423  0.5526
  780MPD2    H211563   0.748   0.340   0.842 -0.1577  0.0041  0.1102
  780MPD2    H311564   0.873   0.514   0.880  0.1391 -0.2945  0.2304
  780MPD2     N11565   0.991   0.548   0.433  0.1944 -0.0582  0.3755
  780MPD2    H511566   0.958   0.511   0.344  1.9630 -1.6364  0.3712
  780MPD2    N111567   0.696   0.217   0.594  0.0769 -0.2022  0.3955
  780MPD2    H711568   0.675   0.175   0.684 -1.5089 -2.2835 -0.9578
  781MPD2     C11569   2.271   2.349  11.917  0.2551 -0.8319 -0.5453
  781MPD2    C111570   2.398   2.323  11.952  0.9664  0.1437 -0.0760
  781MPD2    C211571   2.499   2.372  11.873 -0.0245  0.4335 -0.2147
  781MPD2    C311572   2.470   2.442  11.758 -0.6736 -0.0563 -0.1526
  781MPD2    C411573   2.342   2.458  11.716  0.2382  0.3363 -0.1552
  781MPD2    C511574   2.246   2.412  11.797 -0.5022 -0.3029 -0.1118
  781MPD2     H11575   2.602   2.356  11.903 -0.0659 -2.2722 -1.4637
  781MPD2    H111576   2.313   2.512  11.627 -0.3853  0.1509 -0.0595
  781MPD2    H211577   2.184   2.317  11.972  1.0831  0.9951  1.8040
  781MPD2    H311578   2.143   2.434  11.774 -1.2224  0.0503  3.5236
  781MPD2     N11579   2.568   2.481  11.662  0.1261  0.5765  0.1333
  781MPD2    H511580   2.543   2.541  11.584  0.7223 -0.0743 -0.5529
  781MPD2    N111581   2.444   2.263  12.073  0.3829  0.0534 -0.0491
  781MPD2    H711582   2.543   2.255  12.094 -0.1570 -0.2232  2.3698
  782MPD2     C11583   0.828   3.355   9.888  0.6493 -0.2219  0.3430
  782MPD2    C111584   0.903   3.275   9.972 -0.3086 -0.0547  0.3601
  782MPD2    C211585   1.004   3.324  10.053 -0.4845  0.6396  0.3682
  782MPD2    C311586   1.023   3.461  10.051  0.5064  0.5949  0.4989
  782MPD2    C411587   0.961   3.542   9.953  0.4304  0.3349 -0.7947
  782MPD2    C511588   0.864   3.492   9.875  0.4711  0.4898 -0.0029
  782MPD2     H11589   1.046   3.260  10.129  0.7225 -0.0878 -0.9004
  782MPD2    H111590   0.982   3.647   9.935  2.6442  0.4386  2.3586
  782MPD2    H211591   0.753   3.311   9.824  1.3793  0.3676 -0.9210
  782MPD2    H311592   0.809   3.549   9.801  2.0271  0.2341 -1.3624
  782MPD2     N11593   1.115   3.524  10.137  0.0038 -0.4072  0.1686
  782MPD2    H511594   1.147   3.619  10.119 -0.5359 -0.4377 -0.9622
  782MPD2    N111595   0.858   3.141   9.992  0.5979 -0.4569  0.1518
  782MPD2    H711596   0.760   3.133   9.963  0.0487  1.3088  1.5116
  783MPD2     C11597   0.433   3.651  10.626 -0.3230 -0.4288  0.0722
  783MPD2    C111598   0.534   3.589  10.693 -0.4812 -0.2047  1.1234
  783MPD2    C211599   0.610   3.485  10.635 -0.2574 -0.2035  0.4503
  783MPD2    C311600   0.590   3.445  10.503  0.1635 -0.2172  0.5189
  783MPD2    C411601   0.491   3.509  10.433  0.2322  0.0282  0.1523
  783MPD2    C511602   0.421   3.613  10.493  1.0432 -0.3696  0.1410
  783MPD2     H11603   0.688   3.431  10.687 -0.6178  0.8430  2.1019
  783MPD2    H111604   0.475   3.489  10.327 -0.8971  0.4173  0.2462
  783MPD2    H211605   0.370   3.724  10.675  0.2034 -0.5032  0.8592
  783MPD2    H311606   0.343   3.664  10.438 -0.9564 -0.3083  3.0316
  783MPD2     N11607   0.666   3.338  10.453  0.5096 -0.4676  0.5324
  783MPD2    H511608   0.733   3.301  10.519  0.5852 -0.6299  0.3611
  783MPD2    N111609   0.556   3.634  10.824  0.1774  0.7868 -0.2121
  783MPD2    H711610   0.487   3.687  10.876 -0.8673 -1.1030  0.3290
  784MPD2     C11611   2.677   3.175   0.406  0.6388  0.0591  0.4297
  784MPD2    C111612   2.710   3.205   0.538 -0.2962  0.0214 -0.1689
  784MPD2    C211613   2.613   3.229   0.636 -1.0912  0.2016 -0.6118
  784MPD2    C311614   2.476   3.219   0.603 -0.3968 -0.4648 -0.3818
  784MPD2    C411615   2.447   3.190   0.475 -0.2502  0.1003 -0.3825
  784MPD2    C511616   2.541   3.181   0.379  0.5256 -0.0292 -0.4687
  784MPD2     H11617   2.638   3.248   0.740 -1.6601  0.3420 -0.4976
  784MPD2    H111618   2.345   3.176   0.439 -0.4980 -3.0174  1.5555
  784MPD2    H211619   2.748   3.154   0.327 -1.2831 -3.2305 -0.4129
  784MPD2    H311620   2.512   3.158   0.277 -2.8565  1.1705  0.2226
  784MPD2     N11621   2.385   3.248   0.709 -0.2087  0.5625 -0.0740
  784MPD2    H511622   2.424   3.288   0.793 -0.4121  0.4692  0.0641
  784MPD2    N111623   2.842   3.207   0.592 -0.1491  0.2583  0.1701
  784MPD2    H711624   2.847   3.231   0.690 -0.0437  0.6308  0.0759
  785MPD2     C11625   3.893   2.041  11.178 -0.0757  0.6338  0.6054
  785MPD2    C111626   3.837   2.168  11.175 -0.6914 -0.1858  0.2159
  785MPD2    C211627   3.700   2.174  11.154  0.3218 -0.6203 -0.1933
  785MPD2    C311628   3.623   2.050  11.133 -0.0832 -0.4426  0.3319
  785MPD2    C411629   3.686   1.930  11.167 -0.4306 -0.6630  0.5428
  785MPD2    C511630   3.822   1.927  11.183  0.1438  0.8631  0.2279
  785MPD2     H11631   3.650   2.271  11.149  0.5612 -0.5518 -1.3802
  785MPD2    H111632   3.624   1.841  11.170  1.5824 -2.0599  0.4288
  785MPD2    H211633   4.001   2.036  11.185  0.0017 -1.4996 -1.7976
  785MPD2    H311634   3.869   1.830  11.200 -0.3236  1.2533  3.6404
  785MPD2     N11635   3.487   2.064  11.109  0.5448  0.1707  0.6479
  785MPD2    H511636   3.458   2.161  11.097  3.1647  1.3929  4.0036
  785MPD2    N111637   3.920   2.280  11.180 -0.0304  0.7757  0.2954
  785MPD2    H711638   4.020   2.264  11.173  0.0681  1.4244  0.2649
  786MPD2     C11639   2.567   4.608  14.474  0.4070 -0.7229  0.1843
  786MPD2    C111640   2.595   4.473  14.474 -0.3260  0.1798  0.2597
  786MPD2    C211641   2.716   4.433  14.537  0.0413  0.5428  0.6748
  786MPD2    C311642   2.813   4.525  14.586  0.4164 -0.8075  0.3734
  786MPD2    C411643   2.777   4.660  14.586  0.1136 -0.4522  0.7444
  786MPD2    C511644   2.655   4.697  14.535 -0.0363  0.8157  0.1835
  786MPD2     H11645   2.720   4.328  14.560  0.3769  0.4499  0.1789
  786MPD2    H111646   2.838   4.736  14.634  0.7050 -0.0576 -0.6035
  786MPD2    H211647   2.477   4.656  14.437 -0.4971 -0.2684  2.9681
  786MPD2    H311648   2.633   0.064  14.550 -0.4720  0.5882  1.1676
  786MPD2     N11649   2.938   4.484  14.637  0.0772  0.2924 -0.3486
  786MPD2    H511650   2.996   4.559  14.673 -0.0498 -1.4409  3.4786
  786MPD2    N111651   2.498   4.375  14.436  0.4250  0.3421  0.0236
  786MPD2    H711652   2.516   4.278  14.460 -2.9555 -0.6321 -1.3481
  787MPD2     C11653   2.375   3.871  14.815 -0.0613  0.0106  1.0755
  787MPD2    C111654   2.348   3.840  14.687 -0.1793 -0.2802 -0.6589
  787MPD2    C211655   2.354   3.709  14.650  1.1104 -0.0619  0.6394
  787MPD2    C311656   2.363   3.608  14.741  0.0987  0.1996 -0.2244
  787MPD2    C411657   2.380   3.636  14.876  0.3101  0.6013 -0.0511
  787MPD2    C511658   2.381   3.770  14.912  0.0798 -0.0226 -0.6315
  787MPD2     H11659   2.347   3.677  14.547 -3.0456 -0.0777  0.9326
  787MPD2    H111660   2.398   3.569  14.959  1.5846  0.7017 -0.2498
  787MPD2    H211661   2.363   3.974  14.847 -1.5477  1.1735 -3.2590
  787MPD2    H311662   2.387   3.804  15.014 -1.6906  1.0224 -0.8616
  787MPD2     N11663   2.369   3.478  14.686 -0.1553 -0.0267 -0.5913
  787MPD2    H511664   2.372   3.474  14.585 -0.5852 -0.7583 -0.5765
  787MPD2    N111665   2.334   3.951  14.598 -0.5436  0.0036  0.4755
  787MPD2    H711666   2.368   4.039  14.637  1.3353 -2.3626  4.1964
  788MPD2     C11667   4.538   2.556   0.864 -0.0571  0.0425 -0.4548
  788MPD2    C111668   4.431   2.537   0.780 -0.2861 -0.0932  1.0366
  788MPD2    C211669   4.392   2.629   0.689  0.1590 -0.3304 -0.4200
  788MPD2    C311670   4.448   2.753   0.706  0.0050 -0.2347 -0.0102
  788MPD2    C411671   4.549   2.785   0.792 -0.6434 -0.2612  0.2431
  788MPD2    C511672   4.591   2.684   0.880 -0.2083  0.3017 -0.7478
  788MPD2     H11673   4.320   2.610   0.609  0.0502 -0.4877 -0.2852
  788MPD2    H111674   4.601   2.877   0.815 -0.2472 -1.2044  3.0209
  788MPD2    H211675   4.588   2.476   0.917 -1.5702  0.3265  1.3668
  788MPD2    H311676   4.673   2.703   0.948 -0.1617  1.5400 -1.1525
  788MPD2     N11677   4.408   2.859   0.621  0.1898  0.7482  0.0847
  788MPD2    H511678   4.472   2.937   0.610  1.9146 -1.0283 -2.5893
  788MPD2    N111679   4.386   2.397   0.771 -0.3268  0.3108 -0.0936
  788MPD2    H711680   4.431   2.330   0.833  2.0380  2.1624  0.2052
  789MPD2     C11681   4.269   1.914  16.571 -1.6198  0.3004 -0.0454
  789MPD2    C111682   4.156   1.931  16.652 -0.6117  0.6598  0.0639
  789MPD2    C211683   4.140   2.059  16.704  0.3039  0.5813  0.6160
  789MPD2    C311684   4.213   2.162  16.655  0.1217 -0.5773  0.1250
  789MPD2    C411685   4.322   2.148  16.575  0.0570 -0.0914  0.8500
  789MPD2    C511686   4.350   2.021  16.540 -0.7158 -0.2188  0.2326
  789MPD2     H11687   4.060   2.071  16.776 -0.0573  0.9451  0.1621
  789MPD2    H111688   4.387   2.225  16.535  0.1445 -1.1520 -1.0419
  789MPD2    H211689   4.290   1.818  16.525  0.8751  1.3550 -1.1013
  789MPD2    H311690   4.439   2.003  16.481 -0.5143 -0.1199  0.5042
  789MPD2     N11691   4.186   2.293  16.693  0.1284 -1.1093 -0.4988
  789MPD2    H511692   4.246   2.361  16.647  0.1113 -0.3173  0.6610
  789MPD2    N111693   4.072   1.828  16.707 -0.0642  0.0890  0.2618
  789MPD2    H711694   3.989   1.862  16.755  0.1268  0.5521  0.2661
  790MPD2     C11695   0.292   4.253  13.663 -0.7627 -0.2168 -0.2294
  790MPD2    C111696   0.322   4.122  13.690  0.4849 -0.0238  0.0508
  790MPD2    C211697   0.324   4.024  13.587 -0.4754  0.1340  0.1490
  790MPD2    C311698   0.299   4.059  13.458 -0.4941 -0.8015 -0.5827
  790MPD2    C411699   0.272   4.195  13.430  0.4605  0.7674  0.8626
  790MPD2    C511700   0.274   4.293  13.532 -0.6011  0.0528 -0.2721
  790MPD2     H11701   0.335   3.919  13.611  0.3557 -0.4147 -2.7606
  790MPD2    H111702   0.242   4.223  13.330  1.6863 -1.1854 -0.0493
  790MPD2    H211703   0.269   4.321  13.744 -1.1143  0.7038 -1.1070
  790MPD2    H311704   0.248   4.396  13.511  1.8686  0.5542 -0.9879
  790MPD2     N11705   0.300   3.960  13.362 -0.1147  0.0026 -0.1238
  790MPD2    H511706   0.295   3.864  13.396  0.3017 -0.3038 -0.9050
  790MPD2    N111707   0.343   4.097  13.829  0.1052 -0.3210  0.0070
  790MPD2    H711708   0.332   4.172  13.897  1.4745  0.9004 -1.1146
  791MPD2     C11709   4.603   3.544  13.385 -0.2639 -0.0743  0.1287
  791MPD2    C111710   4.660   3.495  13.270 -0.0513  0.6617  0.4613
  791MPD2    C211711   4.619   3.381  13.211  0.4124 -0.4581  0.1408
  791MPD2    C311712   4.504   3.321  13.261 -0.8490 -0.9119  0.9305
  791MPD2    C411713   4.445   3.368  13.371  0.5848 -0.8056  0.0194
  791MPD2    C511714   4.492   3.478  13.438 -0.3718  0.2630  0.9128
  791MPD2     H11715   4.655   3.343  13.117  1.2038  3.5545 -1.1987
  791MPD2    H111716   4.363   3.317  13.420 -0.1755  0.5856  0.2141
  791MPD2    H211717   4.643   3.630  13.438  0.9343 -0.6567  0.1651
  791MPD2    H311718   4.441   3.520  13.523  0.7518  1.0362  1.2123
  791MPD2     N11719   4.432   3.220  13.187  0.0522  0.1393 -0.1267
  791MPD2    H511720   4.487   3.177  13.112  0.5153  1.8570 -0.7614
  791MPD2    N111721   0.037   3.572  13.229 -0.2849  0.9683  0.2846
  791MPD2    H711722   0.059   3.652  13.287  0.8709  1.5014 -0.8903
  792MPD2     C11723   0.779   4.349  11.159 -0.3252 -0.2877 -0.5464
  792MPD2    C111724   0.721   4.446  11.084 -0.1441 -0.2009 -1.1348
  792MPD2    C211725   0.588   4.479  11.096 -0.6355 -0.6792 -0.3016
  792MPD2    C311726   0.510   4.400  11.179  0.3227  0.0673  0.1961
  792MPD2    C411727   0.572   4.294  11.244 -0.6710  1.0025 -0.2879
  792MPD2    C511728   0.704   4.276  11.242 -0.0306  0.3742  0.3726
  792MPD2     H11729   0.543   4.552  11.029  1.8240 -0.4834 -1.7285
  792MPD2    H111730   0.513   4.230  11.309 -0.0609 -0.2065 -0.9372
  792MPD2    H211731   0.886   4.332  11.165  0.2267  2.7769 -1.4897
  792MPD2    H311732   0.752   4.207  11.311  2.4322  1.8470  0.1517
  792MPD2     N11733   0.375   4.404  11.185  0.1363  0.1929  0.0681
  792MPD2    H511734   0.326   4.329  11.233 -0.9237  0.5189 -0.5090
  792MPD2    N111735   0.800   4.514  10.987 -0.0194 -0.3016 -0.8095
  792MPD2    H711736   0.898   4.487  10.983  0.3425  0.9785 -0.8210
  793MPD2     C11737   4.674   4.038  10.578 -0.0708 -0.5455  0.7122
  793MPD2    C111738   0.052   4.109  10.594 -0.5734  0.0068 -0.3460
  793MPD2    C211739   0.053   4.220  10.667  1.0909 -0.1141 -0.6055
  793MPD2    C311740   4.682   4.265  10.736  0.1580 -0.3604 -0.3015
  793MPD2    C411741   4.567   4.187  10.721  0.1636  0.0073 -0.8297
  793MPD2    C511742   4.566   4.082  10.639 -0.1925  0.5350  0.2435
  793MPD2     H11743   0.149   4.269  10.666  0.5675  0.9226  1.1994
  793MPD2    H111744   4.474   4.227  10.760 -0.2122 -1.2269 -0.4470
  793MPD2    H211745   4.652   3.953  10.513 -0.9444 -0.0610  0.3675
  793MPD2    H311746   4.479   4.020  10.616 -0.1068  0.8650 -0.9645
  793MPD2     N11747   4.698   4.379  10.810  0.2090 -0.2832  0.0583
  793MPD2    H511748   0.054   4.421  10.813  0.1996 -0.3638  1.4455
  793MPD2    N111749   0.173   4.072  10.537 -0.4887 -0.0961  0.1096
  793MPD2    H711750   0.248   4.139  10.552 -2.4353  2.3369 -0.9834
  794MPD2     C11751   4.721   3.421  17.447 -0.0271 -0.2765  0.5234
  794MPD2    C111752   0.078   3.362  17.369 -0.0734 -0.5835  0.8758
  794MPD2    C211753   0.063   3.371  17.233  0.6790 -0.7922 -0.6033
  794MPD2    C311754   4.686   3.423  17.179  0.3718 -0.4283  0.3326
  794MPD2    C411755   4.596   3.486  17.256  0.5439 -0.3513 -0.4878
  794MPD2    C511756   4.603   3.479  17.396  0.1781 -0.3247 -0.0926
  794MPD2     H11757   0.139   3.318  17.176  1.1855 -0.8208  0.0967
  794MPD2    H111758   4.505   3.524  17.212  1.0825  0.4556 -0.9063
  794MPD2    H211759   4.719   3.417  17.556 -0.9881  3.0563  0.6308
  794MPD2    H311760   4.534   3.526  17.465  0.1013  0.1563 -0.4968
  794MPD2     N11761   4.667   3.440  17.048  0.3945 -0.2663 -0.3123
  794MPD2    H511762   4.590   3.504  17.033 -0.8637 -1.6132  0.3681
  794MPD2    N111763   0.183   3.289  17.423 -0.0873 -1.1998  0.0014
  794MPD2    H711764   0.250   3.259  17.354  0.7071 -0.7408  0.5832
  795MPD2     C11765   2.828   0.868  13.301 -0.4898 -0.6414 -0.7558
  795MPD2    C111766   2.736   0.807  13.385 -0.0336 -0.1751  0.9093
  795MPD2    C211767   2.776   0.726  13.495 -0.3294  0.0478 -0.0698
  795MPD2    C311768   2.908   0.716  13.520  0.9232  0.0334 -0.6906
  795MPD2    C411769   3.003   0.775  13.436  0.7663  0.2733 -0.4970
  795MPD2    C511770   2.960   0.858  13.334  0.2651  0.0567  0.0904
  795MPD2     H11771   2.707   0.661  13.547  0.7899  0.0411  1.3992
  795MPD2    H111772   3.109   0.778  13.457  0.3418  1.6955  1.3995
  795MPD2    H211773   2.803   0.933  13.218  1.3584 -0.6050 -1.2783
  795MPD2    H311774   3.034   0.917  13.280  0.0991 -0.2471 -0.4741
  795MPD2     N11775   2.964   0.636  13.620 -0.2968  0.5035  0.0342
  795MPD2    H511776   3.064   0.622  13.616 -0.2327  0.5348  1.7534
  795MPD2    N111777   2.600   0.792  13.353 -0.0495 -0.7107 -0.2866
  795MPD2    H711778   2.540   0.744  13.419  0.5016  0.9285  1.3844
  796MPD2     C11779   1.892   1.757  16.054  0.9915 -0.9775  0.4240
  796MPD2    C111780   1.982   1.797  16.151 -0.3268  0.2633 -0.1417
  796MPD2    C211781   1.990   1.936  16.182 -0.2140  0.2908 -0.2968
  796MPD2    C311782   1.930   2.034  16.099 -0.0104 -0.3525 -0.4221
  796MPD2    C411783   1.849   1.990  15.997 -0.2271  0.3291  0.1452
  796MPD2    C511784   1.824   1.855  15.982 -0.0023 -0.3611  0.0882
  796MPD2     H11785   2.041   1.966  16.272 -1.6445 -0.8594  0.9058
  796MPD2    H111786   1.793   2.059  15.936  2.1374  2.8400  0.8276
  796MPD2    H211787   1.890   1.651  16.029  0.5255 -0.2222 -2.7377
  796MPD2    H311788   1.747   1.835  15.908 -0.1483  0.3410  0.0495
  796MPD2     N11789   1.952   2.170  16.125  0.0472 -0.2208  1.1463
  796MPD2    H511790   2.008   2.188  16.208  3.7827 -1.3721 -1.1189
  796MPD2    N111791   2.061   1.706  16.215 -0.3001  0.3431 -0.0435
  796MPD2    H711792   2.033   1.609  16.215 -1.4724  0.6837  1.4025
  797MPD2     C11793   2.879   1.648  17.338 -0.3825 -0.4358 -0.2184
  797MPD2    C111794   2.980   1.743  17.336 -0.8846 -0.3054 -0.4252
  797MPD2    C211795   2.993   1.818  17.223  0.4156 -0.2857  0.4758
  797MPD2    C311796   2.909   1.799  17.116  0.5011 -0.5618 -0.5954
  797MPD2    C411797   2.817   1.697  17.118  0.0373  0.2152  0.0680
  797MPD2    C511798   2.797   1.627  17.232 -0.1366 -0.9732  0.1892
  797MPD2     H11799   3.071   1.892  17.227 -0.0338  0.2766 -1.4894
  797MPD2    H111800   2.748   1.678  17.038  0.4384 -0.6118 -0.0756
  797MPD2    H211801   2.866   1.599  17.434 -0.8025 -0.5503 -0.3337
  797MPD2    H311802   2.720   1.552  17.248 -0.4853 -0.4932  0.7276
  797MPD2     N11803   2.925   1.877  17.001  0.5122  0.6624 -0.6479
  797MPD2    H511804   2.884   1.839  16.916 -0.4285 -1.7992  0.9049
  797MPD2    N111805   3.070   1.767  17.439  0.0168 -0.1268 -0.1866
  797MPD2    H711806   3.136   1.842  17.421  1.3636 -1.7555 -2.0630
  798MPD2     C11807   3.517   2.248  17.104  0.0183  0.1358 -0.1085
  798MPD2    C111808   3.391   2.191  17.112  0.3167  0.0553  0.6485
  798MPD2    C211809   3.368   2.127  17.232  0.3276 -0.0629  0.2355
  798MPD2    C311810   3.452   2.113  17.338 -0.7700 -0.6327 -0.0662
  798MPD2    C411811   3.572   2.182  17.327  0.1736 -0.0372  0.1923
  798MPD2    C511812   3.601   2.247  17.211  0.8847  0.0464 -0.3906
  798MPD2     H11813   3.278   2.068  17.241 -0.1935  0.6558 -0.3025
  798MPD2    H111814   3.647   2.178  17.406 -0.4048 -2.5031  0.6146
  798MPD2    H211815   3.561   2.294  17.016 -2.7277 -0.6185 -1.8496
  798MPD2    H311816   3.693   2.302  17.200  0.5981  0.6967  0.4842
  798MPD2     N11817   3.406   2.032  17.444  0.4363 -0.0638 -0.0145
  798MPD2    H511818   3.308   2.010  17.430  0.7056 -1.3886  0.1427
  798MPD2    N111819   3.304   2.163  17.005  0.7155 -0.1893 -0.0788
  798MPD2    H711820   3.214   2.122  17.028  0.4815  0.3102 -0.1237
  799MPD2     C11821   1.994   3.329  14.629 -0.0137  0.2106  0.2875
  799MPD2    C111822   1.956   3.246  14.524 -0.3628  0.1854 -0.5439
  799MPD2    C211823   1.910   3.298  14.398  0.2284  0.1548 -0.2028
  799MPD2    C311824   1.918   3.433  14.374  0.3796 -0.3795  0.1374
  799MPD2    C411825   1.947   3.516  14.490  0.3302  0.0233 -0.9211
  799MPD2    C511826   1.990   3.462  14.607  0.9046  0.4553  0.2532
  799MPD2     H11827   1.888   3.227  14.320  3.6418  0.7031 -1.6714
  799MPD2    H111828   1.951   3.624  14.482 -0.5199  0.0035 -1.6315
  799MPD2    H211829   2.033   3.307  14.728  0.2488  1.2618  0.4242
  799MPD2    H311830   2.019   3.524  14.691  0.9336  0.9447 -0.1222
  799MPD2     N11831   1.871   3.493  14.253 -0.0768  0.0330 -0.5233
  799MPD2    H511832   1.875   3.594  14.245 -2.7929  0.0803 -1.2348
  799MPD2    N111833   1.929   3.110  14.544  0.6358  0.1483  0.1232
  799MPD2    H711834   1.887   3.056  14.468 -1.9747  2.5541 -0.1294
  800MPD2     C11835   2.472   4.371  14.006  0.1697  0.1742  0.3284
  800MPD2    C111836   2.605   4.361  14.006 -0.1629  0.3108 -0.3744
  800MPD2    C211837   2.664   4.296  13.902  0.2939  0.2937  0.6200
  800MPD2    C311838   2.585   4.244  13.791  0.2958 -0.0434  0.0523
  800MPD2    C411839   2.446   4.257  13.795  0.3204  1.4002 -0.2902
  800MPD2    C511840   2.394   4.302  13.913 -0.5636 -0.7255 -0.8677
  800MPD2     H11841   2.772   4.290  13.894  0.0855  0.0704 -2.2764
  800MPD2    H111842   2.389   4.236  13.705 -0.9318 -1.3567  1.1136
  800MPD2    H211843   2.426   4.428  14.086  2.0093  1.4889  0.4390
  800MPD2    H311844   2.291   4.336  13.924 -0.5486 -0.4281 -1.6853
  800MPD2     N11845   2.663   4.203  13.679  0.5970  0.1789  0.1123
  800MPD2    H511846   2.763   4.219  13.677  0.7264 -0.6108  0.3299
  800MPD2    N111847   2.678   4.439  14.098  0.6159  0.3304  0.3076
  800MPD2    H711848   2.631   4.514  14.148  0.0550 -0.8350  1.5309
  801MPD2     C11849   2.760   0.401  14.342  0.5239 -0.2706  0.3506
  801MPD2    C111850   2.687   0.287  14.333  0.0575  0.1529 -0.0010
  801MPD2    C211851   2.552   0.285  14.374  0.6454 -0.6159  0.1677
  801MPD2    C311852   2.489   0.399  14.426  0.3394 -0.1101  0.6775
  801MPD2    C411853   2.570   0.514  14.442 -0.1436  0.0224  0.3816
  801MPD2    C511854   2.699   0.518  14.396 -0.2724 -0.1506  1.0549
  801MPD2     H11855   2.496   0.193  14.362 -1.9835  1.1804 -1.1551
  801MPD2    H111856   2.520   0.604  14.476  0.0063  0.1571  0.2482
  801MPD2    H211857   2.862   0.419  14.311  0.1619 -1.3850 -1.4953
  801MPD2    H311858   2.766   0.601  14.411  0.2391 -0.3584 -0.0679
  801MPD2     N11859   2.351   0.392  14.466 -0.0224 -0.3393 -0.3808
  801MPD2    H511860   2.306   0.303  14.448 -0.2477 -0.5987  1.5007
  801MPD2    N111861   2.746   0.169  14.280 -0.0728  0.1018  0.2654
  801MPD2    H711862   2.681   0.093  14.262 -2.0750  1.7934  0.4475
  802MPD2     C11863   2.323   0.372   0.215 -0.5334 -0.1856 -0.0857
  802MPD2    C111864   2.315   0.465   0.117  0.2231 -0.7369 -0.7376
  802MPD2    C211865   2.321   0.424  17.737 -0.1566  0.0404 -0.1213
  802MPD2    C311866   2.316   0.289  17.707  0.1592  0.1131 -0.5676
  802MPD2    C411867   2.334   0.197   0.059  1.0230  0.5066 -0.4289
  802MPD2    C511868   2.337   0.241   0.189  0.1317  0.6425 -0.5988
  802MPD2     H11869   2.304   0.496  17.657  0.4265 -1.6622 -1.7793
  802MPD2    H111870   2.337   0.089   0.052  1.5792  0.4429  0.7717
  802MPD2    H211871   2.330   0.400   0.319  1.4592 -0.6698 -0.0805
  802MPD2    H311872   2.327   0.162   0.263 -2.4637  0.6996 -0.8876
  802MPD2     N11873   2.292   0.262  17.568  0.2811 -0.8644 -0.3682
  802MPD2    H511874   2.286   0.335  17.499 -1.1605 -0.9480 -0.3368
  802MPD2    N111875   2.286   0.601   0.143  0.9991 -0.0676 -0.3423
  802MPD2    H711876   2.275   0.666   0.066 -3.5008  0.3282  0.6524
  803MPD2     C11877   2.752   3.441  11.993 -0.5719 -0.1533  0.4220
  803MPD2    C111878   2.841   3.548  12.000 -0.6781 -0.2520  0.3276
  803MPD2    C211879   2.933   3.541  12.094  0.2037  0.1624 -0.1248
  803MPD2    C311880   2.930   3.448  12.199 -0.0212  0.2290 -1.1077
  803MPD2    C411881   2.843   3.343  12.195  0.0412 -0.0468 -0.1375
  803MPD2    C511882   2.754   3.341  12.085 -0.6067  0.4751 -0.0409
  803MPD2     H11883   3.001   3.625  12.101 -0.6875  0.7778  1.2464
  803MPD2    H111884   2.838   3.256  12.260 -0.9867 -0.2587 -0.5068
  803MPD2    H211885   2.672   3.435  11.921 -0.6848  2.2338  0.3511
  803MPD2    H311886   2.676   3.267  12.079 -0.5284  0.3723  0.2059
  803MPD2     N11887   3.014   3.454  12.314  0.3217 -0.7276 -0.0156
  803MPD2    H511888   2.999   3.390  12.391  0.2667  1.1121  1.5070
  803MPD2    N111889   2.838   3.655  11.906 -0.3303 -0.3816 -0.0251
  803MPD2    H711890   2.913   3.720  11.925  0.1046 -0.9695  0.2918
  804MPD2     C11891   2.549   0.114  17.037 -0.2981 -0.5151 -0.2304
  804MPD2    C111892   2.548   0.077  17.168  0.6640 -0.7353  0.1408
  804MPD2    C211893   2.550   0.173  17.268 -0.2532 -0.3023 -0.3073
  804MPD2    C311894   2.541   0.305  17.230  0.2632 -0.2014  0.0183
  804MPD2    C411895   2.510   0.333  17.096  0.1849  0.1386  0.7517
  804MPD2    C511896   2.528   0.243  16.999  0.2035 -0.2589  0.3097
  804MPD2     H11897   2.566   0.150  17.372  2.1066 -0.7070 -0.7563
  804MPD2    H111898   2.485   0.436  17.072  0.8871 -0.1049 -1.0714
  804MPD2    H211899   2.590   0.045  16.965 -1.0465 -1.4924  0.2823
  804MPD2    H311900   2.534   0.274  16.896 -1.1099  0.8627  0.5714
  804MPD2     N11901   2.580   0.404  17.322 -0.0420  0.0411  0.0082
  804MPD2    H511902   2.614   0.367  17.410 -0.2384 -1.3409 -0.4973
  804MPD2    N111903   2.570   4.679  17.212 -0.5307 -0.5180  0.2922
  804MPD2    H711904   2.569   4.663  17.312 -1.2862 -0.7083  0.2505
  805MPD2     C11905   1.963   3.538  15.712  0.1529 -0.2629 -0.2508
  805MPD2    C111906   2.065   3.529  15.615  0.3412  0.1387 -0.9029
  805MPD2    C211907   2.196   3.532  15.661 -0.9887 -0.6277  0.3346
  805MPD2    C311908   2.227   3.534  15.795  0.0163 -0.0186  1.1399
  805MPD2    C411909   2.125   3.550  15.890 -0.0523 -0.3165  0.4986
  805MPD2    C511910   1.991   3.551  15.843  0.8451  0.1489  0.4021
  805MPD2     H11911   2.277   3.525  15.589 -2.2545  0.4161 -1.1927
  805MPD2    H111912   2.134   3.556  15.997  1.2421  0.3089  0.3571
  805MPD2    H211913   1.860   3.515  15.688  0.4850 -1.3520 -0.6193
  805MPD2    H311914   1.913   3.533  15.917 -0.1197  1.2010 -0.3542
  805MPD2     N11915   2.369   3.524  15.823 -0.4209  0.1901  0.0903
  805MPD2    H511916   2.428   3.538  15.742 -0.3465  1.5283  0.3761
  805MPD2    N111917   2.045   3.509  15.472  0.2625 -0.1239 -0.4576
  805MPD2    H711918   2.132   3.503  15.420 -0.5067 -0.2119 -1.7287
  806MPD2     C11919   2.162   2.706   0.171  0.1615  0.0179  0.2621
  806MPD2    C111920   2.241   2.804   0.223 -1.0525 -0.0323 -0.2890
  806MPD2    C211921   2.302   2.896   0.139  0.4176  0.0295 -0.0621
  806MPD2    C311922   2.284   2.875   0.004 -0.2779  0.7224  0.5148
  806MPD2    C411923   2.203   2.779  17.696  0.2154 -0.2548 -0.1379
  806MPD2    C511924   2.149   2.690   0.038 -0.7737  0.1160  0.1762
  806MPD2     H11925   2.361   2.972   0.189  0.8373  0.9772 -2.0277
  806MPD2    H111926   2.175   2.779  17.591  0.1863 -1.7703 -0.1303
  806MPD2    H211927   2.110   2.640   0.239 -2.2630 -0.2020 -1.7974
  806MPD2    H311928   2.087   2.611  17.744 -0.5359 -0.4887  0.9603
  806MPD2     N11929   2.359   2.967  17.671 -0.0241 -0.1650  0.0296
  806MPD2    H511930   2.410   3.041  17.719  0.1773 -0.5707  0.4415
  806MPD2    N111931   2.274   2.796   0.361 -0.6819  0.0436  0.5313
  806MPD2    H711932   2.209   2.743   0.418 -0.3689 -1.2703 -0.3206
  807MPD2     C11933   1.926   2.707   0.975  0.0284  0.1884  0.2213
  807MPD2    C111934   1.963   2.699   0.845 -0.3918 -0.3040  0.3705
  807MPD2    C211935   1.862   2.652   0.760  0.6917  0.5211  0.3652
  807MPD2    C311936   1.737   2.614   0.801 -0.0419  1.1797  0.3442
  807MPD2    C411937   1.705   2.615   0.935  0.1048  0.1392  0.2899
  807MPD2    C511938   1.801   2.669   1.017  0.4466  0.1685  0.6185
  807MPD2     H11939   1.883   2.660   0.654  0.5116  0.9970  0.3656
  807MPD2    H111940   1.609   2.582   0.974  0.8899 -0.2423  1.9225
  807MPD2    H211941   1.996   2.747   1.048  0.3386  1.1543 -0.6013
  807MPD2    H311942   1.766   2.696   1.116  0.6381  0.8276  0.5078
  807MPD2     N11943   1.652   2.578   0.693  0.2540 -0.6943 -0.4302
  807MPD2    H511944   1.691   2.564   0.600 -0.4107  0.3137 -0.8625
  807MPD2    N111945   2.094   2.732   0.791 -0.1035 -0.1588 -0.3224
  807MPD2    H711946   2.109   2.733   0.690  0.0990  1.6824 -0.2798
  808MPD2     C11947   2.786   0.093   9.357  0.6378 -0.3912  0.4901
  808MPD2    C111948   2.883   4.726   9.377  0.4255 -0.5815  0.0571
  808MPD2    C211949   2.993   0.028   9.449  0.3532  0.3440  0.2336
  808MPD2    C311950   3.009   0.157   9.499  0.3085 -0.1120 -0.3867
  808MPD2    C411951   2.908   0.255   9.487  0.4557  0.2578  0.0611
  808MPD2    C511952   2.799   0.221   9.406  0.2677  0.1754 -0.2419
  808MPD2     H11953   3.063   4.688   9.477  1.2617 -0.0745 -3.1306
  808MPD2    H111954   2.916   0.355   9.528 -1.0793 -0.7794  2.9036
  808MPD2    H211955   2.697   0.075   9.299 -0.7443  0.6186  2.3009
  808MPD2    H311956   2.722   0.294   9.385  1.3590  1.4164  0.0789
  808MPD2     N11957   3.127   0.205   9.561  0.8315  0.3222  0.5835
  808MPD2    H511958   3.127   0.302   9.591 -2.2049 -0.6308  3.6205
  808MPD2    N111959   2.868   4.592   9.335  0.0555 -0.8077 -0.2320
  808MPD2    H711960   2.948   4.535   9.362  0.3906 -0.2742 -0.0859
  809MPD2     C11961   4.114   0.004  10.000 -0.2856  0.6874 -0.5375
  809MPD2    C111962   3.991   4.726  10.064 -0.2315  0.1244 -0.4399
  809MPD2    C211963   3.873   0.030  10.008 -0.4227  0.5817 -0.1648
  809MPD2    C311964   3.874   0.071   9.875 -0.0545  0.5127 -0.4014
  809MPD2    C411965   3.988   0.076   9.801  0.3629  0.3440  0.4612
  809MPD2    C511966   4.110   0.047   9.870 -0.1696  0.0436 -0.0619
  809MPD2     H11967   3.781   0.031  10.065  0.1646 -1.2466  0.8137
  809MPD2    H111968   3.992   0.096   9.695 -2.1017  0.7642  0.4544
  809MPD2    H211969   4.209   4.734  10.051 -1.1306 -1.0326  0.7865
  809MPD2    H311970   4.204   0.043   9.816 -0.9578  0.8525 -1.5129
  809MPD2     N11971   3.758   0.117   9.813  0.2345 -0.4885  0.3531
  809MPD2    H511972   3.766   0.162   9.722 -0.5875  0.1214  0.5876
  809MPD2    N111973   3.982   4.684  10.196  0.8465 -0.7010 -0.2321
  809MPD2    H711974   3.896   4.711  10.242  1.8422  1.0487  0.5853
  810MPD2     C11975   2.518   3.972  10.898 -1.1508  0.2757  0.3509
  810MPD2    C111976   2.491   3.997  10.763  0.1836 -0.0497 -0.0048
  810MPD2    C211977   2.489   4.131  10.723  0.0983  0.2530 -0.8218
  810MPD2    C311978   2.505   4.237  10.811  0.3457  0.3157  0.1711
  810MPD2    C411979   2.535   4.203  10.938  0.3188  0.1081  0.8595
  810MPD2    C511980   2.543   4.074  10.988  0.3062  0.6022 -0.2621
  810MPD2     H11981   2.465   4.148  10.619  1.7394  1.8236 -0.9420
  810MPD2    H111982   2.551   4.278  11.015  2.5365  0.9536 -0.4156
  810MPD2    H211983   2.511   3.874  10.944  0.4667  0.2859  0.6267
  810MPD2    H311984   2.575   4.049  11.089  3.3325 -2.1244 -1.9124
  810MPD2     N11985   2.506   4.373  10.778  0.0741  0.1197 -0.1223
  810MPD2    H511986   2.516   4.439  10.854  0.5073 -1.5091  1.2364
  810MPD2    N111987   2.463   3.894  10.674 -0.3457  0.7762 -0.2167
  810MPD2    H711988   2.444   3.803  10.715  0.0840  0.6408 -0.3070
  811MPD2     C11989   1.943   3.766   9.973  0.3277  0.5677  0.1668
  811MPD2    C111990   2.076   3.783   9.986 -0.0003  0.0424  0.0703
  811MPD2    C211991   2.133   3.881   9.903 -0.1234  0.0568  0.4906
  811MPD2    C311992   2.061   3.958   9.816 -0.7130  0.3263  0.4006
  811MPD2    C411993   1.926   3.932   9.808 -0.3357 -0.9251 -0.0768
  811MPD2    C511994   1.870   3.829   9.880 -0.2845 -0.1286 -0.3372
  811MPD2     H11995   2.238   3.903   9.919 -0.0187  1.8920 -2.6126
  811MPD2    H111996   1.865   3.995   9.744 -1.3639 -1.1351  0.6904
  811MPD2    H211997   1.895   3.700  10.044 -1.4467  0.6764 -0.9368
  811MPD2    H311998   1.764   3.812   9.867 -0.7914  1.7402  1.4070
  811MPD2     N11999   2.125   4.075   9.767  0.3806 -0.3843 -0.8085
  811MPD2    H512000   2.226   4.079   9.764  0.2648  1.3317 -2.1247
  811MPD2    N112001   2.131   3.722  10.095  0.1481  0.3742  0.1647
  811MPD2    H712002   2.076   3.653  10.145 -1.0688  1.2495  0.0144
  812MPD2     C12003   1.462   4.080  12.062 -0.0131  0.5978 -0.4283
  812MPD2    C112004   1.329   4.107  12.073 -0.1269  0.3557  0.0518
  812MPD2    C212005   1.250   4.055  12.172  0.4119  0.2242 -0.7704
  812MPD2    C312006   1.315   3.982  12.277 -0.6157  0.2651  0.1234
  812MPD2    C412007   1.449   3.965  12.269 -0.1996 -0.3076  0.3034
  812MPD2    C512008   1.525   4.006  12.163  0.4912  0.1086 -0.4498
  812MPD2     H12009   1.142   4.068  12.171  0.6080  1.9436  1.3264
  812MPD2    H112010   1.501   3.908  12.345  0.0574  0.7981  0.9589
  812MPD2    H212011   1.531   4.121  11.990  0.3015 -0.7967 -0.9179
  812MPD2    H312012   1.627   3.971  12.158  0.4687  0.0277 -0.3430
  812MPD2     N12013   1.231   3.919  12.370  0.4974  0.3590  0.4169
  812MPD2    H512014   1.130   3.922  12.361  0.7277  4.0828 -1.1257
  812MPD2    N112015   1.277   4.180  11.965  0.4613 -0.1680 -0.3746
  812MPD2    H712016   1.346   4.204  11.894 -0.8473 -2.0788 -2.2816
  813MPD2     C12017   4.488   1.011  12.805  0.1324  0.8115  0.7893
  813MPD2    C112018   4.574   1.113  12.850 -0.7582 -0.0518 -0.0709
  813MPD2    C212019   4.545   1.158  12.978  0.4787 -0.0656 -0.3154
  813MPD2    C312020   4.434   1.109  13.055  1.0501 -0.2761 -0.3948
  813MPD2    C412021   4.347   1.024  12.996  0.2052  0.4291 -0.2306
  813MPD2    C512022   4.372   0.975  12.869  0.2911  0.0113 -0.3561
  813MPD2     H12023   4.605   1.238  13.018 -1.2410  1.1927 -0.2784
  813MPD2    H112024   4.258   0.985  13.044 -0.7579  3.2018  0.2554
  813MPD2    H212025   4.505   0.960  12.711 -1.1203  1.2624  0.3075
  813MPD2    H312026   4.318   0.890  12.828 -1.0344  1.4747 -1.6241
  813MPD2     N12027   4.409   1.166  13.185  0.0168  0.5281 -0.4312
  813MPD2    H512028   4.479   1.231  13.220  0.7129 -0.1082 -0.6575
  813MPD2    N112029   4.693   1.160  12.796  0.0541 -0.2513 -0.2861
  813MPD2    H712030   0.003   1.239  12.839 -0.8656 -0.3279  0.8569
  814MPD2     C12031   1.101   2.184  12.816  0.3569  0.2521  0.6575
  814MPD2    C112032   1.062   2.221  12.689  0.1603 -1.0199  0.4510
  814MPD2    C212033   1.082   2.348  12.640  0.0307 -0.0933 -0.2970
  814MPD2    C312034   1.150   2.437  12.723 -0.0424 -0.0245  0.5508
  814MPD2    C412035   1.207   2.397  12.840  0.8979  0.6975 -0.1372
  814MPD2    C512036   1.182   2.267  12.888  0.1121 -0.4873  0.3225
  814MPD2     H12037   1.051   2.370  12.539  1.9177 -0.8178 -1.0339
  814MPD2    H112038   1.260   2.465  12.906  0.9161  1.2029 -0.6741
  814MPD2    H212039   1.094   2.085  12.860  1.8106  0.2096  0.7899
  814MPD2    H312040   1.229   2.240  12.981  0.6000  0.7112  0.4365
  814MPD2     N12041   1.147   2.578  12.703 -0.8072  0.0326  0.6283
  814MPD2    H512042   1.214   2.629  12.759 -2.4533  2.6636  0.2068
  814MPD2    N112043   0.979   2.152  12.595 -0.0862  0.8046  0.6123
  814MPD2    H712044   0.948   2.202  12.512 -1.2475 -2.9991 -1.2258
  815MPD2     C12045   1.531   0.335  11.694  0.3665  0.3090 -0.8414
  815MPD2    C112046   1.432   0.378  11.612 -0.1084  1.0415 -0.2156
  815MPD2    C212047   1.300   0.382  11.658 -0.3129 -0.5618  0.2608
  815MPD2    C312048   1.278   0.366  11.795  0.6173  0.3885  0.9543
  815MPD2    C412049   1.385   0.335  11.879  0.1830  0.1708 -0.6465
  815MPD2    C512050   1.509   0.311  11.828 -0.3901 -0.0542 -0.1619
  815MPD2     H12051   1.215   0.420  11.603 -0.7008  3.2484  3.5302
  815MPD2    H112052   1.381   0.333  11.987  2.1851 -1.2116 -0.5851
  815MPD2    H212053   1.630   0.328  11.650  0.7542  0.6742 -0.0271
  815MPD2    H312054   1.578   0.258  11.892 -0.8627 -0.8939 -0.3464
  815MPD2     N12055   1.143   0.373  11.843 -0.2083 -0.8380 -0.6093
  815MPD2    H512056   1.075   0.410  11.777  0.8950  1.5710 -0.4158
  815MPD2    N112057   1.465   0.399  11.475  0.1725 -0.1412 -0.3276
  815MPD2    H712058   1.561   0.376  11.451  0.9303  2.6253  0.0681
  816MPD2     C12059   1.625   0.015  17.263 -0.3222  0.2645  0.3609
  816MPD2    C112060   1.530   0.009  17.159 -0.7634 -0.4146  0.0360
  816MPD2    C212061   1.555   4.674  17.042  0.0909 -0.1217 -0.2280
  816MPD2    C312062   1.671   4.600  17.037 -0.6084 -0.2844  0.0996
  816MPD2    C412063   1.773   4.607  17.131 -0.2576 -0.2316  0.1204
  816MPD2    C512064   1.746   4.689  17.239  0.4891  0.1537 -0.3248
  816MPD2     H12065   1.484   4.658  16.961 -0.6833 -0.9156  0.6143
  816MPD2    H112066   1.866   4.551  17.136  0.0411  0.4226  2.1180
  816MPD2    H212067   1.606   0.081  17.347 -1.5969  1.5203 -0.9088
  816MPD2    H312068   1.814   4.699  17.324 -0.9882  0.3692  0.8269
  816MPD2     N12069   1.693   4.538  16.913  0.3985  0.3606  0.7502
  816MPD2    H512070   1.623   4.555  16.841 -1.1040  0.0210  2.1265
  816MPD2    N112071   1.407   0.080  17.174  0.0224 -0.1095 -0.8527
  816MPD2    H712072   1.368   0.095  17.267 -1.1154  1.4908 -1.5848
  817MPD2     C12073   1.210   2.398  10.085  0.3474 -0.6971 -0.7569
  817MPD2    C112074   1.279   2.388   9.967 -1.0150  0.4065 -0.2637
  817MPD2    C212075   1.267   2.498   9.884  1.0112 -0.1332  0.2083
  817MPD2    C312076   1.167   2.600   9.903  0.1968  0.3419 -0.1151
  817MPD2    C412077   1.102   2.608  10.025  0.9533  0.8395  0.6859
  817MPD2    C512078   1.132   2.508  10.118  0.3246  0.3559 -0.7157
  817MPD2     H12079   1.333   2.495   9.798 -0.3147 -0.8920 -0.7998
  817MPD2    H112080   1.037   2.686  10.062  0.5254  0.5302  0.5935
  817MPD2    H212081   1.215   2.314  10.153 -0.3441  0.0927  0.2737
  817MPD2    H312082   1.080   2.507  10.213 -0.3299  0.3821 -1.0712
  817MPD2     N12083   1.146   2.693   9.800  0.1920  0.3335  0.2822
  817MPD2    H512084   1.205   2.686   9.718 -1.4524 -0.6194 -0.8096
  817MPD2    N112085   1.357   2.279   9.928 -0.7800  0.0042  0.7593
  817MPD2    H712086   1.391   2.279   9.832 -1.5705 -1.4548  0.4771
  818MPD2     C12087   0.106   2.161  10.087 -0.0892 -0.3336  0.0286
  818MPD2    C112088   0.029   2.100  10.183  1.3848 -0.1030  0.3204
  818MPD2    C212089   0.012   1.958  10.174  0.5692 -0.2830 -0.6260
  818MPD2    C312090   0.064   1.881  10.069 -1.2466 -0.6081  0.7327
  818MPD2    C412091   0.150   1.946   9.982 -0.0043 -0.1905  0.3323
  818MPD2    C512092   0.163   2.079   9.990  0.4544  0.8639 -0.7793
  818MPD2     H12093   4.677   1.911  10.240 -1.2076  1.4696 -1.3108
  818MPD2    H112094   0.186   1.892   9.895 -0.2851  2.9668 -1.7669
  818MPD2    H212095   0.124   2.268  10.085  0.2381 -0.4077 -0.6706
  818MPD2    H312096   0.239   2.128   9.930 -1.1373  2.4970 -1.4819
  818MPD2     N12097   0.058   1.738  10.066  0.1231  0.1083  0.2134
  818MPD2    H512098   0.111   1.687   9.996  0.3962 -0.5910  0.9306
  818MPD2    N112099   4.697   2.157  10.293  0.3378 -0.7478  0.2551
  818MPD2    H712100   4.645   2.092  10.351 -0.5515 -0.7180 -0.5222
  819MPD2     C12101   2.708   2.984  15.672  0.3835 -0.0812  0.0197
  819MPD2    C112102   2.710   2.847  15.690  0.5304 -0.3993  0.3021
  819MPD2    C212103   2.804   2.788  15.772 -0.3060 -0.4959  0.4003
  819MPD2    C312104   2.893   2.864  15.844 -0.0472  0.2925 -0.4613
  819MPD2    C412105   2.892   3.004  15.830  0.3563  0.1072 -0.7499
  819MPD2    C512106   2.802   3.063  15.736 -0.0256  0.3536  0.4381
  819MPD2     H12107   2.801   2.680  15.785 -0.6435 -0.6559 -1.0601
  819MPD2    H112108   2.955   3.070  15.889 -1.4210  3.2304 -2.3676
  819MPD2    H212109   2.630   3.025  15.609 -0.3670  0.1636  1.1084
  819MPD2    H312110   2.805   3.171  15.723 -4.7870  0.8065  2.8541
  819MPD2     N12111   2.975   2.804  15.937  0.2612 -0.0859  0.7760
  819MPD2    H512112   2.971   2.703  15.942 -0.9803 -0.0053  1.2841
  819MPD2    N112113   2.622   2.769  15.613  0.2273  0.1051  0.4258
  819MPD2    H712114   2.579   2.816  15.534 -0.3169 -0.6315  0.2838
  820MPD2     C12115   1.882   2.893  15.024 -0.3109  0.3906  0.8794
  820MPD2    C112116   1.987   2.967  15.078 -0.4760  0.1988 -0.1642
  820MPD2    C212117   2.101   2.897  15.123  1.2347 -0.1154 -0.0819
  820MPD2    C312118   2.102   2.755  15.129 -0.0562 -0.1728 -0.5152
  820MPD2    C412119   2.001   2.686  15.080 -0.9838  0.2313 -0.1623
  820MPD2    C512120   1.895   2.754  15.028  0.4951  0.3685 -0.0329
  820MPD2     H12121   2.184   2.951  15.169  2.0177 -0.0069 -1.6309
  820MPD2    H112122   2.004   2.578  15.088 -0.0840 -0.0626 -4.4335
  820MPD2    H212123   1.789   2.929  14.983  0.6826  0.3840 -1.3627
  820MPD2    H312124   1.812   2.694  14.991  1.6664  0.1523 -2.2902
  820MPD2     N12125   2.216   2.685  15.171 -0.4155 -0.0630 -0.0926
  820MPD2    H512126   2.208   2.584  15.161  4.5212 -0.6573  1.4525
  820MPD2    N112127   1.980   3.111  15.086  0.2958  0.2289  0.5797
  820MPD2    H712128   1.894   3.151  15.052  0.1175 -0.4682  0.2074
  821MPD2     C12129   2.889   4.624  13.016 -0.7225 -0.1536  0.2696
  821MPD2    C112130   2.975   4.574  13.117  0.2462 -0.4222 -0.4717
  821MPD2    C212131   3.111   4.586  13.105  0.2046  0.4371 -0.1486
  821MPD2    C312132   3.172   4.655  13.004  0.5265  0.9756 -0.0706
  821MPD2    C412133   3.091   4.707  12.910  0.1513 -0.5792  0.1495
  821MPD2    C512134   2.951   4.699  12.921  0.0448 -0.0692 -1.2197
  821MPD2     H12135   3.180   4.551  13.181 -1.4800  1.2975  1.7872
  821MPD2    H112136   3.141   0.029  12.835  2.1929 -1.8021  0.5709
  821MPD2    H212137   2.782   4.617  13.006 -0.6692 -1.8208  0.8378
  821MPD2    H312138   2.886   4.737  12.843  0.0892  2.3474 -0.0712
  821MPD2     N12139   3.315   4.679  12.999 -0.4763  0.2988 -0.4620
  821MPD2    H512140   3.339   4.724  12.911 -0.3430  0.1134 -0.5210
  821MPD2    N112141   2.927   4.496  13.227 -0.0341  0.1287  0.0085
  821MPD2    H712142   3.002   4.466  13.288  0.0617 -0.8480 -0.5972
  822MPD2     C12143   3.592   4.396  15.843 -0.4948  1.1335  0.0953
  822MPD2    C112144   3.547   4.342  15.958 -0.1074 -0.3614 -0.3971
  822MPD2    C212145   3.433   4.392  16.017 -0.2558  0.2686 -0.3280
  822MPD2    C312146   3.350   4.487  15.956  0.0319 -0.3981 -0.2327
  822MPD2    C412147   3.385   4.527  15.832 -0.5956  0.5965 -0.0242
  822MPD2    C512148   3.500   4.476  15.774 -0.5885  0.6146  0.0192
  822MPD2     H12149   3.403   4.361  16.117  0.8309 -1.4563 -0.5492
  822MPD2    H112150   3.319   4.590  15.773 -1.4555  0.2234  0.5479
  822MPD2    H212151   3.673   4.361  15.781 -1.3891  0.8355 -0.9075
  822MPD2    H312152   3.519   4.513  15.674  0.2701 -0.7324 -0.3095
  822MPD2     N12153   3.252   4.543  16.044  0.3037  0.0097  0.3550
  822MPD2    H512154   3.240   4.497  16.133 -0.2959  0.7461  0.6451
  822MPD2    N112155   3.621   4.238  16.011 -0.5413  0.6322  0.6794
  822MPD2    H712156   3.588   4.208  16.102  0.4113  0.8757  1.1071
  823MPD2     C12157   2.926   4.648  16.806  0.2244  0.4036  0.0847
  823MPD2    C112158   2.973   4.574  16.704 -0.7483  0.2312 -0.4794
  823MPD2    C212159   3.037   4.455  16.734 -0.6270 -1.1601  0.0020
  823MPD2    C312160   3.042   4.407  16.869 -0.3211  0.1362 -0.0316
  823MPD2    C412161   2.979   4.480  16.961  0.0652  0.4758 -0.0862
  823MPD2    C512162   2.927   4.601  16.934  0.7722  0.0803  0.3872
  823MPD2     H12163   3.093   4.401  16.658  0.9174 -0.1873  0.4546
  823MPD2    H112164   2.967   4.434  17.059 -0.7192 -0.1409 -0.4756
  823MPD2    H212165   2.903   0.016  16.792 -0.0877  0.4383  0.8243
  823MPD2    H312166   2.884   4.657  17.016 -3.1984  1.5098 -2.7042
  823MPD2     N12167   3.108   4.280  16.905 -0.1460 -0.6044 -0.2847
  823MPD2    H512168   3.087   4.237  16.995 -2.2141  0.1814 -0.3993
  823MPD2    N112169   2.979   4.641  16.578  0.3619  0.5788 -0.0440
  823MPD2    H712170   2.929   4.729  16.569 -1.8218 -0.6774 -0.0586
  824MPD2     C12171   4.082   3.543  16.029 -0.4080 -0.2769  0.3622
  824MPD2    C112172   4.106   3.661  15.958 -0.1915  0.0400  0.6258
  824MPD2    C212173   4.190   3.658  15.850  0.5012 -0.3223 -0.1481
  824MPD2    C312174   4.231   3.531  15.805  0.7387  0.3278 -0.6220
  824MPD2    C412175   4.214   3.415  15.874 -0.4023  0.5389  0.4348
  824MPD2    C512176   4.128   3.424  15.980 -0.2670  0.2265 -0.5940
  824MPD2     H12177   4.209   3.746  15.790  0.2242 -0.4220 -0.3904
  824MPD2    H112178   4.246   3.315  15.846 -0.3377  0.5836  0.3496
  824MPD2    H212179   4.019   3.531  16.116 -1.7752  0.1591 -0.5621
  824MPD2    H312180   4.104   3.332  16.032 -2.6224  1.1193 -0.0972
  824MPD2     N12181   4.311   3.532  15.687  0.3776 -0.8672  0.6955
  824MPD2    H512182   4.328   3.626  15.653 -2.2420 -0.1117  1.4952
  824MPD2    N112183   4.064   3.792  16.007  0.7490  0.5096 -0.2717
  824MPD2    H712184   4.092   3.877  15.959  0.0584  0.0594 -1.4500
  825MPD2     C12185   0.097   3.767  15.018 -0.5261 -0.2776 -0.2101
  825MPD2    C112186   0.040   3.793  15.140 -0.1081  0.3881  0.2720
  825MPD2    C212187   0.035   3.927  15.190  1.1212  0.1936 -0.3186
  825MPD2    C312188   0.080   4.025  15.097 -0.5087  0.2976 -0.3773
  825MPD2    C412189   0.121   3.991  14.969 -0.4492 -0.1693  0.6077
  825MPD2    C512190   0.132   3.864  14.934 -0.0168  0.3685  0.3717
  825MPD2     H12191   0.007   3.951  15.292 -0.3271 -0.3962 -0.5724
  825MPD2    H112192   0.158   4.065  14.898  0.2309 -0.3136  0.8090
  825MPD2    H212193   0.112   3.662  14.998 -1.4325 -0.6076  0.8383
  825MPD2    H312194   0.184   3.843  14.841  0.1509 -0.9667  0.7667
  825MPD2     N12195   0.085   4.167  15.118 -0.4092 -0.0773  0.2630
  825MPD2    H512196   0.130   4.218  15.043 -2.4123  0.0820 -0.8209
  825MPD2    N112197   4.730   3.673  15.208 -0.4396 -0.1209  0.0080
  825MPD2    H712198   0.015   3.583  15.167  1.2829  0.2022  0.2154
  826MPD2     C12199   4.451   3.965  14.270  0.0964 -0.6910 -0.0999
  826MPD2    C112200   4.369   3.891  14.187 -0.3467  0.1937  0.3214
  826MPD2    C212201   4.240   3.932  14.169  0.2245 -0.7646 -0.1734
  826MPD2    C312202   4.192   4.045  14.241 -0.1853 -0.7643 -0.0047
  826MPD2    C412203   4.270   4.114  14.329  0.4644  0.0815  0.0501
  826MPD2    C512204   4.401   4.078  14.341 -0.5519 -0.5478 -0.1353
  826MPD2     H12205   4.176   3.872  14.105  1.9789 -2.9650  0.1404
  826MPD2    H112206   4.231   4.194  14.390  1.5384  0.3346  0.4070
  826MPD2    H212207   4.555   3.936  14.285 -0.2163 -2.6050 -1.5777
  826MPD2    H312208   4.470   4.120  14.414  1.9460 -4.0714 -0.4072
  826MPD2     N12209   4.061   4.097  14.231 -0.7303  0.1737  0.6603
  826MPD2    H512210   4.031   4.162  14.303 -0.2536  0.8033  0.2891
  826MPD2    N112211   4.434   3.790  14.112  0.5276 -0.3746 -0.3113
  826MPD2    H712212   4.533   3.772  14.125 -0.4405 -5.0788  0.6864
  827MPD2     C12213   0.546   1.646  10.012  0.4697  0.3601 -0.0183
  827MPD2    C112214   0.546   1.508   9.995  0.2065 -1.0018 -0.0026
  827MPD2    C212215   0.442   1.457   9.917 -0.1172 -0.7423 -0.5309
  827MPD2    C312216   0.347   1.536   9.855  0.1174 -0.2032  0.3267
  827MPD2    C412217   0.359   1.668   9.862  0.0305 -0.1471  0.7097
  827MPD2    C512218   0.454   1.722   9.949  0.9033 -0.1129  0.1278
  827MPD2     H12219   0.430   1.349   9.909 -0.3124 -0.5997 -2.0273
  827MPD2    H112220   0.306   1.737   9.797  2.0561  0.0127 -0.7351
  827MPD2    H212221   0.611   1.692  10.086 -1.3912  0.3525  1.6248
  827MPD2    H312222   0.456   1.831   9.950  2.7665 -0.1365 -1.1152
  827MPD2     N12223   0.242   1.469   9.797  0.3167 -0.1123  0.1973
  827MPD2    H512224   0.240   1.368   9.806 -2.4466 -0.0866 -0.0883
  827MPD2    N112225   0.643   1.432  10.066 -0.2788  0.5093 -0.3142
  827MPD2    H712226   0.694   1.481  10.139  1.8740 -0.8119 -0.9178
  828MPD2     C12227   3.413   0.098  12.301  0.1926  0.8082  0.0674
  828MPD2    C112228   3.302   0.134  12.225  0.4333  0.1162 -0.3040
  828MPD2    C212229   3.287   0.089  12.094  0.3341 -0.1732  0.5155
  828MPD2    C312230   3.386   0.003  12.038  0.0832 -0.1582  0.1405
  828MPD2    C412231   3.498   4.717  12.114  0.0406  0.2477 -0.2471
  828MPD2    C512232   3.511   0.032  12.238  0.6344 -0.0546 -1.0557
  828MPD2     H12233   3.190   0.095  12.047 -0.0971 -0.9278  1.3044
  828MPD2    H112234   3.580   4.662  12.069  2.0569  3.8484 -1.0536
  828MPD2    H212235   3.424   0.107  12.408 -2.6136  1.3645  0.3116
  828MPD2    H312236   3.600   0.007  12.294  0.1998  1.3909  0.2921
  828MPD2     N12237   3.375   4.684  11.909  0.4995  0.0450 -0.0292
  828MPD2    H512238   3.457   4.630  11.881  0.0898  0.2115 -1.5175
  828MPD2    N112239   3.197   0.212  12.274 -0.3360  0.4464 -0.2098
  828MPD2    H712240   3.123   0.220  12.206 -0.4834  1.7237  0.0979
  829MPD2     C12241   2.586   0.479  11.799  0.2459 -0.2557  0.2940
  829MPD2    C112242   2.514   0.485  11.917  0.2344 -0.2874 -0.4028
  829MPD2    C212243   2.581   0.464  12.041  0.7069  0.2843  0.7079
  829MPD2    C312244   2.714   0.425  12.042 -0.9123 -0.5003 -0.0672
  829MPD2    C412245   2.780   0.403  11.924  0.3407 -0.3244  0.8122
  829MPD2    C512246   2.715   0.432  11.810  0.2408  0.2278 -0.2010
  829MPD2     H12247   2.529   0.483  12.134 -0.7559  0.3461 -0.1198
  829MPD2    H112248   2.887   0.389  11.917  0.5946  2.2731 -0.5094
  829MPD2    H212249   2.546   0.516  11.706  1.6237 -0.2185 -0.2923
  829MPD2    H312250   2.775   0.427  11.720  0.7910  0.7541  0.1433
  829MPD2     N12251   2.797   0.419  12.156 -0.6869  0.1363  0.4114
  829MPD2    H512252   2.892   0.389  12.138 -0.2131  0.6536  2.0764
  829MPD2    N112253   2.382   0.524  11.905  0.2966  0.2234  0.1755
  829MPD2    H712254   2.351   0.543  11.810  0.8947 -1.7407 -0.4240
  830MPD2     C12255   3.107   2.142  16.210  0.3390 -0.4729 -0.9828
  830MPD2    C112256   3.067   2.268  16.192  0.0593  0.7483  0.4269
  830MPD2    C212257   3.057   2.315  16.059 -0.4723 -0.1886  0.8824
  830MPD2    C312258   3.091   2.231  15.955 -0.4902  0.5902  0.5725
  830MPD2    C412259   3.130   2.103  15.977  0.3162 -0.1818 -0.2211
  830MPD2    C512260   3.140   2.059  16.109 -0.0387 -0.4799 -0.6277
  830MPD2     H12261   2.998   2.405  16.042 -3.4093 -2.0578  1.1254
  830MPD2    H112262   3.164   2.047  15.891  0.1746  2.1605 -1.8265
  830MPD2    H212263   3.129   2.111  16.311  0.3400 -2.3358 -1.5518
  830MPD2    H312264   3.188   1.964  16.129 -0.9506 -0.7154  0.3654
  830MPD2     N12265   3.092   2.283  15.827  0.3529 -0.1294 -0.8391
  830MPD2    H512266   3.141   2.221  15.763 -2.4053 -1.0946 -2.0220
  830MPD2    N112267   3.025   2.340  16.304  0.2325  0.5730  0.3800
  830MPD2    H712268   2.997   2.292  16.389  3.6478 -1.8535  0.1662
  831MPD2     C12269   3.527   4.685  16.415 -0.0760  0.0359 -0.3571
  831MPD2    C112270   3.596   4.596  16.344  0.2264 -0.3231 -0.0762
  831MPD2    C212271   3.543   4.465  16.345  0.4745 -0.9357 -0.6608
  831MPD2    C312272   3.432   4.430  16.420  0.2454  0.0423  0.6396
  831MPD2    C412273   3.381   4.518  16.505  0.0013  0.6286 -0.2833
  831MPD2    C512274   3.421   4.644  16.488  0.0542  0.9994  0.1184
  831MPD2     H12275   3.600   4.391  16.289 -0.1508 -0.8793 -1.3851
  831MPD2    H112276   3.296   4.501  16.570 -0.0093 -2.4669 -1.0870
  831MPD2    H212277   3.545   0.055  16.415 -2.3875  0.4251 -0.6821
  831MPD2    H312278   3.376   4.728  16.541  0.2773  2.0879 -1.4093
  831MPD2     N12279   3.368   4.307  16.411  0.2313 -0.2013  0.2314
  831MPD2    H512280   3.290   4.284  16.473 -1.2234 -0.8893 -1.8355
  831MPD2    N112281   3.702   4.636  16.256 -0.0444 -0.0145 -0.1250
  831MPD2    H712282   3.708   4.734  16.230  0.8198  0.0736  0.4183
  832MPD2     C12283   1.825   0.841  17.252  0.2168 -1.2540 -0.5595
  832MPD2    C112284   1.831   0.953  17.169 -0.2934  0.6934 -0.3566
  832MPD2    C212285   1.719   1.002  17.113 -0.2207 -0.4759 -0.0735
  832MPD2    C312286   1.597   0.940  17.126 -0.4639 -0.8333  0.4153
  832MPD2    C412287   1.590   0.824  17.204  1.2484  0.1094 -0.2114
  832MPD2    C512288   1.704   0.776  17.268  0.9491  0.1712 -0.3886
  832MPD2     H12289   1.728   1.079  17.037 -1.7397 -0.6727 -0.4537
  832MPD2    H112290   1.496   0.776  17.227  1.5216  0.1532  1.0357
  832MPD2    H212291   1.918   0.790  17.276  0.7256  0.0010  0.1204
  832MPD2    H312292   1.702   0.687  17.331  0.3660 -1.2824 -2.4830
  832MPD2     N12293   1.476   0.986  17.072 -0.0879  0.0786 -0.2247
  832MPD2    H512294   1.402   0.917  17.072  1.8534 -1.9837  0.7602
  832MPD2    N112295   1.953   1.024  17.159 -0.0560 -0.0224 -0.0123
  832MPD2    H712296   2.029   0.988  17.215  0.1713  0.5656  0.0587
  833MPD2     C12297   3.870   2.913  12.489  0.4613 -0.4104  0.3192
  833MPD2    C112298   3.872   3.052  12.494 -0.4305 -0.6124 -0.8261
  833MPD2    C212299   3.993   3.110  12.486  0.2593  0.7484 -0.0523
  833MPD2    C312300   4.110   3.037  12.476  0.3048  0.6837  0.3659
  833MPD2    C412301   4.110   2.901  12.492  0.0141 -0.2021 -0.6648
  833MPD2    C512302   3.987   2.847  12.507  0.0503  0.7713  0.6776
  833MPD2     H12303   3.990   3.218  12.478  1.4179  0.9115  1.6091
  833MPD2    H112304   4.201   2.842  12.500  0.3170  0.2679 -0.6738
  833MPD2    H212305   3.780   2.853  12.485  0.3757 -0.3849  1.7734
  833MPD2    H312306   3.994   2.740  12.523  2.8662  0.9449  0.7006
  833MPD2     N12307   4.233   3.099  12.441 -0.0608 -0.0218  0.3027
  833MPD2    H512308   4.310   3.033  12.439 -0.5393 -0.5541 -0.4102
  833MPD2    N112309   3.753   3.126  12.495 -0.1033  0.4517  0.3230
  833MPD2    H712310   3.665   3.076  12.490  0.2184 -0.0414 -0.3723
  834MPD2     C12311   4.663   2.889  11.758 -0.2979  0.3549 -0.4826
  834MPD2    C112312   4.525   2.896  11.791  0.8677 -0.5663  0.0017
  834MPD2    C212313   4.478   2.988  11.884 -0.5858 -0.8979 -0.1175
  834MPD2    C312314   4.566   3.066  11.954 -0.4675 -0.3560 -0.0085
  834MPD2    C412315   4.698   3.067  11.915 -0.0594  0.2544 -1.3906
  834MPD2    C512316   0.001   2.982  11.821  0.0432 -0.3253  0.0676
  834MPD2     H12317   4.376   2.983  11.920 -0.2687  0.1146  0.9417
  834MPD2    H112318   0.028   3.136  11.963 -0.5146  0.3110 -0.8324
  834MPD2    H212319   4.710   2.825  11.684 -0.5794 -1.5830  1.0033
  834MPD2    H312320   0.105   2.993  11.793 -0.9551  1.7925 -2.8453
  834MPD2     N12321   4.516   3.149  12.058 -0.1895  0.0842  0.4317
  834MPD2    H512322   4.418   3.132  12.077 -1.0142  2.4789 -1.6626
  834MPD2    N112323   4.435   2.807  11.716 -0.4940  0.2821 -0.1983
  834MPD2    H712324   4.486   2.759  11.643 -0.1423  0.3472  0.0032
  835MPD2     C12325   4.297   0.537  11.012 -0.4110 -0.0722  0.1603
  835MPD2    C112326   4.199   0.441  11.031  0.6329 -0.0740 -0.0609
  835MPD2    C212327   4.237   0.326  11.096 -0.5392 -0.1560 -0.2339
  835MPD2    C312328   4.369   0.297  11.124  0.7116 -0.2799 -0.6479
  835MPD2    C412329   4.469   0.394  11.086  0.2258  0.2657 -0.3077
  835MPD2    C512330   4.427   0.515  11.039  0.8699  0.3932  0.8021
  835MPD2     H12331   4.159   0.254  11.118 -2.0544  1.5082 -0.1688
  835MPD2    H112332   4.574   0.372  11.104 -0.3272 -0.9081  1.5448
  835MPD2    H212333   4.274   0.634  10.968  2.7543 -0.6701 -2.7734
  835MPD2    H312334   4.496   0.598  11.034  1.7258 -0.3726 -0.0489
  835MPD2     N12335   4.392   0.179  11.197  1.0211 -0.8863  0.5538
  835MPD2    H512336   4.316   0.115  11.219 -0.5936  1.1302  0.7718
  835MPD2    N112337   4.064   0.463  11.016  0.2910 -0.5348 -0.3524
  835MPD2    H712338   4.004   0.385  11.043  1.2987 -1.2364 -0.1220
  836MPD2     C12339   3.971   4.609  11.449 -0.0108  0.5094 -0.0438
  836MPD2    C112340   4.055   4.652  11.544  0.7206  0.1886  0.2546
  836MPD2    C212341   4.010   4.723  11.653  0.0626 -0.6007  0.1002
  836MPD2    C312342   3.869   0.009  11.651 -0.2773  0.4154 -0.2459
  836MPD2    C412343   3.782   4.699  11.555 -0.0657  0.2558 -0.1130
  836MPD2    C512344   3.835   4.626  11.449 -0.2712 -0.0502  0.1684
  836MPD2     H12345   4.067   0.029  11.734  0.0420  0.8572 -0.6636
  836MPD2    H112346   3.681   4.736  11.560 -0.0468  0.5022 -1.5232
  836MPD2    H212347   4.012   4.565  11.359  1.9889 -0.1003  1.1777
  836MPD2    H312348   3.768   4.593  11.371  1.4500  1.1993 -1.8352
  836MPD2     N12349   3.807   0.089  11.760  0.0235  0.3286 -0.1649
  836MPD2    H512350   3.718   0.130  11.730 -2.4322 -3.3957  2.0064
  836MPD2    N112351   4.188   4.617  11.528 -0.1274  0.4951  0.8044
  836MPD2    H712352   4.208   4.576  11.437 -1.1947  1.0131  0.3308
  837MPD2     C12353   2.597   4.518  10.154  0.1160 -0.5088 -0.2050
  837MPD2    C112354   2.521   4.593  10.065 -0.4787  0.4863 -0.0142
  837MPD2    C212355   2.526   4.731  10.073  0.6126 -0.3524 -0.1679
  837MPD2    C312356   2.578   0.052  10.184 -0.3226  0.8598  0.5476
  837MPD2    C412357   2.651   4.718  10.277 -0.5043  0.4746 -0.3147
  837MPD2    C512358   2.654   4.580  10.258 -0.8719 -0.6109  0.8496
  837MPD2     H12359   2.486   0.057   9.996 -0.2407 -1.8057 -0.9193
  837MPD2    H112360   2.687   0.028  10.368 -2.6271  1.5962 -0.0572
  837MPD2    H212361   2.581   4.411  10.158 -1.3522 -0.3195 -1.0656
  837MPD2    H312362   2.694   4.524  10.342  0.7645  0.5542  0.8610
  837MPD2     N12363   2.551   0.191  10.198  0.1046 -0.0162 -0.2304
  837MPD2    H512364   2.501   0.235  10.122 -0.4015  0.0068  0.1188
  837MPD2    N112365   2.451   4.541   9.956 -0.5906  0.2565 -0.3231
  837MPD2    H712366   2.403   4.613   9.903 -0.7768  1.8329  2.0096
  838MPD2     C12367   0.648   3.042  11.304 -0.1311 -0.3797 -0.0565
  838MPD2    C112368   0.699   3.139  11.389 -0.5110 -0.3102 -0.1871
  838MPD2    C212369   0.648   3.143  11.520 -0.3819 -0.6992 -0.5272
  838MPD2    C312370   0.552   3.049  11.565  0.0865  0.1397 -0.2983
  838MPD2    C412371   0.510   2.947  11.475  0.2028  0.5775 -0.2957
  838MPD2    C512372   0.558   2.945  11.350  0.5182  0.0060 -0.4192
  838MPD2     H12373   0.670   3.224  11.588 -0.7532 -0.0194 -1.2294
  838MPD2    H112374   0.438   2.868  11.498 -0.3950  1.7488  1.8383
  838MPD2    H212375   0.689   3.027  11.205  0.3411 -2.5508  0.4756
  838MPD2    H312376   0.534   2.858  11.291  0.2803  0.1276 -0.5017
  838MPD2     N12377   0.480   3.073  11.683  0.1335 -0.2601 -0.2574
  838MPD2    H512378   0.500   3.156  11.738  1.5275 -1.4492  1.0497
  838MPD2    N112379   0.796   3.225  11.344  0.0247  0.6326  0.0277
  838MPD2    H712380   0.834   3.211  11.251 -0.4076  0.0240 -0.0590
  839MPD2     C12381   0.849   3.044  11.976 -0.4631  0.6397  0.5631
  839MPD2    C112382   0.869   2.971  11.865 -0.2874  0.3477 -0.1226
  839MPD2    C212383   0.970   3.013  11.776  0.0926  0.5036 -0.0568
  839MPD2    C312384   1.042   3.133  11.792  0.3015  0.4200 -0.0465
  839MPD2    C412385   1.017   3.204  11.912 -0.2944  0.0943 -0.4587
  839MPD2    C512386   0.912   3.176  11.993  0.6999  0.0606 -0.4069
  839MPD2     H12387   0.988   2.957  11.684 -0.7975 -2.1016  1.3548
  839MPD2    H112388   1.074   3.290  11.944 -0.8393 -0.3565  1.7933
  839MPD2    H212389   0.785   3.004  12.054 -0.8049 -2.6801 -1.4044
  839MPD2    H312390   0.889   3.233  12.082  1.8909 -0.1897  0.0615
  839MPD2     N12391   1.134   3.183  11.700  0.0732  0.5588 -0.0642
  839MPD2    H512392   1.173   3.276  11.715 -0.2322  0.6663  0.0505
  839MPD2    N112393   0.803   2.849  11.838 -0.1622  0.3529 -0.1721
  839MPD2    H712394   0.832   2.790  11.760 -0.2321 -0.2973  0.3033
  840MPD2     C12395   1.192   1.619  10.344  0.1863 -0.3805 -0.0732
  840MPD2    C112396   1.135   1.516  10.425  0.0658 -0.2431  0.4116
  840MPD2    C212397   1.177   1.495  10.553  0.1428  1.2526 -0.2533
  840MPD2    C312398   1.295   1.571  10.601  0.3069  0.1724  0.3204
  840MPD2    C412399   1.355   1.666  10.524 -0.0480  0.5211  0.4078
  840MPD2    C512400   1.300   1.695  10.400 -0.1933  0.7221  0.2793
  840MPD2     H12401   1.145   1.408  10.608  3.7117  0.1389  0.0703
  840MPD2    H112402   1.442   1.726  10.550  2.9646 -2.8609 -1.7894
  840MPD2    H212403   1.151   1.657  10.251  1.1934  1.6388  0.3146
  840MPD2    H312404   1.331   1.782  10.343 -0.0050  0.0869 -0.5975
  840MPD2     N12405   1.359   1.551  10.728 -0.1786  0.6153 -0.0267
  840MPD2    H512406   1.431   1.617  10.756  0.4403 -0.0727  0.0142
  840MPD2    N112407   1.027   1.432  10.374 -0.4429  0.2111  0.3139
  840MPD2    H712408   1.015   1.434  10.274  1.9970  1.1884  0.0306
  841MPD2     C12409   0.449   0.939  14.570  0.0690 -0.3345 -0.4267
  841MPD2    C112410   0.458   0.805  14.596 -0.4722 -0.0784  0.2892
  841MPD2    C212411   0.579   0.753  14.633  0.2530 -0.7343 -0.5901
  841MPD2    C312412   0.695   0.826  14.653  0.4780 -0.1623 -0.6930
  841MPD2    C412413   0.683   0.963  14.633 -0.0325  0.9598 -0.1418
  841MPD2    C512414   0.565   1.014  14.585 -0.6935 -0.0351  0.5645
  841MPD2     H12415   0.587   0.645  14.644 -2.2743 -0.8732 -0.2207
  841MPD2    H112416   0.772   1.024  14.620  0.8211 -0.0939  0.7893
  841MPD2    H212417   0.359   0.986  14.533  0.0560 -0.0049  0.0344
  841MPD2    H312418   0.565   1.118  14.553 -0.2691  0.5436  2.4247
  841MPD2     N12419   0.824   0.763  14.666  0.4142 -0.0963  0.1576
  841MPD2    H512420   0.826   0.662  14.675  1.5625 -0.1091 -0.2306
  841MPD2    N112421   0.352   0.714  14.578  0.2254 -0.2745 -0.2746
  841MPD2    H712422   0.373   0.615  14.584  0.8559 -0.1049  0.2823
  842MPD2     C12423   0.738   1.455  16.497  0.4214 -0.7888  0.0474
  842MPD2    C112424   0.670   1.340  16.464 -0.4127 -0.3691  0.2860
  842MPD2    C212425   0.699   1.231  16.539  0.4633 -0.1045 -0.2860
  842MPD2    C312426   0.772   1.229  16.650 -0.2524 -0.7032 -0.5860
  842MPD2    C412427   0.841   1.342  16.689 -0.0630  0.4053 -0.0593
  842MPD2    C512428   0.827   1.455  16.608  0.2958 -0.1726 -0.3508
  842MPD2     H12429   0.645   1.138  16.528  2.6969 -1.6545  1.8783
  842MPD2    H112430   0.900   1.342  16.780  2.6040  0.8336 -1.8146
  842MPD2    H212431   0.712   1.552  16.455  0.8255  0.3315  2.4186
  842MPD2    H312432   0.882   1.543  16.639  1.0231 -0.8824  0.3835
  842MPD2     N12433   0.788   1.121  16.739 -1.0019 -0.4117 -0.3176
  842MPD2    H512434   0.851   1.130  16.818  0.4177  0.3689 -1.5362
  842MPD2    N112435   0.589   1.346  16.344 -0.3222 -0.2003 -0.0862
  842MPD2    H712436   0.604   1.430  16.288  1.0887  0.6180  1.5169
  843MPD2     C12437   2.926   2.161  17.335  0.2613  0.2733 -0.1334
  843MPD2    C112438   2.931   2.124  17.460  0.0013 -0.7258 -0.5670
  843MPD2    C212439   3.038   2.167  17.534  0.0271  0.0673 -0.8440
  843MPD2    C312440   3.141   2.245  17.480 -0.1492  0.6038  0.1046
  843MPD2    C412441   3.119   2.298  17.357 -0.0040 -0.5983  0.0797
  843MPD2    C512442   3.013   2.252  17.292  0.6778 -0.1042 -0.1423
  843MPD2     H12443   3.044   2.121  17.632  1.1462  0.4010 -0.7465
  843MPD2    H112444   3.194   2.358  17.307 -0.3779  1.1994  1.7039
  843MPD2    H212445   2.845   2.124  17.273  0.7839  0.2345 -0.7970
  843MPD2    H312446   3.000   2.279  17.188 -1.9141  0.9187  0.4575
  843MPD2     N12447   3.258   2.286  17.548 -0.4378 -0.5105  0.7177
  843MPD2    H512448   3.319   2.353  17.503 -0.3609 -1.6360 -0.8687
  843MPD2    N112449   2.830   2.042  17.509 -0.3387  0.6771  0.4889
  843MPD2    H712450   2.753   2.022  17.446  2.1438 -2.2781 -1.5855
  844MPD2     C12451   1.131   0.389  16.309 -0.6033 -0.0817  0.5367
  844MPD2    C112452   1.266   0.361  16.311  0.3732 -0.4117 -0.3991
  844MPD2    C212453   1.348   0.422  16.404 -0.0056 -0.0356 -0.6683
  844MPD2    C312454   1.297   0.520  16.486  0.5710 -1.2694  0.6044
  844MPD2    C412455   1.159   0.534  16.503  0.2337  0.8240  0.6022
  844MPD2    C512456   1.078   0.465  16.416  0.5666 -0.6353  0.3745
  844MPD2     H12457   1.455   0.417  16.392  0.1460 -0.5424  0.9008
  844MPD2    H112458   1.115   0.590  16.585 -3.3846  0.4385 -1.1023
  844MPD2    H212459   1.061   0.343  16.241 -1.5329  0.8886  0.8222
  844MPD2    H312460   0.970   0.471  16.427  0.6191  2.0908 -0.5832
  844MPD2     N12461   1.393   0.595  16.553 -0.6262 -0.3134 -0.8766
  844MPD2    H512462   1.489   0.563  16.554 -0.3911  0.3928 -1.6892
  844MPD2    N112463   1.332   0.302  16.199 -0.5533 -0.0399  0.2912
  844MPD2    H712464   1.433   0.306  16.210 -0.5090  0.3981 -0.2552
  845MPD2     C12465   1.795   1.551  16.526  0.3493  0.2406  0.7092
  845MPD2    C112466   1.876   1.502  16.629  0.5376 -0.0802  0.0019
  845MPD2    C212467   1.854   1.380  16.683  0.6458  1.0739 -0.0880
  845MPD2    C312468   1.753   1.300  16.633 -0.4138 -0.0222 -0.2117
  845MPD2    C412469   1.677   1.349  16.530  0.9356 -0.1947  0.3159
  845MPD2    C512470   1.706   1.469  16.471  0.0089 -0.8679  0.2568
  845MPD2     H12471   1.918   1.345  16.763 -0.7370  0.7770  0.8943
  845MPD2    H112472   1.601   1.290  16.480 -0.3355  1.8513 -0.1388
  845MPD2    H212473   1.806   1.645  16.473 -0.6271  0.1729  0.3712
  845MPD2    H312474   1.651   1.504  16.384 -3.2451 -0.6180  2.3830
  845MPD2     N12475   1.729   1.178  16.692  0.1528  0.0691 -0.0925
  845MPD2    H512476   1.788   1.142  16.767 -0.7038  3.1578  2.0695
  845MPD2    N112477   1.970   1.593  16.677  0.0316  0.0766 -0.0016
  845MPD2    H712478   1.970   1.684  16.633  0.9889  0.3596  0.5979
  846MPD2     C12479   3.244   2.036  13.331  0.3591 -0.4781  0.6740
  846MPD2    C112480   3.261   2.172  13.348 -0.3849 -0.5977 -0.5333
  846MPD2    C212481   3.278   2.223  13.471 -0.2958 -0.4333  0.4399
  846MPD2    C312482   3.276   2.144  13.584 -0.0778  0.7185 -0.7073
  846MPD2    C412483   3.252   2.004  13.574  0.5014 -0.1428  0.5125
  846MPD2    C512484   3.241   1.954  13.443  0.1193 -0.0738 -0.2635
  846MPD2     H12485   3.305   2.327  13.489 -0.3493 -0.6180  1.5710
  846MPD2    H112486   3.251   1.938  13.659 -1.6260 -0.9298 -0.1341
  846MPD2    H212487   3.231   1.979  13.239  2.6404  0.1516 -0.0473
  846MPD2    H312488   3.234   1.847  13.428 -1.0926  0.0099 -0.2950
  846MPD2     N12489   3.290   2.213  13.708  0.3303 -0.5718 -0.1519
  846MPD2    H512490   3.283   2.313  13.719 -1.7558 -0.7277  0.0618
  846MPD2    N112491   3.274   2.260  13.242 -0.2503  0.2466 -0.0173
  846MPD2    H712492   3.289   2.358  13.265 -1.4667  0.4955 -0.2866
  847MPD2     C12493   3.264   2.574  15.008  0.4508 -0.2414  0.0767
  847MPD2    C112494   3.381   2.649  15.011 -0.0786 -0.0764  0.0089
  847MPD2    C212495   3.500   2.599  15.071  0.4085  0.3115 -0.4803
  847MPD2    C312496   3.499   2.477  15.136  0.2358  0.5179 -0.5704
  847MPD2    C412497   3.377   2.402  15.125  0.1845 -0.0892  0.7937
  847MPD2    C512498   3.265   2.456  15.069  0.2237  0.2094 -0.5045
  847MPD2     H12499   3.592   2.655  15.059  0.6065  0.2397  0.6547
  847MPD2    H112500   3.368   2.298  15.156 -3.0685 -0.5906 -1.8015
  847MPD2    H212501   3.172   2.612  14.964  1.6621  0.9259 -1.4345
  847MPD2    H312502   3.179   2.394  15.045 -1.2490  2.1581 -0.3320
  847MPD2     N12503   3.608   2.435  15.205  0.0393  0.6867 -0.2016
  847MPD2    H512504   3.690   2.495  15.202  0.7663 -0.2704  0.8642
  847MPD2    N112505   3.390   2.776  14.952  0.1147 -0.2055  0.2456
  847MPD2    H712506   3.486   2.807  14.947 -0.6079  1.9305 -0.1953
  848MPD2     C12507   1.009   1.221  16.344 -0.2728 -0.1847  0.1088
  848MPD2    C112508   1.110   1.272  16.420  0.2719 -0.9871 -0.3870
  848MPD2    C212509   1.192   1.371  16.358  0.2188 -0.9287  0.5289
  848MPD2    C312510   1.161   1.422  16.239 -0.0620  0.6632  0.1293
  848MPD2    C412511   1.043   1.385  16.177  0.2559 -0.0724  0.1416
  848MPD2    C512512   0.972   1.278  16.227  0.3439  0.4157  0.2969
  848MPD2     H12513   1.280   1.407  16.410 -0.1436 -0.7380  1.0161
  848MPD2    H112514   1.006   1.438  16.089  0.6230  0.5149  0.3429
  848MPD2    H212515   0.950   1.135  16.371  1.5057 -0.9927  1.4499
  848MPD2    H312516   0.895   1.231  16.165  0.0143 -0.2045  1.1730
  848MPD2     N12517   1.235   1.519  16.168 -0.0952 -0.1209 -0.2215
  848MPD2    H512518   1.182   1.555  16.089 -0.8024  0.2661  0.4207
  848MPD2    N112519   1.143   1.206  16.539 -0.8189 -0.2169 -0.0904
  848MPD2    H712520   1.101   1.114  16.553  0.5550 -0.9090 -0.5592
  849MPD2     C12521   0.354   0.622  14.152  0.4981 -0.4996  0.8728
  849MPD2    C112522   0.404   0.748  14.134  0.1549 -0.6114 -0.3409
  849MPD2    C212523   0.530   0.771  14.193  0.1405  0.1344  1.2407
  849MPD2    C312524   0.606   0.679  14.256 -0.0600  0.4187  0.0192
  849MPD2    C412525   0.558   0.556  14.279  0.4452 -0.7412  0.3447
  849MPD2    C512526   0.430   0.534  14.222  0.0906 -0.2508  0.0276
  849MPD2     H12527   0.581   0.863  14.167 -0.0328  0.2006  1.1340
  849MPD2    H112528   0.618   0.477  14.324 -0.3219 -0.6168  1.5884
  849MPD2    H212529   0.253   0.594  14.123  0.5884 -0.8963  0.9553
  849MPD2    H312530   0.393   0.434  14.242 -0.6610  0.2465  1.1246
  849MPD2     N12531   0.740   0.702  14.291  0.2343 -0.2573  0.6000
  849MPD2    H512532   0.800   0.621  14.307  1.8375  0.8689  0.3537
  849MPD2    N112533   0.337   0.847  14.063 -0.2736 -0.7059  0.3507
  849MPD2    H712534   0.238   0.829  14.049 -0.1090 -0.6320 -0.9271
  850MPD2     C12535   4.019   3.473  14.884  0.1056 -0.4693 -0.2860
  850MPD2    C112536   3.979   3.503  15.012 -0.6954  0.4520 -0.2164
  850MPD2    C212537   4.066   3.590  15.085 -0.2915 -0.2968  0.3234
  850MPD2    C312538   4.183   3.646  15.030  0.3406  0.2615  0.7859
  850MPD2    C412539   4.208   3.606  14.903 -0.2233 -0.3183 -1.2532
  850MPD2    C512540   4.124   3.528  14.822 -0.5551  0.7264  0.2284
  850MPD2     H12541   4.040   3.613  15.188 -0.7580  1.8700 -0.2825
  850MPD2    H112542   4.298   3.641  14.853  0.0379  1.9289  0.8543
  850MPD2    H212543   3.957   3.406  14.827  1.3000 -0.6358 -1.3962
  850MPD2    H312544   4.141   3.503  14.718  0.9915  0.7205  0.4891
  850MPD2     N12545   4.253   3.737  15.105  0.2353  0.3648 -0.4634
  850MPD2    H512546   4.202   3.788  15.177 -1.0644 -0.7097 -0.6360
  850MPD2    N112547   3.855   3.460  15.053 -0.0315 -0.0781  0.2012
  850MPD2    H712548   3.797   3.403  14.992 -0.2035  0.7327 -0.3969
  851MPD2     C12549   3.701   2.926  15.542  0.4354 -0.0013  0.5288
  851MPD2    C112550   3.595   2.954  15.458 -0.0738  0.1025 -0.0333
  851MPD2    C212551   3.487   2.869  15.455 -1.1164 -0.1762 -0.9297
  851MPD2    C312552   3.496   2.743  15.511 -0.0067  0.1637  0.0877
  851MPD2    C412553   3.598   2.717  15.599 -0.4353  0.1280  0.4371
  851MPD2    C512554   3.694   2.810  15.619  0.2133 -0.1845  0.1450
  851MPD2     H12555   3.409   2.891  15.383 -1.2191 -0.3138 -0.8589
  851MPD2    H112556   3.599   2.625  15.655 -3.3711 -0.4549 -0.4781
  851MPD2    H212557   3.792   2.983  15.550  0.7222 -0.3748 -0.0396
  851MPD2    H312558   3.772   2.782  15.688  1.1481 -2.0821 -1.6655
  851MPD2     N12559   3.391   2.649  15.487  0.2287  0.0320 -0.2665
  851MPD2    H512560   3.309   2.679  15.435  0.1271  0.5737  0.2130
  851MPD2    N112561   3.592   3.081  15.394  0.6396 -0.3776  0.8301
  851MPD2    H712562   3.668   3.142  15.423  0.2652  0.9673 -1.0362
  852MPD2     C12563   3.175   2.179  10.418  0.2423 -0.3782  0.1258
  852MPD2    C112564   3.266   2.246  10.506  0.6925  0.0926  0.2214
  852MPD2    C212565   3.348   2.338  10.450  0.2564 -0.6412 -0.0570
  852MPD2    C312566   3.350   2.359  10.310 -0.1830 -0.8054 -0.1658
  852MPD2    C412567   3.266   2.285  10.227  0.0751 -0.1753  0.3143
  852MPD2    C512568   3.181   2.195  10.282 -0.2710  0.7049 -0.2718
  852MPD2     H12569   3.405   2.406  10.514  0.4040  1.0029 -1.9313
  852MPD2    H112570   3.278   2.296  10.120 -3.0206  3.3030  0.3268
  852MPD2    H212571   3.105   2.109  10.461 -0.7735 -1.0799 -2.6375
  852MPD2    H312572   3.127   2.132  10.212 -1.2923  1.0574  0.1948
  852MPD2     N12573   3.456   2.441  10.258  0.0757  0.1174 -0.2360
  852MPD2    H512574   3.513   2.488  10.328 -2.3298  0.4548  1.5110
  852MPD2    N112575   3.258   2.229  10.649  0.0796  0.6597  0.0247
  852MPD2    H712576   3.318   2.289  10.705 -0.0293  0.0461  0.7973
  853MPD2     C12577   0.355   1.517  12.462 -0.0040  0.7099  0.6666
  853MPD2    C112578   0.287   1.633  12.436 -0.3557 -0.8055 -0.0370
  853MPD2    C212579   0.320   1.696  12.319 -0.5441 -0.3827  0.9562
  853MPD2    C312580   0.415   1.646  12.224 -0.5766 -0.0983 -0.0296
  853MPD2    C412581   0.476   1.529  12.257 -0.1821  0.1673  0.2843
  853MPD2    C512582   0.447   1.465  12.370 -0.3160 -0.6820  0.4633
  853MPD2     H12583   0.280   1.796  12.307 -1.1610 -0.5789  1.3790
  853MPD2    H112584   0.548   1.475  12.198  0.3551  0.9351  0.2464
  853MPD2    H212585   0.317   1.461  12.547  2.8382  0.9001  2.0707
  853MPD2    H312586   0.511   1.380  12.388  0.7604  0.6617  3.1052
  853MPD2     N12587   0.454   1.708  12.104 -0.1568  0.3217 -0.2817
  853MPD2    H512588   0.536   1.667  12.060 -0.7309  0.8462 -1.8487
  853MPD2    N112589   0.203   1.690  12.538 -0.6383  1.1841 -0.1582
  853MPD2    H712590   0.215   1.641  12.626  2.2771  0.4443 -0.9643
  854MPD2     C12591   2.038   1.520  12.471  0.6754  0.1181 -0.2299
  854MPD2    C112592   1.984   1.487  12.590  0.8114  0.0351 -0.1634
  854MPD2    C212593   2.070   1.461  12.692  0.3766  0.6806  0.0884
  854MPD2    C312594   2.209   1.436  12.670  0.1354 -0.5284 -0.3840
  854MPD2    C412595   2.247   1.425  12.535 -0.1789  0.5190  0.1763
  854MPD2    C512596   2.154   1.466  12.439 -0.6274  0.2340 -0.4356
  854MPD2     H12597   2.030   1.457  12.792  0.6791  0.3848  0.1989
  854MPD2    H112598   2.350   1.398  12.513 -1.5610 -2.0082 -3.1425
  854MPD2    H212599   1.977   1.551  12.387 -0.5697  1.0207  0.9972
  854MPD2    H312600   2.189   1.466  12.336  1.6900 -1.0976  0.3417
  854MPD2     N12601   2.305   1.403  12.771  0.2561  0.4412 -1.1789
  854MPD2    H512602   2.401   1.381  12.745 -0.3456 -1.3748 -1.8577
  854MPD2    N112603   1.850   1.525  12.613 -0.4041  0.1831  0.4667
  854MPD2    H712604   1.799   1.585  12.549 -0.7235  0.0687  0.6139
  855MPD2     C12605   2.607   1.645  13.680  0.3257 -0.3659  0.0116
  855MPD2    C112606   2.540   1.522  13.690  0.2683 -0.0667  0.6416
  855MPD2    C212607   2.503   1.464  13.567  0.4079 -0.0949 -0.3045
  855MPD2    C312608   2.544   1.515  13.446  0.0990  0.0920 -0.6696
  855MPD2    C412609   2.593   1.645  13.442 -0.2723  0.5406 -0.9639
  855MPD2    C512610   2.622   1.705  13.556 -0.0471  0.3871  0.2940
  855MPD2     H12611   2.451   1.369  13.571  0.4966 -0.1305 -0.0449
  855MPD2    H112612   2.606   1.706  13.353 -1.4405  2.5918  0.2814
  855MPD2    H212613   2.629   1.704  13.768  1.3682 -1.2694  0.3667
  855MPD2    H312614   2.668   1.803  13.554  1.1897 -0.2356 -1.8621
  855MPD2     N12615   2.518   1.446  13.328  0.6631 -0.6869 -0.8960
  855MPD2    H512616   2.503   1.499  13.242  0.4635 -0.8844 -0.9821
  855MPD2    N112617   2.501   1.471  13.813  0.0618  0.0933  0.3595
  855MPD2    H712618   2.544   1.501  13.900  1.5809  2.6570 -1.2390
  856MPD2     C12619   4.303   2.195  13.799  0.0830  0.2840 -0.0424
  856MPD2    C112620   4.349   2.312  13.857  0.2104  0.2007 -0.5129
  856MPD2    C212621   4.288   2.429  13.835 -0.1550 -0.7707  0.3884
  856MPD2    C312622   4.162   2.431  13.781  0.1731  0.5236  0.3665
  856MPD2    C412623   4.121   2.310  13.726  0.0781 -0.3987  0.3664
  856MPD2    C512624   4.188   2.197  13.727 -0.3706 -0.5036  0.6746
  856MPD2     H12625   4.334   2.522  13.866  3.1788 -2.4641  0.4260
  856MPD2    H112626   4.028   2.312  13.670  1.4974  0.8792 -1.9500
  856MPD2    H212627   4.357   2.101  13.806 -1.5684 -0.7692 -1.6044
  856MPD2    H312628   4.151   2.108  13.678  1.5145 -0.7679 -0.2578
  856MPD2     N12629   4.084   2.548  13.783 -0.1648  0.3813  0.2109
  856MPD2    H512630   3.994   2.531  13.738  0.1508  0.6731 -0.5259
  856MPD2    N112631   4.468   2.310  13.932 -1.2033  0.3677 -0.4064
  856MPD2    H712632   4.499   2.399  13.971 -0.3235 -0.6438  1.2102
  857MPD2     C12633   0.906   4.573  12.842 -0.4177 -0.2060 -0.1268
  857MPD2    C112634   1.027   4.525  12.885  0.2134 -0.0733 -0.4735
  857MPD2    C212635   1.093   4.587  12.993 -1.3632 -0.5262  0.3443
  857MPD2    C312636   1.035   4.696  13.053 -0.0012 -0.4023 -0.0991
  857MPD2    C412637   0.906   0.000  13.016  0.3477 -0.3903  0.1238
  857MPD2    C512638   0.839   4.661  12.922  0.1845 -0.1662  0.7686
  857MPD2     H12639   1.195   4.561  13.018 -1.3856  0.4600  1.4676
  857MPD2    H112640   0.847   0.081  13.060 -0.9981 -0.9809 -0.5848
  857MPD2    H212641   0.846   4.531  12.762 -0.3590 -0.8632  0.1765
  857MPD2    H312642   0.744   4.699  12.888 -1.0972 -2.1969  2.0854
  857MPD2     N12643   1.119   0.030  13.140 -0.6813  0.5629  0.3736
  857MPD2    H512644   1.218   0.007  13.143 -0.5339  1.3229  1.2305
  857MPD2    N112645   1.068   4.405  12.827  0.2819 -0.1631  0.2120
  857MPD2    H712646   1.003   4.371  12.756  1.9206  1.3643 -2.0130
  858MPD2     C12647   1.274   3.210  16.809 -0.9280 -0.0331 -0.5835
  858MPD2    C112648   1.390   3.210  16.733  0.2546  0.0558 -0.0518
  858MPD2    C212649   1.457   3.332  16.719  0.9962 -0.6324  0.2522
  858MPD2    C312650   1.418   3.449  16.780  0.0511 -0.4452 -0.0395
  858MPD2    C412651   1.303   3.448  16.859 -0.7486  0.1716  0.4021
  858MPD2    C512652   1.237   3.330  16.870 -0.0756 -0.1420 -0.6631
  858MPD2     H12653   1.553   3.326  16.670  0.2894 -0.9389 -1.1003
  858MPD2    H112654   1.263   3.531  16.916 -0.0069  0.0776  1.0643
  858MPD2    H212655   1.220   3.122  16.841 -2.8022 -0.0737 -3.9701
  858MPD2    H312656   1.151   3.325  16.936  2.3709  0.9292  2.6051
  858MPD2     N12657   1.488   3.569  16.767  0.2675  0.4367 -0.0611
  858MPD2    H512658   1.446   3.647  16.817  0.0758  2.0712 -2.7597
  858MPD2    N112659   1.430   3.087  16.671  0.2971 -0.8378  0.0916
  858MPD2    H712660   1.368   3.010  16.690  0.6598 -0.6872  1.9498
  859MPD2     C12661   0.234   0.848  15.236  0.2637 -0.0039 -0.3581
  859MPD2    C112662   0.358   0.819  15.184 -1.1521 -0.5826 -0.4880
  859MPD2    C212663   0.405   0.692  15.202 -0.2197 -0.2855  0.4690
  859MPD2    C312664   0.330   0.599  15.278 -0.4975 -0.3110 -0.3808
  859MPD2    C412665   0.212   0.636  15.339 -0.0620  0.3642 -0.4252
  859MPD2    C512666   0.167   0.765  15.318 -0.1455 -0.4497 -0.6006
  859MPD2     H12667   0.507   0.664  15.176 -0.3296 -1.3268  1.1497
  859MPD2    H112668   0.150   0.569  15.397 -0.1902  0.7818 -0.0773
  859MPD2    H212669   0.188   0.943  15.214  1.9750  1.1049  0.8048
  859MPD2    H312670   0.069   0.782  15.361  0.3780  0.4617  0.2580
  859MPD2     N12671   0.369   0.463  15.306  0.5103 -0.6759  0.1250
  859MPD2    H512672   0.315   0.409  15.373  3.2280 -2.1153  1.1096
  859MPD2    N112673   0.432   0.928  15.129 -0.2953 -0.2803 -0.2546
  859MPD2    H712674   0.384   1.017  15.129  0.7453  0.2684 -0.1037
  860MPD2     C12675   3.866   1.426  11.975  0.2781 -0.5734  0.1388
  860MPD2    C112676   3.777   1.527  12.003  0.2011  0.4451  0.1661
  860MPD2    C212677   3.657   1.484  12.056  0.3032  0.7667 -0.5675
  860MPD2    C312678   3.631   1.353  12.088  0.6450 -0.5153 -0.8186
  860MPD2    C412679   3.724   1.254  12.058  0.0461 -0.1141 -0.1018
  860MPD2    C512680   3.841   1.296  12.007  0.3883  0.1924  0.4875
  860MPD2     H12681   3.583   1.557  12.087 -0.1214  1.0794 -2.3265
  860MPD2    H112682   3.715   1.150  12.086 -0.3758 -0.2051 -0.5579
  860MPD2    H212683   3.958   1.445  11.922 -0.9922  0.2773 -1.7682
  860MPD2    H312684   3.921   1.225  11.988 -0.0841 -0.3989  0.6738
  860MPD2     N12685   3.506   1.328  12.152 -0.1700  0.5146 -0.0660
  860MPD2    H512686   3.446   1.405  12.182 -0.8549 -0.5052  1.1797
  860MPD2    N112687   3.800   1.663  11.990  0.5956 -0.2771 -0.5080
  860MPD2    H712688   3.728   1.722  12.030 -0.2708 -0.5957 -1.6030
  861MPD2     C12689   2.160   4.145  10.797 -0.4476  0.3017 -0.5747
  861MPD2    C112690   2.109   4.268  10.826 -0.0392 -0.1383 -0.7540
  861MPD2    C212691   2.072   4.348  10.712  0.0147 -0.4323 -0.7638
  861MPD2    C312692   2.074   4.303  10.586  0.1285 -0.4634  0.0057
  861MPD2    C412693   2.138   4.182  10.563  0.7519  0.0263  0.3699
  861MPD2    C512694   2.171   4.107  10.668  0.2995 -0.1821 -0.2648
  861MPD2     H12695   2.039   4.449  10.735  1.4315  0.0044 -0.6787
  861MPD2    H112696   2.151   4.148  10.461 -0.5482  1.1684 -0.1837
  861MPD2    H212697   2.196   4.074  10.871  0.7015 -2.3684 -3.6733
  861MPD2    H312698   2.217   4.011  10.645 -0.0910 -0.7242  1.1781
  861MPD2     N12699   2.006   4.367  10.482 -0.2472  0.3380 -0.7818
  861MPD2    H512700   2.023   4.327  10.390 -0.8939 -0.7227 -0.4447
  861MPD2    N112701   2.086   4.319  10.959  0.0773  0.0212  0.1426
  861MPD2    H712702   2.080   4.421  10.963  1.2181  0.0835  0.2169
  862MPD2     C12703   1.411   4.139  10.246 -0.9571  0.4628 -0.7058
  862MPD2    C112704   1.513   4.155  10.340  0.0648 -0.3285  0.1486
  862MPD2    C212705   1.513   4.076  10.453 -0.0508  0.1893 -0.0946
  862MPD2    C312706   1.414   3.984  10.487 -0.4323 -0.1107  0.4364
  862MPD2    C412707   1.323   3.956  10.390 -0.3976 -0.5386  0.3227
  862MPD2    C512708   1.325   4.035  10.272  0.6826  0.2060 -0.5654
  862MPD2     H12709   1.592   4.088  10.526 -0.0333 -1.0956  0.0968
  862MPD2    H112710   1.241   3.887  10.404 -0.4573 -0.7011 -0.8400
  862MPD2    H212711   1.401   4.180  10.146 -0.2211 -2.2350 -1.8919
  862MPD2    H312712   1.266   4.009  10.185 -0.3018 -3.3456  1.1880
  862MPD2     N12713   1.404   3.921  10.608 -0.0700 -0.2312 -0.3164
  862MPD2    H512714   1.312   3.885  10.629 -0.1488 -0.2149 -0.6399
  862MPD2    N112715   1.604   4.258  10.333  0.5166 -0.1442 -0.0715
  862MPD2    H712716   1.666   4.261  10.412 -0.5362 -0.9619  0.7869
  863MPD2     C12717   0.248   2.188  16.737 -0.0717  0.0765  0.0876
  863MPD2    C112718   0.259   2.322  16.769 -0.0283 -0.2347 -0.4630
  863MPD2    C212719   0.331   2.347  16.881 -0.1229  0.0626  0.1784
  863MPD2    C312720   0.396   2.249  16.953 -0.5246  0.3990  0.4873
  863MPD2    C412721   0.372   2.116  16.925  0.6326 -0.2149 -0.1238
  863MPD2    C512722   0.302   2.088  16.808  0.0351 -0.1758 -0.0206
  863MPD2     H12723   0.331   2.450  16.916  1.5231  0.4531 -0.9723
  863MPD2    H112724   0.413   2.037  16.987 -0.0055  0.0190  0.5951
  863MPD2    H212725   0.205   2.153  16.643 -1.0561 -0.0303  0.5770
  863MPD2    H312726   0.294   1.983  16.784  0.6484  0.0851 -1.3209
  863MPD2     N12727   0.476   2.281  17.069 -0.2407 -0.2549 -0.8298
  863MPD2    H512728   0.496   2.198  17.124 -1.4570 -0.6261 -0.9552
  863MPD2    N112729   0.198   2.425  16.689  0.5870 -0.1916 -0.5417
  863MPD2    H712730   0.142   2.401  16.608  0.4924 -0.2414 -0.4613
  864MPD2     C12731   0.750   4.322  17.151 -0.4830  0.9045  0.3291
  864MPD2    C112732   0.761   4.216  17.062  0.7119  0.1656 -0.0412
  864MPD2    C212733   0.848   4.214  16.950 -0.0273 -0.1933  0.2179
  864MPD2    C312734   0.907   4.338  16.922  0.1827 -0.0880  1.0887
  864MPD2    C412735   0.883   4.453  17.003  0.3731  0.4379 -0.0561
  864MPD2    C512736   0.813   4.440  17.118 -0.0528 -0.4252 -0.1476
  864MPD2     H12737   0.870   4.127  16.889  2.4983  0.3863  0.3020
  864MPD2    H112738   0.915   4.553  16.976 -1.7583  0.8729 -0.9756
  864MPD2    H212739   0.692   4.311  17.242  1.5400  0.5153  1.5615
  864MPD2    H312740   0.792   4.526  17.180 -0.1409 -0.9697  0.5657
  864MPD2     N12741   0.980   4.361  16.809  0.1959  0.1606  0.2272
  864MPD2    H512742   0.989   4.458  16.782  0.5621 -0.0110 -0.2874
  864MPD2    N112743   0.701   4.095  17.107  0.3011 -0.4598 -0.4198
  864MPD2    H712744   0.639   4.100  17.187  0.0911 -2.1861 -0.4765
  865MPD2     C12745   0.872   4.317  15.898 -0.4753 -0.3423 -0.1300
  865MPD2    C112746   0.897   4.262  16.025 -0.3367 -0.1810 -0.1867
  865MPD2    C212747   0.917   4.347  16.133  0.0949  0.0919  0.4103
  865MPD2    C312748   0.924   4.488  16.117  0.4338  0.3235 -0.3919
  865MPD2    C412749   0.904   4.535  15.985  0.0205  0.0470 -0.0868
  865MPD2    C512750   0.875   4.451  15.878 -0.0927 -0.2127 -0.5194
  865MPD2     H12751   0.929   4.311  16.234 -0.3046  0.9819  0.7751
  865MPD2    H112752   0.888   4.640  15.969 -0.1360  0.4944  3.0117
  865MPD2    H212753   0.855   4.259  15.808 -1.2137 -0.3009 -0.0181
  865MPD2    H312754   0.846   4.491  15.782  0.2300  2.3608  0.4597
  865MPD2     N12755   0.933   4.587  16.221  0.3892  0.2352  0.1675
  865MPD2    H512756   0.927   4.682  16.186 -1.0618  0.3519  0.7352
  865MPD2    N112757   0.901   4.118  16.031  0.5170 -0.1869  0.2138
  865MPD2    H712758   0.887   4.071  15.942  0.9919  0.0273  0.0259
  866MPD2     C12759   2.760   0.183  11.179 -0.7070  0.6019  0.1230
  866MPD2    C112760   2.725   0.072  11.103 -0.3217  0.4900 -0.2888
  866MPD2    C212761   2.600   0.074  11.032 -0.1473 -0.2997 -0.1367
  866MPD2    C312762   2.514   0.187  11.037 -0.5677  0.0767 -0.0797
  866MPD2    C412763   2.562   0.295  11.108  0.2188  0.4164 -0.2122
  866MPD2    C512764   2.681   0.295  11.171 -0.4700 -0.4320 -0.2281
  866MPD2     H12765   2.567   4.732  10.965  1.8446  0.4400 -2.0044
  866MPD2    H112766   2.503   0.386  11.114 -2.4887 -1.4392  1.1877
  866MPD2    H212767   2.861   0.197  11.216 -0.6097 -0.0823  0.1268
  866MPD2    H312768   2.714   0.391  11.210 -2.0151 -0.7846  1.9031
  866MPD2     N12769   2.382   0.189  10.981  0.1231  0.7228 -0.4920
  866MPD2    H512770   2.330   0.275  10.996  0.3393  0.8399 -0.4070
  866MPD2    N112771   2.829   4.712  11.094  0.0858 -0.3690 -0.0277
  866MPD2    H712772   2.915   4.725  11.147  0.4508  0.7934 -0.9098
  867MPD2     C12773   4.288   3.981  16.517  0.2319 -0.2429 -1.2245
  867MPD2    C112774   4.332   3.923  16.634 -0.5328  0.2431 -0.1131
  867MPD2    C212775   4.282   3.983  16.752 -0.3009 -0.3181  0.2914
  867MPD2    C312776   4.192   4.091  16.748  0.1490 -0.3712 -0.1467
  867MPD2    C412777   4.153   4.140  16.627  0.3413  0.8897 -0.4502
  867MPD2    C512778   4.204   4.088  16.511 -0.7537  0.4187 -0.5396
  867MPD2     H12779   4.316   3.948  16.849  0.9395 -1.1910 -0.4704
  867MPD2    H112780   4.083   4.222  16.619  0.0763  0.8208  1.0892
  867MPD2    H212781   4.307   3.937  16.420 -0.0282  0.8195 -1.7586
  867MPD2    H312782   4.163   4.110  16.413 -0.2930  1.8973 -0.3938
  867MPD2     N12783   4.137   4.150  16.862  0.0742 -0.0615  0.4802
  867MPD2    H512784   4.072   4.226  16.844 -1.8972 -1.9642 -0.3450
  867MPD2    N112785   4.427   3.812  16.628 -0.0076 -0.7069  0.2199
  867MPD2    H712786   4.464   3.779  16.540 -1.4705  1.8093 -1.3224
  868MPD2     C12787   1.456   3.353  13.084 -0.4308 -0.1912 -0.8395
  868MPD2    C112788   1.452   3.245  13.166  0.1658  0.0105 -0.4337
  868MPD2    C212789   1.415   3.257  13.297 -0.3702  0.8155  1.3021
  868MPD2    C312790   1.363   3.381  13.335  0.2262  0.0963 -0.2339
  868MPD2    C412791   1.372   3.490  13.257  0.1853  0.0743  0.4269
  868MPD2    C512792   1.424   3.477  13.131 -0.3885 -0.4281  0.3330
  868MPD2     H12793   1.418   3.177  13.370  2.1115 -1.5610 -1.4180
  868MPD2    H112794   1.341   3.587  13.293  0.1695 -0.1280  0.9606
  868MPD2    H212795   1.496   3.331  12.986  2.5704  0.4379  0.2237
  868MPD2    H312796   1.416   3.569  13.073  0.0376  1.4191  3.1814
  868MPD2     N12797   1.306   3.381  13.459 -0.2755 -0.1911 -0.4430
  868MPD2    H512798   1.287   3.284  13.484 -0.7505 -0.1353 -0.5793
  868MPD2    N112799   1.500   3.121  13.111 -0.3467 -0.0022  0.8703
  868MPD2    H712800   1.533   3.134  13.016 -2.0364  1.9317  0.5428
  869MPD2     C12801   2.136   1.426   1.368  0.1656 -0.6650  0.2560
  869MPD2    C112802   2.009   1.425   1.317 -0.4723 -0.5998 -0.6805
  869MPD2    C212803   1.990   1.406   1.179  0.0322  0.2028  0.7611
  869MPD2    C312804   2.101   1.384   1.095  0.4963 -0.2519 -0.2762
  869MPD2    C412805   2.226   1.384   1.152  0.4877 -0.2680  0.0167
  869MPD2    C512806   2.240   1.413   1.286 -0.1795  0.0429 -0.4578
  869MPD2     H12807   1.890   1.395   1.138  0.2506  0.6381  0.1095
  869MPD2    H112808   2.312   1.359   1.091  0.6012  0.5584 -0.1521
  869MPD2    H212809   2.169   1.454   1.468 -0.3375 -1.5084  0.6604
  869MPD2    H312810   2.340   1.413   1.329 -0.2383 -1.5322 -0.3503
  869MPD2     N12811   2.094   1.371   0.959  0.1770  0.0171 -0.8252
  869MPD2    H512812   2.176   1.366   0.899  0.9562 -0.0951  0.2416
  869MPD2    N112813   1.902   1.442   1.412  0.1350 -0.4363 -0.1175
  869MPD2    H712814   1.920   1.480   1.504 -0.0324  0.8071 -0.5948
  870MPD2     C12815   1.782   4.093   1.674 -0.1297 -0.2772  1.0514
  870MPD2    C112816   1.776   4.049   1.541 -0.5194 -0.4617 -0.8031
  870MPD2    C212817   1.700   4.120   1.452 -0.4524 -0.4317  0.7418
  870MPD2    C312818   1.630   4.231   1.491  0.3446 -0.8558  0.0354
  870MPD2    C412819   1.648   4.278   1.615 -0.5821 -0.5136  0.0750
  870MPD2    C512820   1.717   4.204   1.708  0.2821 -0.1521 -0.3962
  870MPD2     H12821   1.681   4.080   1.353  0.6879  0.7928  0.0322
  870MPD2    H112822   1.608   4.370   1.655 -1.9563 -1.4737  0.9452
  870MPD2    H212823   1.840   4.035   1.744 -0.8022  0.0026  1.8449
  870MPD2    H312824   1.727   4.240   1.810  0.6918 -1.6164  0.0703
  870MPD2     N12825   1.554   4.306   1.397  0.0487 -0.0230  0.9588
  870MPD2    H512826   1.559   4.273   1.301 -1.7328 -1.0133  1.2077
  870MPD2    N112827   1.846   3.934   1.515 -0.4929 -0.9044 -0.0438
  870MPD2    H712828   1.900   3.901   1.595 -0.1459  0.5266  0.3049
  871MPD2     C12829   3.576   3.903  16.400 -0.3856  0.1948  0.2236
  871MPD2    C112830   3.521   3.817  16.493 -0.1750 -0.1720 -0.2549
  871MPD2    C212831   3.510   3.688  16.458 -0.5292  0.5212  0.2819
  871MPD2    C312832   3.582   3.638  16.351 -0.0764 -0.3348 -0.0866
  871MPD2    C412833   3.634   3.727  16.254 -0.0544  0.1119 -0.2045
  871MPD2    C512834   3.627   3.859  16.282 -0.4939 -0.2907 -0.2227
  871MPD2     H12835   3.475   3.616  16.531  0.6432  0.2188  0.5417
  871MPD2    H112836   3.699   3.698  16.173  0.6287 -1.1172  0.7865
  871MPD2    H212837   3.588   4.010  16.404  3.4314 -0.2110 -0.5191
  871MPD2    H312838   3.681   3.928  16.218 -0.1137  1.6098  2.1549
  871MPD2     N12839   3.595   3.499  16.336  0.4397  0.4376  0.8012
  871MPD2    H512840   3.560   3.437  16.408 -2.9544  0.1155 -1.1332
  871MPD2    N112841   3.481   3.873  16.615 -0.1929 -0.0549 -0.1550
  871MPD2    H712842   3.509   3.966  16.642  0.2627 -0.5036  0.9071
  872MPD2     C12843   4.117   1.810  14.401 -0.1667 -0.1831 -0.3693
  872MPD2    C112844   4.089   1.866  14.282  0.1011  0.3667 -0.0702
  872MPD2    C212845   3.960   1.919  14.258  0.6089  0.0967  0.1748
  872MPD2    C312846   3.860   1.903  14.356  0.9487  0.1343 -0.7100
  872MPD2    C412847   3.891   1.844  14.476  0.0013 -0.2312  1.3690
  872MPD2    C512848   4.022   1.804  14.498 -0.4677  0.3918  0.4497
  872MPD2     H12849   3.943   1.958  14.158  2.8784  1.6257  0.3971
  872MPD2    H112850   3.816   1.825  14.551 -1.9758 -1.6224 -0.9341
  872MPD2    H212851   4.215   1.777  14.431 -0.3117 -1.3709 -1.2268
  872MPD2    H312852   4.053   1.756  14.591  2.0172  0.4407 -0.3589
  872MPD2     N12853   3.723   1.947  14.343 -0.4918  0.6002 -0.3327
  872MPD2    H512854   3.664   1.908  14.416 -0.8960 -2.5718 -2.3479
  872MPD2    N112855   4.183   1.876  14.171 -0.0021  0.4375  0.3768
  872MPD2    H712856   4.140   1.889  14.080 -3.3941 -1.5339  1.7185
  873MPD2     C12857   0.829   1.092   0.585  0.6152 -0.6887  0.2316
  873MPD2    C112858   0.723   1.060   0.665  0.1080  0.4460 -0.1604
  873MPD2    C212859   0.673   0.935   0.663  0.2674 -0.3726  0.1913
  873MPD2    C312860   0.727   0.846   0.570 -0.4653  0.4219 -0.1813
  873MPD2    C412861   0.834   0.881   0.503  0.1563  1.1354  0.4309
  873MPD2    C512862   0.891   1.005   0.502  0.0098 -0.9492 -0.0325
  873MPD2     H12863   0.588   0.901   0.721  1.4685 -2.6305  0.6298
  873MPD2    H112864   0.877   0.810   0.433  0.5609  0.1872  1.6410
  873MPD2    H212865   0.858   1.197   0.589 -3.2430  0.3987  0.4145
  873MPD2    H312866   0.973   1.033   0.437  1.3688  0.1972  2.1567
  873MPD2     N12867   0.665   0.725   0.530 -0.2614  0.1108 -0.0921
  873MPD2    H512868   0.699   0.681   0.445  0.8880  0.3984  0.2147
  873MPD2    N112869   0.675   1.161   0.751  0.1884  0.1798 -0.2505
  873MPD2    H712870   0.729   1.246   0.761 -0.0947  0.3062  0.1855
  874MPD2     C12871   0.762   1.688  15.625  0.2805 -0.0820 -0.3222
  874MPD2    C112872   0.781   1.628  15.750 -0.0285 -0.4804  0.6538
  874MPD2    C212873   0.898   1.652  15.813  0.1963 -0.1276  0.0576
  874MPD2    C312874   0.998   1.731  15.758 -0.1622  1.2563  0.7667
  874MPD2    C412875   0.976   1.784  15.632 -0.7515 -0.9324  0.1260
  874MPD2    C512876   0.856   1.770  15.570 -0.6077  0.0061  0.2720
  874MPD2     H12877   0.909   1.615  15.914 -1.2168 -3.1157 -0.8964
  874MPD2    H112878   1.049   1.844  15.578 -0.3525 -0.6079  1.0120
  874MPD2    H212879   0.669   1.678  15.571 -0.0782  0.6755  0.1533
  874MPD2    H312880   0.836   1.806  15.470  0.4044 -0.3969 -0.0826
  874MPD2     N12881   1.105   1.753  15.844 -0.3715  0.4227 -0.6806
  874MPD2    H512882   1.098   1.718  15.939  1.3136 -0.1504 -0.7546
  874MPD2    N112883   0.675   1.548  15.800  0.3597  0.8508 -0.3488
  874MPD2    H712884   0.586   1.566  15.754  0.4479  1.5825 -0.2336
  875MPD2     C12885   2.126   4.704  14.468  0.7411  0.0567 -0.3889
  875MPD2    C112886   2.054   4.681  14.583  0.3409  0.5260  0.0873
  875MPD2    C212887   2.109   4.720  14.710 -0.0843 -0.4119  1.2114
  875MPD2    C312888   2.230   0.042  14.716  0.6521  0.7178 -0.2005
  875MPD2    C412889   2.288   0.079  14.598  0.3195  0.0537 -0.2542
  875MPD2    C512890   2.243   0.031  14.478  0.9597 -0.2099  0.3157
  875MPD2     H12891   2.056   4.685  14.798  0.0995  1.4148  2.0350
  875MPD2    H112892   2.381   0.133  14.611  0.2968  0.6564 -2.5270
  875MPD2    H212893   2.097   4.676  14.368  0.5122 -2.1097  0.2860
  875MPD2    H312894   2.301   0.050  14.388  0.9016 -2.7485 -0.2635
  875MPD2     N12895   2.302   0.065  14.835 -0.1445 -0.1856  0.1331
  875MPD2    H512896   2.388   0.116  14.822 -0.3856  0.3870  0.7784
  875MPD2    N112897   1.931   4.616  14.564 -0.0468 -0.2075  0.3538
  875MPD2    H712898   1.874   4.605  14.647  0.5747 -1.9342  0.5523
  876MPD2     C12899   0.531   1.233  15.642  0.1547 -0.1074 -0.1725
  876MPD2    C112900   0.664   1.202  15.667  0.1407 -0.0290 -0.7948
  876MPD2    C212901   0.685   1.111  15.773  0.2570 -0.3584  0.0907
  876MPD2    C312902   0.582   1.054  15.842 -0.4486  0.2432  0.2420
  876MPD2    C412903   0.452   1.084  15.802 -0.9385  0.0457 -0.0403
  876MPD2    C512904   0.429   1.172  15.702  0.0839  0.6708 -1.0356
  876MPD2     H12905   0.780   1.088  15.819 -0.1592 -0.2008  1.0264
  876MPD2    H112906   0.368   1.027  15.842 -1.7442  0.8656 -0.5521
  876MPD2    H212907   0.516   1.299  15.557 -1.0242  0.4249  0.4428
  876MPD2    H312908   0.331   1.188  15.659 -0.8383  0.7339  1.1072
  876MPD2     N12909   0.614   0.960  15.937 -0.3412  0.0660 -0.2891
  876MPD2    H512910   0.711   0.934  15.946 -0.3319  1.0448  2.3866
  876MPD2    N112911   0.763   1.269  15.591 -0.0412 -0.5802  0.1226
  876MPD2    H712912   0.722   1.346  15.539 -1.0316  0.1707  1.9917
  877MPD2     C12913   0.857   1.593  14.968 -0.4484 -0.3747 -0.4030
  877MPD2    C112914   0.982   1.627  15.017 -0.0168 -0.9358  0.0030
  877MPD2    C212915   1.070   1.693  14.936  0.3034  0.1674 -0.0937
  877MPD2    C312916   1.042   1.716  14.800 -0.5453  0.2467  0.7277
  877MPD2    C412917   0.917   1.684  14.752  0.1071  0.4741 -0.7121
  877MPD2    C512918   0.831   1.622  14.834  0.0125  0.1679 -0.2571
  877MPD2     H12919   1.159   1.729  14.986  1.0455 -2.4903  0.4880
  877MPD2    H112920   0.888   1.708  14.651  1.1551 -0.7490 -1.3087
  877MPD2    H212921   0.772   1.547  15.016 -1.7011  3.0348  0.6281
  877MPD2    H312922   0.737   1.590  14.790 -1.2916  1.7928  1.3426
  877MPD2     N12923   1.127   1.776  14.705  0.2734 -0.2583 -0.3512
  877MPD2    H512924   1.090   1.776  14.610  0.9029 -1.3143 -0.5974
  877MPD2    N112925   1.017   1.599  15.154  0.0475  0.5860 -0.1321
  877MPD2    H712926   1.115   1.609  15.177  0.1132  0.2941 -0.2900
  878MPD2     C12927   4.711   0.942  13.187 -0.8188  0.1803 -0.7645
  878MPD2    C112928   0.107   0.978  13.181 -0.3863 -0.5240 -0.1207
  878MPD2    C212929   0.179   1.010  13.296  0.0654  0.8320 -0.3242
  878MPD2    C312930   0.115   0.993  13.418  0.6614 -0.2029 -0.2580
  878MPD2    C412931   4.719   0.953  13.423 -0.3277  0.5043 -0.1672
  878MPD2    C512932   4.648   0.934  13.308  0.0511  0.1106 -0.1844
  878MPD2     H12933   0.283   1.041  13.296  0.3273 -0.0227  0.4858
  878MPD2    H112934   4.660   0.958  13.513 -1.1649  0.0987 -0.6971
  878MPD2    H212935   4.656   0.925  13.095 -2.1519  0.5346 -0.0420
  878MPD2    H312936   4.547   0.896  13.321  0.1142  0.5264  1.6157
  878MPD2     N12937   0.183   1.028  13.538 -0.3785 -0.3904  1.1897
  878MPD2    H512938   0.283   1.035  13.526 -0.7270  2.2803 -0.2448
  878MPD2    N112939   0.173   0.985  13.052 -0.1238  0.3743  0.6418
  878MPD2    H712940   0.119   0.954  12.972 -2.0843  2.1427  1.3087
  879MPD2     C12941   0.934   2.564  17.072 -0.1513 -0.2134 -0.4668
  879MPD2    C112942   0.954   2.442  17.125 -0.4490  0.8760  0.0959
  879MPD2    C212943   0.901   2.328  17.064 -0.4930  0.3657  0.3694
  879MPD2    C312944   0.831   2.337  16.944 -0.0701 -0.6003  0.5141
  879MPD2    C412945   0.814   2.467  16.894 -0.6471 -0.3119 -0.1172
  879MPD2    C512946   0.875   2.575  16.953  0.9568 -0.2379  0.1956
  879MPD2     H12947   0.926   2.230  17.105  2.9682  0.6796 -0.9927
  879MPD2    H112948   0.748   2.482  16.809 -0.5843  0.5421 -0.0134
  879MPD2    H212949   0.972   2.654  17.118  0.4980 -0.6653 -0.1230
  879MPD2    H312950   0.871   2.675  16.910  0.0404 -1.0209 -1.5196
  879MPD2     N12951   0.774   2.231  16.867  0.1368 -0.0889 -0.2819
  879MPD2    H512952   0.736   2.256  16.776 -1.4467 -1.2137  0.0639
  879MPD2    N112953   1.026   2.427  17.245  0.1705  0.0649  0.2783
  879MPD2    H712954   1.079   2.507  17.274  1.7618 -0.1587 -2.0167
  880MPD2     C12955   1.719   3.938   0.813  0.2331  0.2909  0.6806
  880MPD2    C112956   1.830   3.909   0.735 -0.0493 -0.0378  0.2187
  880MPD2    C212957   1.890   3.784   0.732  0.4477  0.0644 -0.5077
  880MPD2    C312958   1.861   3.699   0.830 -0.0114  0.0645  0.3082
  880MPD2    C412959   1.754   3.725   0.916  0.2908  0.1148  0.1799
  880MPD2    C512960   1.687   3.846   0.910  0.1034 -0.0084  0.7091
  880MPD2     H12961   1.975   3.766   0.667  0.5846 -1.5898  0.1472
  880MPD2    H112962   1.727   3.659   0.998 -0.2087  1.1317  0.8450
  880MPD2    H212963   1.667   4.034   0.813 -0.1229  0.0996 -3.1723
  880MPD2    H312964   1.609   3.871   0.981  2.2585  2.0575  2.3756
  880MPD2     N12965   1.946   3.585   0.851  0.3391 -0.2948 -0.1015
  880MPD2    H512966   2.022   3.563   0.787  2.3155 -0.6528  2.3771
  880MPD2    N112967   1.873   4.016   0.655  0.0586  0.4131  0.1736
  880MPD2    H712968   1.829   4.106   0.666 -3.6125 -1.3393 -0.1720
  881MPD2     C12969   2.056   4.483  17.468 -0.1017 -0.8181  0.2587
  881MPD2    C112970   2.141   4.379  17.501 -0.1252  0.5380  1.0930
  881MPD2    C212971   2.129   4.322  17.632  0.0592 -0.4977 -0.5228
  881MPD2    C312972   2.038   4.379  17.723 -0.0678 -0.4691  0.1559
  881MPD2    C412973   1.953   4.478  17.684 -0.7122  0.0160  0.2730
  881MPD2    C512974   1.965   4.523  17.558  0.8434  0.3852  0.3808
  881MPD2     H12975   2.190   4.236  17.657 -1.2773 -1.1793  0.3977
  881MPD2    H112976   1.888   4.540  17.745 -1.9291 -1.1758  0.1724
  881MPD2    H212977   2.056   4.526  17.369  1.3219 -2.0976 -0.2801
  881MPD2    H312978   1.896   4.599  17.524  1.6642  0.3301 -1.4360
  881MPD2     N12979   2.012   4.344   0.105  0.4041 -0.0708 -0.4530
  881MPD2    H512980   1.940   4.388   0.161  0.9777  1.9301 -1.2771
  881MPD2    N112981   2.248   4.370  17.415  0.3081  0.2108  0.2142
  881MPD2    H712982   2.241   4.426  17.330  0.6564 -1.6404 -1.0524
  882MPD2     C12983   1.023   1.639  14.005 -0.0537 -0.4901 -0.3376
  882MPD2    C112984   0.996   1.708  14.117 -0.5201  0.7915  0.9967
  882MPD2    C212985   0.863   1.716  14.165  0.5593 -0.0642 -0.2651
  882MPD2    C312986   0.753   1.658  14.101 -0.6235  0.0852 -0.3870
  882MPD2    C412987   0.786   1.590  13.983  0.4620 -0.3735 -0.3470
  882MPD2    C512988   0.914   1.586  13.935 -0.4662 -0.2855 -0.2475
  882MPD2     H12989   0.850   1.765  14.261 -0.0960 -0.1011 -0.3324
  882MPD2    H112990   0.699   1.555  13.929  1.0316 -3.2368  0.5717
  882MPD2    H212991   1.127   1.619  13.980  0.2427  0.4307  0.1529
  882MPD2    H312992   0.942   1.519  13.854 -0.6314  1.7185 -1.9397
  882MPD2     N12993   0.618   1.674  14.138  0.5343 -0.3386 -0.2906
  882MPD2    H512994   0.556   1.613  14.087  2.8487 -2.9736  0.0744
  882MPD2    N112995   1.102   1.755  14.195 -0.0385 -0.2818  0.9186
  882MPD2    H712996   1.190   1.763  14.144  0.1693 -1.4108  1.0753
  883MPD2     C12997   2.556   0.903  16.377  0.1578 -0.4614 -0.7126
  883MPD2    C112998   2.600   1.028  16.397  0.1786  0.2626 -0.5097
  883MPD2    C212999   2.685   1.061  16.499  0.6907 -0.0416  0.6632
  883MPD2    C313000   2.738   0.963  16.575 -0.3683  0.0394 -0.2575
  883MPD2    C413001   2.697   0.833  16.550  0.0288  0.6653 -0.1082
  883MPD2    C513002   2.617   0.806  16.449 -0.7464  0.1783 -0.4341
  883MPD2     H13003   2.716   1.165  16.504  1.8722 -0.3942  0.8862
  883MPD2    H113004   2.735   0.752  16.611 -1.0280  0.4629  0.2855
  883MPD2    H213005   2.487   0.865  16.302  1.2694 -1.9806 -0.9652
  883MPD2    H313006   2.583   0.704  16.435 -2.4916  0.4391  1.9086
  883MPD2     N13007   2.828   1.007  16.673 -0.3111  0.4442 -0.9018
  883MPD2    H513008   2.850   1.106  16.670 -0.8770  0.5800 -0.6580
  883MPD2    N113009   2.549   1.134  16.313 -0.4558  0.5415 -0.3823
  883MPD2    H713010   2.590   1.226  16.320  1.7600 -0.5201  0.8298
  884MPD2     C13011   0.259   2.204  14.984  0.5961  0.7250 -0.2086
  884MPD2    C113012   0.288   2.338  14.963  0.0614 -0.4978 -0.4565
  884MPD2    C213013   0.193   2.439  14.999  0.9842  0.5648  0.2044
  884MPD2    C313014   0.077   2.398  15.062  0.6558 -0.1584  0.2223
  884MPD2    C413015   0.050   2.264  15.086  0.4790 -0.9111  0.0589
  884MPD2    C513016   0.144   2.168  15.048  0.7714 -0.5151  0.4406
  884MPD2     H13017   0.211   2.543  14.977  1.4466  0.9485  2.4158
  884MPD2    H113018   4.696   2.232  15.135  0.3815 -3.0930 -1.5180
  884MPD2    H213019   0.325   2.121  14.962 -0.6996 -0.0907 -0.9735
  884MPD2    H313020   0.120   2.062  15.056 -1.7446 -0.1339 -1.7815
  884MPD2     N13021   4.714   2.497  15.106  0.5530  0.3235 -0.0349
  884MPD2    H513022   0.009   2.592  15.115  0.6194  0.1630  1.4577
  884MPD2    N113023   0.412   2.363  14.888  0.2526  0.1610 -0.2474
  884MPD2    H713024   0.464   2.284  14.853  0.7265  0.5346 -0.3872
  885MPD2     C13025   2.832   2.360   0.003  0.0568 -0.3008  0.1571
  885MPD2    C113026   2.932   2.455  17.737 -0.0711  0.0278  0.0242
  885MPD2    C213027   2.944   2.526  17.621 -0.5302 -0.0052 -0.4378
  885MPD2    C313028   2.850   2.501  17.519 -0.1883  0.5906  1.1961
  885MPD2    C413029   2.746   2.409  17.534 -0.4939 -0.5590 -0.9242
  885MPD2    C513030   2.744   2.339  17.644 -0.6941 -0.3927 -0.3194
  885MPD2     H13031   3.022   2.599  17.603 -0.7077  1.1274  3.4216
  885MPD2    H113032   2.666   2.395  17.461 -0.4395  0.4186 -1.1757
  885MPD2    H213033   2.817   2.298   0.090  0.5005 -0.7963 -0.1144
  885MPD2    H313034   2.670   2.260  17.650  1.0650 -2.1863 -1.8612
  885MPD2     N13035   2.865   2.576  17.398 -0.4595  1.1575 -0.6818
  885MPD2    H513036   2.947   2.635  17.387  1.1579 -1.0023 -0.1358
  885MPD2    N113037   3.008   2.483   0.104 -0.2792  0.6316 -0.0254
  885MPD2    H713038   2.992   2.431   0.190 -0.3874  2.6808  1.1765
  886MPD2     C13039   3.955   1.178  15.285 -0.2743  1.0161 -0.5284
  886MPD2    C113040   4.068   1.191  15.356 -0.1699  0.1325 -0.0364
  886MPD2    C213041   4.157   1.289  15.309  0.0126  0.4100 -0.4838
  886MPD2    C313042   4.124   1.375  15.202  0.0786  0.1754 -0.1451
  886MPD2    C413043   4.000   1.363  15.141 -0.3325  0.1122  0.2930
  886MPD2    C513044   3.924   1.260  15.184 -0.1672 -0.0643 -0.1572
  886MPD2     H13045   4.251   1.294  15.362  1.0394 -0.4187 -2.2347
  886MPD2    H113046   3.976   1.423  15.054  0.3427 -1.4368 -0.9727
  886MPD2    H213047   3.886   1.095  15.294 -0.2572  1.1023  0.3997
  886MPD2    H313048   3.834   1.232  15.130 -0.3233  0.7865 -0.3329
  886MPD2     N13049   4.220   1.477  15.178  0.1179  1.0010 -0.1839
  886MPD2    H513050   4.315   1.464  15.212  0.1951  0.8650 -0.4482
  886MPD2    N113051   4.096   1.112  15.470 -0.1042 -0.0378 -0.4933
  886MPD2    H713052   4.190   1.128  15.504 -1.7452  4.2277  1.9850
  887MPD2     C13053   4.700   1.022  15.798  0.1383  0.0071  1.0951
  887MPD2    C113054   4.584   1.082  15.742 -0.1883  0.2076  0.0107
  887MPD2    C213055   4.584   1.219  15.714  0.1585  0.2749 -0.1426
  887MPD2    C313056   4.701   1.290  15.731 -0.5509  0.4054  0.3611
  887MPD2    C413057   0.078   1.237  15.790  0.5471  0.5510 -0.4667
  887MPD2    C513058   0.068   1.101  15.825 -0.2013 -1.0838  0.0766
  887MPD2     H13059   4.493   1.263  15.675  1.5500  0.7999 -2.7811
  887MPD2    H113060   0.169   1.295  15.796 -0.4038  2.1155 -1.5105
  887MPD2    H213061   4.712   0.919  15.827  3.9330  0.0863 -0.2658
  887MPD2    H313062   0.151   1.050  15.874 -0.4954  0.3624  2.1149
  887MPD2     N13063   4.684   1.431  15.693 -0.3343 -0.0640 -0.0378
  887MPD2    H513064   4.590   1.460  15.668 -0.6536 -1.1551 -0.1002
  887MPD2    N113065   4.466   1.015  15.711  0.1213  0.3025 -0.2728
  887MPD2    H713066   4.387   1.075  15.691  1.1743  2.0849  0.8806
  888MPD2     C13067   2.342   1.118  14.879 -0.7686  0.1394 -1.0337
  888MPD2    C113068   2.310   1.197  14.989 -0.1586 -0.1912 -0.5018
  888MPD2    C213069   2.317   1.335  14.985 -0.9968  0.2190  0.3973
  888MPD2    C313070   2.365   1.398  14.870  0.1482 -0.5519 -0.0000
  888MPD2    C413071   2.385   1.323  14.757  0.5074 -0.8548  0.4761
  888MPD2    C513072   2.363   1.189  14.760 -0.0637  0.2258 -0.4161
  888MPD2     H13073   2.290   1.378  15.081 -3.6268 -0.5374 -0.0077
  888MPD2    H113074   2.389   1.364  14.657 -1.5722 -0.6462  0.4832
  888MPD2    H213075   2.325   1.012  14.867 -1.1858 -0.2229  2.6111
  888MPD2    H313076   2.359   1.133  14.667 -0.7598 -1.2222  0.4803
  888MPD2     N13077   2.382   1.537  14.876 -0.3320 -1.2297  0.8950
  888MPD2    H513078   2.369   1.577  14.969  0.2198  0.9375  0.0353
  888MPD2    N113079   2.270   1.131  15.106  0.3632  0.2459  0.9982
  888MPD2    H713080   2.231   1.184  15.183 -0.3811  0.3638  0.5412
  889MPD2     C13081   0.944   0.724  13.427  0.2038 -0.3177 -0.3319
  889MPD2    C113082   1.078   0.703  13.452  0.7145  0.1355 -0.2429
  889MPD2    C213083   1.168   0.808  13.425 -0.7960 -0.3034 -0.5981
  889MPD2    C313084   1.123   0.940  13.402 -0.0021 -0.1713  0.1785
  889MPD2    C413085   0.978   0.960  13.406  0.9984 -0.4555 -0.3273
  889MPD2    C513086   0.894   0.852  13.412  0.2430  0.2954  0.4866
  889MPD2     H13087   1.275   0.794  13.434 -0.5886  0.7714 -1.4690
  889MPD2    H113088   0.939   1.061  13.408 -0.2259 -0.9428  0.2180
  889MPD2    H213089   0.867   0.650  13.447 -0.5639  0.4788 -0.3072
  889MPD2    H313090   0.786   0.866  13.416 -0.2269 -3.1698 -0.5229
  889MPD2     N13091   1.225   1.039  13.387 -0.3003 -0.1452 -0.0987
  889MPD2    H513092   1.320   1.005  13.385  0.4470  1.8680  1.1470
  889MPD2    N113093   1.121   0.569  13.448 -0.1208  0.4825  0.4418
  889MPD2    H713094   1.052   0.495  13.458  1.2031 -1.1065 -2.1883
  890MPD2     C13095   0.947   2.273  14.333  0.0018  0.1733 -0.7408
  890MPD2    C113096   1.017   2.333  14.439  0.3704 -0.0235 -0.3851
  890MPD2    C213097   1.013   2.259  14.560 -0.7076  0.2431 -0.3030
  890MPD2    C313098   0.940   2.149  14.579 -0.2802 -0.5988 -0.2122
  890MPD2    C413099   0.867   2.101  14.478 -0.3422  0.0439 -0.2614
  890MPD2    C513100   0.879   2.155  14.359  0.8566 -1.0012 -0.7514
  890MPD2     H13101   1.065   2.302  14.645 -1.5407 -1.1022  0.8940
  890MPD2    H113102   0.808   2.011  14.491 -0.3682  0.0243 -0.5222
  890MPD2    H213103   0.946   2.311  14.232 -1.4023 -1.0090 -1.1769
  890MPD2    H313104   0.831   2.107  14.274 -2.6640  0.0165  0.6754
  890MPD2     N13105   0.918   2.102  14.707 -0.6572  0.2069 -0.6134
  890MPD2    H513106   0.982   2.134  14.779  0.0271 -2.4521 -0.0194
  890MPD2    N113107   1.089   2.453  14.422 -0.2324 -0.4262 -0.1900
  890MPD2    H713108   1.063   2.516  14.347 -0.1182  0.0862  0.1958
  891MPD2     C13109   3.576   0.868  16.736 -0.3057  0.3748 -0.4639
  891MPD2    C113110   3.494   0.776  16.792  0.4618  0.1304 -0.0528
  891MPD2    C213111   3.549   0.698  16.889  0.0548 -0.6016  0.7253
  891MPD2    C313112   3.676   0.722  16.942 -0.6423 -0.3468 -0.0217
  891MPD2    C413113   3.749   0.825  16.892  0.2406  0.1210 -0.4050
  891MPD2    C513114   3.702   0.891  16.784 -0.2838  0.3844  0.1708
  891MPD2     H13115   3.492   0.618  16.935 -2.2239 -1.4186 -3.5328
  891MPD2    H113116   3.852   0.845  16.919  0.4567 -2.6121  0.8503
  891MPD2    H213117   3.541   0.929  16.653  0.9543 -0.1659 -1.4121
  891MPD2    H313118   3.748   0.975  16.733  0.4626 -1.0875 -1.5804
  891MPD2     N13119   3.710   0.644  17.053 -0.8463 -0.3484 -0.4305
  891MPD2    H513120   3.637   0.577  17.075 -0.6422 -0.5156 -0.2731
  891MPD2    N113121   3.362   0.762  16.737  0.4056  0.2577 -0.4336
  891MPD2    H713122   3.339   0.832  16.667  1.2620 -1.3829 -2.3762
  892MPD2     C13123   0.141   2.472  14.552  0.3741 -0.0143 -0.1346
  892MPD2    C113124   0.058   2.362  14.573 -0.0105  0.2440  0.4534
  892MPD2    C213125   0.089   2.240  14.522 -0.0116  0.4802 -0.4565
  892MPD2    C313126   0.209   2.212  14.457  0.1067  0.0818 -0.3624
  892MPD2    C413127   0.282   2.320  14.427  0.2471  0.5363  0.3104
  892MPD2    C513128   0.254   2.451  14.473  0.3626  0.0586  0.2966
  892MPD2     H13129   0.024   2.156  14.545 -0.6540  1.2720  0.6661
  892MPD2    H113130   0.377   2.313  14.373  1.6468 -1.0269  2.9884
  892MPD2    H213131   0.113   2.574  14.576 -0.5878 -0.0742 -1.0115
  892MPD2    H313132   0.323   2.533  14.457  1.9008 -1.4814 -0.9972
  892MPD2     N13133   0.255   2.087  14.399  0.2098 -0.0069 -0.1355
  892MPD2    H513134   0.337   2.099  14.340 -0.4237 -2.0771 -1.4481
  892MPD2    N113135   4.676   2.378  14.650  0.3085  0.5305 -0.7280
  892MPD2    H713136   4.616   2.298  14.666  1.5371 -0.1008  0.7361
  893MPD2     C13137   0.500   0.743   1.333 -0.2819 -0.4445 -0.0697
  893MPD2    C113138   0.563   0.653   1.248 -0.5147 -0.8739  0.4133
  893MPD2    C213139   0.486   0.560   1.185 -0.8276  0.4121  0.6937
  893MPD2    C313140   0.351   0.556   1.200 -0.1024 -0.1699 -0.3079
  893MPD2    C413141   0.284   0.633   1.291 -0.3157  0.0550 -0.0339
  893MPD2    C513142   0.367   0.726   1.356  1.0185  0.1055  0.0341
  893MPD2     H13143   0.525   0.478   1.125  1.9576 -1.9703  5.7660
  893MPD2    H113144   0.176   0.642   1.298 -0.3396 -1.3338  1.3072
  893MPD2    H213145   0.558   0.817   1.387 -1.6612 -1.0788  2.2904
  893MPD2    H313146   0.317   0.785   1.432  0.3141 -0.5160  0.0509
  893MPD2     N13147   0.270   0.462   1.129  0.4246  0.1445  0.0267
  893MPD2    H513148   0.170   0.467   1.144  0.5008  0.7296  0.3523
  893MPD2    N113149   0.702   0.665   1.243 -0.3305 -0.2118 -0.4602
  893MPD2    H713150   0.748   0.738   1.296  2.4332 -1.8858 -0.6038
  894MPD2     C13151   4.530   2.682   1.238 -0.0214  0.1448 -0.4151
  894MPD2    C113152   4.463   2.779   1.164 -0.4259  0.7414  0.1144
  894MPD2    C213153   4.519   2.905   1.159 -0.1139 -0.2449 -0.2482
  894MPD2    C313154   4.629   2.941   1.221 -0.0250 -0.5462 -0.2327
  894MPD2    C413155   4.697   2.850   1.298  0.1104  0.6049  0.1169
  894MPD2    C513156   4.650   2.721   1.305  1.7924 -0.0117  0.3005
  894MPD2     H13157   4.483   2.973   1.083  2.3396  1.2533 -0.0587
  894MPD2    H113158   0.054   2.872   1.346  0.0066 -0.8013  0.9473
  894MPD2    H213159   4.502   2.578   1.246  0.7184 -0.0087  0.1668
  894MPD2    H313160   4.706   2.647   1.361 -1.4953 -1.1220  2.1804
  894MPD2     N13161   4.665   3.076   1.204  0.1268  0.1549 -0.2349
  894MPD2    H513162   4.608   3.137   1.147  1.3343  0.4296 -1.1508
  894MPD2    N113163   4.342   2.753   1.091  0.3239  0.9317  0.6235
  894MPD2    H713164   4.292   2.835   1.059  0.4750  0.8878  0.2737
  895MPD2     C13165   4.080   1.571  13.976 -0.1334  0.1157 -0.7505
  895MPD2    C113166   3.990   1.576  13.873  0.0131 -0.2424  0.0061
  895MPD2    C213167   3.991   1.470  13.779 -0.1666 -0.6321  0.0534
  895MPD2    C313168   4.088   1.371  13.782  0.1044 -0.3402  0.6360
  895MPD2    C413169   4.181   1.379  13.885  0.7464 -0.9655 -0.7410
  895MPD2    C513170   4.173   1.473  13.989  0.5513  0.7470 -0.0494
  895MPD2     H13171   3.903   1.450  13.720 -0.9498  1.4858  0.4952
  895MPD2    H113172   4.256   1.301  13.893  1.5701 -0.2545 -1.6054
  895MPD2    H213173   4.071   1.646  14.054  0.2481  1.4425 -1.9882
  895MPD2    H313174   4.240   1.479  14.073  1.5998  1.1177 -0.9160
  895MPD2     N13175   4.098   1.262  13.697 -0.2509  0.5857 -0.6905
  895MPD2    H513176   4.153   1.181  13.721 -0.2998  0.4659 -0.9856
  895MPD2    N113177   3.892   1.675  13.858 -0.3971  0.3944  0.3540
  895MPD2    H713178   3.814   1.655  13.797 -0.9324 -0.1074  1.1948
  896MPD2     C13179   1.017   3.868   1.056  0.5838 -0.0932  0.0797
  896MPD2    C113180   0.992   3.748   0.996 -0.3257 -0.3733 -0.7511
  896MPD2    C213181   0.876   3.684   1.008  0.8479  0.3216  0.2697
  896MPD2    C313182   0.768   3.743   1.068 -0.3414 -0.2061 -0.3115
  896MPD2    C413183   0.795   3.863   1.131  0.3218  0.0330 -0.1983
  896MPD2    C513184   0.919   3.925   1.125 -0.4384 -0.2961  1.2482
  896MPD2     H13185   0.862   3.589   0.958 -2.0300  0.2561  1.1836
  896MPD2    H113186   0.715   3.923   1.171  0.2397 -0.5454  0.5053
  896MPD2    H213187   1.113   3.918   1.048  0.0752  0.7606 -0.6340
  896MPD2    H313188   0.936   4.024   1.167 -0.8716  0.2346  0.1744
  896MPD2     N13189   0.637   3.687   1.055 -0.4208  0.6480  0.3360
  896MPD2    H513190   0.632   3.591   1.021 -1.2853 -0.1181  2.5739
  896MPD2    N113191   1.101   3.686   0.926  0.3916  0.5465  0.7537
  896MPD2    H713192   1.094   3.587   0.903  1.2721  0.8630 -0.8766
  897MPD2     C13193   2.770   0.470  10.738 -0.9601  0.0074  0.1720
  897MPD2    C113194   2.750   0.596  10.688  0.9925 -0.9939 -0.1554
  897MPD2    C213195   2.633   0.665  10.707  0.6282  0.5738  0.6419
  897MPD2    C313196   2.539   0.610  10.790 -0.3153 -0.4995 -0.3766
  897MPD2    C413197   2.558   0.493  10.845  1.0179  0.2008  1.3077
  897MPD2    C513198   2.674   0.420  10.819 -0.1203 -0.5300 -0.5176
  897MPD2     H13199   2.633   0.766  10.668 -0.1244  0.3411  0.0507
  897MPD2    H113200   2.487   0.441  10.908 -0.1173 -0.6510 -0.6960
  897MPD2    H213201   2.866   0.425  10.715 -1.5083  0.2206 -2.5723
  897MPD2    H313202   2.691   0.325  10.867  2.3344  0.5290  0.7139
  897MPD2     N13203   2.417   0.675  10.798 -0.5931  0.5421 -0.6849
  897MPD2    H513204   2.408   0.760  10.745  0.9180  0.6165 -0.8203
  897MPD2    N113205   2.868   0.645  10.627  0.0405 -0.2164  0.0699
  897MPD2    H713206   2.943   0.576  10.624 -2.5356 -2.9849 -0.8760
  898MPD2     C13207   4.065   1.166  17.573  0.6698 -1.0829  0.3263
  898MPD2    C113208   4.200   1.175  17.557  0.2013  0.9789 -0.5956
  898MPD2    C213209   4.254   1.295  17.524  0.8430  0.7136 -1.1519
  898MPD2    C313210   4.174   1.407  17.509  0.1346  0.0808 -0.0887
  898MPD2    C413211   4.036   1.407  17.540 -0.2020 -0.0204  0.0810
  898MPD2    C513212   3.989   1.281  17.564 -0.0859 -0.0118  0.0518
  898MPD2     H13213   4.360   1.312  17.514  1.1631 -0.0611  0.9705
  898MPD2    H113214   3.970   1.493  17.544  1.1000  0.9447  0.7641
  898MPD2    H213215   4.009   1.079  17.606 -0.8756 -0.1366  0.2088
  898MPD2    H313216   3.881   1.276  17.578 -0.0876  1.5427  0.6300
  898MPD2     N13217   4.237   1.532  17.474  0.6244 -0.0409 -0.6008
  898MPD2    H513218   4.339   1.532  17.466  0.7197  1.2155  0.6310
  898MPD2    N113219   4.289   1.071  17.576 -0.3338 -0.5002  0.0288
  898MPD2    H713220   4.386   1.074  17.546 -1.4631 -0.2182 -3.5946
  899MPD2     C13221   0.656   1.886  17.450 -0.2939  0.5164 -0.3622
  899MPD2    C113222   0.636   1.984  17.536  0.6187 -0.3281  0.2405
  899MPD2    C213223   0.610   1.951  17.669  0.4515 -0.5784 -0.6754
  899MPD2    C313224   0.586   1.826  17.709  0.0124 -0.1855 -0.4159
  899MPD2    C413225   0.604   1.725  17.619  0.2855 -0.2385  0.8910
  899MPD2    C513226   0.642   1.753  17.486  0.0259  0.2004 -0.1196
  899MPD2     H13227   0.604   2.026  17.747 -0.0800 -0.9464 -0.3697
  899MPD2    H113228   0.588   1.622  17.648 -1.3908 -0.4768 -0.8538
  899MPD2    H213229   0.686   1.903  17.347  0.0370 -1.1855 -0.5352
  899MPD2    H313230   0.659   1.672  17.416 -0.4245 -1.6959  1.9878
  899MPD2     N13231   0.543   1.793   0.089  0.2238  0.2537  0.0930
  899MPD2    H513232   0.560   1.694   0.102 -1.5860  0.1333  1.4222
  899MPD2    N113233   0.641   2.114  17.485  0.0218 -0.4690  0.5416
  899MPD2    H713234   0.646   2.109  17.384  1.0936  1.2923  0.5081
  900MPD2     C13235   4.436   3.614  12.996  0.2066 -0.5133 -0.1919
  900MPD2    C113236   4.479   3.585  12.869  0.1259 -0.0218 -0.1618
  900MPD2    C213237   4.411   3.641  12.761  0.0808 -0.2223 -0.1444
  900MPD2    C313238   4.306   3.730  12.789  0.2094  0.0660  0.0906
  900MPD2    C413239   4.268   3.763  12.918 -0.6513  0.0690 -0.1800
  900MPD2    C513240   4.332   3.694  13.022 -0.2001 -0.6132  0.4460
  900MPD2     H13241   4.436   3.623  12.658  1.1924 -0.3613  0.1501
  900MPD2    H113242   4.190   3.835  12.934 -0.5376 -0.0135  0.7785
  900MPD2    H213243   4.484   3.550  13.069 -0.5897  0.2007  0.9723
  900MPD2    H313244   4.306   3.719  13.124 -1.5415 -1.8180  0.3928
  900MPD2     N13245   4.236   3.781  12.679 -0.3860 -0.1813  0.3641
  900MPD2    H513246   4.262   3.735  12.592 -2.3510 -0.9953  0.2142
  900MPD2    N113247   4.596   3.495  12.852  0.4227  0.3807  0.0821
  900MPD2    H713248   4.627   3.443  12.934 -0.6989 -1.2647 -0.5431
  901MPD2     C13249   4.690   2.578  13.091  0.4610 -0.3183  0.7125
  901MPD2    C113250   0.078   2.600  13.051 -0.4244  0.5826  0.0966
  901MPD2    C213251   0.110   2.726  13.005 -0.6695 -0.0074 -0.7419
  901MPD2    C313252   0.009   2.824  13.005 -0.0798 -0.0548 -0.3512
  901MPD2    C413253   4.623   2.809  13.067 -0.1596 -1.3006  0.0641
  901MPD2    C513254   4.598   2.684  13.120 -0.1691  0.7893 -0.0271
  901MPD2     H13255   0.206   2.760  12.968  0.1070 -1.4895 -0.0727
  901MPD2    H113256   4.545   2.884  13.068  0.7778 -0.3383  2.3685
  901MPD2    H213257   4.656   2.482  13.128 -2.2504 -0.0688 -1.0693
  901MPD2    H313258   4.502   2.665  13.166  0.2382 -1.4660 -0.1144
  901MPD2     N13259   0.042   2.949  12.945  0.4512 -0.7567  0.4460
  901MPD2    H513260   0.126   2.950  12.889 -0.4591  1.1989 -0.8670
  901MPD2    N113261   0.155   2.498  12.999 -0.2909  0.0284  0.3616
  901MPD2    H713262   0.102   2.416  12.971  1.9540 -1.2944  0.0572
  902MPD2     C13263   4.500   1.650  12.687  0.3356 -0.3584  0.1314
  902MPD2    C113264   4.491   1.741  12.581  0.2704  0.5267 -0.3254
  902MPD2    C213265   4.546   1.707  12.460 -0.1611  0.1363 -0.1745
  902MPD2    C313266   4.613   1.583  12.444 -0.6215  0.5007 -0.4780
  902MPD2    C413267   4.616   1.492  12.546  0.6292  0.3335 -0.7961
  902MPD2    C513268   4.562   1.528  12.669  0.1979  0.7421 -0.0003
  902MPD2     H13269   4.551   1.774  12.374  0.3204 -0.6302 -0.7466
  902MPD2    H113270   4.661   1.394  12.537 -1.2073 -0.5004 -0.7012
  902MPD2    H213271   4.454   1.677  12.781 -0.9545  1.3085 -0.9762
  902MPD2    H313272   4.562   1.454  12.748  2.0681 -0.4958 -1.1724
  902MPD2     N13273   4.677   1.565  12.316  0.2191 -0.3362  0.0899
  902MPD2    H513274   4.673   1.642  12.250  2.1242 -1.6484 -1.5656
  902MPD2    N113275   4.438   1.871  12.600  0.5279 -0.0343 -0.4524
  902MPD2    H713276   4.442   1.919  12.511 -2.0007  0.8840 -0.0630
  903MPD2     C13277   4.662   2.020  11.738 -0.1066  0.4013 -1.0401
  903MPD2    C113278   4.629   1.921  11.830  0.1673 -0.5861  0.1382
  903MPD2    C213279   4.501   1.918  11.878  0.2695 -0.6115 -0.2185
  903MPD2    C313280   4.411   2.018  11.849 -0.0995 -0.3051 -0.2785
  903MPD2    C413281   4.445   2.128  11.773 -0.0043 -0.1419  0.5808
  903MPD2    C513282   4.569   2.120  11.719 -1.1374  0.1472 -0.0511
  903MPD2     H13283   4.460   1.829  11.924 -0.3358  1.2888  2.9302
  903MPD2    H113284   4.380   2.212  11.750  0.3223 -0.1111 -0.2369
  903MPD2    H213285   0.026   2.030  11.698 -0.6104  0.8403 -2.2238
  903MPD2    H313286   4.605   2.197  11.652 -0.8953 -0.3922 -0.5360
  903MPD2     N13287   4.279   2.006  11.893 -0.3731  0.0441 -0.1670
  903MPD2    H513288   4.250   1.914  11.925 -2.1023  0.1552 -1.3997
  903MPD2    N113289   4.717   1.814  11.859  0.3074  0.2170 -0.1170
  903MPD2    H713290   0.059   1.819  11.797  1.2566 -0.7114  1.0273
  904MPD2     C13291   3.244   0.602  14.161  0.0939  0.3680  0.3142
  904MPD2    C113292   3.325   0.708  14.116  0.3540  0.5322  0.6181
  904MPD2    C213293   3.465   0.698  14.123  0.1302 -0.6035 -0.6395
  904MPD2    C313294   3.519   0.584  14.182  0.4757  0.5134 -0.2792
  904MPD2    C413295   3.443   0.473  14.205  0.3491 -0.0139 -0.6867
  904MPD2    C513296   3.306   0.485  14.195 -1.0094  0.4934  0.2863
  904MPD2     H13297   3.537   0.768  14.081 -0.6092  1.4399  1.5307
  904MPD2    H113298   3.476   0.385  14.259  0.8477  0.5515 -0.0716
  904MPD2    H213299   3.136   0.606  14.175  0.0159 -0.2535 -0.1111
  904MPD2    H313300   3.254   0.397  14.230 -0.8358 -0.4686 -1.9082
  904MPD2     N13301   3.655   0.583  14.227  0.0725 -0.2954 -0.5067
  904MPD2    H513302   3.679   0.500  14.279 -2.3987  1.2649  3.1323
  904MPD2    N113303   3.274   0.829  14.061 -0.3110  1.0483 -0.5059
  904MPD2    H713304   3.344   0.901  14.045  1.4603 -0.5191  0.1995
  905MPD2     C13305   3.271   1.184  13.284  0.5581  0.0793 -0.9258
  905MPD2    C113306   3.291   1.096  13.395  0.1322 -0.4390  0.6529
  905MPD2    C213307   3.415   1.029  13.403  0.5468 -0.2336  0.3492
  905MPD2    C313308   3.515   1.059  13.314  0.3155 -0.1941 -0.1181
  905MPD2    C413309   3.496   1.143  13.203 -0.7837  1.0539 -0.6367
  905MPD2    C513310   3.377   1.206  13.197 -0.3510 -0.3217 -0.7208
  905MPD2     H13311   3.435   0.953  13.478 -1.7155 -2.3564 -1.2080
  905MPD2    H113312   3.565   1.162  13.121 -0.5210  1.8902 -0.2266
  905MPD2    H213313   3.182   1.245  13.276  0.0582 -0.4502  0.6368
  905MPD2    H313314   3.359   1.271  13.113 -1.9438 -1.0029 -0.9190
  905MPD2     N13315   3.643   1.004  13.342 -0.3845  0.2047 -0.2857
  905MPD2    H513316   3.658   0.944  13.423 -2.1934  1.9674  1.3715
  905MPD2    N113317   3.194   1.081  13.501  0.5065 -0.1330 -0.1949
  905MPD2    H713318   3.109   1.135  13.493  0.6916 -0.1553 -2.3249
  906MPD2     C13319   1.341   1.157  11.475 -0.3460  0.3456  0.6076
  906MPD2    C113320   1.353   1.127  11.338 -0.4131 -0.5575  0.1785
  906MPD2    C213321   1.322   1.002  11.291 -0.1537 -0.2785 -0.8009
  906MPD2    C313322   1.283   0.903  11.376 -0.1141  0.8543  0.6025
  906MPD2    C413323   1.283   0.921  11.509  0.5518  0.0254 -0.5110
  906MPD2    C513324   1.310   1.050  11.555  0.4077 -0.1376 -0.1456
  906MPD2     H13325   1.335   0.987  11.184 -1.6689 -1.0041 -0.8803
  906MPD2    H113326   1.245   0.846  11.578  3.9420 -1.3643 -0.1612
  906MPD2    H213327   1.366   1.254  11.518  1.2441 -0.2241  0.9846
  906MPD2    H313328   1.319   1.065  11.662  1.0711  0.9658 -0.3559
  906MPD2     N13329   1.232   0.778  11.332  0.4130 -0.0313 -0.1710
  906MPD2    H513330   1.187   0.721  11.403  0.2380  0.6021  0.2346
  906MPD2    N113331   1.396   1.231  11.250 -0.5728  0.1516  0.6053
  906MPD2    H713332   1.413   1.203  11.154 -0.1360 -0.3037  0.8108
  907MPD2     C13333   0.220   4.698  15.737 -0.1446  0.1330 -0.3148
  907MPD2    C113334   0.263   4.581  15.672 -0.0511  0.4814  0.0557
  907MPD2    C213335   0.351   4.496  15.739  0.5032  0.5071  0.0269
  907MPD2    C313336   0.394   4.527  15.867  0.6643  0.3111 -0.5926
  907MPD2    C413337   0.348   4.630  15.934  0.1232  0.0804  0.1170
  907MPD2    C513338   0.266   4.715  15.868 -0.1763  0.6891 -0.4040
  907MPD2     H13339   0.387   4.404  15.693 -0.7335 -0.1572  0.3898
  907MPD2    H113340   0.371   4.651  16.038 -1.0801 -0.4746  0.4981
  907MPD2    H213341   0.165   0.039  15.687  2.0976  1.3800 -0.8455
  907MPD2    H313342   0.244   0.075  15.910 -2.5408  0.3167 -0.7316
  907MPD2     N13343   0.483   4.434  15.930 -0.0606  0.4496  0.1520
  907MPD2    H513344   0.491   4.345  15.883  0.3450 -0.4476  1.9471
  907MPD2    N113345   0.222   4.552  15.539 -0.6089 -0.4774  0.3153
  907MPD2    H713346   0.247   4.459  15.507 -2.6231 -0.7811 -0.3555
  908MPD2     C13347   3.313   0.182  10.043 -0.7049 -0.5823 -0.0754
  908MPD2    C113348   3.176   0.205  10.057  0.7017  0.3590  0.5213
  908MPD2    C213349   3.140   0.302  10.150  0.1645  0.1635 -0.2884
  908MPD2    C313350   3.231   0.371  10.222 -0.0064  0.1110  0.1971
  908MPD2    C413351   3.362   0.353  10.197 -0.4818  0.0592  1.0200
  908MPD2    C513352   3.403   0.255  10.114  0.0715 -0.5757 -0.4312
  908MPD2     H13353   3.035   0.312  10.174  0.1767 -3.3342  1.0951
  908MPD2    H113354   3.436   0.410  10.253 -0.1843  1.3814 -0.7065
  908MPD2    H213355   3.342   0.104   9.974 -0.8023 -0.9415  0.2877
  908MPD2    H313356   3.506   0.231  10.094  0.5864  0.1070  1.4521
  908MPD2     N13357   3.189   0.485  10.301 -0.4099 -0.0092  0.3578
  908MPD2    H513358   3.090   0.487  10.322 -0.6219 -0.0346 -0.6296
  908MPD2    N113359   3.076   0.126   9.995 -0.1320 -0.1170  0.7025
  908MPD2    H713360   3.111   0.038   9.957  1.4179  0.0657  1.6836
  909MPD2     C13361   2.692   3.124  11.473  0.0131 -0.5395 -0.3548
  909MPD2    C113362   2.735   3.255  11.492 -0.0890 -0.2856 -0.4057
  909MPD2    C213363   2.656   3.332  11.580 -0.4708  0.2176  0.6221
  909MPD2    C313364   2.553   3.281  11.655  0.3742  0.8049 -0.3127
  909MPD2    C413365   2.517   3.149  11.645 -0.5478  0.1840 -0.9456
  909MPD2    C513366   2.578   3.081  11.547  0.5662 -0.0213 -0.2858
  909MPD2     H13367   2.691   3.433  11.596  3.5063 -1.1599  0.6334
  909MPD2    H113368   2.449   3.086  11.701  2.1637 -1.0407  1.0086
  909MPD2    H213369   2.751   3.053  11.416  0.2444  0.5682 -1.4872
  909MPD2    H313370   2.577   2.973  11.540  0.2059 -0.0936  0.9042
  909MPD2     N13371   2.492   3.363  11.750  0.7790  0.1658  0.0695
  909MPD2    H513372   2.510   3.463  11.751  0.9961  0.1211  0.3783
  909MPD2    N113373   2.842   3.319  11.424 -0.4064  0.2211  0.0630
  909MPD2    H713374   2.857   3.419  11.429  0.4909  0.0493  0.8333
  910MPD2     C13375   3.674   0.426  15.979  0.1927 -0.5124  0.6473
  910MPD2    C113376   3.772   0.414  15.881 -0.2921 -0.5283  0.0868
  910MPD2    C213377   3.750   0.477  15.761 -0.6268 -0.6413  0.2551
  910MPD2    C313378   3.643   0.555  15.739 -0.5817  0.0937 -0.3650
  910MPD2    C413379   3.545   0.563  15.832 -0.4732  0.5053 -0.3193
  910MPD2    C513380   3.558   0.495  15.952  0.5578  0.4684 -0.3357
  910MPD2     H13381   3.829   0.477  15.687 -0.2486  0.2166  0.6536
  910MPD2    H113382   3.452   0.616  15.816 -0.1922  0.7667 -1.1005
  910MPD2    H213383   3.667   0.372  16.073  0.7167  0.9005  1.4912
  910MPD2    H313384   3.485   0.492  16.032  0.2869  0.1439 -0.5935
  910MPD2     N13385   3.624   0.630  15.626  0.0722 -0.2761  0.0134
  910MPD2    H513386   3.535   0.679  15.630  0.1496 -0.1287 -0.0316
  910MPD2    N113387   3.888   0.324  15.890 -0.1327 -0.7015  0.7426
  910MPD2    H713388   3.945   0.311  15.807 -0.7560  2.4763 -0.1831
  911MPD2     C13389   1.850   0.583  15.989  0.2323 -0.2140 -0.2908
  911MPD2    C113390   1.852   0.584  16.129  1.2371 -1.0534 -0.0069
  911MPD2    C213391   1.763   0.668  16.199 -0.6777  0.1122 -0.4207
  911MPD2    C313392   1.686   0.753  16.129  0.3741 -0.2029  0.8152
  911MPD2    C413393   1.701   0.761  15.993  0.0809  0.1364 -0.4069
  911MPD2    C513394   1.781   0.678  15.927  0.2045  0.0489  0.5637
  911MPD2     H13395   1.750   0.653  16.306 -0.6789 -0.6858 -0.5365
  911MPD2    H113396   1.640   0.831  15.936  0.7401  2.0214  1.1838
  911MPD2    H213397   1.916   0.524  15.927 -0.8151 -0.5552 -1.0717
  911MPD2    H313398   1.780   0.683  15.819 -0.4301  0.1058  0.5724
  911MPD2     N13399   1.591   0.837  16.184 -0.0350  0.6673  0.3699
  911MPD2    H513400   1.541   0.899  16.122 -0.2026  1.1862  1.0248
  911MPD2    N113401   1.939   0.490  16.180  0.1101 -0.0638 -0.3419
  911MPD2    H713402   1.983   0.430  16.110  0.1097 -0.6654  0.1691
  912MPD2     C13403   1.342   1.062  15.746  0.6610  0.0046 -0.1830
  912MPD2    C113404   1.299   1.010  15.862  0.0727 -0.1359  0.3338
  912MPD2    C213405   1.301   0.874  15.883 -1.1159  0.9346 -0.1809
  912MPD2    C313406   1.364   0.794  15.792 -0.2845 -0.5577  0.4982
  912MPD2    C413407   1.422   0.853  15.680 -0.2602 -0.0354 -0.4204
  912MPD2    C513408   1.399   0.983  15.648  0.0538  0.1590  0.2092
  912MPD2     H13409   1.279   0.828  15.979  0.3569  1.4143  0.3940
  912MPD2    H113410   1.467   0.798  15.598 -3.3130  2.7430 -3.9897
  912MPD2    H213411   1.331   1.170  15.740 -0.5158 -0.0852  0.3825
  912MPD2    H313412   1.437   1.016  15.552 -0.2538  0.5494  0.2238
  912MPD2     N13413   1.402   0.663  15.836 -0.3868  0.1191 -0.3642
  912MPD2    H513414   1.368   0.634  15.927  1.1592  2.0721  0.8197
  912MPD2    N113415   1.259   1.098  15.965 -0.4420  0.1735  0.4094
  912MPD2    H713416   1.265   1.200  15.960  0.6134  0.0760 -0.3167
  913MPD2     C13417   2.522   2.441   9.788 -0.1529 -0.2675 -0.5347
  913MPD2    C113418   2.560   2.540   9.875 -0.8138 -0.2154  0.7018
  913MPD2    C213419   2.673   2.609   9.851  0.8108  0.8712 -0.2901
  913MPD2    C313420   2.765   2.567   9.754  0.0079  0.1753 -0.2261
  913MPD2    C413421   2.727   2.467   9.663  0.1092  0.2388 -0.0557
  913MPD2    C513422   2.598   2.415   9.675  0.1388  0.0884  1.0385
  913MPD2     H13423   2.699   2.687   9.922 -0.4795  0.6189  0.4597
  913MPD2    H113424   2.791   2.433   9.583 -0.2682 -3.9118  1.3599
  913MPD2    H213425   2.429   2.388   9.799 -0.7708  0.6856 -1.1358
  913MPD2    H313426   2.561   2.341   9.604  1.0004  0.3218  0.3483
  913MPD2     N13427   2.884   2.638   9.727  0.3132  0.1508  0.1307
  913MPD2    H513428   2.933   2.617   9.640 -1.7302  1.4631 -1.3491
  913MPD2    N113429   2.463   2.575   9.973 -0.2047  0.0911  0.2422
  913MPD2    H713430   2.386   2.510   9.986 -1.5236  1.7734  0.9285
  914MPD2     C13431   0.645   2.768  12.275  0.2158  0.2151  0.5342
  914MPD2    C113432   0.506   2.767  12.276  0.0849 -0.1539 -0.3553
  914MPD2    C213433   0.437   2.680  12.356  0.5528 -0.0215  0.2284
  914MPD2    C313434   0.503   2.586  12.429 -0.0210  0.1330  0.2038
  914MPD2    C413435   0.645   2.589  12.438  0.2808 -0.0044 -0.3643
  914MPD2    C513436   0.709   2.683  12.357 -0.3902  0.4366  0.3866
  914MPD2     H13437   0.329   2.670  12.354  0.4927  0.9114 -1.4042
  914MPD2    H113438   0.703   2.520  12.499 -0.7194 -0.0735  0.5018
  914MPD2    H213439   0.710   2.844  12.234  0.0897  0.6964  1.2150
  914MPD2    H313440   0.816   2.688  12.344  0.0034 -0.0267  3.3782
  914MPD2     N13441   0.430   2.499  12.509 -0.5984 -0.0016 -0.3967
  914MPD2    H513442   0.329   2.507  12.512 -0.5490  0.6055 -0.2789
  914MPD2    N113443   0.435   2.857  12.189  0.3437 -0.2364  0.6106
  914MPD2    H713444   0.494   2.881  12.109  0.6567  0.0326  0.9238
  915MPD2     C13445   2.909   2.064  15.505 -0.3513  0.1366  0.5340
  915MPD2    C113446   2.862   2.185  15.493  0.5872 -0.3472  0.3575
  915MPD2    C213447   2.786   2.241  15.587 -0.6114  0.4870  0.2507
  915MPD2    C313448   2.775   2.180  15.709 -0.0022  1.0082 -0.2074
  915MPD2    C413449   2.825   2.053  15.730  0.4976 -0.1939 -0.4938
  915MPD2    C513450   2.898   2.003  15.631 -0.7859 -0.0664 -0.6746
  915MPD2     H13451   2.754   2.344  15.584  1.1481  1.0205 -0.2968
  915MPD2    H113452   2.829   1.992  15.819 -1.4123 -0.2966 -0.4666
  915MPD2    H213453   2.972   2.029  15.424 -0.5611  2.1663 -0.4970
  915MPD2    H313454   2.952   1.910  15.647 -1.1638 -0.4428 -1.5881
  915MPD2     N13455   2.721   2.253  15.824 -0.1092 -0.3839  0.5634
  915MPD2    H513456   2.711   2.354  15.819  1.0257 -0.2859  0.3105
  915MPD2    N113457   2.881   2.242  15.361 -0.1179  0.7806  0.2601
  915MPD2    H713458   2.929   2.189  15.289 -0.4224  0.1990  0.4862
  916MPD2     C13459   1.082   0.747  15.655 -0.6432  0.1811 -0.2121
  916MPD2    C113460   1.039   0.641  15.729 -0.2292  0.2349  0.0526
  916MPD2    C213461   1.068   0.514  15.692 -0.3050  0.1409  0.2464
  916MPD2    C313462   1.143   0.490  15.580  0.4115  0.5519 -0.1291
  916MPD2    C413463   1.170   0.594  15.490 -1.0930 -0.3070  0.8374
  916MPD2    C513464   1.141   0.722  15.532 -0.2764 -0.3537 -1.0906
  916MPD2     H13465   1.037   0.432  15.756 -0.3459 -0.5323 -0.6354
  916MPD2    H113466   1.227   0.580  15.399  0.5173  0.5463  1.7136
  916MPD2    H213467   1.064   0.848  15.689  4.5813  0.9069  0.4161
  916MPD2    H313468   1.176   0.812  15.483 -2.1945  0.3619 -1.1162
  916MPD2     N13469   1.191   0.363  15.551 -0.1406  0.5746  0.4165
  916MPD2    H513470   1.168   0.295  15.623 -0.5987 -0.7654 -0.9882
  916MPD2    N113471   0.955   0.671  15.839  0.4798 -0.3389 -0.0720
  916MPD2    H713472   0.950   0.765  15.878 -0.9558 -1.3841  2.2140
  917MPD2     C13473   1.621   2.632  11.859  0.0229  0.6576  0.3120
  917MPD2    C113474   1.552   2.750  11.836 -0.4123  0.2841 -0.3676
  917MPD2    C213475   1.615   2.853  11.758  0.1908 -0.3613 -0.0313
  917MPD2    C313476   1.744   2.831  11.711 -0.2992  0.8447 -0.2330
  917MPD2    C413477   1.808   2.714  11.733  0.5386  0.2464 -0.2222
  917MPD2    C513478   1.751   2.622  11.814 -0.3898 -0.2534 -0.6988
  917MPD2     H13479   1.569   2.951  11.757 -0.2078 -0.5476  0.2475
  917MPD2    H113480   1.913   2.709  11.708 -0.1014  1.4260 -3.0847
  917MPD2    H213481   1.583   2.540  11.903 -0.8056  0.6648 -0.3745
  917MPD2    H313482   1.811   2.533  11.828  1.0563  0.9104  0.5109
  917MPD2     N13483   1.814   2.929  11.644 -0.8134  0.4854  0.2160
  917MPD2    H513484   1.906   2.893  11.620 -1.3518 -0.0762 -0.9885
  917MPD2    N113485   1.424   2.752  11.883 -0.2951 -0.1561  0.1136
  917MPD2    H713486   1.384   2.668  11.923 -0.3453  0.2152  0.8480
  918MPD2     C13487   1.295   3.495  12.386 -0.4532  0.3285 -0.1518
  918MPD2    C113488   1.399   3.407  12.372  0.0530 -0.0658 -0.4602
  918MPD2    C213489   1.374   3.272  12.346 -0.0575  0.0020 -0.0279
  918MPD2    C313490   1.245   3.233  12.318 -0.0404 -0.0781 -0.0471
  918MPD2    C413491   1.139   3.330  12.336 -1.1183  0.2501  0.1020
  918MPD2    C513492   1.168   3.453  12.365 -0.2327 -0.8533  0.2030
  918MPD2     H13493   1.449   3.195  12.334 -1.9091 -1.9438  0.9661
  918MPD2    H113494   1.034   3.305  12.325 -0.6544 -1.4118 -0.5561
  918MPD2    H213495   1.311   3.601  12.400 -2.0161  0.3307  1.6087
  918MPD2    H313496   1.083   3.519  12.371  1.0633  0.9068 -0.6356
  918MPD2     N13497   1.230   3.096  12.279 -0.3604  0.1089 -0.0735
  918MPD2    H513498   1.317   3.053  12.251  0.5807  2.1043 -0.2210
  918MPD2    N113499   1.543   3.444  12.386 -0.1557  0.1095  0.5524
  918MPD2    H713500   1.615   3.372  12.383  0.9455  1.2311  0.1919
  919MPD2     C13501   2.331   2.022  11.702 -0.4482 -0.8781  0.1805
  919MPD2    C113502   2.215   1.944  11.713 -0.1674  0.1042  1.0945
  919MPD2    C213503   2.118   1.956  11.626  0.1699  0.4973  0.0419
  919MPD2    C313504   2.118   2.056  11.535 -0.2803 -0.5162 -0.0720
  919MPD2    C413505   2.229   2.133  11.525 -0.3985 -0.3574  0.5035
  919MPD2    C513506   2.334   2.125  11.613  0.7374  0.2729 -0.4465
  919MPD2     H13507   2.040   1.882  11.633 -0.1202  0.7869 -0.1370
  919MPD2    H113508   2.229   2.212  11.450  0.3507 -1.0709 -0.2523
  919MPD2    H213509   2.422   2.014  11.760 -0.6439  2.4817  0.9243
  919MPD2    H313510   2.427   2.180  11.603  0.1869  1.1976 -0.5833
  919MPD2     N13511   2.020   2.064  11.427  0.1232 -0.1688 -0.2603
  919MPD2    H513512   2.036   2.145  11.368  1.5602  0.3946  0.9197
  919MPD2    N113513   2.200   1.848  11.808  0.0720 -0.4007  0.8248
  919MPD2    H713514   2.116   1.791  11.803 -1.1816  1.6272 -1.1958
  920MPD2     C13515   1.835   2.692  10.692 -1.1253 -0.2583  0.1005
  920MPD2    C113516   1.706   2.654  10.715  0.4700  0.2221 -0.4826
  920MPD2    C213517   1.686   2.555  10.807  0.4695 -0.4638 -0.0190
  920MPD2    C313518   1.786   2.501  10.884  0.7951 -0.4700 -0.4122
  920MPD2    C413519   1.915   2.548  10.857  0.6081  0.3768 -0.1727
  920MPD2    C513520   1.940   2.646  10.767 -0.2919 -0.5387  0.1085
  920MPD2     H13521   1.584   2.523  10.827 -0.2335  2.5004  1.1743
  920MPD2    H113522   1.995   2.525  10.927 -0.9451  1.1083  1.8388
  920MPD2    H213523   1.863   2.770  10.622  2.4489 -2.6294 -1.1223
  920MPD2    H313524   2.035   2.696  10.752  0.6128 -1.8201  1.5466
  920MPD2     N13525   1.753   2.400  10.988 -0.0495  0.1251  0.5067
  920MPD2    H513526   1.656   2.372  10.996 -0.0209 -0.0229  0.3424
  920MPD2    N113527   1.588   2.702  10.643 -0.0764 -0.2254 -0.7255
  920MPD2    H713528   1.500   2.654  10.660  0.3705 -1.8828 -3.0534
  921MPD2     C13529   2.626   0.598  16.851 -0.1264  0.1304  0.8195
  921MPD2    C113530   2.662   0.526  16.742 -0.5575 -0.1719  0.0193
  921MPD2    C213531   2.558   0.460  16.674 -0.0225 -0.3624  0.1655
  921MPD2    C313532   2.424   0.471  16.706 -0.5361 -0.5200  0.6348
  921MPD2    C413533   2.392   0.551  16.809 -0.0020 -0.5228 -0.5342
  921MPD2    C513534   2.491   0.612  16.885  0.4319 -0.5458  0.8012
  921MPD2     H13535   2.590   0.399  16.591 -5.4231 -1.3910 -1.2034
  921MPD2    H113536   2.291   0.553  16.848  0.1949  0.7653 -0.0666
  921MPD2    H213537   2.704   0.644  16.911 -0.3398 -1.0930  2.0370
  921MPD2    H313538   2.460   0.670  16.971 -2.4039 -0.7569 -0.0912
  921MPD2     N13539   2.318   0.399  16.648 -0.0395 -0.5950  0.6727
  921MPD2    H513540   2.231   0.409  16.698 -0.5632  0.4050 -0.4350
  921MPD2    N113541   2.807   0.526  16.709  0.4809  0.9346  0.4132
  921MPD2    H713542   2.865   0.589  16.764 -1.8028  2.5944  0.9344
  922MPD2     C13543   3.566   3.593  17.135  0.0101  0.1130  0.4363
  922MPD2    C113544   3.461   3.574  17.222 -0.5271  0.7428 -0.3513
  922MPD2    C213545   3.406   3.451  17.234  0.0992 -1.0132  0.3278
  922MPD2    C313546   3.456   3.344  17.165  0.1850  0.1374  0.0792
  922MPD2    C413547   3.561   3.360  17.073 -0.1473 -0.1954  0.0602
  922MPD2    C513548   3.611   3.486  17.070  0.1843  0.6436 -0.3102
  922MPD2     H13549   3.321   3.442  17.302 -0.1075 -1.9948 -0.0733
  922MPD2    H113550   3.610   3.278  17.022  0.9479  0.4752  0.0182
  922MPD2    H213551   3.617   3.688  17.119  0.1734  0.2256  1.6227
  922MPD2    H313552   3.684   3.503  16.992 -0.6138  3.6794 -0.4148
  922MPD2     N13553   3.394   3.225  17.189  0.2614 -0.1959 -0.3862
  922MPD2    H513554   3.310   3.230  17.245  1.1438  1.5687  0.8088
  922MPD2    N113555   3.411   3.669  17.308 -0.0548  0.0219  0.4323
  922MPD2    H713556   3.341   3.635  17.374 -0.7280  0.1477 -0.2096
  923MPD2     C13557   0.856   1.304   9.170  0.9033 -0.2544 -0.9379
  923MPD2    C113558   0.826   1.428   9.225  1.0785  0.4289  0.1282
  923MPD2    C213559   0.910   1.492   9.313  0.7124  0.2347 -0.3559
  923MPD2    C313560   1.027   1.432   9.363 -0.3431  0.2700 -0.3117
  923MPD2    C413561   1.059   1.310   9.303  0.4357 -0.1104  0.6143
  923MPD2    C513562   0.975   1.248   9.212  0.0700  0.4966 -0.9080
  923MPD2     H13563   0.880   1.586   9.358  1.6429  0.6879 -0.6723
  923MPD2    H113564   1.147   1.258   9.338  0.5635  0.5148  1.1985
  923MPD2    H213565   0.785   1.251   9.109 -0.4345  0.6927 -0.2109
  923MPD2    H313566   1.006   1.155   9.167 -0.2532 -0.3621  0.6478
  923MPD2     N13567   1.101   1.470   9.480 -0.4036  0.1520 -0.1485
  923MPD2    H513568   1.167   1.402   9.517  1.4563  2.7533  1.3095
  923MPD2    N113569   0.706   1.476   9.181  0.3008 -0.1463  0.8849
  923MPD2    H713570   0.654   1.417   9.116 -0.0499  2.1203 -0.8737
  924MPD2     C13571   4.537   4.083  16.239 -0.4071  0.2288  0.2645
  924MPD2    C113572   4.617   4.107  16.349  0.1762  0.0898  0.8092
  924MPD2    C213573   0.017   4.114  16.318 -0.0696  0.4448 -0.0486
  924MPD2    C313574   0.072   4.104  16.195 -0.1435  0.1336 -0.2389
  924MPD2    C413575   4.718   4.096  16.089  0.6027 -0.8705 -0.3842
  924MPD2    C513576   4.588   4.083  16.112  0.4630 -0.1720  0.0785
  924MPD2     H13577   0.094   4.129  16.393  1.2897  0.3276 -1.4225
  924MPD2    H113578   0.010   4.092  15.984 -0.3696 -0.7349 -0.6589
  924MPD2    H213579   4.430   4.082  16.258 -0.4793  0.3777 -0.1368
  924MPD2    H313580   4.511   4.079  16.035  2.0672  0.8824 -1.5749
  924MPD2     N13581   0.209   4.102  16.157  0.7835  0.1952 -0.0849
  924MPD2    H513582   0.224   4.112  16.058  1.7455 -0.2947  0.0147
  924MPD2    N113583   4.570   4.124  16.484 -0.1634 -0.1532 -0.0453
  924MPD2    H713584   4.476   4.159  16.497 -0.7769 -1.8117 -0.0010
  925MPD2     C13585   3.200   1.933  14.831  0.4683 -0.1276 -0.0589
  925MPD2    C113586   3.172   1.848  14.729 -0.2269  0.5017 -0.4065
  925MPD2    C213587   3.064   1.757  14.742 -0.2090 -0.1319 -0.1139
  925MPD2    C313588   2.998   1.748  14.868  0.5183 -0.4443 -0.3175
  925MPD2    C413589   3.038   1.827  14.978 -0.3635  0.0496 -0.3580
  925MPD2    C513590   3.138   1.915  14.952  0.1731  0.0544 -0.2233
  925MPD2     H13591   3.033   1.700  14.656  1.3993  0.2228 -0.9271
  925MPD2    H113592   2.995   1.830  15.077  0.6350  1.3106  0.0426
  925MPD2    H213593   3.277   2.009  14.823 -0.0812  0.1168 -2.7827
  925MPD2    H313594   3.170   1.983  15.030 -1.1121 -2.2727  2.3156
  925MPD2     N13595   2.897   1.651  14.892 -0.5637  0.0362 -0.1734
  925MPD2    H513596   2.867   1.657  14.989  0.4989 -0.7929  0.2063
  925MPD2    N113597   3.227   1.860  14.594  0.0678  0.0152 -0.9808
  925MPD2    H713598   3.195   1.782  14.538 -2.8616  0.4936  0.0287
  926MPD2     C13599   2.596   0.269  13.620 -0.7005 -0.4778 -0.2538
  926MPD2    C113600   2.519   0.307  13.503 -0.8373  0.3176  0.0796
  926MPD2    C213601   2.593   0.371  13.402 -0.5590  0.3229 -0.2282
  926MPD2    C313602   2.730   0.392  13.407  0.1686  0.3489  1.0518
  926MPD2    C413603   2.800   0.341  13.516  0.1622  0.1506  0.0534
  926MPD2    C513604   2.732   0.272  13.616 -0.5966  0.5654 -0.5185
  926MPD2     H13605   2.536   0.425  13.328  0.8593  0.0523 -1.5312
  926MPD2    H113606   2.907   0.346  13.500 -0.0289 -1.5032 -1.7474
  926MPD2    H213607   2.554   0.217  13.705 -2.4060  1.7065  0.2048
  926MPD2    H313608   2.794   0.222  13.689  0.4997  0.3690 -1.5736
  926MPD2     N13609   2.800   0.467  13.314  0.3916  0.5115  0.3778
  926MPD2    H513610   2.898   0.482  13.335  0.4124 -0.4530  0.9644
  926MPD2    N113611   2.380   0.287  13.490  0.0782  0.3948  0.6495
  926MPD2    H713612   2.329   0.332  13.415  0.7881  1.6078  0.8917
  927MPD2     C13613   2.127   2.184  17.576 -0.1968  0.8126 -0.2386
  927MPD2    C113614   2.118   2.306  17.514  1.0936 -0.2184 -0.3916
  927MPD2    C213615   2.218   2.338  17.429  0.2129  0.3732  0.3943
  927MPD2    C313616   2.319   2.251  17.396 -0.1330 -0.1241 -0.0721
  927MPD2    C413617   2.335   2.141  17.472  0.5730 -0.5937 -0.1198
  927MPD2    C513618   2.247   2.117  17.572  0.1697  0.1733 -0.1156
  927MPD2     H13619   2.224   2.437  17.384  0.2034  0.1361 -0.1236
  927MPD2    H113620   2.415   2.069  17.458  0.7969 -1.0051  3.0618
  927MPD2    H213621   2.053   2.157  17.651 -0.3440  0.7168 -0.4178
  927MPD2    H313622   2.267   2.038  17.644  1.8459  1.6935  1.0672
  927MPD2     N13623   2.411   2.281  17.293 -0.4362 -0.1328 -0.2111
  927MPD2    H513624   2.386   2.362  17.239 -0.1646  0.5605  0.7058
  927MPD2    N113625   2.007   2.392  17.538 -0.1922 -0.0608  0.2816
  927MPD2    H713626   1.932   2.368  17.603 -2.8145  4.4332 -1.0205
  928MPD2     C13627   4.415   4.725   0.556 -0.3799 -0.3905  0.2460
  928MPD2    C113628   4.335   0.075   0.484 -0.5567 -0.3561 -0.8596
  928MPD2    C213629   4.397   0.156   0.392  0.6876  0.2253 -0.4151
  928MPD2    C313630   4.537   0.167   0.383 -0.4689 -0.8081 -0.0623
  928MPD2    C413631   4.611   0.081   0.455 -0.5096 -0.0710 -0.2718
  928MPD2    C513632   4.554   4.728   0.543  0.1029 -0.3768  0.0377
  928MPD2     H13633   4.341   0.227   0.331  0.7435 -0.7449 -1.5889
  928MPD2    H113634   4.719   0.087   0.452 -0.6175  1.6948 -0.6749
  928MPD2    H213635   4.370   4.668   0.637 -1.7750  1.1668  0.5659
  928MPD2    H313636   4.610   4.674   0.618  0.4788  0.8943  0.6737
  928MPD2     N13637   4.605   0.255   0.301  0.5239  0.0570  0.5578
  928MPD2    H513638   4.704   0.271   0.321  0.5755 -1.1384  1.2603
  928MPD2    N113639   4.199   0.077   0.522 -0.0161 -0.1189  0.0986
  928MPD2    H713640   4.179   0.027   0.609 -2.1622 -0.7928 -0.7758
  929MPD2     C13641   0.586   1.243  10.559  0.3540 -0.4806 -0.0070
  929MPD2    C113642   0.510   1.151  10.497  0.0830 -0.7852  0.4818
  929MPD2    C213643   0.438   1.183  10.383 -0.4375  0.0352 -0.0736
  929MPD2    C313644   0.438   1.315  10.339 -0.4742 -0.1472 -0.0032
  929MPD2    C413645   0.521   1.409  10.399 -0.5180 -0.1685 -0.0289
  929MPD2    C513646   0.598   1.372  10.504 -0.5356 -0.0993 -0.0992
  929MPD2     H13647   0.359   1.116  10.354  0.5586 -1.1442 -0.0727
  929MPD2    H113648   0.528   1.512  10.366 -0.0000  0.3102  1.5871
  929MPD2    H213649   0.638   1.224  10.652  0.5338 -0.2983 -0.0713
  929MPD2    H313650   0.665   1.447  10.544 -3.0086  1.8910  0.2926
  929MPD2     N13651   0.334   1.363  10.250 -0.5967 -0.0561  0.8707
  929MPD2    H513652   0.308   1.461  10.263 -2.9703 -0.5974  0.0880
  929MPD2    N113653   0.513   1.027  10.566 -0.3841 -0.6589 -0.3771
  929MPD2    H713654   0.563   1.031  10.654 -1.4495  0.2126  0.1913
  930MPD2     C13655   1.536   2.695  13.923 -0.0592 -0.3586  0.4482
  930MPD2    C113656   1.669   2.658  13.914  0.1137  0.7823 -0.3264
  930MPD2    C213657   1.748   2.672  13.800 -0.4849 -0.6289 -0.3788
  930MPD2    C313658   1.687   2.726  13.689 -0.3313 -0.5161  0.3945
  930MPD2    C413659   1.556   2.782  13.702 -0.4406 -0.1677  0.0271
  930MPD2    C513660   1.478   2.753  13.820 -0.4314  0.8418 -0.0659
  930MPD2     H13661   1.851   2.640  13.795 -0.1785  0.6343 -1.9041
  930MPD2    H113662   1.506   2.833  13.621 -0.6435 -0.4254 -0.0073
  930MPD2    H213663   1.474   2.674  14.010  0.6854 -2.6492  0.4389
  930MPD2    H313664   1.372   2.777  13.826 -0.6040 -0.2378  1.0489
  930MPD2     N13665   1.757   2.745  13.567 -0.3175 -0.3988 -0.6730
  930MPD2    H513666   1.709   2.788  13.489  0.9431 -0.6595 -1.5978
  930MPD2    N113667   1.723   2.604  14.033 -0.7588 -0.3021 -0.5215
  930MPD2    H713668   1.671   2.606  14.119 -2.5569  2.2970 -1.6964
  931MPD2     C13669   1.440   2.179  17.342  0.1018  0.3394  0.8254
  931MPD2    C113670   1.456   2.247  17.464  0.6487 -0.1729 -0.3705
  931MPD2    C213671   1.407   2.196  17.579 -0.3868  0.0695  0.4433
  931MPD2    C313672   1.350   2.071  17.574 -0.8569 -0.5674 -0.4298
  931MPD2    C413673   1.334   2.004  17.454  0.6112 -0.1144  0.2842
  931MPD2    C513674   1.379   2.057  17.336  0.5395 -0.0385 -0.0632
  931MPD2     H13675   1.444   2.243  17.670  0.6620  1.4290 -0.6882
  931MPD2    H113676   1.277   1.912  17.444  2.0730 -0.8071 -1.7224
  931MPD2    H213677   1.470   2.218  17.246  0.6862  0.2067  0.9494
  931MPD2    H313678   1.362   2.001  17.244 -1.1542  1.6138 -0.7499
  931MPD2     N13679   1.315   2.005  17.690  0.1966  0.3074 -0.1175
  931MPD2    H513680   1.274   1.913  17.682  0.6773  0.2105 -1.3915
  931MPD2    N113681   1.518   2.380  17.460 -0.3053 -0.3158 -0.0855
  931MPD2    H713682   1.561   2.414  17.374  0.8156 -0.7100  0.3206
  932MPD2     C13683   3.785   2.240  11.630  0.4324  0.0206 -0.2385
  932MPD2    C113684   3.913   2.204  11.587 -0.9903 -0.4592 -0.0305
  932MPD2    C213685   3.951   2.071  11.587  0.0738  0.5348  0.0998
  932MPD2    C313686   3.859   1.965  11.605 -0.2314  0.1722 -0.2224
  932MPD2    C413687   3.731   2.003  11.656 -1.2793  0.6635  0.0766
  932MPD2    C513688   3.703   2.138  11.668 -0.0303  0.0476 -0.8376
  932MPD2     H13689   4.048   2.048  11.543 -0.7162  0.0397 -1.3823
  932MPD2    H113690   3.656   1.924  11.664  1.1144 -1.5050  0.9027
  932MPD2    H213691   3.754   2.344  11.629  0.3690  0.0010 -0.3089
  932MPD2    H313692   3.601   2.171  11.686  0.4226 -0.6342  2.8934
  932MPD2     N13693   3.906   1.832  11.590  0.2426 -0.0950  0.2921
  932MPD2    H513694   4.001   1.822  11.557  0.8363  1.2488  1.6112
  932MPD2    N113695   4.010   2.301  11.553  0.3045  0.6628 -0.0997
  932MPD2    H713696   4.099   2.264  11.520  0.6626 -0.2065  1.8152
  933MPD2     C13697   3.355   0.477   0.492 -0.1309  0.5243  0.2295
  933MPD2    C113698   3.488   0.504   0.464 -0.5115  0.5297  0.1513
  933MPD2    C213699   3.518   0.623   0.404 -0.6125  0.9575  0.6832
  933MPD2    C313700   3.416   0.718   0.391 -0.2726 -1.0938 -0.4307
  933MPD2    C413701   3.283   0.686   0.414  0.1311 -0.8658 -0.1926
  933MPD2    C513702   3.252   0.560   0.457 -0.1161 -0.1803  1.2231
  933MPD2     H13703   3.622   0.646   0.384 -0.7090  0.6904 -0.1097
  933MPD2    H113704   3.198   0.752   0.399 -0.6464 -2.1092 -1.2931
  933MPD2    H213705   3.323   0.385   0.539 -1.6076  1.0178  0.1895
  933MPD2    H313706   3.151   0.534   0.485 -1.1405  3.7558  1.1600
  933MPD2     N13707   3.462   0.848   0.351 -0.6064 -0.5904 -0.1733
  933MPD2    H513708   3.562   0.862   0.339 -0.4583 -1.4285  0.0717
  933MPD2    N113709   3.587   0.405   0.488  0.2365  0.3868 -0.0351
  933MPD2    H713710   3.554   0.323   0.538  1.2198 -0.1976 -0.3511
  934MPD2     C13711   1.667   3.649   1.675 -0.5035  0.3445 -0.0812
  934MPD2    C113712   1.648   3.519   1.706  0.6267  0.2878  0.0534
  934MPD2    C213713   1.538   3.454   1.658 -0.4404 -0.3186 -0.2621
  934MPD2    C313714   1.434   3.525   1.592 -0.5956 -0.0469  0.1508
  934MPD2    C413715   1.452   3.663   1.571 -0.6227 -0.2090 -0.2295
  934MPD2    C513716   1.570   3.721   1.617 -0.3409 -0.0703 -0.4564
  934MPD2     H13717   1.523   3.351   1.688  0.6428 -0.4490 -0.1773
  934MPD2    H113718   1.381   3.734   1.530 -1.1686  0.5573  2.0368
  934MPD2    H213719   1.755   3.704   1.706 -0.1706  0.2580 -0.8769
  934MPD2    H313720   1.574   3.829   1.609 -0.8232 -0.0646 -0.5846
  934MPD2     N13721   1.320   3.459   1.538 -0.1584 -0.3279 -0.1167
  934MPD2    H513722   1.258   3.522   1.488  1.1258  1.2842  0.3439
  934MPD2    N113723   1.738   3.444   1.790  0.0202  0.5681 -0.1652
  934MPD2    H713724   1.698   3.351   1.800  2.4370 -0.4263  0.0413
  935MPD2     C13725   1.061   2.466   1.475  0.7846 -0.4655  0.0480
  935MPD2    C113726   0.973   2.538   1.401 -0.8261  0.0483  0.7096
  935MPD2    C213727   0.998   2.672   1.381 -0.0750 -0.7230  0.1363
  935MPD2    C313728   1.106   2.729   1.437  0.4309  0.8739 -0.2773
  935MPD2    C413729   1.187   2.663   1.522  0.3237  1.2240 -0.1561
  935MPD2    C513730   1.161   2.535   1.543 -0.4575 -0.2668  0.2015
  935MPD2     H13731   0.930   2.731   1.322 -0.2608 -1.3351 -0.2690
  935MPD2    H113732   1.277   2.710   1.558  0.0833 -1.3304  3.7002
  935MPD2    H213733   1.059   2.358   1.486  2.6062 -0.5482 -0.5245
  935MPD2    H313734   1.233   2.480   1.603 -0.3736  1.5686  1.7802
  935MPD2     N13735   1.135   2.868   1.422  0.3501 -0.0161  0.1380
  935MPD2    H513736   1.182   2.912   1.500  2.0647 -0.2951 -0.7299
  935MPD2    N113737   0.866   2.469   1.346 -0.5255  0.8402  0.0501
  935MPD2    H713738   0.832   2.382   1.387  0.4901 -0.3875 -1.7246
  936MPD2     C13739   4.268   4.329  12.333  0.4384 -0.5495  0.0011
  936MPD2    C113740   4.392   4.379  12.373  0.3782  0.2621  0.3777
  936MPD2    C213741   4.430   4.503  12.332 -0.1093  1.0152  0.8848
  936MPD2    C313742   4.342   4.585  12.259 -0.1402  0.3929 -0.1663
  936MPD2    C413743   4.225   4.533  12.212  0.0653  0.0558 -0.5945
  936MPD2    C513744   4.186   4.405  12.251 -0.5296  0.5162 -0.4900
  936MPD2     H13745   4.519   4.545  12.376  0.0089  0.9195  0.7358
  936MPD2    H113746   4.162   4.591  12.146  0.9205  0.8663 -0.6894
  936MPD2    H213747   4.213   4.239  12.358 -1.1832  0.7128  1.0015
  936MPD2    H313748   4.093   4.358  12.220 -0.5999  1.0594 -1.1252
  936MPD2     N13749   4.374   4.719  12.234 -0.3660  0.5219  0.1650
  936MPD2    H513750   4.304   0.039  12.189 -0.3363  0.2763 -0.1938
  936MPD2    N113751   4.463   4.316  12.483  0.6331  0.2526 -0.7498
  936MPD2    H713752   4.544   4.372  12.509  1.7262 -1.1345 -1.1668
  937MPD2     C13753   2.679   1.219  11.838 -0.5837 -0.5373 -0.1301
  937MPD2    C113754   2.623   1.325  11.773  0.6700  0.1244  0.0967
  937MPD2    C213755   2.693   1.379  11.667  0.2288  0.2751 -0.4892
  937MPD2    C313756   2.815   1.331  11.628 -0.3318 -0.6960 -0.8989
  937MPD2    C413757   2.873   1.227  11.696 -0.7320  0.6817 -0.0343
  937MPD2    C513758   2.801   1.175  11.798 -1.0934 -0.2722  0.0186
  937MPD2     H13759   2.651   1.465  11.615  1.5013  1.8228  1.0350
  937MPD2    H113760   2.965   1.178  11.665 -0.8711  0.1327  0.4245
  937MPD2    H213761   2.625   1.171  11.920  0.4553  0.0702  0.9166
  937MPD2    H313762   2.860   1.100  11.849  2.0699  2.1277 -0.1088
  937MPD2     N13763   2.883   1.407  11.529  0.2898  0.1969  0.7584
  937MPD2    H513764   2.844   1.493  11.491 -0.2535 -0.7052 -0.7438
  937MPD2    N113765   2.522   1.399  11.841 -0.3596 -0.4357  0.1961
  937MPD2    H713766   2.497   1.488  11.799 -0.1756 -0.0630  0.8806
  938MPD2     C13767   0.009   2.166   0.434 -0.0446  0.4708 -0.2442
  938MPD2    C113768   4.730   2.259   0.537  0.8946 -0.8043 -0.4616
  938MPD2    C213769   4.694   2.215   0.664 -0.3038  0.0954  1.4419
  938MPD2    C313770   4.682   2.078   0.692  0.6103 -0.3689 -0.3456
  938MPD2    C413771   4.714   1.988   0.591  0.6732 -0.1136 -0.2401
  938MPD2    C513772   0.008   2.034   0.463  0.2918  1.2465 -0.5894
  938MPD2     H13773   4.675   2.294   0.736  2.4634  0.8589  1.3468
  938MPD2    H113774   4.696   1.881   0.600  0.2238 -0.1588 -1.6675
  938MPD2    H213775   0.037   2.193   0.333 -1.4571 -1.1356 -1.0722
  938MPD2    H313776   0.028   1.954   0.393 -2.8098 -0.0202 -0.0130
  938MPD2     N13777   4.622   2.029   0.811  0.5268 -0.0151  0.5271
  938MPD2    H513778   4.607   1.929   0.813  1.6071 -0.1630  0.9299
  938MPD2    N113779   0.004   2.397   0.505  0.4334  0.4989  0.0927
  938MPD2    H713780   0.014   2.460   0.584  1.7273  0.2927  0.0936
  939MPD2     C13781   1.021   3.473   0.638 -0.5611 -0.0535 -0.2660
  939MPD2    C113782   0.969   3.592   0.589 -0.2569 -0.5904 -0.8511
  939MPD2    C213783   1.035   3.656   0.483 -0.4581  0.2287  0.4074
  939MPD2    C313784   1.142   3.596   0.418 -0.5061  0.3537  0.9119
  939MPD2    C413785   1.184   3.474   0.469 -0.1966  0.2784 -0.5888
  939MPD2    C513786   1.127   3.413   0.574 -0.0413 -0.4051 -0.2076
  939MPD2     H13787   0.992   3.743   0.435 -1.2347  0.2629  1.1762
  939MPD2    H113788   1.268   3.417   0.430  0.6923 -0.3293  2.2434
  939MPD2    H213789   0.979   3.426   0.726  3.3398 -0.9305  1.0875
  939MPD2    H313790   1.172   3.319   0.602  1.5072  0.3328 -0.1722
  939MPD2     N13791   1.210   3.664   0.318  0.4503  0.1893 -1.4963
  939MPD2    H513792   1.183   3.761   0.306  0.9319  0.5788  0.6264
  939MPD2    N113793   0.850   3.634   0.652  0.2463 -0.6897  0.1209
  939MPD2    H713794   0.796   3.563   0.700 -0.6763 -2.2787 -3.2525
  940MPD2     C13795   0.381   0.007  13.598 -1.0662 -0.1593  0.1288
  940MPD2    C113796   0.304   0.003  13.485  1.3917  0.4052 -0.4131
  940MPD2    C213797   0.334   4.660  13.381 -0.4993  0.4862 -0.7155
  940MPD2    C313798   0.442   4.574  13.387 -0.0682 -0.3333  0.5653
  940MPD2    C413799   0.510   4.569  13.504 -0.1018 -0.3245 -0.0401
  940MPD2    C513800   0.482   4.652  13.611  0.0085  0.5435 -0.4999
  940MPD2     H13801   0.274   4.673  13.291  0.7133  1.0417 -1.4549
  940MPD2    H113802   0.589   4.497  13.521  1.4244  0.7949 -2.4512
  940MPD2    H213803   0.371   0.075  13.683  0.0322 -1.2170  1.1072
  940MPD2    H313804   0.541   4.663  13.701 -1.6452 -1.2295  0.8161
  940MPD2     N13805   0.478   4.486  13.282 -0.2286 -0.5546 -0.4180
  940MPD2    H513806   0.570   4.445  13.285  0.6892  1.5552  0.5634
  940MPD2    N113807   0.187   0.087  13.480  0.0480 -0.5217  0.1576
  940MPD2    H713808   0.136   0.076  13.393  1.3676 -0.3465 -0.6503
  941MPD2     C13809   0.001   4.554   9.952  0.7059 -0.1290 -0.3263
  941MPD2    C113810   0.054   4.430   9.951  0.2974  0.0555 -0.3002
  941MPD2    C213811   4.709   4.322   9.972  0.1926 -0.4920  0.0952
  941MPD2    C313812   4.568   4.339   9.974 -0.5715 -0.2654  0.3035
  941MPD2    C413813   4.516   4.469   9.969  0.1645  0.0735 -0.2165
  941MPD2    C513814   4.599   4.577   9.949 -0.2270  0.2659 -0.2023
  941MPD2     H13815   0.017   4.224   9.982 -0.2215 -0.7854 -0.8985
  941MPD2    H113816   4.408   4.479   9.971 -0.0640 -2.0730 -1.9578
  941MPD2    H213817   0.068   4.638   9.940 -0.0950  0.6364  0.5769
  941MPD2    H313818   4.562   4.679   9.946 -0.6314  0.1357  0.3158
  941MPD2     N13819   4.470   4.237   9.994 -0.2737  0.1461 -0.0914
  941MPD2    H513820   4.373   4.265  10.003 -0.6027 -0.9968 -0.1205
  941MPD2    N113821   0.194   4.408   9.956  1.0679 -0.2444  0.8955
  941MPD2    H713822   0.224   4.315   9.981  0.5873 -0.4896  0.5638
  942MPD2     C13823   0.098   1.375   9.289 -0.1539 -0.0176  0.2707
  942MPD2    C113824   0.203   1.293   9.313  0.2963 -0.3046  0.3940
  942MPD2    C213825   0.311   1.348   9.377 -0.1345  0.5000  0.6396
  942MPD2    C313826   0.313   1.480   9.418 -0.7717  0.1652  0.3813
  942MPD2    C413827   0.205   1.561   9.384  0.2061 -0.1391  0.4062
  942MPD2    C513828   0.098   1.507   9.325  0.3155  0.3661  0.2335
  942MPD2     H13829   0.392   1.279   9.392 -1.0748 -0.3812  1.6543
  942MPD2    H113830   0.214   1.664   9.417 -1.7311  0.7117 -1.7975
  942MPD2    H213831   0.019   1.329   9.231  2.2366 -4.1634  0.3433
  942MPD2    H313832   0.007   1.564   9.318 -0.5174 -1.0976 -0.7416
  942MPD2     N13833   0.413   1.539   9.496  0.3893  0.3329  0.9208
  942MPD2    H513834   0.405   1.639   9.509 -1.0878  0.2755  0.5523
  942MPD2    N113835   0.216   1.164   9.259  0.3707  0.1169 -0.0883
  942MPD2    H713836   0.312   1.132   9.257  0.1948 -0.3449 -0.9005
  943MPD2     C13837   3.588   4.349   9.529 -0.0097  0.1722 -0.1304
  943MPD2    C113838   3.490   4.292   9.612 -0.3887 -0.0934 -0.0098
  943MPD2    C213839   3.482   4.326   9.743  0.0772  0.3492 -0.6889
  943MPD2    C313840   3.550   4.429   9.794  0.1157 -0.9565 -0.0857
  943MPD2    C413841   3.646   4.488   9.715 -0.4989  0.4801  0.0173
  943MPD2    C513842   3.670   4.441   9.587  0.2227 -0.1054 -0.3734
  943MPD2     H13843   3.431   4.268   9.819  0.3695 -2.1230 -2.3549
  943MPD2    H113844   3.705   4.568   9.758  0.1914 -0.2981  0.5293
  943MPD2    H213845   3.606   4.326   9.425 -1.3935  0.9351 -0.5379
  943MPD2    H313846   3.744   4.484   9.521  0.0352  0.9101  0.0767
  943MPD2     N13847   3.534   4.486   9.925  0.0044  0.1660 -0.0609
  943MPD2    H513848   3.570   4.578   9.948  1.5783  0.1261 -2.3756
  943MPD2    N113849   3.411   4.188   9.550  0.6498  0.0126  0.3059
  943MPD2    H713850   3.443   4.156   9.459  1.1020 -0.1744  0.5292
  944MPD2     C13851   2.711   3.098  11.002 -0.0971 -0.0771 -0.1061
  944MPD2    C113852   2.751   3.220  10.970 -0.1249  0.0637 -0.2063
  944MPD2    C213853   2.709   3.329  11.043  0.2143 -0.8795 -0.3907
  944MPD2    C313854   2.613   3.306  11.148  0.5749 -0.2277  0.8359
  944MPD2    C413855   2.576   3.176  11.179 -0.0740  0.4308 -0.0391
  944MPD2    C513856   2.634   3.075  11.111  0.2435 -0.6526 -0.0055
  944MPD2     H13857   2.748   3.428  11.021  0.5925 -0.7125  0.9930
  944MPD2    H113858   2.503   3.160  11.256 -1.2228 -1.3672 -1.5141
  944MPD2    H213859   2.761   3.018  10.949  1.8217  1.5442 -0.7717
  944MPD2    H313860   2.604   2.974  11.135  0.3936 -0.2910  1.7418
  944MPD2     N13861   2.556   3.421  11.208  0.8755 -0.0064 -0.1777
  944MPD2    H513862   2.581   3.512  11.170  1.0891  0.7417  1.7564
  944MPD2    N113863   2.842   3.229  10.865  0.0363 -0.0849 -0.0316
  944MPD2    H713864   2.869   3.140  10.825 -1.9603 -0.7908  0.2212
    1TMC1    C113865   0.429   3.945  15.166 -0.0253 -0.3523  0.1200
    1TMC1    C213866   0.512   3.862  15.093 -0.3818  0.5414  0.1791
    1TMC1    C313867   0.513   3.726  15.112  0.7678 -0.5919  0.1295
    1TMC1    C413868   0.349   3.891  15.266 -0.1779  0.2903 -0.0318
    1TMC1    C513869   0.346   3.756  15.290 -0.4178  0.5097 -0.3362
    1TMC1    C613870   0.435   3.677  15.217 -0.5384  0.0316 -0.3597
    1TMC1     C13871   0.423   4.094  15.136 -0.0261  0.1223  0.4416
    1TMC1     O13872   0.386   4.158  15.231 -0.2465 -0.6755  0.2947
    1TMC1     H13873   0.584   3.905  15.024 -0.8380  1.7220  0.4539
    1TMC1    H113874   0.282   3.958  15.319  0.9819  0.0111  1.7685
    1TMC1    H213875   0.437   3.572  15.245 -0.5024 -0.1636 -1.1069
    1TMC1    C713876   0.291   3.701  15.408 -0.2772 -0.9035 -0.6879
    1TMC1    C813877   0.581   3.648  15.009  0.5175 -0.2080 -0.5214
    1TMC1    O113878   0.267   3.582  15.417 -0.2288 -0.8230  0.3180
    1TMC1    O213879   0.659   3.684  14.929  0.3878  0.2313 -0.5070
    1TMC1    O313880   0.246   3.790  15.495  0.2531 -0.1188  0.2236
    1TMC1    H313881   0.271   3.883  15.472 -2.0687  0.1090 -1.3513
    1TMC1    O513882   0.492   3.551  14.989  0.1955 -0.5019 -0.1234
    1TMC1    H513883   0.437   3.524  15.066  1.6539 -2.1601  0.3488
    2MPD2     C13884   0.521   4.520  14.876  0.1254  0.4044 -0.0847
    2MPD2    C113885   0.572   4.415  14.793  0.1102 -0.2346  0.6016
    2MPD2    C213886   0.574   4.291  14.851 -0.3650 -0.1594  0.8470
    2MPD2    C313887   0.517   4.267  14.981  0.2092  0.7382  0.1314
    2MPD2    C413888   0.466   4.372  15.057  0.4430 -0.1004 -0.5995
    2MPD2    C513889   0.465   4.499  14.998  0.1120  0.6872 -0.5480
    2MPD2     H13890   0.630   4.211  14.802  2.1145  2.1696 -0.1256
    2MPD2    H113891   0.430   4.362  15.158 -0.2302 -0.1619 -0.8508
    2MPD2    H213892   0.533   4.619  14.833  0.8719 -0.0436 -0.8918
    2MPD2    H313893   0.426   4.580  15.058 -1.6120 -2.4146  2.5427
    2MPD2     N13894   0.493   4.134  15.021  0.2597  0.0373  0.0218
    2MPD2    H513895   0.526   4.063  14.957  1.5983  2.0308 -1.4943
    2MPD2    N113896   0.615   4.445  14.662 -0.6447  0.3671  0.5371
    2MPD2    H713897   0.585   4.534  14.623 -0.8728 -0.1883 -0.5656
    3TMC2    C113898   0.712   4.421  14.457 -0.0510 -0.5202 -0.3133
    3TMC2    C213899   0.688   4.350  14.348 -0.3048 -0.3141 -0.6544
    3TMC2    C313900   0.695   4.406  14.226  0.4243 -0.2208  0.2079
    3TMC2    C413901   0.742   4.555  14.446 -0.1713  0.2457 -0.1077
    3TMC2    C513902   0.753   4.608  14.319 -0.2192 -0.0836 -0.0412
    3TMC2    C613903   0.727   4.537  14.206 -0.1308 -0.5706 -0.1697
    3TMC2     C13904   0.687   4.360  14.579  0.3435 -0.3993 -0.2589
    3TMC2     O13905   0.722   4.244  14.590 -0.3862  0.2391  0.1424
    3TMC2     H13906   0.649   4.249  14.349 -2.0713  0.3533 -1.4114
    3TMC2    H113907   0.765   4.619  14.531  0.5587  1.0004 -0.8706
    3TMC2    H213908   0.761   4.561  14.106  0.2334 -2.5093 -0.5070
    3TMC2    C713909   0.794   0.009  14.305  0.7427 -0.5956  0.6203
    3TMC2    C813910   0.662   4.334  14.106 -0.6529 -0.0105  0.1957
    3TMC2    O113911   0.887   0.050  14.369  0.0958 -0.3697 -0.5903
    3TMC2    O213912   0.610   4.381  14.004  0.4085 -0.4279  0.3469
    3TMC2    O513913   0.744   4.225  14.104  0.1725 -0.4218  0.1645
    3TMC2    H513914   0.803   4.221  14.182 -0.5522  2.1088  0.8340
    4TMC2    C113915   0.198   0.576  13.695 -0.0587 -0.0742 -0.1798
    4TMC2    C213916   0.265   0.664  13.610 -0.2327  0.0810  0.0991
    4TMC2    C313917   0.402   0.651  13.608  0.1994  0.3032 -0.3553
    4TMC2    C413918   0.265   0.489  13.770 -0.5787 -0.1269 -0.5678
    4TMC2    C513919   0.399   0.482  13.765 -0.7514 -0.6793  0.7213
    4TMC2    C613920   0.472   0.575  13.695  0.7925 -0.3080 -0.6214
    4TMC2     C13921   0.056   0.580  13.715  0.4639  0.0046  0.6132
    4TMC2     O13922   0.008   0.537  13.818 -0.0699  0.2357 -0.5263
    4TMC2     H13923   0.214   0.735  13.545  2.7549  2.0976 -0.0246
    4TMC2    H113924   0.211   0.430  13.844 -0.4652  1.1590  0.5352
    4TMC2    H213925   0.580   0.571  13.696  0.7544 -2.0785 -1.8356
    4TMC2    C713926   0.464   0.388  13.858 -0.3046  0.2325 -0.6062
    4TMC2    C813927   0.485   0.758  13.552 -0.0513 -0.0285 -0.7397
    4TMC2    O113928   0.397   0.294  13.900  0.1718 -1.0371 -0.5329
    4TMC2    O213929   0.445   0.875  13.546 -0.2138 -0.2242  0.8313
    4TMC2    O513930   0.589   0.709  13.493  0.6378 -0.1955  0.1635
    4TMC2    H513931   0.593   0.611  13.494  2.7735 -0.1212  0.4757
    5MPD2     C13932   4.294   0.624  13.584 -0.0244  0.3539 -0.2121
    5MPD2    C113933   4.370   0.640  13.473  0.7475  0.7505 -0.1640
    5MPD2    C213934   4.509   0.651  13.477  0.1608 -0.0493  0.4580
    5MPD2    C313935   4.574   0.635  13.604 -0.2381 -0.9392 -0.6591
    5MPD2    C413936   4.495   0.624  13.718  0.9423 -0.0901 -0.1334
    5MPD2    C513937   4.360   0.620  13.706 -0.1139 -0.0208  0.1271
    5MPD2     H13938   4.572   0.664  13.390 -1.2744  2.8045 -0.1340
    5MPD2    H113939   4.544   0.611  13.813 -0.4608 -0.8179  0.4832
    5MPD2    H213940   4.186   0.629  13.587 -0.0919 -0.3771 -1.2925
    5MPD2    H313941   4.294   0.626  13.792  1.1051 -2.8256  1.2713
    5MPD2     N13942   4.714   0.614  13.602 -0.4385 -0.2626  0.1931
    5MPD2    H513943   0.028   0.625  13.515  0.7311  1.0367  1.0617
    5MPD2    N113944   4.292   0.667  13.356  0.6779 -0.4464  0.0913
    5MPD2    H713945   4.192   0.649  13.361  0.5859 -0.0762 -0.5165
    6MPD1     C13946   4.204   1.916  12.247  0.2130  0.1626 -0.7116
    6MPD1    C113947   4.086   1.911  12.315  0.6580 -0.1280  0.1237
    6MPD1    C213948   4.030   1.786  12.328 -0.4988  0.1748 -0.1426
    6MPD1    C313949   4.088   1.675  12.268  0.1812  0.0281 -0.6027
    6MPD1    C413950   4.208   1.692  12.201 -0.3985 -0.4160 -0.1508
    6MPD1    C513951   4.273   1.809  12.202 -0.2142 -0.4499  0.9803
    6MPD1     H13952   3.938   1.773  12.383  1.0235 -0.5206  2.2612
    6MPD1    H113953   4.263   1.611  12.155  0.4696 -1.9007  3.5106
    6MPD1    H213954   4.263   2.005  12.228  0.8661 -0.6872 -2.7358
    6MPD1    H313955   4.362   1.818  12.141 -0.9557 -0.8885 -0.1827
    6MPD1     N13956   4.039   1.541  12.268  0.0708 -0.3045  0.4083
    6MPD1    H513957   4.082   1.461  12.224 -1.9807 -0.2994 -1.6079
    6MPD1    N113958   4.035   2.027  12.375 -0.4455 -0.4908  0.1562
    6MPD1    H613959   3.934   2.035  12.379 -0.5976 -2.8325  1.2872
    6MPD1    H713960   4.079   2.111  12.340  0.0933 -0.4683  0.8879
    7MPD2     C13961   3.605   0.987  12.778 -0.3957 -0.8703 -0.6364
    7MPD2    C113962   3.718   0.949  12.712  0.2684 -0.4139  0.2095
    7MPD2    C213963   3.807   0.861  12.772  0.3736 -0.4667  1.2906
    7MPD2    C313964   3.776   0.818  12.902 -0.5854  0.2460  0.0207
    7MPD2    C413965   3.659   0.856  12.967 -1.0896  0.5979  0.5813
    7MPD2    C513966   3.568   0.936  12.896 -0.1850  0.2467  0.3488
    7MPD2     H13967   3.898   0.830  12.722 -0.4968 -1.1325  0.1307
    7MPD2    H113968   3.640   0.858  13.074 -0.7617  2.6004  0.6068
    7MPD2    H213969   3.541   1.065  12.736 -0.4805 -1.4115 -1.5192
    7MPD2    H313970   3.486   0.983  12.949 -2.1724 -1.0901 -1.5125
    7MPD2     N13971   3.883   0.748  12.961  0.7575 -0.1945 -1.0159
    7MPD2    H513972   3.970   0.737  12.909  1.1410 -0.8182 -0.2595
    7MPD2    N113973   3.765   1.004  12.588  0.3928  0.3548  0.0662
    7MPD2    H713974   3.860   0.980  12.563  0.9777  1.0733  1.5968
    8TMC3    C113975   4.015   0.635  13.109 -0.5551  1.0046  0.2170
    8TMC3    C213976   4.109   0.700  13.184  0.5689  0.2773  0.3466
    8TMC3    C313977   4.239   0.695  13.141 -0.3604 -1.3189 -0.1570
    8TMC3    C413978   4.047   0.569  12.995 -0.3797  0.4238  0.8082
    8TMC3    C513979   4.177   0.564  12.947  0.3514  0.1763  0.4634
    8TMC3    C613980   4.272   0.626  13.025 -0.8519 -0.1760 -0.4469
    8TMC3     C13981   3.892   0.705  13.089  0.2294  0.0405 -0.4327
    8TMC3     O13982   3.830   0.742  13.189  0.5285 -0.1485 -0.0940
    8TMC3     H13983   4.074   0.761  13.266  0.3633 -1.8194  1.8375
    8TMC3    H113984   3.966   0.539  12.930  1.6582  0.8524 -1.9141
    8TMC3    H213985   4.376   0.625  12.996 -1.0900  1.2980 -1.3924
    8TMC3    C713986   4.174   0.616  12.807  1.7152  0.1772 -0.9792
    8TMC3    C813987   4.345   0.698  13.237 -0.1635  0.2504  0.5808
    8TMC3    O113988   4.069   0.676  12.779 -0.3919 -0.5452  0.0587
    8TMC3    O213989   4.459   0.708  13.203  0.1012  0.4920 -0.2518
    9TMC3    C113990   3.918   1.350  12.345  0.2418 -0.0437 -0.8419
    9TMC3    C213991   4.028   1.270  12.308  0.4474 -0.4656  0.6186
    9TMC3    C313992   4.033   1.138  12.346 -0.1102  0.3711  0.0017
    9TMC3    C413993   3.818   1.300  12.422  0.7954 -0.4361 -0.0784
    9TMC3    C513994   3.812   1.159  12.437  0.7859  0.2157  0.7547
    9TMC3    C613995   3.924   1.077  12.398 -0.2354 -0.2671 -0.2038
    9TMC3     C13996   3.933   1.498  12.339 -0.3523  0.7333 -0.0163
    9TMC3     O13997   3.862   1.559  12.421  0.4659 -0.2151 -0.4774
    9TMC3     H13998   4.118   1.309  12.261 -0.4954  1.4524  0.3827
    9TMC3    H113999   3.738   1.360  12.464  1.3386  0.6117 -0.5361
    9TMC3    H214000   3.924   0.969  12.408 -0.2086  0.0581  3.4418
    9TMC3    C714001   3.707   1.106  12.511  0.6017 -0.4177 -0.5027
    9TMC3    C814002   4.159   1.064  12.341 -0.2022 -0.1916 -0.3808
    9TMC3    O114003   3.604   1.170  12.527 -1.2957  0.0770 -0.1639
    9TMC3    O214004   4.246   1.101  12.262  0.0079  0.7347 -0.0790
   10MPD2     C14005   4.444   0.684  12.557  0.6120  0.3423  0.2109
   10MPD2    C114006   4.321   0.696  12.622  0.6125 -0.5456 -0.5679
   10MPD2    C214007   4.241   0.803  12.578 -0.0929 -0.0327 -0.7565
   10MPD2    C314008   4.265   0.892  12.479 -0.0726 -0.2744  0.4715
   10MPD2    C414009   4.386   0.880  12.415 -0.0613  0.0328  0.1350
   10MPD2    C514010   4.468   0.776  12.456  0.9021 -0.2416  0.0064
   10MPD2     H14011   4.146   0.819  12.629  2.7285  0.1574  4.4010
   10MPD2    H114012   4.420   0.942  12.333 -1.5450  0.1151 -0.4094
   10MPD2    H214013   4.518   0.617  12.600 -0.5435 -3.4518 -3.7633
   10MPD2    H314014   4.565   0.768  12.409  0.9130  1.3541 -0.2271
   10MPD2     N14015   4.163   0.982  12.449  0.0506  0.5444  0.3581
   10MPD2    H514016   4.085   0.982  12.514 -0.3576  1.1824 -0.1229
   10MPD2    N114017   4.294   0.614  12.741  0.0073  0.3085  0.0573
   10MPD2    H714018   4.362   0.548  12.777 -1.2399 -0.5430  0.8871
   11MPD2     C14019   0.848   0.258  14.165  0.1382 -0.5995 -0.0801
   11MPD2    C114020   0.736   0.186  14.140  0.1017  0.0103  0.4459
   11MPD2    C214021   0.636   0.243  14.057  0.0743 -0.3477  0.2610
   11MPD2    C314022   0.670   0.367  13.986  0.5182  0.2005 -0.5618
   11MPD2    C414023   0.779   0.436  14.028  0.5950 -0.3150  0.0675
   11MPD2    C514024   0.866   0.384  14.118 -0.0617  0.2851  0.0282
   11MPD2     H14025   0.548   0.184  14.039 -1.2668  1.6058  0.4102
   11MPD2    H114026   0.799   0.534  13.984 -0.7828 -0.4274 -0.8161
   11MPD2    H214027   0.940   0.221  14.207  0.0870  0.0296  0.5742
   11MPD2    H314028   0.955   0.440  14.144  0.6299 -0.4541 -0.7337
   11MPD2     N14029   0.584   0.435  13.894 -0.1556 -0.6489 -0.8697
   11MPD2    H514030   0.608   0.529  13.865  1.0413 -1.1703 -1.5596
   11MPD2    N114031   0.716   0.062  14.203  0.9577  0.2043 -0.2841
   11MPD2    H714032   0.627   0.019  14.181  1.1307  0.5791 -1.6964
    1MPD1     C14033   3.248   1.306  17.424 -0.2213 -0.5690  0.0267
    1MPD1    C114034   3.292   1.181  17.415  0.1730  0.2415  0.0421
    1MPD1    C214035   3.419   1.164  17.373 -0.1362  0.0908  0.2213
    1MPD1    C314036   3.502   1.268  17.359 -0.2531 -0.0370  0.2392
    1MPD1    C414037   3.461   1.398  17.381  0.6509 -0.6395  0.4481
    1MPD1    C514038   3.332   1.413  17.418 -0.4783  0.3966 -0.6223
    1MPD1     H14039   3.452   1.061  17.357 -0.8005  0.3699 -2.8457
    1MPD1    H114040   3.522   1.485  17.359  0.1503  0.3665  3.1107
    1MPD1    H214041   3.141   1.322  17.435 -0.0527  1.9140 -2.0868
    1MPD1    H314042   3.293   1.514  17.432 -0.0140  0.6200 -0.9369
    1MPD1     N14043   3.638   1.248  17.328 -0.1675 -0.4683 -0.0529
    1MPD1    H514044   3.693   1.333  17.331  1.1382 -1.2863 -0.6342
    1MPD1    N114045   3.203   1.073  17.412  0.8267  0.2202  0.2777
    1MPD1    H614046   3.120   1.088  17.469 -1.2688 -0.1535 -2.6485
    1MPD1    H714047   3.242   0.982  17.432  0.6399  0.1204  0.1847
    2MPD1     C14048   4.153   1.849  17.036  0.4426 -0.9196 -0.1810
    2MPD1    C114049   4.048   1.836  17.124  0.6464  0.2987 -0.0009
    2MPD1    C214050   4.007   1.717  17.164  0.1250 -0.1049 -0.0451
    2MPD1    C314051   4.080   1.605  17.123 -0.1649  0.5029 -0.3134
    2MPD1    C414052   4.192   1.624  17.042 -0.1518 -0.8212 -0.3762
    2MPD1    C514053   4.221   1.741  16.985  0.6553 -0.2227  0.1317
    2MPD1     H14054   3.919   1.700  17.225 -0.5625 -0.2501 -1.0686
    2MPD1    H114055   4.240   1.535  17.003 -1.6617 -1.5887 -0.4785
    2MPD1    H214056   4.178   1.949  17.000  0.3928 -0.4058  1.2050
    2MPD1    H314057   4.309   1.748  16.921 -0.3449  3.7788 -0.8182
    2MPD1     N14058   4.028   1.484  17.175 -0.1587 -0.4108  0.3738
    2MPD1    H514059   3.938   1.487  17.222 -0.0036 -1.1611  0.7279
    2MPD1    N114060   3.972   1.950  17.153  0.0945 -0.0671  0.1166
    2MPD1    H614061   3.931   1.933  17.245  0.7659 -0.7136  0.2954
    2MPD1    H714062   4.019   2.039  17.144 -0.5228  0.4277  1.8674
    3TMC3    C114063   4.033   1.252  17.214  0.5762  0.3538 -0.5400
    3TMC3    C214064   4.105   1.139  17.229 -0.4399 -0.1491 -0.0672
    3TMC3    C314065   4.043   1.027  17.261  0.1276  0.0903  0.4966
    3TMC3    C414066   3.895   1.251  17.231 -0.1772 -0.0133 -0.1001
    3TMC3    C514067   3.838   1.137  17.276  0.3911  0.0749 -1.0726
    3TMC3    C614068   3.911   1.023  17.285  0.2561 -0.0991  0.5820
    3TMC3     C14069   4.105   1.372  17.172  0.2007  0.6771 -0.7947
    3TMC3     O14070   4.220   1.350  17.140  0.3960 -0.5221  0.3865
    3TMC3     H14071   4.211   1.141  17.206 -0.3260 -0.8535  0.4043
    3TMC3    H114072   3.835   1.341  17.216 -1.5230 -0.7049  1.2229
    3TMC3    H214073   3.863   0.932  17.320  1.2498 -0.6354  0.5611
    3TMC3    C714074   3.708   1.126  17.310  0.7404 -0.0815 -0.2555
    3TMC3    C814075   4.121   0.914  17.302 -0.3936 -0.5614 -0.4003
    3TMC3    O114076   3.666   1.014  17.336  0.1881  0.5623  0.2024
    3TMC3    O214077   4.067   0.832  17.371 -0.4505  0.0051 -0.4903
    4MPD1     C14078   4.535   0.603  17.266 -0.2352  0.2019  0.5417
    4MPD1    C114079   4.564   0.718  17.205 -0.1730  0.2256 -0.4408
    4MPD1    C214080   4.469   0.820  17.199 -0.2543  0.0124 -0.6919
    4MPD1    C314081   4.340   0.804  17.258 -0.0848  0.4459  0.4064
    4MPD1    C414082   4.315   0.684  17.321  0.4631  0.1979  0.0301
    4MPD1    C514083   4.414   0.589  17.329 -0.4943 -0.0222 -0.3685
    4MPD1     H14084   4.478   0.914  17.147 -0.2778 -0.0381 -0.7868
    4MPD1    H114085   4.221   0.660  17.370  0.1106 -0.3176 -0.8947
    4MPD1    H214086   4.596   0.514  17.258  1.0403  1.2271 -0.8692
    4MPD1    H314087   4.372   0.499  17.372  0.7644  1.1964  3.3945
    4MPD1     N14088   4.242   0.906  17.238  0.3827  0.0856  0.6284
    4MPD1    H514089   4.273   0.979  17.175  1.2334 -0.5727  0.2889
    4MPD1    N114090   4.679   0.724  17.123  0.7993  0.0094 -0.0751
    4MPD1    H614091   0.019   0.676  17.168  0.5500 -1.3890 -1.1454
    4MPD1    H714092   4.710   0.819  17.104  1.7094 -0.0889  0.9044
    1TCq1    O114093   4.194   2.154  11.246  0.2752  0.1024 -0.5365
    1TCq1    C114094   4.263   2.137  11.363 -0.0140 -0.2721  0.7437
    1TCq1    O214095   4.240   2.193  11.468  0.4065 -0.2050  0.0928
    1TCq1    C214096   4.386   2.069  11.327  0.7205 -0.7397  0.0331
    1TCq1    C314097   4.501   2.108  11.387  0.5710 -0.9358  0.4544
    1TCq1    C414098   4.619   2.053  11.346  0.0434  0.3794  0.4173
    1TCq1    C514099   4.630   1.950  11.251 -0.0172  0.1474 -0.0790
    1TCq1    C614100   4.505   1.916  11.194 -0.2741  0.2501 -0.2726
    1TCq1    C714101   4.384   1.968  11.234  0.5864 -0.1627  0.1236
    1TCq1    C814102   4.507   1.861  11.056 -0.3140 -0.3456 -0.3339
    1TCq1    O414103   4.403   1.848  10.992  0.0799 -0.2371 -0.6760
    1TCq1    C914104   4.730   2.137  11.333 -0.4693  0.3380  0.4596
    1TCq1    O514105   0.103   2.081  11.315 -0.1598 -0.2481  0.6405
    1TCq1    O614106   4.704   2.251  11.294  0.2464  0.3509  0.3257
    1TCq1    H114107   4.244   2.111  11.173 -2.0690 -2.4204 -0.6357
    1TCq1    H214108   4.506   2.209  11.426 -0.3585 -0.8280  0.2843
    1TCq1    H314109   4.724   1.922  11.205 -0.8888  2.3903 -3.2462
    1TCq1    H414110   4.291   1.933  11.192  2.0970 -3.1869 -0.6993
    2MPD1     C14111   0.009   1.606  10.701 -0.1415 -0.7299  0.1554
    2MPD1    C114112   0.076   1.587  10.817 -0.2390  0.1162  0.1286
    2MPD1    C214113   0.031   1.664  10.925  0.1584  0.0211 -0.1368
    2MPD1    C314114   4.656   1.733  10.917 -0.3531  0.6000 -0.1453
    2MPD1    C414115   4.582   1.743  10.798  0.3556  0.0395 -0.0177
    2MPD1    C514116   4.628   1.674  10.691 -0.0619 -0.0243 -0.3781
    2MPD1     H14117   0.091   1.673  11.015  0.9259 -0.3971 -0.5992
    2MPD1    H114118   4.488   1.795  10.783  0.0091 -0.2909  1.0260
    2MPD1    H214119   0.046   1.551  10.615 -0.0400  0.3347 -0.4806
    2MPD1    H314120   4.580   1.685  10.595  1.4754  0.2473 -1.1175
    2MPD1     N14121   4.626   1.807  11.032 -0.2538 -0.1551 -0.1335
    2MPD1    H514122   4.702   1.816  11.099  3.0526  1.5423 -4.0700
    2MPD1    N114123   0.201   1.522  10.821  0.5021  0.0064 -0.0179
    2MPD1    H614124   0.226   1.481  10.911 -2.1036 -1.8910 -0.1608
    2MPD1    H714125   0.212   1.446  10.754 -0.7047  0.1272 -0.3463
    1TMC1    C114126   2.643   2.566   0.299 -0.4108  0.8461  0.6788
    1TMC1    C214127   2.550   2.490   0.234 -0.2234 -0.3077 -0.5886
    1TMC1    C314128   2.508   2.525   0.105 -0.6155 -0.0637 -0.4280
    1TMC1    C414129   2.701   2.676   0.239  0.0089 -0.4687  0.2780
    1TMC1    C514130   2.668   2.702   0.111  0.2518 -0.2246  0.1036
    1TMC1    C614131   2.566   2.634   0.046 -0.2354 -1.0073 -0.1590
    1TMC1     C14132   2.637   2.587   0.444 -0.3310 -0.0744  0.3058
    1TMC1     O14133   2.722   2.647   0.500 -0.1667 -0.5196  0.5018
    1TMC1     H14134   2.521   2.396   0.279 -0.2533  0.0037  0.0327
    1TMC1    H114135   2.787   2.733   0.273 -1.4547  1.7278  0.2499
    1TMC1    H214136   2.538   2.679  17.699  0.2384  1.2863  0.7925
    1TMC1    C714137   2.705   2.834   0.065 -0.5356  0.2713 -0.2601
    1TMC1    C814138   2.413   2.431   0.031  0.2341 -0.1699 -0.1065
    1TMC1    O114139   2.755   2.862  17.701 -0.5404  0.1862 -0.1460
    1TMC1    O214140   2.375   2.335   0.093 -0.0597 -0.4692  0.8228
    1TMC1    O314141   2.634   2.920   0.135 -0.0840 -0.0016 -0.1417
    1TMC1    H314142   2.596   2.868   0.209  1.3355  1.4814  1.6396
    1TMC1    O514143   2.434   2.441  17.647 -0.6486  0.1869  0.1327
    1TMC1    H514144   2.459   2.523  17.599 -2.4643  1.0540  0.6756
    2MPD1     C14145   2.378   2.487   0.879 -0.5611  0.3305  0.4890
    2MPD1    C114146   2.506   2.537   0.863 -0.4375 -0.6624  1.3847
    2MPD1    C214147   2.552   2.547   0.731  0.0632  0.5758  0.4007
    2MPD1    C314148   2.475   2.515   0.618 -0.5873 -0.0143 -0.1328
    2MPD1    C414149   2.345   2.466   0.641 -0.2010  0.8337  0.6530
    2MPD1    C514150   2.301   2.446   0.770  0.2911  0.3892 -0.6989
    2MPD1     H14151   2.655   2.577   0.717 -0.5445  2.5564  0.2817
    2MPD1    H114152   2.277   2.461   0.557  0.4120 -1.9432  0.3312
    2MPD1    H214153   2.341   2.452   0.974  2.2093 -0.5905  1.2235
    2MPD1    H314154   2.209   2.393   0.793  0.2349 -0.0414 -1.8946
    2MPD1     N14155   2.517   2.534   0.485  0.4834  0.0595  0.7679
    2MPD1    H514156   2.455   2.508   0.409 -0.1399  0.2251  1.2179
    2MPD1    N114157   2.595   2.565   0.972 -0.0837 -0.3334  0.1339
    2MPD1    H614158   2.557   2.585   1.064  1.2851  1.2831  0.3349
    2MPD1    H714159   2.655   2.644   0.951 -1.6051  0.9837  0.7753
    1MPD1     C14160   0.654   4.267  12.314 -0.4274  0.1284  0.1189
    1MPD1    C114161   0.573   4.297  12.428  0.0952 -0.6912 -0.3442
    1MPD1    C214162   0.585   4.426  12.481 -0.1242 -0.4144 -0.3136
    1MPD1    C314163   0.694   4.509  12.446 -0.5723 -0.0337 -0.0094
    1MPD1    C414164   0.780   4.471  12.347  0.2338  0.3359  0.1964
    1MPD1    C514165   0.756   4.347  12.283 -0.4028 -0.3283  0.5753
    1MPD1     H14166   0.522   4.455  12.564 -0.2027  0.1866 -0.5826
    1MPD1    H114167   0.847   4.541  12.298 -1.7568  0.5602 -2.2110
    1MPD1    H214168   0.642   4.176  12.256  1.8624  0.3960 -0.7323
    1MPD1    H314169   0.829   4.308  12.213  0.7783 -0.5522  1.9447
    1MPD1     N14170   0.719   4.626  12.526  0.2004  0.3971 -0.0305
    1MPD1    H514171   0.656   4.642  12.604  0.8252 -0.1370  0.5909
    1MPD1    N114172   0.461   4.220  12.457 -0.0930 -0.0669  0.2039
    1MPD1    H614173   0.464   4.123  12.429  0.1446  0.4293 -1.4900
    1MPD1    H714174   0.423   4.237  12.550  0.8614 -1.7086  0.8921
    2MPD1     C14175   1.548   1.697  12.056  0.0529  0.3994 -0.1047
    2MPD1    C114176   1.591   1.743  11.932 -0.4802 -0.6184 -0.6398
    2MPD1    C214177   1.532   1.705  11.817  0.6780 -0.0560 -0.0927
    2MPD1    C314178   1.416   1.635  11.824  0.2683  1.1584 -0.1497
    2MPD1    C414179   1.375   1.571  11.940 -0.7617  0.7451  0.3429
    2MPD1    C514180   1.443   1.606  12.054  0.2590 -0.0473  0.8957
    2MPD1     H14181   1.574   1.743  11.724 -0.1904  0.4461 -0.2824
    2MPD1    H114182   1.292   1.502  11.943  1.2408 -1.6855  0.3216
    2MPD1    H214183   1.600   1.718  12.149 -0.0448  0.3635 -0.0421
    2MPD1    H314184   1.428   1.543  12.141  1.6422 -0.4167  0.8684
    2MPD1     N14185   1.347   1.603  11.705 -0.2478  0.4941  0.2530
    2MPD1    H514186   1.265   1.544  11.719 -1.6374  2.6533  1.1059
    2MPD1    N114187   1.721   1.798  11.937  0.3349  0.6934 -0.1333
    2MPD1    H614188   1.730   1.873  11.868 -0.0806  1.0991  0.2575
    2MPD1    H714189   1.744   1.844  12.025 -0.4552  0.0036  0.4314
    3MPD1     C14190   1.409   1.906  10.730 -0.0282 -0.0016  0.2540
    3MPD1    C114191   1.510   1.888  10.820  0.9160 -0.0737 -0.1731
    3MPD1    C214192   1.470   1.824  10.938  0.2362 -0.0917 -0.4568
    3MPD1    C314193   1.337   1.790  10.967  0.7446 -0.2183  0.1139
    3MPD1    C414194   1.239   1.826  10.878 -0.1875 -0.0254 -0.3470
    3MPD1    C514195   1.275   1.888  10.763 -0.0544 -0.1705 -0.5163
    3MPD1     H14196   1.542   1.779  11.005 -0.4325 -2.5121 -1.3318
    3MPD1    H114197   1.134   1.809  10.900 -0.1496  1.5272  1.0692
    3MPD1    H214198   1.434   1.951  10.635 -1.6443 -1.3191 -0.8026
    3MPD1    H314199   1.195   1.908  10.693  0.4515 -2.8720 -1.8842
    3MPD1     N14200   1.306   1.740  11.099  0.3153 -0.0829 -0.0048
    3MPD1    H514201   1.376   1.742  11.172 -0.9406 -0.6420  1.2084
    3MPD1    N114202   1.645   1.892  10.786  0.2802 -0.9336  0.5018
    3MPD1    H614203   1.651   1.959  10.710  0.1346 -0.7809  0.6262
    3MPD1    H714204   1.696   1.926  10.867 -0.3632 -1.6586  1.2070
    4MPD2     C14205   0.493   0.554  12.382  0.3948  0.7395  0.6336
    4MPD2    C114206   0.637   0.530  12.400  0.9395  0.5154 -0.0211
    4MPD2    C214207   0.716   0.600  12.319 -0.4768  0.4456  0.6411
    4MPD2    C314208   0.678   0.692  12.223  0.9019 -0.0612  0.6026
    4MPD2    C414209   0.547   0.727  12.224 -0.2776 -0.9419  0.0280
    4MPD2    C514210   0.457   0.654  12.299 -0.1694  0.0864  0.4095
    4MPD2     H14211   0.821   0.581  12.336 -0.2410  0.5210 -0.7416
    4MPD2    H114212   0.511   0.800  12.152  0.9661 -1.9092 -1.5878
    4MPD2    H214213   0.419   0.493  12.433  0.0931 -0.6961 -1.5027
    4MPD2    H314214   0.354   0.680  12.279 -0.6812 -0.5195  2.2391
    4MPD2     N14215   0.771   0.768  12.141 -0.0586 -0.7540  0.8455
    4MPD2    H514216   0.738   0.852  12.095  0.2296  0.2940  2.5543
    4MPD2    N114217   0.692   0.438  12.494 -0.0164  0.5185  1.0457
    4MPD2    H714218   0.792   0.421  12.491  0.2080  1.9974 -0.3678
    5TMC3    C114219   0.729   0.278  12.657  0.1651 -1.0098 -0.2723
    5TMC3    C214220   0.719   0.143  12.626 -0.4744 -0.6185 -0.3247
    5TMC3    C314221   0.837   0.069  12.619  0.1102  0.4135 -0.0796
    5TMC3    C414222   0.845   0.350  12.660 -0.2848 -0.3160 -0.1348
    5TMC3    C514223   0.963   0.280  12.637  0.2777  0.0377  0.0079
    5TMC3    C614224   0.953   0.139  12.624  0.3291 -0.0050  0.5570
    5TMC3     C14225   0.625   0.360  12.589 -0.4374 -0.0347  0.1619
    5TMC3     O14226   0.506   0.344  12.619  0.6119  0.6206 -0.1970
    5TMC3     H14227   0.618   0.115  12.600 -0.3646 -1.5011  0.2197
    5TMC3    H114228   0.846   0.455  12.688 -1.4272 -0.3535  0.0521
    5TMC3    H214229   1.046   0.092  12.594  0.3136 -1.1080  2.2716
    5TMC3    C714230   1.052   0.354  12.555 -0.4191 -0.3996  0.4870
    5TMC3    C814231   0.843   4.684  12.536  0.7716  0.2963  0.0453
    5TMC3    O114232   1.003   0.458  12.514  0.4112 -0.2938 -0.0951
    5TMC3    O214233   0.954   4.650  12.494  0.3291  0.0771 -0.0674
    6TMC3    C114234   1.266   1.616  11.484  1.5957 -0.4242  0.0094
    6TMC3    C214235   1.258   1.681  11.359 -0.2266  0.7696  0.1098
    6TMC3    C314236   1.179   1.625  11.263  0.3116  0.1957  0.0538
    6TMC3    C414237   1.189   1.505  11.502 -0.1456 -0.0394 -0.1782
    6TMC3    C514238   1.117   1.456  11.401  0.1251 -0.4867  0.2712
    6TMC3    C614239   1.110   1.511  11.282  0.0548 -1.0867 -0.0947
    6TMC3     C14240   1.363   1.664  11.584 -0.0283  0.4411 -1.0489
    6TMC3     O14241   1.445   1.741  11.541  0.2821  0.7204  0.2793
    6TMC3     H14242   1.309   1.775  11.341  1.2396  0.3747  2.2273
    6TMC3    H114243   1.181   1.453  11.596 -0.7858 -4.8893 -2.9108
    6TMC3    H214244   1.067   1.459  11.197 -2.2209  0.8704 -0.1316
    6TMC3    C714245   1.030   1.341  11.439 -0.4613 -0.2476 -0.4532
    6TMC3    C814246   1.185   1.683  11.131  0.3419 -0.0362 -0.5232
    6TMC3    O114247   0.981   1.351  11.552 -0.4187  0.0869 -0.1017
    6TMC3    O214248   1.109   1.637  11.046  0.9060  0.2751 -0.0118
    7MPD2     C14249   1.435   0.482  12.259 -0.4051 -0.1225 -0.8363
    7MPD2    C114250   1.304   0.521  12.258 -0.2508  0.9318  0.0956
    7MPD2    C214251   1.225   0.453  12.345  0.0332 -0.0223 -0.1240
    7MPD2    C314252   1.264   0.359  12.435 -0.4696 -0.2890  0.0255
    7MPD2    C414253   1.398   0.328  12.432  0.2309  0.0744 -0.0209
    7MPD2    C514254   1.479   0.386  12.340 -0.3505 -0.1692  0.9244
    7MPD2     H14255   1.122   0.476  12.323  0.2383 -0.6353 -1.7202
    7MPD2    H114256   1.453   0.259  12.494  0.5939  0.8081  0.4743
    7MPD2    H214257   1.508   0.529  12.194  0.3933  0.1475  0.2534
    7MPD2    H314258   1.585   0.366  12.345 -0.6555 -1.5297  2.0533
    7MPD2     N14259   1.177   0.309  12.535 -0.6294 -0.1223  0.3777
    7MPD2    H514260   1.204   0.229  12.592  0.6465 -0.4271 -0.6586
    7MPD2    N114261   1.257   0.615  12.165 -0.1244  0.1319  0.2029
    7MPD2    H714262   1.157   0.632  12.170 -0.4570 -1.2826 -1.5228
    8TMC3    C114263   1.213   0.765  12.000 -0.0538  0.3960 -0.2747
    8TMC3    C214264   1.181   0.732  11.873 -0.4130 -0.3410 -0.0311
    8TMC3    C314265   1.053   0.761  11.833 -0.0312  0.1834 -0.0528
    8TMC3    C414266   1.112   0.807  12.088 -0.0215  0.0144  0.5251
    8TMC3    C514267   0.985   0.826  12.048  0.6235 -0.2129 -0.2979
    8TMC3    C614268   0.960   0.810  11.916 -0.1031 -0.1566 -0.9312
    8TMC3     C14269   1.318   0.681  12.060  0.2606 -0.0200 -0.4265
    8TMC3     O14270   1.427   0.652  12.005 -0.5483 -0.0855  0.1900
    8TMC3     H14271   1.258   0.698  11.804  0.2954 -3.2355  2.2115
    8TMC3    H114272   1.139   0.818  12.192 -0.0409  1.3960  0.3883
    8TMC3    H214273   0.858   0.826  11.885 -0.7240 -1.5672  0.3890
    8TMC3    C714274   0.902   0.737  12.124 -0.1020 -0.0535 -0.6388
    8TMC3    C814275   1.007   0.758  11.692 -0.9118 -0.2352 -0.1503
    8TMC3    O114276   0.958   0.636  12.166 -0.1063  0.0686 -0.0060
    8TMC3    O214277   1.039   0.664  11.615  0.4103 -0.0921  0.2256
    9MPD2     C14278   0.935   0.851  11.415 -0.1505 -0.2529  0.0376
    9MPD2    C114279   0.961   0.933  11.523  0.3455 -0.2743 -0.4467
    9MPD2    C214280   0.974   1.072  11.498  0.1987 -0.0953 -0.6323
    9MPD2    C314281   0.961   1.117  11.362  0.2813  0.1363  0.5638
    9MPD2    C414282   0.926   1.034  11.262  0.1236 -0.7882 -0.2681
    9MPD2    C514283   0.914   0.897  11.283  0.5956  0.0192 -0.1648
    9MPD2     H14284   1.006   1.135  11.580 -2.5264 -0.9864  1.1529
    9MPD2    H114285   0.918   1.079  11.163 -0.4702 -2.6910 -1.0944
    9MPD2    H214286   0.914   0.746  11.433  0.8034 -0.8009 -2.0100
    9MPD2    H314287   0.878   0.828  11.208 -2.0227  0.5534  0.6098
    9MPD2     N14288   0.997   1.249  11.335  0.3331  0.0860 -0.6485
    9MPD2    H514289   1.028   1.264  11.239  3.0797 -0.4955  0.1476
    9MPD2    N114290   0.978   0.886  11.653 -0.0826  0.3782 -1.1674
    9MPD2    H714291   0.989   0.956  11.726 -2.6667 -1.8284  1.3684
    1MPD1     C14292   1.038   4.624  15.439 -0.2535  0.1786  0.5870
    1MPD1    C114293   1.001   4.691  15.322 -0.1456  0.7681 -0.0889
    1MPD1    C214294   0.951   0.084  15.345 -0.1794  0.3945 -0.2357
    1MPD1    C314295   0.924   0.136  15.473  0.2566 -0.7094  0.8012
    1MPD1    C414296   0.960   0.059  15.578 -0.9783 -0.1722  0.1791
    1MPD1    C514297   1.014   4.671  15.564  1.0036  0.1811 -0.5125
    1MPD1     H14298   0.928   0.149  15.261 -3.5957 -0.9047 -0.2991
    1MPD1    H114299   0.946   0.093  15.680 -2.2409  0.4720 -0.2139
    1MPD1    H214300   1.097   4.534  15.428  0.9278  1.1239 -0.8750
    1MPD1    H314301   1.037   4.618  15.656 -1.0779  0.4699  0.1852
    1MPD1     N14302   0.865   0.261  15.495 -0.0003 -0.0487  0.1392
    1MPD1    H514303   0.850   0.292  15.591 -1.1668 -0.1256 -0.0171
    1MPD1    N114304   1.067   4.659  15.198 -0.2169 -0.4694 -0.4547
    1MPD1    H614305   1.016   4.699  15.120  0.4323  2.2163  0.4865
    1MPD1    H714306   1.060   4.559  15.181  3.5686 -0.7896 -0.0110
    2TMC2    C114307   0.657   0.584  15.625  0.4265  0.2014  0.1527
    2TMC2    C214308   0.673   0.706  15.555 -0.8119  0.2850  0.1656
    2TMC2    C314309   0.725   0.698  15.431 -0.2812  0.3065  0.1525
    2TMC2    C414310   0.687   0.467  15.561 -0.9930  0.3031 -0.1133
    2TMC2    C514311   0.754   0.470  15.442 -0.3647 -0.5773 -0.1988
    2TMC2    C614312   0.765   0.583  15.371 -0.5477  0.1893 -0.5233
    2TMC2     C14313   0.577   0.594  15.746 -0.9693  0.3461  0.6244
    2TMC2     O14314   0.516   0.697  15.748 -0.2661 -0.7134  0.0761
    2TMC2     H14315   0.659   0.798  15.610  2.3856  0.3052  0.9055
    2TMC2    H114316   0.672   0.374  15.614  0.1201  0.4351  0.4476
    2TMC2    H214317   0.842   0.582  15.294  0.9535 -3.0598  1.0276
    2TMC2    C714318   0.828   0.347  15.397 -0.1335 -0.2682 -0.5086
    2TMC2    C814319   0.774   0.821  15.368  0.4506  0.2794 -0.0930
    2TMC2    O114320   0.851   0.350  15.280  0.1187 -0.0804 -0.7380
    2TMC2    O214321   0.870   0.835  15.292 -0.4231 -0.2149  0.5213
    2TMC2    O514322   0.689   0.921  15.394  0.2009  0.3029  0.1900
    2TMC2    H514323   0.606   0.897  15.440  0.5279 -1.4092 -0.0887
    3MPD1     C14324   0.314   0.397  16.139  0.1284 -0.5762 -0.3745
    3MPD1    C114325   0.411   0.305  16.102 -0.5708  0.4381 -0.0516
    3MPD1    C214326   0.494   0.334  15.993  0.4351 -0.3180 -0.1918
    3MPD1    C314327   0.474   0.449  15.919 -0.7113  0.6910  0.1612
    3MPD1    C414328   0.368   0.538  15.955 -0.7283  0.1747  0.3721
    3MPD1    C514329   0.287   0.507  16.058  0.6477 -0.2837 -0.9912
    3MPD1     H14330   0.562   0.259  15.955  1.3839 -0.6734  2.1826
    3MPD1    H114331   0.334   0.621  15.895  1.3319  0.3703 -0.5218
    3MPD1    H214332   0.243   0.373  16.217 -0.9741  0.2938 -1.1210
    3MPD1    H314333   0.200   0.569  16.075  1.9875  1.8230 -1.6574
    3MPD1     N14334   0.571   0.478  15.818 -0.2574 -0.3920  0.0196
    3MPD1    H514335   0.638   0.407  15.789  0.5152  0.4088 -0.1775
    3MPD1    N114336   0.394   0.170  16.139 -0.7423  0.1174 -0.3662
    3MPD1    H614337   0.481   0.118  16.130 -0.1767  0.6497  2.1034
    3MPD1    H714338   0.365   0.172  16.236  0.3191  0.8775 -0.0690
    1TMC1    C114339   3.619   4.496  13.538  0.2367 -0.4154  0.8984
    1TMC1    C214340   3.581   4.415  13.634 -0.5085 -0.3765  0.1855
    1TMC1    C314341   3.445   4.409  13.670  0.6447 -0.8207  0.9064
    1TMC1    C414342   3.525   4.564  13.465 -0.2190 -0.4232 -0.0606
    1TMC1    C514343   3.393   4.555  13.500 -0.7984  0.4240 -0.1167
    1TMC1    C614344   3.350   4.480  13.604  0.0228 -0.0568 -0.6302
    1TMC1     C14345   3.749   4.490  13.467 -0.2503 -0.2146 -0.3252
    1TMC1     O14346   3.758   4.541  13.355  0.1761  0.3497  0.1099
    1TMC1     H14347   3.645   4.348  13.691  0.2949 -0.3532 -0.6900
    1TMC1    H114348   3.548   4.603  13.366 -0.6245  1.9637  0.7977
    1TMC1    H214349   3.247   4.468  13.632  0.0649  2.3807  0.5853
    1TMC1    C714350   3.285   4.612  13.418  0.1297  0.3110  0.4643
    1TMC1    C814351   3.410   4.295  13.747 -0.3717  0.7202  0.4638
    1TMC1    O114352   3.173   4.572  13.442  0.2657 -0.1616  0.8583
    1TMC1    O214353   3.458   4.272  13.858  0.8205  0.5254 -0.1415
    1TMC1    O314354   3.321   0.003  13.418 -0.0777  0.0664  0.0309
    1TMC1    H314355   3.416   0.007  13.395  0.2954 -3.3270  1.0207
    1TMC1    O514356   3.315   4.221  13.687 -0.1150  0.8784  0.7609
    1TMC1    H514357   3.298   4.249  13.595 -0.4891 -0.3338  0.4566
    2MPD2     C14358   4.032   4.444  13.387 -0.0879  0.0896  0.5454
    2MPD2    C114359   3.984   4.413  13.513 -1.3168 -1.0891  0.4493
    2MPD2    C214360   4.076   4.373  13.599  0.4311  0.2063 -0.1061
    2MPD2    C314361   4.209   4.355  13.576  0.3329  0.9282 -0.3506
    2MPD2    C414362   4.251   4.359  13.443 -0.1885  0.2566 -0.1317
    2MPD2    C514363   4.156   4.396  13.353  0.6388 -0.1732  0.5182
    2MPD2     H14364   4.046   4.356  13.703  1.5933 -0.5487  0.1003
    2MPD2    H114365   4.353   4.329  13.422 -1.0078 -2.3243 -0.4320
    2MPD2    H214366   3.978   4.483  13.302  0.3182 -2.5988 -0.9477
    2MPD2    H314367   4.178   4.408  13.247 -1.2673 -2.7474 -0.1799
    2MPD2     N14368   4.291   4.322  13.689 -0.5966 -0.1742 -0.2360
    2MPD2    H514369   4.253   4.331  13.783  0.2005  0.3874  0.0257
    2MPD2    N114370   3.845   4.426  13.543  0.1544  0.0587  0.1218
    2MPD2    H714371   3.817   4.406  13.639  0.0726  0.1681  0.1214
    3TCq1    O114372   4.489   4.419  14.239 -0.1818 -0.5807 -0.7887
    3TCq1    C114373   4.392   4.386  14.148 -0.2365 -0.0997 -0.6227
    3TCq1    O214374   4.276   4.426  14.139 -0.5002 -0.0341  0.0008
    3TCq1    C214375   4.463   4.318  14.043  0.5744  0.3366 -0.1694
    3TCq1    C314376   4.556   4.228  14.078 -0.2492 -0.4880 -0.0705
    3TCq1    C414377   4.620   4.158  13.978 -0.2151 -0.2284  0.5095
    3TCq1    C514378   4.581   4.171  13.841  1.2115 -0.1254 -0.5484
    3TCq1    C614379   4.474   4.263  13.820  0.2396 -0.3818  0.7987
    3TCq1    C714380   4.414   4.332  13.920  0.1555  0.2575  0.4167
    3TCq1    C814381   4.419   4.268  13.682 -0.3235  0.2074  0.2593
    3TCq1    O414382   4.482   4.221  13.589 -0.3625  0.5333  0.1230
    3TCq1    C914383   4.723   4.067  14.020 -0.6867 -0.0986 -0.1140
    3TCq1    O514384   0.013   3.973  13.938  0.6473 -0.1755 -0.6808
    3TCq1    O614385   0.038   4.084  14.135 -0.3415  0.5670  0.1971
    3TCq1    H114386   4.579   4.386  14.220 -0.3518 -1.2802 -0.3670
    3TCq1    H214387   4.580   4.206  14.181  1.8743  0.3928 -0.3736
    3TCq1    H314388   4.622   4.114  13.759 -2.7007  0.7064 -3.0322
    3TCq1    H414389   4.355   4.421  13.899  1.9769  1.1766 -0.7761
    1MPD2     C14390   4.255   0.519  15.019 -0.0655  0.5442 -0.0481
    1MPD2    C114391   4.164   0.424  15.060  0.4664  0.2908 -0.1315
    1MPD2    C214392   4.203   0.295  15.092 -0.6954 -0.7080  0.8693
    1MPD2    C314393   4.337   0.267  15.099  0.5174 -0.2360 -0.1461
    1MPD2    C414394   4.431   0.361  15.063  0.2804 -0.2772 -0.1078
    1MPD2    C514395   4.389   0.489  15.020 -0.0084  0.6374 -0.4432
    1MPD2     H14396   4.124   0.227  15.119 -1.3489 -0.0782  0.5452
    1MPD2    H114397   4.538   0.351  15.067  0.4009  0.8248 -0.4185
    1MPD2    H214398   4.231   0.618  14.981  0.2279  0.6721  0.0978
    1MPD2    H314399   4.463   0.560  14.986  1.0482  0.7366  2.0320
    1MPD2     N14400   4.361   0.136  15.155  0.4824  0.8847 -0.4825
    1MPD2    H514401   4.274   0.084  15.160  0.8946  0.2377 -0.0515
    1MPD2    N114402   4.028   0.464  15.059  0.4786  0.8266 -0.1058
    1MPD2    H714403   4.017   0.554  15.013  0.8516  0.8954 -0.0658
    2TMC3    C114404   3.795   0.451  15.113  0.3480  0.0311  0.3657
    2TMC3    C214405   3.713   0.407  15.213  0.0131 -0.5449  0.0975
    2TMC3    C314406   3.586   0.363  15.174  0.5998  0.1785 -0.2949
    2TMC3    C414407   3.749   0.477  14.987 -0.7591 -0.4070  0.9624
    2TMC3    C514408   3.615   0.456  14.957  0.0387 -0.2184  0.0791
    2TMC3    C614409   3.535   0.394  15.050  0.1968  0.5535  0.2777
    2TMC3     C14410   3.926   0.402  15.135  0.3055 -0.0840  0.5155
    2TMC3     O14411   3.925   0.318  15.225  0.2824  0.5251 -0.0072
    2TMC3     H14412   3.751   0.395  15.314 -1.4826  0.6311  0.8067
    2TMC3    H114413   3.822   0.516  14.916  0.1973 -0.8839  1.6761
    2TMC3    H214414   3.428   0.378  15.040 -0.1145  3.7998 -1.2764
    2TMC3    C714415   3.553   0.503  14.834 -0.6124  0.1657 -0.5761
    2TMC3    C814416   3.559   0.226  15.229 -0.0052 -0.2815  0.2073
    2TMC3    O114417   3.449   0.444  14.796 -0.7152  1.1310 -0.2068
    2TMC3    O214418   3.443   0.193  15.247  0.6395 -0.2537 -0.1353
    3TCq1    O114419   3.449   1.586  14.571 -0.2076  0.2107  0.1228
    3TCq1    C114420   3.545   1.607  14.471 -0.6630 -0.4916  0.3002
    3TCq1    O214421   3.610   1.711  14.482  0.5720  0.7211 -0.5283
    3TCq1    C214422   3.624   1.485  14.471  0.5253  0.6229 -0.0324
    3TCq1    C314423   3.742   1.488  14.534 -0.4669  0.1783 -0.0570
    3TCq1    C414424   3.799   1.367  14.570 -1.0783  0.2374  0.0558
    3TCq1    C514425   3.738   1.248  14.544  0.0371  0.5976 -0.6477
    3TCq1    C614426   3.618   1.253  14.481  0.7691  0.6324 -0.1621
    3TCq1    C714427   3.562   1.371  14.436  0.3173  0.5622 -0.5907
    3TCq1    C814428   3.533   1.135  14.464 -0.1124  0.5918  0.4172
    3TCq1    O414429   3.440   1.134  14.387  0.3135 -0.1687 -0.1087
    3TCq1    C914430   3.922   1.371  14.646 -0.3330 -0.6772  0.3210
    3TCq1    O514431   3.936   1.291  14.740 -0.1921 -0.0871  0.2897
    3TCq1    O614432   3.972   1.491  14.648  0.1553  0.2040 -0.0165
    3TCq1    H114433   3.394   1.508  14.550  0.6462  0.3324 -2.6775
    3TCq1    H214434   3.790   1.580  14.565  1.1584 -1.6336  2.7655
    3TCq1    H314435   3.784   1.158  14.584  0.4787  1.3982  0.6654
    3TCq1    H414436   3.484   1.379  14.360 -0.8607  1.2643  0.6776
    4MPD2     C14437   3.448   0.837  14.472 -0.0633 -0.7350 -0.3935
    4MPD2    C114438   3.538   0.897  14.557 -0.2476  0.5343  0.0004
    4MPD2    C214439   3.589   0.819  14.658 -0.0667  0.7059 -0.8783
    4MPD2    C314440   3.545   0.691  14.679 -0.6127 -0.4593  0.5609
    4MPD2    C414441   3.457   0.629  14.585  1.1156 -0.2027 -0.4218
    4MPD2    C514442   3.420   0.702  14.483  0.4911  0.7523 -0.3366
    4MPD2     H14443   3.664   0.864  14.721 -0.9115  0.0855  0.5648
    4MPD2    H114444   3.424   0.526  14.585 -0.6718  0.3631  1.2371
    4MPD2    H214445   3.411   0.903  14.394  2.7561  2.3998  0.9325
    4MPD2    H314446   3.360   0.663  14.400  0.3048  2.2271 -0.9000
    4MPD2     N14447   3.598   0.622  14.792 -0.3312 -0.7030 -0.0488
    4MPD2    H514448   3.673   0.668  14.843 -0.6649  1.6728 -1.7331
    4MPD2    N114449   3.584   1.031  14.547  0.1908  0.1842  0.5702
    4MPD2    H714450   3.645   1.063  14.622  0.4854  1.7632 -0.3380
    5TMC2    C114451   4.251   4.579  15.298 -0.1481 -0.6524  0.0543
    5TMC2    C214452   4.259   4.594  15.430  0.6676 -0.3514  0.5375
    5TMC2    C314453   4.361   4.663  15.492  0.2166 -0.4522 -0.4062
    5TMC2    C414454   4.353   4.630  15.227  0.3642 -0.9194 -0.5395
    5TMC2    C514455   4.454   4.701  15.272  1.0049 -0.1204  0.4084
    5TMC2    C614456   4.463   4.715  15.410  0.4399 -0.1118 -0.6798
    5TMC2     C14457   4.118   4.607  15.248 -0.2519 -0.6934 -0.1528
    5TMC2     O14458   4.121   4.716  15.186 -0.1447 -0.5806 -0.1304
    5TMC2     H14459   4.178   4.552  15.488  0.0281  0.6170  0.3420
    5TMC2    H114460   4.346   4.625  15.119  0.9061  0.3094 -0.6343
    5TMC2    H214461   4.545   0.039  15.446  0.7219 -0.7851 -0.1729
    5TMC2    C714462   4.476   0.091  15.205  0.3235  0.4075  0.6716
    5TMC2    C814463   4.307   0.011  15.599 -0.1075 -0.2644 -0.4148
    5TMC2    O114464   4.586   0.142  15.227 -0.1800  0.1703 -0.1484
    5TMC2    O214465   4.187   0.020  15.606  0.7578  0.1842 -0.1459
    5TMC2    O514466   4.400   0.112  15.614 -0.0521  0.5675 -0.2075
    5TMC2    H514467   4.494   0.087  15.624 -0.0549  0.9978  0.9278
    6MPD2     C14468   3.606   4.683  15.341 -0.0896  0.2089 -0.0193
    6MPD2    C114469   3.707   0.030  15.293  0.2800  0.4560  0.1782
    6MPD2    C214470   3.833   4.726  15.276 -0.8228  0.4017  0.4702
    6MPD2    C314471   3.878   4.601  15.316 -0.3099 -0.6448 -0.7549
    6MPD2    C414472   3.776   4.511  15.351  0.6123 -0.2465 -0.5597
    6MPD2    C514473   3.641   4.552  15.361  0.0140 -0.0344 -0.3525
    6MPD2     H14474   3.913   0.048  15.234  1.2775 -2.3171  0.6501
    6MPD2    H114475   3.800   4.407  15.369  1.6749 -0.2398 -1.9068
    6MPD2    H214476   3.505   4.720  15.350  0.2039  1.0488 -0.1174
    6MPD2    H314477   3.571   4.477  15.395 -1.5177  0.0540 -3.4164
    6MPD2     N14478   4.012   4.548  15.312 -0.0947 -0.7636  0.7667
    6MPD2    H514479   4.018   4.453  15.349 -3.6514 -1.7928 -1.2370
    6MPD2    N114480   3.679   0.161  15.243 -0.1739 -0.6308  0.1073
    6MPD2    H714481   3.761   0.210  15.211 -0.7819  1.0398  1.0966
  945NH3     N114482   3.553   3.329   8.029  0.0055  0.1628 -0.4943
  945NH3     H214483   3.468   3.341   8.083  0.2155  0.5582 -0.2563
  945NH3     H314484   3.518   3.263   7.960 -2.8591  0.3717  0.7421
  945NH3     H414485   3.600   3.264   8.092  0.9634  0.8510 -0.5072
  946SOD     NA14486   2.859   3.359  13.627 -0.0983 -0.1654 -0.4340
  947SOD     NA14487   3.893   3.437  12.818 -0.4999 -0.2836  0.0866
  948SOD     NA14488   2.978   4.624   1.909 -0.1037 -0.2490 -0.3065
  949SOD     NA14489   0.590   1.150  13.170 -0.1532  0.2090 -0.1809
  950SOD     NA14490   2.076   4.490   4.056 -0.0178 -0.3407  0.1378
  951SOD     NA14491   1.396   0.222   8.174 -0.2632 -0.0820  0.0600
  952SOD     NA14492   3.531   2.612  16.596 -0.1025 -0.0257 -0.0519
  953SOD     NA14493   3.503   2.172  14.763  0.6782  0.0832 -0.8359
  954SOL     OW14494   4.565   4.070   7.173 -0.1254  0.3261  0.5701
  954SOL    HW114495   4.539   3.981   7.199  0.8028  0.3895  1.7094
  954SOL    HW214496   4.477   4.109   7.177 -0.1847 -0.2197  4.1080
  955SOL     OW14497   0.384   3.808  10.935  0.2340  0.1578  0.3080
  955SOL    HW114498   0.308   3.758  10.966  1.0037 -1.6040 -0.6224
  955SOL    HW214499   0.339   3.891  10.917  1.6218  0.6028 -1.1543
  956SOL     OW14500   1.759   0.175  15.553 -0.0133  0.0506  0.6846
  956SOL    HW114501   1.786   0.193  15.643  0.6016  0.9821  0.3179
  956SOL    HW214502   1.746   0.263  15.519  0.4865  1.3028  3.7383
  957SOL     OW14503   4.377   1.082   6.880  0.2590  0.9676 -0.0578
  957SOL    HW114504   4.429   1.115   6.807  3.1552  1.3946  2.1806
  957SOL    HW214505   4.439   1.096   6.952 -1.1720  0.1458  1.3406
  958SOL     OW14506   1.079   3.089   5.632 -0.1269  0.1657  0.1008
  958SOL    HW114507   1.124   3.105   5.549  1.0358 -1.8774  0.3285
  958SOL    HW214508   1.039   3.004   5.612  0.9954 -0.3168 -0.1037
  959SOL     OW14509   2.650   2.730   1.468 -0.2775 -0.0365 -0.1028
  959SOL    HW114510   2.709   2.780   1.411  1.5799 -0.8782  1.0842
  959SOL    HW214511   2.596   2.803   1.499  0.3103 -0.4909  1.9991
  960SOL     OW14512   0.627   0.306   7.685 -0.0464 -0.5689  0.3389
  960SOL    HW114513   0.681   0.345   7.616 -0.1138  0.7691  1.0324
  960SOL    HW214514   0.659   0.216   7.691  0.1528 -0.4995  0.3163
  961SOL     OW14515   0.377   2.840   4.814 -0.0121  0.0757 -0.2378
  961SOL    HW114516   0.421   2.765   4.774  1.9591  0.6564  0.8699
  961SOL    HW214517   0.397   2.910   4.753  0.3541 -1.3910 -1.7989
  962SOL     OW14518   2.575   2.758   6.655 -0.3089  0.2011  0.0256
  962SOL    HW114519   2.484   2.728   6.656  0.2370 -1.4951 -0.3661
  962SOL    HW214520   2.605   2.723   6.739 -0.4736  0.5980  0.2479
  963SOL     OW14521   2.694   1.652   4.493 -0.1024 -0.2505  0.0030
  963SOL    HW114522   2.616   1.700   4.465 -0.3476 -0.3113  0.5947
  963SOL    HW214523   2.661   1.587   4.555  0.8518  0.6060  1.3934
  964SOL     OW14524   0.911   1.234  11.915 -0.2608  0.6850  0.0481
  964SOL    HW114525   0.975   1.178  11.871  1.3627  3.2229 -0.8217
  964SOL    HW214526   0.852   1.258  11.844  1.1033  0.3813 -1.1972
  965SOL     OW14527   3.375   3.608   3.957 -0.4528 -0.0061 -0.1435
  965SOL    HW114528   3.299   3.608   3.898 -1.8389 -2.2790  1.6420
  965SOL    HW214529   3.341   3.656   4.033  1.8000  0.1811  0.7530
  966SOL     OW14530   2.507   2.407  10.457  0.2713  0.8392  0.1083
  966SOL    HW114531   2.528   2.495  10.424  1.2969 -0.8115 -3.6288
  966SOL    HW214532   2.573   2.402  10.527 -0.0274 -2.4430  0.1388
  967SOL     OW14533   3.098   3.428   8.025 -0.0927 -0.0412  0.3407
  967SOL    HW114534   3.008   3.403   8.005 -0.2159 -0.2967  1.1871
  967SOL    HW214535   3.093   3.513   8.071 -2.6604 -1.7602  3.2172
  968SOL     OW14536   1.795   4.586  14.828 -0.2274 -0.1668 -0.0848
  968SOL    HW114537   1.712   4.634  14.823  0.3602  0.8438  0.0827
  968SOL    HW214538   1.807   4.614  14.918 -0.4581 -0.1777 -0.0497
  969SOL     OW14539   0.362   1.561  13.232  0.0185 -0.4470 -0.6347
  969SOL    HW114540   0.424   1.621  13.274 -1.1475  2.2385 -2.7977
  969SOL    HW214541   0.289   1.616  13.203  0.1640 -0.6679 -1.4254
  970SOL     OW14542   0.331   2.398   6.020 -0.3563  0.0239 -0.5030
  970SOL    HW114543   0.304   2.471   5.964  0.7962  0.8016 -0.0438
  970SOL    HW214544   0.377   2.348   5.952 -1.9474 -0.3021 -1.3364
  971SOL     OW14545   1.798   0.752   7.961  0.0880  0.2979 -0.6805
  971SOL    HW114546   1.794   0.765   7.866 -0.8208  0.8137 -0.5719
  971SOL    HW214547   1.846   0.669   7.958 -0.9364 -0.2893 -0.6670
  972SOL     OW14548   2.571   3.480  14.332  0.1676  0.2484 -0.1106
  972SOL    HW114549   2.620   3.561  14.344 -1.4905  1.1316  0.6749
  972SOL    HW214550   2.481   3.513  14.340  0.1229  0.0598  0.1390
  973SOL     OW14551   3.467   2.161   8.737 -0.4424  0.2493  0.2502
  973SOL    HW114552   3.512   2.167   8.821  0.4216  0.6150 -0.2432
  973SOL    HW214553   3.531   2.210   8.686 -0.3161 -0.5070 -0.3311
  974SOL     OW14554   4.703   3.666   6.984 -0.0729  0.0168  0.7541
  974SOL    HW114555   4.612   3.642   6.968 -0.0957  0.3279  0.4200
  974SOL    HW214556   0.017   3.630   6.913  0.6607  3.4265 -0.4560
  975SOL     OW14557   0.944   4.465   1.420  0.2039 -0.3748 -0.3031
  975SOL    HW114558   0.856   4.436   1.394  0.0485  0.3945 -0.6590
  975SOL    HW214559   0.942   4.435   1.510 -0.5950  0.8576  0.0928
  976SOL     OW14560   0.608   2.551   5.880  0.0678 -0.3496  0.0495
  976SOL    HW114561   0.658   2.583   5.955 -1.7094 -0.1704  1.1528
  976SOL    HW214562   0.646   2.463   5.890 -0.2154 -0.8464 -3.1995
  977SOL     OW14563   3.457   3.595   7.259  0.1168  0.6782 -0.4111
  977SOL    HW114564   3.552   3.579   7.260 -0.1618 -1.0266 -1.7202
  977SOL    HW214565   3.451   3.674   7.313  0.8301  0.8184 -0.5246
  978SOL     OW14566   1.735   0.990  13.357 -0.8585 -0.2085 -0.4566
  978SOL    HW114567   1.747   1.042  13.436  0.1806 -0.5064 -0.4196
  978SOL    HW214568   1.801   1.027  13.299 -0.4637  0.9929  0.7805
  979SOL     OW14569   0.797   2.748   4.216  0.0008 -0.3816 -0.2247
  979SOL    HW114570   0.778   2.656   4.237 -0.2483 -0.1482  0.5846
  979SOL    HW214571   0.892   2.747   4.228  0.2878 -0.0660 -2.6442
  980SOL     OW14572   1.386   3.380   6.532  0.4199  0.1175  0.0932
  980SOL    HW114573   1.421   3.295   6.557  1.3746  0.9725  1.6429
  980SOL    HW214574   1.439   3.400   6.455  1.4446  1.0940  1.0664
  981SOL     OW14575   3.863   3.565  17.295  0.3934 -0.4842  0.0927
  981SOL    HW114576   3.822   3.480  17.311 -1.6560  0.4935  0.1167
  981SOL    HW214577   3.895   3.581  17.384 -1.6076 -0.2511  0.7864
  982SOL     OW14578   3.587   3.104   4.356 -0.1009 -0.0477  0.0922
  982SOL    HW114579   3.581   3.149   4.272 -1.9160  1.8311  1.2219
  982SOL    HW214580   3.585   3.177   4.418 -0.0034 -0.9242  1.1313
  983SOL     OW14581   3.186   4.412   9.773  0.1256  0.2342  0.3339
  983SOL    HW114582   3.247   4.411   9.847  1.2055  0.0593 -0.5617
  983SOL    HW214583   3.225   4.352   9.709  1.2761  0.8457  0.4562
  984SOL     OW14584   3.174   1.987   1.248  0.3070 -0.3559 -0.3027
  984SOL    HW114585   3.131   2.040   1.182  2.6579  2.4854  0.4576
  984SOL    HW214586   3.094   1.949   1.284 -0.0294 -1.6033 -2.3886
  985SOL     OW14587   0.053   3.649   2.745  0.0063  0.1633 -0.4611
  985SOL    HW114588   0.116   3.666   2.815 -0.6809 -1.8670  0.6422
  985SOL    HW214589   4.712   3.645   2.799  1.4317  1.6906  1.7516
  986SOL     OW14590   4.481   4.131   7.835 -0.0546 -0.3861  0.1263
  986SOL    HW114591   4.568   4.092   7.836  0.4972  0.8062 -0.9298
  986SOL    HW214592   4.450   4.089   7.915  0.1228  0.3986  0.6126
  987SOL     OW14593   2.098   0.569   4.562 -0.1319 -0.3564 -0.0184
  987SOL    HW114594   2.037   0.643   4.559 -0.5997 -0.7745 -0.7237
  987SOL    HW214595   2.138   0.583   4.648 -1.0216 -0.2746  0.3899
  988SOL     OW14596   2.271   1.637   6.372 -0.9136  0.4155  0.1432
  988SOL    HW114597   2.280   1.623   6.467 -3.6744 -0.4162  0.2873
  988SOL    HW214598   2.337   1.702   6.349 -0.4435 -0.3055 -0.5626
  989SOL     OW14599   3.507   4.712   5.460  0.2117  0.2168  0.3585
  989SOL    HW114600   3.552   4.629   5.445 -0.9582  0.0598 -2.3729
  989SOL    HW214601   3.461   4.696   5.542  0.8854 -0.7985  0.5378
  990SOL     OW14602   2.759   0.499   6.865  0.0116  0.0438  0.2172
  990SOL    HW114603   2.675   0.493   6.821  0.1402  0.7252 -0.1069
  990SOL    HW214604   2.741   0.568   6.929 -0.8695 -1.1504  1.2584
  991SOL     OW14605   2.718   1.139   6.781  0.1680 -0.0224  0.0648
  991SOL    HW114606   2.643   1.192   6.808  0.9029  0.4716  1.1451
  991SOL    HW214607   2.781   1.211   6.782  0.3706 -0.1707 -2.4359
  992SOL     OW14608   1.456   0.418   2.338 -0.4624 -0.3819  0.8442
  992SOL    HW114609   1.476   0.501   2.381 -1.0959 -0.1731  0.7442
  992SOL    HW214610   1.526   0.362   2.370  0.1342 -0.8237 -1.2109
  993SOL     OW14611   4.091   1.800  15.436 -0.3317 -0.1157 -0.7947
  993SOL    HW114612   4.028   1.805  15.365  0.5999 -2.4516 -1.8004
  993SOL    HW214613   4.036   1.764  15.506 -2.0759  2.0098 -1.1151
  994SOL     OW14614   3.441   1.888   7.966  0.1888 -0.6139 -0.3548
  994SOL    HW114615   3.459   1.905   7.873 -2.4628 -0.4681 -0.8440
  994SOL    HW214616   3.457   1.973   8.006 -1.6583 -0.9651  1.1035
  995SOL     OW14617   0.067   0.034  16.571 -0.1357 -0.1116 -0.3667
  995SOL    HW114618   0.073   4.680  16.597  1.0147  0.0572 -0.0696
  995SOL    HW214619   0.016   0.030  16.490  0.8700  0.2493 -1.0182
  996SOL     OW14620   1.773   3.824   3.438 -0.3378 -0.7524 -0.0835
  996SOL    HW114621   1.770   3.916   3.462 -2.2016 -0.2684 -2.1190
  996SOL    HW214622   1.717   3.786   3.506 -0.3859  0.4651  0.5545
  997SOL     OW14623   1.361   1.023   1.640  0.3706 -0.9271  0.1930
  997SOL    HW114624   1.395   1.052   1.556 -1.0550  1.7686  0.5518
  997SOL    HW214625   1.300   1.093   1.662  1.1579 -0.2488  0.1888
  998SOL     OW14626   1.041   0.288   9.373 -0.1103  0.2795  0.3920
  998SOL    HW114627   1.061   0.263   9.463  0.5493  1.6942  0.6332
  998SOL    HW214628   1.062   0.381   9.377 -0.5280  0.4032 -0.2334
  999SOL     OW14629   0.766   4.019   2.016  0.3479 -0.2433  0.0563
  999SOL    HW114630   0.725   4.104   2.003  0.2568 -0.2679  0.1803
  999SOL    HW214631   0.699   3.966   1.973  0.2262 -1.5030  1.8046
 1000SOL     OW14632   4.633   2.076  12.422 -0.5845 -0.6349 -0.6574
 1000SOL    HW114633   4.701   2.010  12.402 -0.0801 -0.1602 -0.5078
 1000SOL    HW214634   4.583   2.078  12.340 -0.0020  1.3641 -0.9669
 1001SOL     OW14635   2.274   2.045   6.502  0.1269 -0.2777  0.3783
 1001SOL    HW114636   2.338   2.103   6.543 -0.9855  0.3529  1.2352
 1001SOL    HW214637   2.297   1.959   6.539 -0.3880  0.6244  2.8420
 1002SOL     OW14638   1.228   4.122   1.431 -0.3642  0.8417 -0.0856
 1002SOL    HW114639   1.138   4.137   1.463 -0.0268 -1.1721  1.8730
 1002SOL    HW214640   1.278   4.092   1.507  1.8501  0.5092 -1.7142
 1003SOL     OW14641   4.402   4.657   2.884  0.2256 -0.4577 -0.6286
 1003SOL    HW114642   4.390   4.690   2.795 -0.1228 -1.6619 -1.0318
 1003SOL    HW214643   4.478   4.598   2.887  0.1954 -0.4505  0.5053
 1004SOL     OW14644   3.905   3.189   3.443 -0.9810 -0.5896 -0.4106
 1004SOL    HW114645   3.825   3.139   3.460 -1.6753  1.5757  2.6382
 1004SOL    HW214646   3.918   3.185   3.348 -1.2251 -0.6925 -0.4398
 1005SOL     OW14647   4.604   3.937  10.264 -1.1446  0.3528 -0.1637
 1005SOL    HW114648   4.691   3.911  10.294 -1.6982  1.0053  1.9517
 1005SOL    HW214649   4.608   4.033  10.272 -0.3165  0.5277 -2.6403
 1006SOL     OW14650   0.266   1.740   4.229  0.5453  0.2069 -0.2727
 1006SOL    HW114651   0.269   1.831   4.199 -1.8213  0.4148  0.0878
 1006SOL    HW214652   0.247   1.694   4.148  0.2849 -1.2735  0.6330
 1007SOL     OW14653   1.240   2.871  16.721 -0.4089  0.2750 -0.0908
 1007SOL    HW114654   1.198   2.800  16.673 -1.5196 -0.0666  1.3805
 1007SOL    HW214655   1.214   2.853  16.811  1.8216  0.4888  0.6180
 1008SOL     OW14656   0.548   1.324   6.246  0.0647 -0.5147  0.3361
 1008SOL    HW114657   0.565   1.352   6.336 -1.0828 -1.7420  0.9468
 1008SOL    HW214658   0.518   1.234   6.257  0.9630 -0.9257 -0.6418
 1009SOL     OW14659   0.797   2.596   6.080  0.6146 -0.1666  0.2193
 1009SOL    HW114660   0.885   2.629   6.100  0.8342 -0.3303 -0.4591
 1009SOL    HW214661   0.821   2.526   6.019 -0.4788 -1.5629  1.3831
 1010SOL     OW14662   2.597   2.832   6.000  0.0454  0.3332  0.0052
 1010SOL    HW114663   2.556   2.755   6.039 -1.8122  0.6618 -1.2636
 1010SOL    HW214664   2.565   2.827   5.910  2.7605 -0.5582 -0.8968
 1011SOL     OW14665   0.249   1.866  14.848 -0.2967 -0.1408 -0.3230
 1011SOL    HW114666   0.232   1.820  14.931 -1.5033  0.3518 -0.3018
 1011SOL    HW214667   0.328   1.814  14.831 -0.6604 -0.6057 -0.5862
 1012SOL     OW14668   0.926   4.263  15.069 -0.0245 -0.1886  0.4403
 1012SOL    HW114669   0.883   4.177  15.062 -0.7450  0.2425 -0.3645
 1012SOL    HW214670   0.892   4.314  14.996  0.8045 -0.1422  0.0863
 1013SOL     OW14671   0.490   4.573   6.038 -0.8435  0.2544 -0.4173
 1013SOL    HW114672   0.552   4.514   6.081 -0.3287  2.1791  1.5186
 1013SOL    HW214673   0.412   4.523   6.059 -1.7148  2.4305  1.5487
 1014SOL     OW14674   3.325   1.291   1.609  0.3138  0.3764  0.1642
 1014SOL    HW114675   3.308   1.203   1.643 -0.9040  1.0380  1.2328
 1014SOL    HW214676   3.365   1.280   1.522  1.6212  0.7657  0.7123
 1015SOL     OW14677   2.270   3.544  15.311  0.8077  0.1127 -1.2217
 1015SOL    HW114678   2.341   3.495  15.269 -0.2354 -1.3676 -1.2596
 1015SOL    HW214679   2.314   3.618  15.351  2.1342 -1.5819  0.4538
 1016SOL     OW14680   3.607   3.332  16.610 -0.1177 -0.1828 -0.3032
 1016SOL    HW114681   3.524   3.358  16.651 -0.7009 -1.5232 -0.6353
 1016SOL    HW214682   3.676   3.363  16.668  1.2325 -0.6361 -1.6550
 1017SOL     OW14683   2.958   4.726   8.146  0.1191 -0.0688  0.0099
 1017SOL    HW114684   2.988   0.027   8.063 -1.5374 -0.9179 -0.9744
 1017SOL    HW214685   3.030   0.015   8.203 -1.5083  1.3571  1.4194
 1018SOL     OW14686   2.645   3.245   7.864  0.1594  0.2315 -0.1878
 1018SOL    HW114687   2.728   3.281   7.896 -0.3389  0.1963  1.1527
 1018SOL    HW214688   2.669   3.216   7.776  2.0263 -1.0646  0.7520
 1019SOL     OW14689   1.703   1.138  11.106  0.5616 -0.5418  0.4508
 1019SOL    HW114690   1.749   1.212  11.146 -0.1659 -0.6917  1.5677
 1019SOL    HW214691   1.732   1.071  11.167  0.2218  0.1852  1.3987
 1020SOL     OW14692   3.876   4.709   4.455  0.2130  0.1966  0.0934
 1020SOL    HW114693   3.822   4.674   4.384  0.8773  0.4583 -0.5354
 1020SOL    HW214694   3.900   0.057   4.419  0.6434 -0.7257 -1.8123
 1021SOL     OW14695   4.049   4.108   7.753 -0.1059  0.1172 -0.5556
 1021SOL    HW114696   4.059   4.027   7.702  0.5092  0.0157 -0.2737
 1021SOL    HW214697   4.120   4.161   7.718  1.2284 -0.0120  1.9815
 1022SOL     OW14698   4.099   2.883   6.668  0.0225 -0.1463  0.3060
 1022SOL    HW114699   4.086   2.943   6.595 -0.4766 -0.4863  0.1143
 1022SOL    HW214700   4.193   2.895   6.683  0.0693 -0.1382  0.0012
 1023SOL     OW14701   2.719   0.563   2.401  0.1544  0.0070  0.4099
 1023SOL    HW114702   2.716   0.651   2.440  0.0694  0.2891 -0.2192
 1023SOL    HW214703   2.669   0.525   2.473 -1.2353  0.0675 -0.5146
 1024SOL     OW14704   3.290   0.115  11.463  0.1634 -0.3914  0.3415
 1024SOL    HW114705   3.311   0.200  11.426  3.2209 -1.7440 -1.0822
 1024SOL    HW214706   3.197   0.121  11.486 -0.4352 -1.0538 -1.8736
 1025SOL     OW14707   2.828   3.218   7.313  0.5825  0.3050 -0.3106
 1025SOL    HW114708   2.850   3.242   7.403  0.0916  0.3484 -0.2059
 1025SOL    HW214709   2.878   3.138   7.299 -0.7777 -0.6461  0.3406
 1026SOL     OW14710   3.087   4.598   7.086 -0.1991  0.3766  0.5642
 1026SOL    HW114711   3.138   4.517   7.089  0.9129  0.9886 -1.8060
 1026SOL    HW214712   3.136   4.641   7.157 -2.0654 -0.1506  2.1843
 1027SOL     OW14713   4.512   2.472  14.332  0.4411  0.6986  0.3113
 1027SOL    HW114714   4.463   2.433  14.405 -0.6512 -3.3312 -2.5917
 1027SOL    HW214715   4.451   2.490  14.261 -0.8646 -2.1147  0.7047
 1028SOL     OW14716   2.345   2.159   4.587  0.0782  0.3491  0.0770
 1028SOL    HW114717   2.394   2.129   4.664 -0.7162  1.5408  1.0356
 1028SOL    HW214718   2.425   2.199   4.551 -0.4189 -0.7312 -2.2142
 1029SOL     OW14719   2.605   4.150  15.998  0.4517  0.3175  0.2237
 1029SOL    HW114720   2.616   4.242  15.973 -0.4198  0.2865 -0.2943
 1029SOL    HW214721   2.671   4.104  15.947  0.2118 -0.1647  0.3481
 1030SOL     OW14722   4.128   3.837   7.214 -0.6024  0.0502 -0.3964
 1030SOL    HW114723   4.076   3.765   7.248  0.6235 -0.1438  1.0485
 1030SOL    HW214724   4.061   3.893   7.175 -0.1749  0.1569 -0.9799
 1031SOL     OW14725   4.087   4.328   7.981 -0.0570  0.1875  0.0247
 1031SOL    HW114726   4.015   4.298   7.926  2.5143  0.5241 -3.5065
 1031SOL    HW214727   4.160   4.346   7.922 -0.9127  2.9451 -0.1988
 1032SOL     OW14728   2.013   1.437   8.404 -0.8449  0.5712 -0.1656
 1032SOL    HW114729   2.052   1.358   8.368 -0.7442  0.3087  0.5230
 1032SOL    HW214730   1.978   1.415   8.490  2.1207  0.1337  0.9158
 1033SOL     OW14731   0.857   0.428  13.449 -0.0226  0.0187  0.4025
 1033SOL    HW114732   0.862   0.414  13.355 -0.2481  0.8436  0.2627
 1033SOL    HW214733   0.764   0.439  13.468  0.0275  0.1002  0.6041
 1034SOL     OW14734   0.659   2.469   7.789  0.9110  0.3195  0.7932
 1034SOL    HW114735   0.714   2.441   7.862  1.7035  0.4217  0.2274
 1034SOL    HW214736   0.574   2.450   7.830  2.2347 -3.1021  1.9561
 1035SOL     OW14737   0.220   3.944   1.645 -0.1853 -0.6288 -0.2066
 1035SOL    HW114738   0.226   3.940   1.550  0.3857  0.5320 -0.2198
 1035SOL    HW214739   0.228   4.038   1.659  0.9487 -0.6032 -0.9752
 1036SOL     OW14740   1.245   3.946  16.720 -0.1705 -0.5636 -0.2051
 1036SOL    HW114741   1.152   3.951  16.742 -0.0029  1.5162  0.1093
 1036SOL    HW214742   1.275   4.037  16.719  0.3164 -0.6900  3.0698
 1037SOL     OW14743   3.416   1.545  11.595 -0.7434  0.4447  0.5013
 1037SOL    HW114744   3.433   1.603  11.669 -0.3573 -0.7346  1.3372
 1037SOL    HW214745   3.442   1.604  11.524  0.0377  0.2469  0.6219
 1038SOL     OW14746   2.882   2.907  17.456 -0.1894 -0.3386  0.5402
 1038SOL    HW114747   2.952   2.959  17.497  0.3822 -1.4369  0.9568
 1038SOL    HW214748   2.848   2.855  17.528 -1.6098  1.3879  1.1277
 1039SOL     OW14749   0.457   4.573  10.699  0.4081 -0.3242  0.2497
 1039SOL    HW114750   0.549   4.545  10.704  0.4003 -0.7655 -1.8227
 1039SOL    HW214751   0.449   4.619  10.782  0.6872  1.2314 -0.5832
 1040SOL     OW14752   0.891   2.920  13.714  0.1307  0.6039  0.4215
 1040SOL    HW114753   0.857   2.983  13.650  0.5095 -0.1803 -0.5632
 1040SOL    HW214754   0.849   2.938  13.798 -0.4151  0.6471  0.1459
 1041SOL     OW14755   0.970   2.888  13.295  0.4466  0.0799 -0.0636
 1041SOL    HW114756   0.911   2.943  13.348  0.2972 -0.0972 -0.0471
 1041SOL    HW214757   0.969   2.949  13.221 -1.6887  1.4500  1.1174
 1042SOL     OW14758   1.783   2.925   3.880  0.4702 -0.4934 -0.0738
 1042SOL    HW114759   1.867   2.920   3.833 -0.3501  0.8616 -1.6647
 1042SOL    HW214760   1.729   2.980   3.824 -1.2330 -0.5061  1.5438
 1043SOL     OW14761   4.041   2.837   1.545 -0.3334  0.6939 -0.2081
 1043SOL    HW114762   4.133   2.847   1.518 -0.2700  1.1192  0.1702
 1043SOL    HW214763   4.035   2.741   1.541 -2.3802  0.8368 -0.2016
 1044SOL     OW14764   0.384   4.510   5.435  0.4288  0.3837 -0.2657
 1044SOL    HW114765   0.340   4.519   5.519  1.2930  0.2769  0.1958
 1044SOL    HW214766   0.320   4.555   5.380 -0.0584  0.7334  0.5845
 1045SOL     OW14767   1.526   2.364  17.058  0.0916  0.5625  0.5597
 1045SOL    HW114768   1.539   2.299  16.989 -0.2227  1.4807 -0.3692
 1045SOL    HW214769   1.432   2.380  17.053 -0.1758 -0.9342  1.0237
 1046SOL     OW14770   4.253   0.266   4.816  0.2702  0.3663 -0.0556
 1046SOL    HW114771   4.295   0.237   4.736  0.9183  2.8617 -0.6165
 1046SOL    HW214772   4.307   0.341   4.840  0.9651  0.9312 -3.3456
 1047SOL     OW14773   2.796   1.355   4.185  0.4844 -0.1051 -0.1330
 1047SOL    HW114774   2.733   1.346   4.257  0.3091  3.1265  0.1090
 1047SOL    HW214775   2.818   1.448   4.177  2.1929 -0.6319 -1.4016
 1048SOL     OW14776   4.707   0.528   5.194 -0.0959  0.3449  0.0039
 1048SOL    HW114777   4.715   0.575   5.277 -1.1344 -0.9223  0.8282
 1048SOL    HW214778   0.051   0.552   5.151  0.7202 -0.1817  1.2551
 1049SOL     OW14779   2.940   1.928   1.360  0.1363 -0.5757 -0.2121
 1049SOL    HW114780   2.856   1.964   1.388 -1.4075 -3.3931 -1.2492
 1049SOL    HW214781   2.957   1.876   1.439 -1.3621 -1.5749 -0.5415
 1050SOL     OW14782   0.210   1.548   0.494 -0.0094  0.8973 -0.1004
 1050SOL    HW114783   0.266   1.485   0.448  0.7043 -0.2804  2.3934
 1050SOL    HW214784   0.141   1.559   0.428 -1.5391  2.9443  1.8496
 1051SOL     OW14785   3.757   0.199   4.791 -0.1151  0.5792  0.2275
 1051SOL    HW114786   3.849   0.202   4.818 -0.9036 -1.4665  3.1395
 1051SOL    HW214787   3.778   0.231   4.704  1.9480  0.1908  0.5867
 1052SOL     OW14788   3.943   2.863  11.734 -0.0654 -0.4897 -0.3461
 1052SOL    HW114789   4.019   2.920  11.738  1.1738 -2.0336 -1.7670
 1052SOL    HW214790   3.941   2.819  11.820  3.7523  1.3263  0.6766
 1053SOL     OW14791   3.510   0.690   2.947  0.8688 -0.2134 -0.0418
 1053SOL    HW114792   3.505   0.717   2.855 -0.6000 -1.8802 -0.4427
 1053SOL    HW214793   3.510   0.774   2.993 -0.6966  0.0392 -0.4975
 1054SOL     OW14794   0.031   1.314   3.556 -0.6441 -0.7404 -0.3514
 1054SOL    HW114795   4.682   1.349   3.577  0.1453  1.1326 -0.2846
 1054SOL    HW214796   0.053   1.393   3.508  0.4915  0.7010  2.5650
 1055SOL     OW14797   3.999   3.502  10.052 -0.8737 -0.0174 -0.4054
 1055SOL    HW114798   3.959   3.552  10.123  2.6939 -0.0875  1.5985
 1055SOL    HW214799   4.089   3.532  10.054 -1.2690  1.2584 -1.4033
 1056SOL     OW14800   0.309   0.039   5.577 -0.1125  0.1940  0.0609
 1056SOL    HW114801   0.251   0.097   5.627  1.8213  1.4630  0.8314
 1056SOL    HW214802   0.292   4.691   5.618 -0.7816  0.7532  0.9391
 1057SOL     OW14803   0.567   0.445  13.006 -0.0332  0.4124 -0.1989
 1057SOL    HW114804   0.625   0.460  12.931  0.3025 -1.7732 -0.3866
 1057SOL    HW214805   0.622   0.492  13.069  0.8394 -0.4087 -0.3303
 1058SOL     OW14806   2.964   0.873   1.532  0.2821 -0.3216 -0.8732
 1058SOL    HW114807   2.968   0.853   1.438  1.8636 -2.9519 -0.2251
 1058SOL    HW214808   2.882   0.922   1.539  0.2851 -0.5392  0.5251
 1059SOL     OW14809   1.402   1.544   5.003  0.0708 -0.1761 -0.3854
 1059SOL    HW114810   1.366   1.549   5.092  0.1103 -1.5755 -0.2860
 1059SOL    HW214811   1.363   1.621   4.963  3.4352  1.9934  0.5233
 1060SOL     OW14812   4.564   0.770  11.927 -0.2227  0.2832 -0.2912
 1060SOL    HW114813   4.568   0.843  11.989 -0.1587 -1.1045  1.3452
 1060SOL    HW214814   4.550   0.827  11.851  1.7934  0.7030 -0.3710
 1061SOL     OW14815   1.908   2.767   8.473 -0.2432 -0.3871 -0.2118
 1061SOL    HW114816   1.987   2.762   8.420 -0.3639  0.0670 -0.4363
 1061SOL    HW214817   1.920   2.698   8.538 -2.2989 -0.7464 -0.2257
 1062SOL     OW14818   0.647   0.800   5.895  0.2369  0.5386  0.0444
 1062SOL    HW114819   0.686   0.853   5.965  1.1363  0.9237 -0.7566
 1062SOL    HW214820   0.559   0.786   5.930  0.1780  1.5183  0.2784
 1063SOL     OW14821   0.773   2.443   7.455  0.3540 -0.1136 -0.4414
 1063SOL    HW114822   0.707   2.505   7.424  0.2639  0.8148  1.6194
 1063SOL    HW214823   0.748   2.351   7.445 -1.8876  0.6477 -1.8485
 1064SOL     OW14824   1.410   4.680  16.366  0.6711  0.1268  0.0284
 1064SOL    HW114825   1.410   4.663  16.271  1.2062  0.5224 -0.0446
 1064SOL    HW214826   1.481   4.622  16.391  0.7271  0.4392  0.5964
 1065SOL     OW14827   4.270   0.577   9.987 -0.3465 -0.6413 -0.0287
 1065SOL    HW114828   4.365   0.581   9.977 -0.3238 -1.5664 -0.1725
 1065SOL    HW214829   4.239   0.666   9.969 -0.0531 -0.6098 -0.3804
 1066SOL     OW14830   2.825   0.258   6.612 -0.5087 -0.4954  0.2549
 1066SOL    HW114831   2.855   0.179   6.567  1.3963  0.2176  0.2870
 1066SOL    HW214832   2.766   0.216   6.676  0.6507 -0.5505  1.2995
 1067SOL     OW14833   3.673   0.612   6.424  0.2419  0.6065 -0.4981
 1067SOL    HW114834   3.604   0.664   6.382  1.9899  1.4255 -2.3318
 1067SOL    HW214835   3.695   0.557   6.350 -1.6671  0.1056 -0.7070
 1068SOL     OW14836   1.394   3.134   5.575  0.0437  1.1301 -0.3074
 1068SOL    HW114837   1.344   3.205   5.615  0.4575 -0.4808  3.0970
 1068SOL    HW214838   1.337   3.132   5.498  4.0291 -2.3821 -3.1617
 1069SOL     OW14839   0.814   2.947  17.143 -0.7144  0.3663  0.2641
 1069SOL    HW114840   0.800   2.878  17.208 -1.5514 -1.5232 -1.9353
 1069SOL    HW214841   0.725   2.984  17.138  0.1734  2.5993  0.7000
 1070SOL     OW14842   3.037   0.291   9.185 -0.8680 -0.3501  0.1027
 1070SOL    HW114843   2.989   0.234   9.125  0.9228 -0.4516 -1.2185
 1070SOL    HW214844   3.013   0.257   9.272  1.2186 -2.3083 -0.1098
 1071SOL     OW14845   4.114   1.636   0.794  0.1412  0.1403  0.3155
 1071SOL    HW114846   4.032   1.681   0.814  0.1996 -0.2662  1.5105
 1071SOL    HW214847   4.086   1.546   0.810 -2.4655  0.6149 -1.4808
 1072SOL     OW14848   3.410   1.753   5.249 -0.3111 -0.2627 -0.0090
 1072SOL    HW114849   3.490   1.769   5.198 -0.7923  0.2545 -0.6099
 1072SOL    HW214850   3.368   1.684   5.197 -0.5768  0.8319 -1.2568
 1073SOL     OW14851   4.076   3.057  15.770  0.2396  0.1962 -0.5445
 1073SOL    HW114852   4.091   2.962  15.772  0.3511  0.2371  0.7037
 1073SOL    HW214853   4.092   3.086  15.860 -0.4535  1.0811 -0.7064
 1074SOL     OW14854   1.298   4.160   4.553 -0.2372  0.0683  0.1966
 1074SOL    HW114855   1.203   4.154   4.553  0.0009 -4.5218 -1.9082
 1074SOL    HW214856   1.313   4.119   4.467  0.0182 -1.2188  0.8460
 1075SOL     OW14857   2.008   0.092   8.419 -0.0728 -0.0651 -0.1922
 1075SOL    HW114858   1.920   0.067   8.392 -0.2575  1.3780 -0.9187
 1075SOL    HW214859   2.057   0.056   8.345  1.0919 -0.2448  0.6607
 1076SOL     OW14860   4.288   3.297   8.958  0.2152 -0.5087  0.2619
 1076SOL    HW114861   4.301   3.377   8.907 -0.9098  0.9425  2.3008
 1076SOL    HW214862   4.216   3.316   9.017 -1.1129 -1.5621 -1.0207
 1077SOL     OW14863   2.912   1.961   9.261 -0.1583  0.1927  0.6374
 1077SOL    HW114864   2.933   2.037   9.207 -1.3069  0.6812  0.8644
 1077SOL    HW214865   2.961   1.988   9.338  2.7203 -0.1993 -1.0628
 1078SOL     OW14866   3.683   0.489   2.885  0.2389  0.3557  0.2076
 1078SOL    HW114867   3.611   0.549   2.906 -0.6645 -0.3317 -0.8995
 1078SOL    HW214868   3.741   0.500   2.960  0.1594  0.2231  0.2887
 1079SOL     OW14869   1.059   3.400   6.752 -0.3726 -0.0912 -0.1190
 1079SOL    HW114870   0.978   3.404   6.803 -1.1557 -0.9536 -1.3005
 1079SOL    HW214871   1.109   3.476   6.782 -1.0157 -0.8441  2.8763
 1080SOL     OW14872   2.636   3.237   4.094  0.2917 -0.2772  0.3754
 1080SOL    HW114873   2.594   3.167   4.145 -1.0435  0.3633  0.1291
 1080SOL    HW214874   2.728   3.220   4.117  0.2906 -0.6279  0.1147
 1081SOL     OW14875   2.406   2.969   6.800 -0.4332 -0.4961  0.5325
 1081SOL    HW114876   2.446   2.911   6.864 -0.0846 -1.3984 -0.4931
 1081SOL    HW214877   2.321   2.986   6.841 -0.3707  1.7634 -0.2358
 1082SOL     OW14878   1.936   2.873   6.157  0.4183  0.6156 -0.8562
 1082SOL    HW114879   1.941   2.956   6.111 -2.2881  1.3026  0.0696
 1082SOL    HW214880   1.876   2.897   6.228  0.1078  1.1002 -1.2773
 1083SOL     OW14881   3.313   0.254   6.993 -0.7352 -0.0651  0.5299
 1083SOL    HW114882   3.277   0.340   6.971  1.5845  0.4507 -1.2837
 1083SOL    HW214883   3.292   0.200   6.917  1.0397 -1.7749  1.2541
 1084SOL     OW14884   4.498   1.509  11.925 -0.3375  0.0431  0.2062
 1084SOL    HW114885   4.444   1.443  11.969  0.3289  0.4383  1.6157
 1084SOL    HW214886   4.444   1.588  11.930 -0.3688  0.1306 -1.7897
 1085SOL     OW14887   2.343   0.320   2.346 -0.1233 -0.2088 -0.8102
 1085SOL    HW114888   2.339   0.394   2.406  0.7311 -0.3777 -0.5413
 1085SOL    HW214889   2.338   0.256   2.417 -0.8231  0.2417 -0.4485
 1086SOL     OW14890   4.396   0.616   3.727  0.0410  1.0880 -0.2719
 1086SOL    HW114891   4.365   0.690   3.676  0.0922  1.5591  0.3880
 1086SOL    HW214892   4.429   0.557   3.660  1.1230  1.3738  0.0208
 1087SOL     OW14893   3.127   3.091   7.249  0.6195 -0.0057 -0.5791
 1087SOL    HW114894   3.174   3.010   7.230  1.1480  0.0725  0.3821
 1087SOL    HW214895   3.112   3.137   7.167 -3.7164 -1.0191 -0.3481
 1088SOL     OW14896   4.556   0.702  14.733 -0.7254 -0.0689 -0.0703
 1088SOL    HW114897   4.599   0.706  14.818 -2.0355  0.5043  0.5651
 1088SOL    HW214898   4.609   0.765  14.685  0.8465 -0.9481  0.5466
 1089SOL     OW14899   1.969   4.243  14.573  0.2012  0.5027 -0.1885
 1089SOL    HW114900   2.025   4.182  14.621  1.0586  1.3435 -0.1269
 1089SOL    HW214901   1.910   4.271  14.642  0.8443 -1.3097  1.0996
 1090SOL     OW14902   4.325   2.698  13.605 -0.1181 -0.1137  0.1672
 1090SOL    HW114903   4.307   2.667  13.694 -0.5624  0.0897  0.1517
 1090SOL    HW214904   4.419   2.712  13.599  0.0778 -1.0216  1.0819
 1091SOL     OW14905   4.568   1.440   6.879 -0.3165  0.1488 -0.0402
 1091SOL    HW114906   4.532   1.443   6.967 -1.5049 -2.3748 -0.4422
 1091SOL    HW214907   4.645   1.495   6.896 -1.4715  1.6677  0.1993
 1092SOL     OW14908   1.497   3.760   4.433  0.5792 -0.2134  0.1692
 1092SOL    HW114909   1.521   3.668   4.438 -1.4485 -0.7861 -0.8517
 1092SOL    HW214910   1.574   3.797   4.477  1.2667 -2.5515  0.9420
 1093SOL     OW14911   3.951   0.439   9.673  0.1123  0.5524  0.5311
 1093SOL    HW114912   3.929   0.416   9.763 -4.7086  1.2383 -0.4703
 1093SOL    HW214913   3.916   0.527   9.669  0.3269  0.6196  0.1695
 1094SOL     OW14914   4.711   2.753   2.642 -0.1834  0.3625 -0.0003
 1094SOL    HW114915   4.733   2.844   2.661  0.0889  0.8780 -2.7957
 1094SOL    HW214916   0.056   2.720   2.605 -0.6977 -2.0625  1.0532
 1095SOL     OW14917   4.704   3.704   3.702  0.7912  0.1947 -0.0002
 1095SOL    HW114918   4.650   3.738   3.631  1.2693 -0.7503 -0.8192
 1095SOL    HW214919   0.031   3.652   3.653 -1.3517 -0.9757 -1.5596
 1096SOL     OW14920   3.435   4.279   4.681  0.3343  0.2232  0.1434
 1096SOL    HW114921   3.357   4.283   4.737 -0.3322  1.5384 -0.8936
 1096SOL    HW214922   3.463   4.189   4.699  1.1186  0.5283  0.4360
 1097SOL     OW14923   0.945   2.580   3.377 -0.8850  0.0537  0.4540
 1097SOL    HW114924   1.012   2.595   3.311 -1.4710  1.0285  0.0859
 1097SOL    HW214925   0.892   2.658   3.361 -0.8453  0.0700  0.4030
 1098SOL     OW14926   4.275   1.892   2.848  0.5214 -0.3500 -0.0934
 1098SOL    HW114927   4.364   1.873   2.821 -0.0655 -2.5273 -0.4575
 1098SOL    HW214928   4.288   1.933   2.934 -3.0140 -1.0436  0.7795
 1099SOL     OW14929   2.570   3.488  12.944  0.0219 -0.7282 -0.1895
 1099SOL    HW114930   2.583   3.393  12.951  0.0510 -0.4524  3.2695
 1099SOL    HW214931   2.476   3.495  12.925 -0.4186 -1.5246  1.7440
 1100SOL     OW14932   3.206   3.263   4.388  0.5352 -0.0026 -0.1174
 1100SOL    HW114933   3.121   3.298   4.364 -0.4772 -0.7474  2.3963
 1100SOL    HW214934   3.220   3.198   4.319 -2.6910 -0.3152 -0.4469
 1101SOL     OW14935   2.492   1.112  15.763  0.3633  0.0620 -0.5660
 1101SOL    HW114936   2.575   1.101  15.717  1.6485 -2.0621  2.2608
 1101SOL    HW214937   2.465   1.196  15.726  0.4981  0.1574 -0.4461
 1102SOL     OW14938   4.080   0.418  16.649  0.0605  0.3106 -0.2112
 1102SOL    HW114939   4.132   0.359  16.703  1.9652  3.4056  1.3539
 1102SOL    HW214940   4.060   0.482  16.718 -1.3190 -0.6147  0.2304
 1103SOL     OW14941   2.376   4.096   7.884 -0.4368 -0.1421 -0.6026
 1103SOL    HW114942   2.322   4.171   7.860  0.4079  0.1719 -1.5049
 1103SOL    HW214943   2.350   4.089   7.976 -0.6945 -0.1772 -0.6801
 1104SOL     OW14944   4.092   1.992   8.562  0.5343  0.6328 -0.4711
 1104SOL    HW114945   4.039   2.045   8.621  2.8229  2.8057 -0.3847
 1104SOL    HW214946   4.177   2.032   8.579  0.5022 -0.1274  1.4854
 1105SOL     OW14947   2.917   3.578  12.786  0.4751 -0.3405  0.0161
 1105SOL    HW114948   2.877   3.630  12.856  1.2071 -0.9654  0.8910
 1105SOL    HW214949   2.929   3.498  12.836 -2.2455 -0.2192  0.8603
 1106SOL     OW14950   2.680   3.053  11.934 -0.2823  0.1368 -0.0625
 1106SOL    HW114951   2.590   3.042  11.905  0.6206 -1.4918 -2.2588
 1106SOL    HW214952   2.722   2.976  11.897 -0.0686  0.2183  0.0052
 1107SOL     OW14953   2.752   1.496   5.225 -0.0552 -0.2130  1.0668
 1107SOL    HW114954   2.760   1.465   5.315  0.1718  1.6744  1.7104
 1107SOL    HW214955   2.728   1.586   5.246 -1.3554 -0.3671  0.2097
 1108SOL     OW14956   2.045   1.079   5.235 -0.2942 -0.0803 -0.1636
 1108SOL    HW114957   2.113   1.146   5.246  1.4035 -1.8140 -0.0544
 1108SOL    HW214958   2.066   1.028   5.313 -0.9756  0.5957  0.4557
 1109SOL     OW14959   4.543   3.368   2.751 -0.1047 -0.3133 -0.1162
 1109SOL    HW114960   4.583   3.351   2.836  1.9923 -0.8160 -1.2080
 1109SOL    HW214961   4.625   3.369   2.702  0.5477 -1.9575  0.9825
 1110SOL     OW14962   2.988   0.138   5.057  0.0726  0.5177 -0.6660
 1110SOL    HW114963   3.041   0.084   5.116 -1.3062  0.0245  0.1071
 1110SOL    HW214964   3.021   0.223   5.086 -1.0688  0.6075  0.3708
 1111SOL     OW14965   3.381   1.658   9.353  0.1479  0.4518 -0.0742
 1111SOL    HW114966   3.403   1.576   9.308  0.0616 -0.1650  1.0082
 1111SOL    HW214967   3.299   1.688   9.312 -0.0361 -0.3250 -0.2743
 1112SOL     OW14968   2.956   1.409  12.675 -0.3807  0.1909  0.1627
 1112SOL    HW114969   2.937   1.450  12.759  1.4704  3.5218 -1.0633
 1112SOL    HW214970   2.871   1.378  12.645  1.1111 -0.1975 -3.6546
 1113SOL     OW14971   3.666   4.272  11.972  0.3741 -0.4285 -0.2075
 1113SOL    HW114972   3.747   4.221  11.974  1.2095  0.9155  0.1555
 1113SOL    HW214973   3.604   4.203  11.950 -0.4706  0.2821 -0.0567
 1114SOL     OW14974   0.210   0.130  13.946  0.2914 -0.3886  0.2656
 1114SOL    HW114975   0.281   0.193  13.957 -2.9809  2.3535  5.6527
 1114SOL    HW214976   0.204   0.136  13.851 -1.4473 -0.5553  0.3751
 1115SOL     OW14977   1.752   0.189   4.726  0.7719 -0.6020  1.2827
 1115SOL    HW114978   1.729   0.256   4.662  2.4631 -3.7179 -2.6438
 1115SOL    HW214979   1.837   0.165   4.688  1.3049 -0.7083  2.5599
 1116SOL     OW14980   1.162   4.326  10.420 -0.1280  0.4948 -0.2031
 1116SOL    HW114981   1.234   4.377  10.459  1.4267 -1.7196 -0.2110
 1116SOL    HW214982   1.208   4.264  10.364 -1.3109  1.5162 -2.3218
 1117SOL     OW14983   0.976   1.642  16.408 -0.0870 -0.5695  0.2958
 1117SOL    HW114984   0.977   1.546  16.417 -0.0666 -0.6833 -0.8375
 1117SOL    HW214985   1.005   1.657  16.498  1.3445  0.3689 -0.3269
 1118SOL     OW14986   3.285   0.823   3.380  0.1664  0.6322  0.4868
 1118SOL    HW114987   3.329   0.854   3.459  0.2511  0.1976  0.6112
 1118SOL    HW214988   3.305   0.730   3.381 -0.9505  0.3819 -0.6971
 1119SOL     OW14989   2.528   1.562   7.709  0.6886  0.3298  0.0512
 1119SOL    HW114990   2.479   1.578   7.790  1.4697 -1.2228  0.8340
 1119SOL    HW214991   2.616   1.576   7.745  0.5220 -1.0263  0.9586
 1120SOL     OW14992   4.011   3.465   6.515 -0.3348 -0.1251 -0.1128
 1120SOL    HW114993   4.041   3.553   6.494 -0.5152  0.3699  1.6755
 1120SOL    HW214994   3.942   3.472   6.581  0.5761  0.9412  0.7211
 1121SOL     OW14995   1.213   2.982   3.808 -0.0865 -0.3198 -0.9400
 1121SOL    HW114996   1.156   3.059   3.809 -0.6603 -0.7457 -0.3463
 1121SOL    HW214997   1.300   3.020   3.809 -0.5530  0.7527 -0.8581
 1122SOL     OW14998   2.526   2.821  17.168 -0.1015 -0.2791 -0.3897
 1122SOL    HW114999   2.452   2.773  17.204 -0.0151  0.6505  1.0164
 1122SOL    HW215000   2.477   2.881  17.112 -1.9407  0.3773  1.9522
 1123SOL     OW15001   3.356   1.708   4.158  0.8230  0.3406 -0.1363
 1123SOL    HW115002   3.436   1.699   4.210  1.8379  3.2542 -1.2029
 1123SOL    HW215003   3.296   1.752   4.218  0.4145  0.1452 -0.4019
 1124SOL     OW15004   2.436   4.009   7.489  0.1024 -0.4958 -0.0304
 1124SOL    HW115005   2.447   4.095   7.448 -0.6279  0.1295  1.0937
 1124SOL    HW215006   2.382   3.971   7.420  0.3255  1.3629 -1.2431
 1125SOL     OW15007   3.139   1.377   9.093 -0.2845 -0.0006  0.4385
 1125SOL    HW115008   3.125   1.292   9.052 -1.6458  0.7614 -0.6667
 1125SOL    HW215009   3.158   1.431   9.016  2.2153 -0.7422  0.5140
 1126SOL     OW15010   3.581   3.927   9.324  0.5463  0.1095 -0.2045
 1126SOL    HW115011   3.570   3.886   9.238  0.2819 -1.4267  0.5576
 1126SOL    HW215012   3.561   4.018   9.302 -1.9256 -0.3022  0.3043
 1127SOL     OW15013   3.423   0.641   4.120 -0.1013 -0.3570  0.3758
 1127SOL    HW115014   3.497   0.675   4.171 -0.7270  0.2808  0.8499
 1127SOL    HW215015   3.358   0.697   4.162 -1.1059 -0.9196 -0.4278
 1128SOL     OW15016   0.276   4.599  13.992  0.5218 -0.2415  0.0956
 1128SOL    HW115017   0.265   4.676  13.937 -0.1109 -1.1335 -1.0115
 1128SOL    HW215018   0.331   4.629  14.065 -1.2028 -1.8756  2.0575
 1129SOL     OW15019   0.153   2.049   4.819  0.0461  0.3573 -0.2069
 1129SOL    HW115020   0.105   2.058   4.902 -0.4450 -1.2538 -0.3223
 1129SOL    HW215021   0.092   2.060   4.746  0.4771  0.6822 -0.5183
 1130SOL     OW15022   1.813   1.266  11.387 -0.0473  0.6571 -0.6567
 1130SOL    HW115023   1.888   1.324  11.400 -1.3540  1.5799  2.7011
 1130SOL    HW215024   1.840   1.196  11.328 -0.0875 -1.2237  1.5528
 1131SOL     OW15025   4.000   3.998   6.231  0.1468 -0.0837 -0.2992
 1131SOL    HW115026   3.918   3.967   6.192 -0.1867  1.2794 -0.6879
 1131SOL    HW215027   4.041   4.034   6.152 -1.8804  1.1990 -0.7540
 1132SOL     OW15028   2.943   1.584   0.070 -0.0257 -0.1477  0.3487
 1132SOL    HW115029   2.955   1.577  17.723  1.6781  0.0778  0.5539
 1132SOL    HW215030   2.973   1.500   0.106 -2.2614 -0.7801  0.7295
 1133SOL     OW15031   0.382   1.923   8.642 -0.1352  0.8688 -0.1012
 1133SOL    HW115032   0.343   1.942   8.556  0.4538 -2.1627 -1.0315
 1133SOL    HW215033   0.307   1.902   8.698 -0.5744  0.3517 -0.8866
 1134SOL     OW15034   3.924   2.314   6.714 -0.1021 -0.0189 -0.1386
 1134SOL    HW115035   4.018   2.334   6.709 -0.4126  0.9800 -2.2643
 1134SOL    HW215036   3.909   2.295   6.807 -0.1505 -1.1460 -0.3785
 1135SOL     OW15037   3.527   2.514   4.138 -0.5733 -0.1223  0.6990
 1135SOL    HW115038   3.544   2.573   4.211  0.3195 -0.7116  0.9790
 1135SOL    HW215039   3.432   2.509   4.140 -0.5725 -1.4163 -1.9989
 1136SOL     OW15040   3.627   1.815   4.698 -0.4907  0.1161  0.4233
 1136SOL    HW115041   3.589   1.804   4.785 -0.0271  2.4323  0.9322
 1136SOL    HW215042   3.605   1.906   4.674  2.5751  0.3829 -1.3529
 1137SOL     OW15043   1.141   0.996   5.522 -0.4281  0.5672 -0.2121
 1137SOL    HW115044   1.183   1.062   5.467  0.6378  1.0351  1.1645
 1137SOL    HW215045   1.137   0.922   5.461 -1.6176  0.0790  0.4710
 1138SOL     OW15046   3.532   3.017   8.392  0.4858 -0.5437  0.5160
 1138SOL    HW115047   3.557   3.100   8.353  1.3478 -0.3475  1.4871
 1138SOL    HW215048   3.615   3.003   8.437  0.6946 -1.4784 -0.1422
 1139SOL     OW15049   2.835   4.679   2.868 -0.2094  0.4792  0.2053
 1139SOL    HW115050   2.779   4.659   2.793 -0.3794 -1.1704  0.7646
 1139SOL    HW215051   2.900   0.004   2.837  0.9995 -0.6723  0.4528
 1140SOL     OW15052   1.527   3.191   4.907 -0.9258  0.1317 -0.1285
 1140SOL    HW115053   1.445   3.238   4.893 -0.0072  2.4342  2.3321
 1140SOL    HW215054   1.539   3.205   5.000 -1.0428 -0.4214 -0.0281
 1141SOL     OW15055   2.128   4.112   5.540 -0.1426 -0.3206  0.6077
 1141SOL    HW115056   2.148   4.203   5.561  0.5682 -0.3619  0.1043
 1141SOL    HW215057   2.194   4.109   5.471 -0.7355  0.2498  0.0118
 1142SOL     OW15058   3.166   3.412  11.783  0.6583 -0.4139 -0.6527
 1142SOL    HW115059   3.225   3.476  11.824  0.0868  1.0027 -2.0152
 1142SOL    HW215060   3.242   3.358  11.762  0.2883 -1.3118  0.2926
 1143SOL     OW15061   2.313   1.667   0.860 -0.0086  0.0176  0.1259
 1143SOL    HW115062   2.289   1.712   0.779  0.2066 -0.5290 -0.2390
 1143SOL    HW215063   2.255   1.704   0.927 -2.1110 -0.5197 -1.3918
 1144SOL     OW15064   4.481   4.036   3.557 -0.0219  0.3161  0.2444
 1144SOL    HW115065   4.465   4.120   3.513  2.5063 -0.7222 -2.6510
 1144SOL    HW215066   4.576   4.033   3.566 -0.0326 -1.2214 -0.1854
 1145SOL     OW15067   0.534   4.409   7.473  0.8578  0.2296 -0.0728
 1145SOL    HW115068   0.551   4.354   7.550 -0.0103 -0.0648 -0.0934
 1145SOL    HW215069   0.474   4.357   7.420 -0.2806 -1.7245  3.1414
 1146SOL     OW15070   2.353   3.795  15.366 -0.5828  0.1606 -0.5504
 1146SOL    HW115071   2.272   3.828  15.328  0.5092  1.8656 -1.3632
 1146SOL    HW215072   2.328   3.801  15.458 -1.4556  2.0921 -0.9042
 1147SOL     OW15073   3.188   2.161   1.485  0.4209 -0.5801 -0.0402
 1147SOL    HW115074   3.192   2.129   1.395 -1.8696 -2.2539  0.4647
 1147SOL    HW215075   3.101   2.202   1.481  1.2351  1.1130 -0.2822
 1148SOL     OW15076   0.644   1.502  14.508 -0.0346 -0.1718 -0.3891
 1148SOL    HW115077   0.629   1.596  14.521  2.5698  0.3455 -1.1839
 1148SOL    HW215078   0.625   1.475  14.598  2.1756  1.7539  0.6618
 1149SOL     OW15079   1.313   2.267  13.401 -0.3501 -0.4598 -0.3296
 1149SOL    HW115080   1.397   2.297  13.366 -0.1942  1.6687  1.8908
 1149SOL    HW215081   1.259   2.346  13.398  0.4463  0.1268  0.9030
 1150SOL     OW15082   1.869   3.932   3.214 -0.4288 -0.0224  0.1744
 1150SOL    HW115083   1.870   3.884   3.297 -0.5454  2.7824  1.8077
 1150SOL    HW215084   1.779   3.956   3.192 -0.4302 -3.0965 -3.1309
 1151SOL     OW15085   3.312   2.832  12.972  1.0578 -0.1090 -0.0021
 1151SOL    HW115086   3.255   2.884  13.029 -0.0630 -0.8302 -0.4474
 1151SOL    HW215087   3.252   2.842  12.898  1.9043  0.7292 -0.5654
 1152SOL     OW15088   2.016   0.434   0.867 -0.1503  0.0656 -0.3931
 1152SOL    HW115089   2.054   0.414   0.952 -0.8497 -0.1085 -0.1141
 1152SOL    HW215090   1.938   0.481   0.897  0.5972  0.5207  0.8063
 1153SOL     OW15091   2.841   1.669  12.775 -0.1448  0.0383 -0.1056
 1153SOL    HW115092   2.885   1.605  12.830 -0.6412  0.2487  0.5435
 1153SOL    HW215093   2.888   1.751  12.792 -0.2113  0.5017 -2.0925
 1154SOL     OW15094   2.058   1.768  11.160  0.1622 -0.1402  0.2870
 1154SOL    HW115095   2.083   1.718  11.082  0.9145 -1.5056  1.3940
 1154SOL    HW215096   2.140   1.818  11.168  0.7052 -1.5541  3.7506
 1155SOL     OW15097   3.391   2.055  15.411  0.0093  0.8793  0.0681
 1155SOL    HW115098   3.425   1.965  15.405  2.2008  1.6686  0.7531
 1155SOL    HW215099   3.447   2.104  15.351  0.2526 -1.7269 -1.8619
 1156SOL     OW15100   1.915   1.843  12.930 -0.2745 -0.2515 -0.3293
 1156SOL    HW115101   1.994   1.896  12.924 -0.8263  0.5480 -0.4667
 1156SOL    HW215102   1.953   1.771  12.981 -0.3350 -1.2995 -1.7786
 1157SOL     OW15103   0.556   2.865   8.463 -0.3624  0.0542 -0.4189
 1157SOL    HW115104   0.551   2.955   8.497  1.9459 -0.3652  1.0306
 1157SOL    HW215105   0.622   2.859   8.394 -0.0598  1.4401 -0.2520
 1158SOL     OW15106   2.083   2.267   4.181 -0.0063  0.1125  0.1580
 1158SOL    HW115107   2.066   2.174   4.194 -0.9409  0.1997 -0.4928
 1158SOL    HW215108   2.013   2.307   4.232 -2.0006 -0.1180 -2.4255
 1159SOL     OW15109   4.133   3.749   5.833 -0.0924 -0.0208  0.2699
 1159SOL    HW115110   4.101   3.740   5.922 -0.8723  2.1251  0.1804
 1159SOL    HW215111   4.224   3.722   5.846  0.3213  1.8007  1.1505
 1160SOL     OW15112   3.440   4.548   3.143 -0.6258  0.4849  0.0200
 1160SOL    HW115113   3.495   4.502   3.206 -0.8105  1.7302  1.1148
 1160SOL    HW215114   3.499   4.556   3.068 -1.6003 -0.5814 -0.8644
 1161SOL     OW15115   2.679   1.782  10.967  0.2568 -0.4476 -0.0290
 1161SOL    HW115116   2.687   1.692  11.000  2.0225 -0.4595 -0.5009
 1161SOL    HW215117   2.659   1.766  10.874  2.1022 -0.3314 -0.4341
 1162SOL     OW15118   4.493   1.617   4.767  0.4215  0.0726 -0.0274
 1162SOL    HW115119   4.476   1.526   4.744 -2.4584  0.5044  0.3533
 1162SOL    HW215120   4.531   1.636   4.681  1.7101 -2.5486 -0.0084
 1163SOL     OW15121   4.068   4.407   3.014 -0.1474  0.2976 -0.1594
 1163SOL    HW115122   4.154   4.449   3.019 -0.3512  0.9729 -2.2774
 1163SOL    HW215123   4.008   4.478   2.991 -2.7431 -1.9870 -0.4644
 1164SOL     OW15124   0.213   0.562   3.072  0.3606  0.7000 -0.4168
 1164SOL    HW115125   0.119   0.580   3.070  0.2694  0.2279 -0.4299
 1164SOL    HW215126   0.226   0.541   3.165  4.3180  0.3238 -1.0830
 1165SOL     OW15127   1.782   3.471  10.561 -0.3843  0.1384  0.1534
 1165SOL    HW115128   1.873   3.444  10.571 -0.9772 -1.6161  0.7905
 1165SOL    HW215129   1.783   3.541  10.627  1.7450  1.0239 -0.8245
 1166SOL     OW15130   3.751   2.314   7.495  0.1538  0.3071 -0.1488
 1166SOL    HW115131   3.810   2.251   7.454  2.8890  2.4087  0.5803
 1166SOL    HW215132   3.784   2.296   7.583  1.3083 -3.3133 -1.3197
 1167SOL     OW15133   4.067   1.776   3.175 -0.0458 -0.5386 -0.1408
 1167SOL    HW115134   4.154   1.812   3.192 -0.9282  1.0496  1.0667
 1167SOL    HW215135   4.017   1.787   3.256 -0.4691  0.9651 -0.6079
 1168SOL     OW15136   2.820   3.997  10.775  0.6746  0.1406 -0.2059
 1168SOL    HW115137   2.850   4.022  10.863  0.0863  1.9965 -0.5487
 1168SOL    HW215138   2.730   4.029  10.785 -0.0253 -2.8082  3.3752
 1169SOL     OW15139   1.318   0.759   1.653 -0.0950  0.4129 -0.2877
 1169SOL    HW115140   1.338   0.850   1.632  1.2908  0.3838  0.9156
 1169SOL    HW215141   1.227   0.749   1.627  0.2165  0.5192 -1.4156
 1170SOL     OW15142   4.224   4.141   2.118 -0.6877  0.2005 -0.1581
 1170SOL    HW115143   4.309   4.181   2.137 -0.0691 -1.8385  1.4433
 1170SOL    HW215144   4.251   4.100   2.036  0.1486  2.2430 -0.8987
 1171SOL     OW15145   0.910   1.889   1.883  0.0087  0.2913 -0.3510
 1171SOL    HW115146   0.817   1.889   1.860  0.5152 -1.2367 -2.4830
 1171SOL    HW215147   0.935   1.797   1.891  0.3630  0.4339  0.1879
 1172SOL     OW15148   2.546   1.921   6.011  0.4505  0.8764 -0.1090
 1172SOL    HW115149   2.630   1.898   6.050  0.4698  2.2225  0.6428
 1172SOL    HW215150   2.501   1.838   6.029  1.7469  0.1407 -0.2529
 1173SOL     OW15151   3.588   0.786  17.462 -0.1333  0.4425 -0.6095
 1173SOL    HW115152   3.496   0.775  17.437 -0.4756  0.1001  0.7685
 1173SOL    HW215153   3.614   0.868  17.420 -1.2824  0.5059 -1.1970
 1174SOL     OW15154   1.955   1.995   3.634 -0.5192 -0.0253 -0.4599
 1174SOL    HW115155   2.037   1.946   3.638 -0.8794 -0.5416  0.5910
 1174SOL    HW215156   1.986   2.082   3.660  2.6228 -1.4098  0.4358
 1175SOL     OW15157   2.966   1.744  16.091 -0.2220 -0.7198  0.5085
 1175SOL    HW115158   2.877   1.780  16.092 -0.5449 -1.5503  1.9782
 1175SOL    HW215159   2.995   1.726  16.181  0.9462  2.7654  0.8108
 1176SOL     OW15160   3.198   0.097   5.883 -0.3785 -0.0517  0.1193
 1176SOL    HW115161   3.251   0.053   5.950  0.6988 -0.6121 -1.1127
 1176SOL    HW215162   3.168   0.165   5.943 -0.5946 -1.5316  1.7076
 1177SOL     OW15163   2.836   1.777   8.083 -0.3691 -0.4203  0.1982
 1177SOL    HW115164   2.860   1.843   8.018  0.3338 -0.1806  0.6964
 1177SOL    HW215165   2.755   1.806   8.126 -0.8757 -1.6140  0.0428
 1178SOL     OW15166   0.259   1.727   3.605  0.6364 -0.5417  0.6206
 1178SOL    HW115167   0.292   1.803   3.558 -2.3349 -1.0741 -2.2834
 1178SOL    HW215168   0.340   1.699   3.649  0.7505  1.2681  1.5484
 1179SOL     OW15169   2.751   2.060   2.868  0.3320 -0.0968  0.4416
 1179SOL    HW115170   2.759   2.151   2.837 -2.2379 -0.0134 -0.0204
 1179SOL    HW215171   2.839   2.027   2.852  0.1654 -0.8664  1.1017
 1180SOL     OW15172   4.378   0.924  14.633  0.4953  0.1554 -0.4436
 1180SOL    HW115173   4.356   0.883  14.549 -0.6226 -2.2537  1.0478
 1180SOL    HW215174   4.449   0.872  14.671  1.2852  0.6861 -1.1886
 1181SOL     OW15175   1.077   4.036   7.167  0.2743  0.0124 -0.0992
 1181SOL    HW115176   1.063   4.064   7.076 -0.1153  0.6805  0.1664
 1181SOL    HW215177   1.172   4.023   7.168  0.7720  3.6904  0.6538
 1182SOL     OW15178   1.137   1.860  12.834  0.2107 -0.1098 -0.3504
 1182SOL    HW115179   1.111   1.872  12.925 -1.1373 -3.4191 -0.3116
 1182SOL    HW215180   1.054   1.891  12.798  1.5738  2.2778 -1.4561
 1183SOL     OW15181   2.841   0.364  17.705 -0.1882  0.2622  0.5081
 1183SOL    HW115182   2.785   0.433  17.741 -1.3731 -0.5430  0.2204
 1183SOL    HW215183   2.909   0.345   0.022 -0.2641  0.1519  0.5550
 1184SOL     OW15184   1.694   2.002  15.671 -0.0893 -0.1335  0.6080
 1184SOL    HW115185   1.740   2.052  15.603  0.1650 -1.1622  0.0216
 1184SOL    HW215186   1.651   2.067  15.727  0.4391 -0.2750  1.1838
 1185SOL     OW15187   0.404   4.309  17.509  0.1019 -0.3196  0.0048
 1185SOL    HW115188   0.348   4.240  17.546  0.1685 -0.3071  0.1294
 1185SOL    HW215189   0.351   4.389  17.514  0.2317 -0.3677  1.9976
 1186SOL     OW15190   2.091   3.056   9.713 -0.2513 -0.1660  0.3287
 1186SOL    HW115191   2.110   3.149   9.696  3.5606 -0.8686  0.6537
 1186SOL    HW215192   2.033   3.027   9.643  1.0906  0.6317 -1.1160
 1187SOL     OW15193   1.354   3.531   8.272  0.5655  0.0501  0.5954
 1187SOL    HW115194   1.408   3.489   8.339 -2.0364 -1.2980  1.8224
 1187SOL    HW215195   1.280   3.472   8.286  0.5941  0.3462  1.9702
 1188SOL     OW15196   2.653   1.762   2.527  0.1728  0.2684  0.1459
 1188SOL    HW115197   2.748   1.752   2.524  0.1582  0.2541 -0.2098
 1188SOL    HW215198   2.639   1.768   2.622 -1.1752 -2.3808  0.1216
 1189SOL     OW15199   4.227   0.151   4.473  0.9637 -0.8276  0.2135
 1189SOL    HW115200   4.243   0.153   4.379  0.2918 -0.8954  0.0946
 1189SOL    HW215201   4.151   0.209   4.479  1.3878 -0.0293 -2.1080
 1190SOL     OW15202   1.868   1.786   8.168  0.0095 -0.6758  0.0178
 1190SOL    HW115203   1.936   1.772   8.102 -0.3327 -2.8881  0.1104
 1190SOL    HW215204   1.793   1.808   8.113  0.1199 -1.1274 -0.3198
 1191SOL     OW15205   3.663   1.815   7.254  0.4354  0.0909 -0.0058
 1191SOL    HW115206   3.593   1.879   7.262 -0.6790 -1.3331  1.5187
 1191SOL    HW215207   3.694   1.819   7.344 -0.9319 -0.1701  0.4764
 1192SOL     OW15208   4.490   1.760   2.500  0.8486  0.3582 -0.3945
 1192SOL    HW115209   4.463   1.679   2.455  1.4313  0.0712 -0.2244
 1192SOL    HW215210   4.436   1.828   2.460  1.8886  0.0872 -2.2405
 1193SOL     OW15211   1.899   0.698   6.390  0.2866  0.4813 -0.0808
 1193SOL    HW115212   1.838   0.624   6.390 -0.3431  1.0048 -0.2635
 1193SOL    HW215213   1.872   0.737   6.307  1.2349  0.2560 -0.4896
 1194SOL     OW15214   4.082   0.430  12.125  0.3939 -0.5302 -0.1862
 1194SOL    HW115215   4.099   0.477  12.043  0.5587 -1.3691 -0.6294
 1194SOL    HW215216   4.168   0.445  12.166  0.5471 -0.3917 -0.5576
 1195SOL     OW15217   4.563   3.097   7.998  0.6228 -0.0051 -0.0644
 1195SOL    HW115218   4.578   3.145   7.917 -1.1998 -0.2588 -0.5377
 1195SOL    HW215219   4.590   3.011   7.964  3.8622  1.8008 -1.9676
 1196SOL     OW15220   2.009   3.995   9.428  0.4381  0.3594  0.4666
 1196SOL    HW115221   2.087   3.969   9.477  0.4414  0.9415  0.7649
 1196SOL    HW215222   1.947   3.925   9.447 -0.7269  1.3910  0.4212
 1197SOL     OW15223   3.555   3.440   7.010  0.1529 -0.2421 -0.2637
 1197SOL    HW115224   3.537   3.515   6.953  1.2161  1.0331  1.0934
 1197SOL    HW215225   3.599   3.481   7.084 -1.0579 -1.2842  1.0427
 1198SOL     OW15226   3.471   4.475   4.993 -0.0170 -0.4972 -0.1957
 1198SOL    HW115227   3.490   4.553   5.046  0.1358 -1.6841  1.5029
 1198SOL    HW215228   3.376   4.465   5.007  0.5755 -1.4822  3.0634
 1199SOL     OW15229   0.897   0.013   5.696 -0.6238 -0.0987 -0.2762
 1199SOL    HW115230   0.904   4.678   5.634  1.0053  0.9278 -1.3073
 1199SOL    HW215231   0.817   4.728   5.743  1.0228 -1.5303  1.8507
 1200SOL     OW15232   2.527   1.851   7.031 -0.0251 -0.1953  0.1516
 1200SOL    HW115233   2.446   1.834   7.078 -0.4150 -1.8480 -1.0870
 1200SOL    HW215234   2.573   1.909   7.090 -1.8129  1.5847 -0.2222
 1201SOL     OW15235   4.006   3.088   4.119 -0.1929  0.0885 -0.4699
 1201SOL    HW115236   3.998   3.030   4.194 -1.0489  0.3387 -0.3764
 1201SOL    HW215237   4.089   3.054   4.085  0.2507 -0.1607  0.8592
 1202SOL     OW15238   3.128   3.086  10.029  0.3444  0.7635 -0.0427
 1202SOL    HW115239   3.088   3.071  10.115 -1.0292 -0.3575 -0.8807
 1202SOL    HW215240   3.190   3.014  10.029 -1.4572 -0.7839  0.4601
 1203SOL     OW15241   4.267   1.919   3.327  0.3830 -0.0666 -0.1043
 1203SOL    HW115242   4.254   1.976   3.402  0.8479  2.9008 -2.2736
 1203SOL    HW215243   4.354   1.890   3.353  0.5276 -0.0726 -0.5875
 1204SOL     OW15244   2.387   3.645   3.734 -0.7823 -0.4728 -0.1292
 1204SOL    HW115245   2.460   3.708   3.734 -1.6039  0.4861  0.2778
 1204SOL    HW215246   2.425   3.577   3.679 -3.1834 -0.5087 -1.7560
 1205SOL     OW15247   4.631   4.115   4.636 -0.6057 -0.2847 -0.3593
 1205SOL    HW115248   4.541   4.144   4.655 -0.6395 -0.9027  0.4028
 1205SOL    HW215249   4.633   4.153   4.548  0.0759 -2.4044 -1.2541
 1206SOL     OW15250   2.659   0.254   2.837  0.0299  0.1618 -0.7671
 1206SOL    HW115251   2.571   0.218   2.845 -0.8119  2.4753  0.4494
 1206SOL    HW215252   2.657   0.278   2.929 -1.1137 -0.5168 -0.6136
 1207SOL     OW15253   3.787   2.397   3.422  0.2743  0.1266 -0.5579
 1207SOL    HW115254   3.821   2.363   3.505 -1.4060  0.8228  0.4145
 1207SOL    HW215255   3.864   2.447   3.394  0.3491  0.5126  0.3319
 1208SOL     OW15256   0.359   1.384   3.465 -0.1066  0.5223  0.7958
 1208SOL    HW115257   0.428   1.398   3.400  2.4090 -0.3623  3.3221
 1208SOL    HW215258   0.307   1.320   3.415 -1.9989  2.6759 -0.0209
 1209SOL     OW15259   1.637   3.135   8.626  0.4455 -0.1444  0.1435
 1209SOL    HW115260   1.612   3.046   8.649 -1.2113  1.2958  4.0388
 1209SOL    HW215261   1.656   3.170   8.714  0.1564  0.2774  0.0412
 1210SOL     OW15262   3.938   4.247   3.987 -0.8235  0.0367 -0.7503
 1210SOL    HW115263   3.916   4.268   3.896  0.2084  1.0788 -0.7586
 1210SOL    HW215264   4.006   4.181   3.977 -0.1437  0.7663 -0.9307
 1211SOL     OW15265   1.983   3.847   7.751 -0.1506 -0.0867  0.3482
 1211SOL    HW115266   2.065   3.896   7.746 -0.7330  0.8085 -0.4482
 1211SOL    HW215267   1.959   3.857   7.659 -0.6281  4.1762  0.9733
 1212SOL     OW15268   4.480   4.004   2.421 -0.5053  0.4634 -0.5488
 1212SOL    HW115269   4.560   3.993   2.371 -0.5346  0.0739 -0.5128
 1212SOL    HW215270   4.502   3.967   2.507  0.2269 -1.2749 -1.4832
 1213SOL     OW15271   1.854   3.935   6.733 -0.3744 -0.5086 -0.3064
 1213SOL    HW115272   1.925   3.975   6.783 -0.3955 -0.0012 -0.6783
 1213SOL    HW215273   1.906   3.869   6.687  0.5140 -0.0155  0.0014
 1214SOL     OW15274   0.949   0.236  10.875 -0.2512  0.1893 -0.3197
 1214SOL    HW115275   1.042   0.255  10.883  0.0061 -0.8227 -1.0109
 1214SOL    HW215276   0.926   0.207  10.963 -0.0319 -1.9702 -0.9797
 1215SOL     OW15277   2.246   2.644   1.212  0.2626  0.1881 -0.4010
 1215SOL    HW115278   2.237   2.703   1.137 -1.7140 -1.2436 -1.2629
 1215SOL    HW215279   2.163   2.666   1.253  1.5920  3.0498  0.8154
 1216SOL     OW15280   0.082   1.246  17.635  0.5210  0.0480 -0.3377
 1216SOL    HW115281   0.010   1.184  17.645  0.6886 -0.0546  0.2568
 1216SOL    HW215282   0.155   1.204  17.680 -0.2243  1.7817  2.5031
 1217SOL     OW15283   3.488   4.655   1.411 -0.2333  0.0986 -0.4089
 1217SOL    HW115284   3.417   4.719   1.405  0.0458  0.5052  0.6948
 1217SOL    HW215285   3.561   4.714   1.426  0.6163 -0.9733 -0.3225
 1218SOL     OW15286   0.637   0.590  14.946  0.3498  0.2314 -0.3060
 1218SOL    HW115287   0.610   0.523  15.008  0.5330 -2.4991 -3.2048
 1218SOL    HW215288   0.630   0.669  14.999  0.9104 -0.0128  0.1185
 1219SOL     OW15289   4.572   0.877   7.098  0.3452  0.0621 -0.2433
 1219SOL    HW115290   4.594   0.784   7.089 -0.0751  0.0027 -0.6771
 1219SOL    HW215291   4.584   0.915   7.011  1.1096 -1.8986 -0.9939
 1220SOL     OW15292   4.669   2.740   8.379  0.3823 -0.1178 -0.0419
 1220SOL    HW115293   4.718   2.674   8.331 -0.8216 -0.9581 -0.0854
 1220SOL    HW215294   4.583   2.706   8.400  0.7434 -0.5335  0.7602
 1221SOL     OW15295   3.021   0.299   8.390  0.0823  0.7558 -0.2039
 1221SOL    HW115296   2.987   0.374   8.439 -3.5226  0.6647 -2.6384
 1221SOL    HW215297   2.942   0.259   8.355  0.3799 -1.0790  1.2314
 1222SOL     OW15298   3.266   3.002   1.755 -0.2629 -1.1077  0.8410
 1222SOL    HW115299   3.275   3.081   1.808  0.1254 -0.0786 -0.7463
 1222SOL    HW215300   3.204   2.952   1.808 -0.4022 -2.1506 -0.2953
 1223SOL     OW15301   0.588   0.972   5.067 -0.9623 -0.2105  0.2244
 1223SOL    HW115302   0.643   0.939   5.138  0.5670  0.3504 -0.6962
 1223SOL    HW215303   0.533   1.036   5.113 -0.2645 -0.2824  1.1524
 1224SOL     OW15304   2.897   4.200   8.627 -0.4479  0.4177  0.2099
 1224SOL    HW115305   2.957   4.247   8.685  0.0137  0.9905 -0.7194
 1224SOL    HW215306   2.876   4.117   8.668  1.4235 -0.7857 -1.2884
 1225SOL     OW15307   2.094   0.371   2.820  0.1464 -0.4836 -0.2391
 1225SOL    HW115308   2.113   0.351   2.729  2.3189 -3.2300  0.8009
 1225SOL    HW215309   2.046   0.298   2.860  0.6624 -0.4393  0.4659
 1226SOL     OW15310   4.039   3.435  13.257  0.6980  0.2674 -0.5875
 1226SOL    HW115311   4.100   3.362  13.262  0.0949 -0.1289  1.0418
 1226SOL    HW215312   4.078   3.505  13.309  0.5970 -0.0739 -0.0448
 1227SOL     OW15313   0.454   3.061   6.547 -0.0456 -0.7350 -0.2277
 1227SOL    HW115314   0.498   3.122   6.488 -0.0900  1.0289  1.5701
 1227SOL    HW215315   0.410   3.125   6.603  1.6151  0.5313 -0.3694
 1228SOL     OW15316   0.380   3.236  17.239 -0.0774 -0.0943 -0.0694
 1228SOL    HW115317   0.331   3.177  17.181  1.5072  2.5010 -4.0642
 1228SOL    HW215318   0.454   3.261  17.184  1.3289 -1.7736  1.0450
 1229SOL     OW15319   1.306   0.142  12.749 -0.0919 -0.0990 -0.5181
 1229SOL    HW115320   1.328   0.110  12.837  1.0688  0.7375 -0.5004
 1229SOL    HW215321   1.351   0.079  12.693  0.3364  0.0912 -0.3870
 1230SOL     OW15322   0.333   4.467   6.967 -0.4148 -0.0431 -0.1722
 1230SOL    HW115323   0.309   4.559   6.960 -0.7063 -0.1812 -0.9191
 1230SOL    HW215324   0.345   4.463   7.062 -3.9145 -0.6870  0.2231
 1231SOL     OW15325   4.298   3.196   2.394 -0.3526 -0.3632  0.2767
 1231SOL    HW115326   4.350   3.237   2.326  0.1582 -0.3277  0.6906
 1231SOL    HW215327   4.312   3.101   2.387  0.1816 -0.0208 -3.1304
 1232SOL     OW15328   4.706   3.508   6.594  0.2058  0.4268 -0.4497
 1232SOL    HW115329   0.055   3.466   6.593 -1.7048 -3.5051  0.3274
 1232SOL    HW215330   4.721   3.595   6.556 -0.4874  1.1001  0.8101
 1233SOL     OW15331   0.169   3.631   6.781  0.1617 -0.2159  0.0486
 1233SOL    HW115332   0.217   3.714   6.780 -0.6943  0.2723 -1.2907
 1233SOL    HW215333   0.192   3.587   6.699  0.7869  0.4783 -0.1550
 1234SOL     OW15334   4.656   4.375   6.722  0.1796 -0.4947  0.4580
 1234SOL    HW115335   4.697   4.438   6.781  0.3704 -0.2295  0.0424
 1234SOL    HW215336   4.735   4.341   6.681 -0.5679  0.3577 -1.7180
 1235SOL     OW15337   0.703   0.202   6.136 -0.0368 -0.2113  0.1858
 1235SOL    HW115338   0.745   0.122   6.105  0.0559 -0.2326  0.3658
 1235SOL    HW215339   0.611   0.185   6.116  0.3922 -0.7980 -1.3003
 1236SOL     OW15340   3.183   1.859  11.907 -0.3417  0.0494 -0.6635
 1236SOL    HW115341   3.139   1.853  11.823 -2.9271  2.3304  0.5185
 1236SOL    HW215342   3.140   1.787  11.952  1.4854 -0.9945 -0.6028
 1237SOL     OW15343   1.481   1.030  10.965  0.2382  0.6143 -0.8091
 1237SOL    HW115344   1.501   1.034  10.871 -0.8572  1.2029 -1.0168
 1237SOL    HW215345   1.559   1.080  10.991  0.2046  0.1909  0.0991
 1238SOL     OW15346   2.236   1.107   3.443  0.4268 -0.1095 -0.3219
 1238SOL    HW115347   2.289   1.031   3.467  1.1150  0.8468  1.1941
 1238SOL    HW215348   2.293   1.175   3.407  0.9119 -0.0857  0.4990
 1239SOL     OW15349   1.016   0.359   2.486 -0.1420  0.1650 -0.0366
 1239SOL    HW115350   0.932   0.375   2.443  0.5046  1.1003 -0.9843
 1239SOL    HW215351   1.059   0.310   2.415 -0.9873 -0.6120 -0.0067
 1240SOL     OW15352   3.432   0.006   1.963 -0.8069  0.2415  0.5825
 1240SOL    HW115353   3.459   4.693   1.887  1.2252  2.1652  0.0264
 1240SOL    HW215354   3.426   4.671   2.025  1.2777 -0.7309 -0.3288
 1241SOL     OW15355   0.792   1.187   8.738  0.0460 -0.1506  0.2201
 1241SOL    HW115356   0.772   1.126   8.667  0.4654 -1.5848  1.3316
 1241SOL    HW215357   0.868   1.236   8.705  2.1167 -0.9554  3.7379
 1242SOL     OW15358   1.035   1.718   8.601 -0.5198 -0.1044 -0.3021
 1242SOL    HW115359   1.047   1.811   8.580 -2.2936 -0.2430 -1.9166
 1242SOL    HW215360   0.956   1.695   8.552  0.6771 -2.2694 -1.2396
 1243SOL     OW15361   1.608   1.039   8.980  0.5474  0.0549  0.4887
 1243SOL    HW115362   1.659   1.113   9.011 -0.2220  1.4527 -1.5689
 1243SOL    HW215363   1.668   0.967   8.999 -0.8295 -0.9361  1.0818
 1244SOL     OW15364   3.975   1.640   1.731 -0.4045  0.1504  0.4542
 1244SOL    HW115365   3.900   1.698   1.720  0.5207  1.0551 -1.0956
 1244SOL    HW215366   3.947   1.609   1.817  0.3275 -0.6257  0.4125
 1245SOL     OW15367   2.077   1.055   9.839 -0.8244  1.3002 -0.3233
 1245SOL    HW115368   2.093   1.107   9.918  0.7296 -1.0404  0.8922
 1245SOL    HW215369   2.129   0.977   9.859 -1.0146  0.6093 -2.5435
 1246SOL     OW15370   1.492   0.635   2.553 -0.2141  0.0025  0.2663
 1246SOL    HW115371   1.406   0.623   2.593 -0.6134 -2.4702 -1.3537
 1246SOL    HW215372   1.549   0.631   2.630 -1.9903 -1.4882  1.4806
 1247SOL     OW15373   1.782   1.112   7.537  0.2407 -0.4662 -0.1167
 1247SOL    HW115374   1.823   1.140   7.619  1.3197 -1.6865 -0.2216
 1247SOL    HW215375   1.695   1.150   7.543 -0.7371 -2.8441  0.8572
 1248SOL     OW15376   3.018   3.025   8.786 -0.0537  0.1886 -0.4550
 1248SOL    HW115377   2.925   3.044   8.771  0.2542  0.8127 -1.5682
 1248SOL    HW215378   3.028   2.941   8.742  0.7212 -0.5287  1.0965
 1249SOL     OW15379   3.752   3.790   3.346 -0.0059 -0.3329 -0.4869
 1249SOL    HW115380   3.807   3.848   3.293 -1.0714  0.0756 -1.1572
 1249SOL    HW215381   3.792   3.703   3.344  0.3124 -0.2342  2.4371
 1250SOL     OW15382   2.965   0.191  12.077 -0.2661 -0.1106  0.3093
 1250SOL    HW115383   2.872   0.170  12.074 -0.5607  1.3987 -0.9517
 1250SOL    HW215384   2.993   0.199  11.986 -0.3848  1.2916  0.4087
 1251SOL     OW15385   1.173   0.706  12.692  0.0036 -0.4651 -0.4088
 1251SOL    HW115386   1.131   0.653  12.760  1.4135  1.0593  1.6349
 1251SOL    HW215387   1.215   0.775  12.743 -2.3473  0.8806 -0.2611
 1252SOL     OW15388   1.251   2.591   3.240 -0.4922  0.2327  0.4243
 1252SOL    HW115389   1.307   2.636   3.176  0.9946 -1.1262  0.7904
 1252SOL    HW215390   1.170   2.616   3.194  0.2610 -0.9087 -1.5242
 1253SOL     OW15391   2.687   3.655  11.103  0.0945  0.1196  0.2314
 1253SOL    HW115392   2.681   3.741  11.145 -1.2682  0.9193 -1.6064
 1253SOL    HW215393   2.683   3.677  11.010  0.0850  0.6193  0.3523
 1254SOL     OW15394   4.160   0.529   6.105  0.2928 -0.3409 -0.2080
 1254SOL    HW115395   4.129   0.573   6.184  1.2620 -2.0609  1.1360
 1254SOL    HW215396   4.245   0.492   6.130  1.1215  0.4590 -1.8493
 1255SOL     OW15397   1.571   4.529   4.227  0.4964  0.0065 -0.1811
 1255SOL    HW115398   1.656   4.565   4.200  0.8207 -0.5743  0.0742
 1255SOL    HW215399   1.512   4.604   4.219 -0.9837 -1.0330  1.2896
 1256SOL     OW15400   2.216   1.589   9.313  0.1144  0.3054  0.4396
 1256SOL    HW115401   2.284   1.616   9.375  0.0833  2.2281 -0.3728
 1256SOL    HW215402   2.143   1.631   9.358 -1.2363 -1.0994 -0.4728
 1257SOL     OW15403   3.979   3.034   9.069 -0.3788  0.1861 -0.1717
 1257SOL    HW115404   3.995   3.023   9.163 -0.1166 -1.0246 -0.3624
 1257SOL    HW215405   4.059   2.995   9.033 -0.6376  0.4965 -1.0721
 1258SOL     OW15406   3.809   1.514  13.347 -0.8085  0.6120  0.5106
 1258SOL    HW115407   3.850   1.450  13.405 -0.1837  0.6987  0.1646
 1258SOL    HW215408   3.779   1.580  13.410  0.5276  0.2915  1.4779
 1259SOL     OW15409   2.577   4.028   3.582  0.0569  0.2970 -0.0630
 1259SOL    HW115410   2.566   3.940   3.616  1.6647  0.5617  1.1684
 1259SOL    HW215411   2.570   4.013   3.487  0.0972  2.7655 -0.4530
 1260SOL     OW15412   0.439   3.462   5.874  0.2629 -0.2601 -0.1329
 1260SOL    HW115413   0.442   3.371   5.845  0.1432 -0.6590  1.1353
 1260SOL    HW215414   0.442   3.518   5.796  1.4466 -1.0954 -0.6930
 1261SOL     OW15415   0.680   3.517   5.486 -0.0766  0.1529 -0.0654
 1261SOL    HW115416   0.644   3.428   5.484 -1.6580  0.7853  0.2224
 1261SOL    HW215417   0.669   3.537   5.393 -0.3576  1.2725  0.2120
 1262SOL     OW15418   3.949   3.333   1.033  0.3406 -0.0790  0.1096
 1262SOL    HW115419   3.885   3.393   0.993  0.5295  0.2774  0.3388
 1262SOL    HW215420   3.894   3.255   1.041 -0.1860  0.1023 -1.7100
 1263SOL     OW15421   3.126   4.432   9.419  0.3191 -0.1717 -0.1590
 1263SOL    HW115422   3.205   4.476   9.452  0.9732 -2.0444  0.7406
 1263SOL    HW215423   3.161   4.383   9.344  0.4582 -0.3534  0.0263
 1264SOL     OW15424   1.740   2.441   7.540 -0.3686  0.5686  0.0352
 1264SOL    HW115425   1.761   2.380   7.470  0.2223 -0.0070  0.7139
 1264SOL    HW215426   1.647   2.451   7.517 -0.2272  0.5457 -0.5410
 1265SOL     OW15427   3.028   1.771   6.059  0.3376  0.2271  0.4582
 1265SOL    HW115428   3.122   1.752   6.061  0.3513  0.2623  0.0884
 1265SOL    HW215429   3.011   1.729   5.974 -1.4660  1.8804 -0.0019
 1266SOL     OW15430   1.337   4.233  10.738  0.2214  0.8099  0.0877
 1266SOL    HW115431   1.245   4.217  10.719  0.7847 -1.3330 -0.8846
 1266SOL    HW215432   1.372   4.291  10.672  1.1705 -0.2504 -0.3402
 1267SOL     OW15433   3.823   3.375   9.164  0.5645 -0.3628  0.2316
 1267SOL    HW115434   3.820   3.299   9.107  1.7592 -0.6042  0.4745
 1267SOL    HW215435   3.745   3.359   9.217  1.3896 -0.0035  1.5863
 1268SOL     OW15436   1.903   0.776  12.025 -0.1368  0.3214 -0.2327
 1268SOL    HW115437   1.920   0.696  12.074 -1.1836 -0.1862 -0.6990
 1268SOL    HW215438   1.830   0.802  12.081  0.1625  0.8938 -0.1127
 1269SOL     OW15439   3.019   4.427   0.600  0.4848  0.4820  0.8490
 1269SOL    HW115440   3.005   4.521   0.609  2.2827  0.9643 -1.2896
 1269SOL    HW215441   3.052   4.434   0.510 -0.5564  4.0867  0.7621
 1270SOL     OW15442   1.907   4.693  15.595  0.8427  0.0354  0.7476
 1270SOL    HW115443   1.847   0.010  15.544 -1.5854 -2.0401  1.3845
 1270SOL    HW215444   1.841   4.656  15.654  0.0444 -0.8535 -0.7119
 1271SOL     OW15445   4.627   2.218   4.960 -0.1461 -0.6950 -0.2900
 1271SOL    HW115446   4.602   2.222   5.052  3.5014  3.5873  0.5408
 1271SOL    HW215447   4.563   2.155   4.928  1.6951 -2.6322 -0.1810
 1272SOL     OW15448   3.809   4.187   4.613  0.4161 -0.1323  0.0665
 1272SOL    HW115449   3.758   4.124   4.562  2.5589 -1.2454 -0.6866
 1272SOL    HW215450   3.788   4.272   4.574  1.8761  0.3776  0.3842
 1273SOL     OW15451   0.182   4.080   6.783  0.4841  0.4218 -0.1216
 1273SOL    HW115452   0.122   4.019   6.826  0.8819 -0.4413 -0.7961
 1273SOL    HW215453   0.257   4.020   6.780 -0.7832 -1.1673  0.2102
 1274SOL     OW15454   0.679   2.956  14.394  0.7594 -0.3855 -0.5112
 1274SOL    HW115455   0.768   2.922  14.389  0.4067 -1.7472  2.7763
 1274SOL    HW215456   0.655   2.904  14.470  0.5642  2.4927  1.4220
 1275SOL     OW15457   0.032   4.126   3.873 -0.2125  0.2279  0.4252
 1275SOL    HW115458   0.080   4.148   3.793  0.8249  1.9616  1.5213
 1275SOL    HW215459   0.054   4.033   3.879 -0.7865  0.0658 -0.0338
 1276SOL     OW15460   0.932   0.722   2.409 -0.1738  0.6907 -0.8935
 1276SOL    HW115461   0.991   0.675   2.350  0.8128 -2.8690  2.9464
 1276SOL    HW215462   0.942   0.812   2.378 -0.3911  1.7391  2.0505
 1277SOL     OW15463   2.537   0.625  12.492  0.1362  0.5445 -0.2580
 1277SOL    HW115464   2.574   0.560  12.432 -0.1388  1.8012 -1.8034
 1277SOL    HW215465   2.529   0.576  12.574 -0.7021 -2.7376 -2.2685
 1278SOL     OW15466   3.436   4.151   6.221 -0.4786  0.0181 -0.5511
 1278SOL    HW115467   3.415   4.123   6.132  2.0968 -0.0574 -1.1218
 1278SOL    HW215468   3.396   4.238   6.209 -1.1810 -0.1463  0.6162
 1279SOL     OW15469   2.642   0.159   0.097  0.1751  0.2551  0.3842
 1279SOL    HW115470   2.616   0.238   0.145  1.5334 -1.4208  3.8371
 1279SOL    HW215471   2.731   0.136   0.124  0.9356  1.3856 -1.1436
 1280SOL     OW15472   3.367   2.095  11.826 -0.3482 -0.5228 -0.1298
 1280SOL    HW115473   3.317   2.020  11.793 -2.9213  1.1680 -0.1152
 1280SOL    HW215474   3.304   2.116  11.895 -0.9997 -0.3812 -0.7584
 1281SOL     OW15475   0.881   1.956   7.369  0.1178 -0.3185 -0.2034
 1281SOL    HW115476   0.918   2.019   7.432 -2.7373 -1.4414  2.5981
 1281SOL    HW215477   0.951   1.965   7.304 -0.8372  1.3443 -1.0000
 1282SOL     OW15478   2.304   0.648   0.813 -0.3115 -0.1905  0.0334
 1282SOL    HW115479   2.215   0.626   0.839  0.7710 -3.2666  1.1492
 1282SOL    HW215480   2.326   0.585   0.745 -1.1010 -0.8489  0.4003
 1283SOL     OW15481   3.831   1.068  16.338 -0.1850  0.2841  0.0504
 1283SOL    HW115482   3.813   1.158  16.310  0.4992  0.7782  1.1919
 1283SOL    HW215483   3.924   1.071  16.361  0.3202  2.0214 -2.2825
 1284SOL     OW15484   1.560   3.830   3.620 -0.0873 -0.0890  0.0678
 1284SOL    HW115485   1.485   3.788   3.661 -0.9871  1.4662  0.0338
 1284SOL    HW215486   1.559   3.907   3.677  0.2191  0.7747 -1.0661
 1285SOL     OW15487   3.253   3.852   3.191  0.5875  0.2784  0.1988
 1285SOL    HW115488   3.270   3.795   3.116 -2.1715  1.1971 -1.1228
 1285SOL    HW215489   3.163   3.883   3.186  0.9656  1.3472 -0.1718
 1286SOL     OW15490   0.314   4.295   5.840  0.4754  0.5075 -0.6792
 1286SOL    HW115491   0.318   4.347   5.920 -0.9465  1.5387 -1.2788
 1286SOL    HW215492   0.264   4.217   5.864  0.2036  1.2561  1.1618
 1287SOL     OW15493   1.061   2.655   6.118  0.0866  0.6042 -0.4543
 1287SOL    HW115494   1.088   2.660   6.210 -0.2779 -1.0279 -0.2550
 1287SOL    HW215495   1.139   2.689   6.074  0.1070  0.8740 -0.2151
 1288SOL     OW15496   4.724   2.727   3.547 -0.0304 -0.5289  0.7508
 1288SOL    HW115497   0.065   2.700   3.500  0.9373  2.7291  0.4966
 1288SOL    HW215498   4.696   2.643   3.583 -0.8442 -0.0147  1.3463
 1289SOL     OW15499   4.172   4.570   1.480  0.1289  0.0803  0.0388
 1289SOL    HW115500   4.095   4.571   1.535 -1.0793  0.4240 -1.6627
 1289SOL    HW215501   4.187   4.479   1.455  0.7309  0.5492 -1.3553
 1290SOL     OW15502   4.734   0.735  12.660 -0.7756  0.4867 -0.4127
 1290SOL    HW115503   0.046   0.747  12.741 -0.8230  0.5802 -0.3979
 1290SOL    HW215504   4.729   0.827  12.633  0.6266  1.3050  2.1047
 1291SOL     OW15505   0.268   3.424  15.105  0.6134 -0.5219 -0.7718
 1291SOL    HW115506   0.219   3.368  15.045 -1.4845 -1.0306  1.4051
 1291SOL    HW215507   0.279   3.373  15.185  2.2962  0.1589 -0.5591
 1292SOL     OW15508   4.733   3.159  15.862  0.3015  0.4653  0.3831
 1292SOL    HW115509   4.660   3.121  15.911 -0.0523 -0.2108 -0.6693
 1292SOL    HW215510   4.702   3.249  15.855  0.3365  0.3691 -1.0338
 1293SOL     OW15511   3.622   3.830  13.346 -0.3943 -0.1692 -0.7941
 1293SOL    HW115512   3.566   3.777  13.402  1.5978  1.1686  2.4926
 1293SOL    HW215513   3.708   3.787  13.357 -0.2009  0.6009  0.6404
 1294SOL     OW15514   1.434   3.470  14.164 -0.4690  0.4075 -0.1598
 1294SOL    HW115515   1.435   3.402  14.095  2.6970  1.1150 -0.7945
 1294SOL    HW215516   1.465   3.416  14.236 -0.3404  0.1640 -0.3959
 1295SOL     OW15517   4.535   1.575  17.581  0.4230  0.2310  0.1669
 1295SOL    HW115518   4.577   1.563  17.667  0.0102 -0.0277  0.3294
 1295SOL    HW215519   4.610   1.562  17.523  0.6516  1.9131  0.0665
 1296SOL     OW15520   2.851   0.692   8.506 -0.2773  0.1834 -0.5690
 1296SOL    HW115521   2.946   0.681   8.500 -0.0689  1.2431  0.7927
 1296SOL    HW215522   2.834   0.709   8.598 -0.3495  1.6806 -0.8667
 1297SOL     OW15523   0.197   0.990  11.621  0.2624  0.4830  0.1863
 1297SOL    HW115524   0.273   0.941  11.652  0.5046 -0.3053 -1.6288
 1297SOL    HW215525   0.164   1.034  11.700 -1.7429  1.2248 -1.0398
 1298SOL     OW15526   2.786   1.120   4.051 -0.0599  0.2839 -0.4550
 1298SOL    HW115527   2.811   1.203   4.090 -0.6852  0.5347 -0.5887
 1298SOL    HW215528   2.865   1.086   4.009 -0.1355  1.1776 -1.3136
 1299SOL     OW15529   1.768   1.558  13.155  0.0631  0.7777 -0.4545
 1299SOL    HW115530   1.814   1.601  13.083 -1.0004  0.6910 -1.1747
 1299SOL    HW215531   1.833   1.567  13.225 -1.4870  0.3416  1.0651
 1300SOL     OW15532   3.656   3.770   6.479  0.1916 -0.3506  0.0548
 1300SOL    HW115533   3.707   3.832   6.532 -0.2783 -0.5219  0.7132
 1300SOL    HW215534   3.593   3.750   6.549 -0.5898  1.3403 -0.1656
 1301SOL     OW15535   2.363   0.590   3.001 -0.0567 -0.3355  0.6659
 1301SOL    HW115536   2.426   0.635   2.945 -1.2274  0.5980  0.0894
 1301SOL    HW215537   2.277   0.629   2.983  0.2467  0.3956  0.8458
 1302SOL     OW15538   2.747   4.710   5.084  0.2426 -0.7853  0.6348
 1302SOL    HW115539   2.696   4.714   5.003 -0.8119 -1.8754  1.2520
 1302SOL    HW215540   2.800   0.053   5.080 -0.6419 -0.2936 -1.3901
 1303SOL     OW15541   4.297   0.106   1.974  0.3306  0.3291  0.4101
 1303SOL    HW115542   4.318   0.031   1.918 -0.9138  0.5384 -0.3282
 1303SOL    HW215543   4.241   0.161   1.919 -0.1366 -0.7960 -0.2316
 1304SOL     OW15544   3.799   4.573   8.980 -0.6216 -0.7286  0.1926
 1304SOL    HW115545   3.797   4.486   9.021  2.6399 -1.3219 -0.8571
 1304SOL    HW215546   3.887   4.598   9.007 -1.0196  1.3808 -0.5118
 1305SOL     OW15547   0.128   0.118   6.782  0.0084  0.0651 -1.0266
 1305SOL    HW115548   0.197   0.179   6.758 -1.4405  1.6618 -1.1605
 1305SOL    HW215549   0.055   0.178   6.799 -0.4301 -0.3618 -1.3785
 1306SOL     OW15550   0.939   1.448   7.629  0.1352  0.1557 -0.6075
 1306SOL    HW115551   0.915   1.414   7.715  1.7587  1.6250  0.4342
 1306SOL    HW215552   0.894   1.532   7.619 -0.9207 -0.3529 -0.0395
 1307SOL     OW15553   2.870   4.107  12.784 -0.4634 -0.7901  0.9599
 1307SOL    HW115554   2.780   4.133  12.803 -0.3243 -1.2950  2.3428
 1307SOL    HW215555   2.919   4.165  12.842  0.6190 -0.3711 -0.3635
 1308SOL     OW15556   1.955   1.555   9.878  0.1571  0.4650 -0.1905
 1308SOL    HW115557   2.022   1.551   9.946 -1.3570  0.1916  1.2838
 1308SOL    HW215558   1.882   1.503   9.912  1.5639 -0.7975  0.9516
 1309SOL     OW15559   1.090   4.672   2.445  0.9713 -0.3542 -0.0367
 1309SOL    HW115560   1.001   4.659   2.477  0.4357  0.2601 -1.2680
 1309SOL    HW215561   1.137   4.636   2.521 -0.7307 -1.6417  0.4011
 1310SOL     OW15562   2.163   0.066   1.492 -0.2743 -0.0433  0.0198
 1310SOL    HW115563   2.093   0.115   1.447  0.5413 -0.5867 -1.8492
 1310SOL    HW215564   2.115   0.003   1.544  1.9431 -0.2629  1.7848
 1311SOL     OW15565   4.387   2.585   9.745 -0.5637 -0.3829  0.1876
 1311SOL    HW115566   4.404   2.517   9.811 -1.7981 -2.0123 -1.1758
 1311SOL    HW215567   4.473   2.627   9.748  0.0440 -1.6097  0.0781
 1312SOL     OW15568   0.260   3.038   2.629  0.3998  0.2636  0.1122
 1312SOL    HW115569   0.259   3.108   2.565 -0.2243  1.1868  1.1362
 1312SOL    HW215570   0.276   2.960   2.575  0.8599  0.2530  0.2606
 1313SOL     OW15571   1.698   4.042   2.064 -0.4716 -0.4300 -0.0213
 1313SOL    HW115572   1.773   4.101   2.060 -0.4283 -0.4710  0.2040
 1313SOL    HW215573   1.734   3.954   2.053  2.9504  1.0389 -0.4925
 1314SOL     OW15574   0.434   3.017  12.950  0.0577  0.4642 -0.6374
 1314SOL    HW115575   0.529   3.023  12.957 -0.0729  1.2300  0.6648
 1314SOL    HW215576   0.419   3.069  12.871 -0.1999  0.4384 -0.6075
 1315SOL     OW15577   0.729   1.368   8.157  0.8144  0.3558 -0.1761
 1315SOL    HW115578   0.818   1.367   8.192  0.8617  1.3756 -0.2666
 1315SOL    HW215579   0.674   1.355   8.234 -0.1078  0.5797 -0.7947
 1316SOL     OW15580   4.471   2.501   0.222 -0.3286 -0.2304 -0.1276
 1316SOL    HW115581   4.509   2.546   0.147  0.8588 -0.1399  0.5257
 1316SOL    HW215582   4.543   2.448   0.255 -1.2191 -1.0039  0.5894
 1317SOL     OW15583   1.181   2.849  15.601 -0.0147  0.6260  0.1917
 1317SOL    HW115584   1.233   2.916  15.644  1.2887  0.2273 -0.7666
 1317SOL    HW215585   1.100   2.852  15.651 -0.5034 -0.8363 -0.5093
 1318SOL     OW15586   2.823   2.103   7.795 -0.5539 -0.0580 -0.2080
 1318SOL    HW115587   2.750   2.104   7.857 -0.0593  1.9873  0.3287
 1318SOL    HW215588   2.873   2.178   7.826  0.4094 -0.1347 -1.5693
 1319SOL     OW15589   3.666   2.523   8.737 -0.4238 -0.5733  0.2227
 1319SOL    HW115590   3.666   2.603   8.685 -2.4802  0.0503  1.1921
 1319SOL    HW215591   3.679   2.547   8.829 -1.8062  0.2074  0.2093
 1320SOL     OW15592   0.216   1.115   1.864 -0.3984  0.2819 -0.6688
 1320SOL    HW115593   0.228   1.210   1.857  0.6412  0.6414  5.6024
 1320SOL    HW215594   0.286   1.075   1.813  0.5017  1.2250 -0.1561
 1321SOL     OW15595   2.512   3.219  16.330 -0.0544 -0.0401  0.7858
 1321SOL    HW115596   2.449   3.181  16.270  0.8044  1.4829 -1.0967
 1321SOL    HW215597   2.592   3.179  16.296  1.4516  3.8965 -0.3483
 1322SOL     OW15598   0.350   2.026   9.737 -0.2801 -0.0062 -0.1293
 1322SOL    HW115599   0.287   2.089   9.702  0.3833  2.0731  2.3676
 1322SOL    HW215600   0.408   2.094   9.772  0.6143 -0.3253 -0.9961
 1323SOL     OW15601   2.245   0.253   5.922  0.1986  0.7845 -0.3758
 1323SOL    HW115602   2.151   0.246   5.939  0.3085  1.5794  0.5205
 1323SOL    HW215603   2.278   0.287   6.005 -2.1072 -0.8926  1.2206
 1324SOL     OW15604   0.250   1.820  10.770  0.3799  0.4147  0.1331
 1324SOL    HW115605   0.235   1.725  10.778 -1.1560  0.7581  1.2280
 1324SOL    HW215606   0.181   1.850  10.711  0.4974 -0.6427 -0.5489
 1325SOL     OW15607   1.919   0.567   6.819 -0.3586 -0.4564 -0.0627
 1325SOL    HW115608   1.862   0.566   6.742 -0.0361  0.5166 -0.3171
 1325SOL    HW215609   1.862   0.597   6.890 -0.3575 -0.2061 -0.1657
 1326SOL     OW15610   3.838   1.798   6.531 -0.0226  0.4389  0.0455
 1326SOL    HW115611   3.804   1.738   6.597  0.8446  1.3363  1.2962
 1326SOL    HW215612   3.926   1.760   6.518 -0.4332 -0.6076  0.3030
 1327SOL     OW15613   0.498   2.797  13.179  0.3721  0.4986  0.2782
 1327SOL    HW115614   0.467   2.712  13.148  1.5038  0.1214  0.1811
 1327SOL    HW215615   0.466   2.850  13.106  0.9860 -2.2157 -1.9648
 1328SOL     OW15616   3.718   3.167  11.310  0.2229  0.6499  0.1354
 1328SOL    HW115617   3.703   3.132  11.398 -0.9004 -3.2862 -1.6226
 1328SOL    HW215618   3.730   3.091  11.253 -0.6043 -0.0890  0.9550
 1329SOL     OW15619   3.899   3.465   3.005  0.1608 -0.0880 -0.2162
 1329SOL    HW115620   3.913   3.404   2.933 -2.3470  0.0737 -0.8560
 1329SOL    HW215621   3.940   3.423   3.081  0.3937 -1.1756 -0.9417
 1330SOL     OW15622   0.438   3.270   9.094  0.4000  0.3524  0.4556
 1330SOL    HW115623   0.489   3.333   9.145  0.6499  1.8291 -1.6177
 1330SOL    HW215624   0.421   3.325   9.017  1.5029 -0.3274 -0.2588
 1331SOL     OW15625   3.152   4.550   3.893 -0.1028  0.5915 -0.7688
 1331SOL    HW115626   3.071   4.501   3.881 -0.9976  1.4705  1.6626
 1331SOL    HW215627   3.159   4.603   3.814  1.4434  0.1769 -0.9116
 1332SOL     OW15628   0.518   4.058   3.262 -0.4415 -0.4523 -0.1584
 1332SOL    HW115629   0.598   4.038   3.310 -1.2406 -2.7137  0.2109
 1332SOL    HW215630   0.481   4.125   3.320  1.0434  0.5495 -0.3699
 1333SOL     OW15631   0.770   1.166   1.880  0.0636  0.6340 -0.2137
 1333SOL    HW115632   0.735   1.243   1.836 -0.4065  0.9954  0.7772
 1333SOL    HW215633   0.753   1.189   1.972 -0.2218 -0.5586  0.0289
 1334SOL     OW15634   3.801   1.134   8.144 -0.6333  0.7460 -0.2073
 1334SOL    HW115635   3.805   1.132   8.048 -3.7633 -1.2165 -0.3041
 1334SOL    HW215636   3.889   1.166   8.160 -0.8656  1.3918 -0.2259
 1335SOL     OW15637   0.848   0.422  13.185 -0.1771 -0.5856  0.6876
 1335SOL    HW115638   0.873   0.330  13.186  1.7252 -0.0966 -2.1954
 1335SOL    HW215639   0.850   0.442  13.091  0.0270 -0.2634  0.7576
 1336SOL     OW15640   3.573   3.541   4.596  0.2373 -0.3117 -0.1222
 1336SOL    HW115641   3.641   3.595   4.635  0.4619 -0.7423  0.0923
 1336SOL    HW215642   3.531   3.613   4.550 -0.3972 -1.4129 -1.2816
 1337SOL     OW15643   1.723   2.458  17.198  0.2868  0.3007 -0.1035
 1337SOL    HW115644   1.702   2.551  17.196 -2.5040 -0.3341 -0.3949
 1337SOL    HW215645   1.652   2.414  17.150  1.5509 -1.3419 -0.4940
 1338SOL     OW15646   2.110   0.303   3.908  0.3216 -0.1427 -0.1618
 1338SOL    HW115647   2.049   0.320   3.979  0.5506 -1.6062  0.3835
 1338SOL    HW215648   2.188   0.329   3.958  0.7644  1.0078 -1.4545
 1339SOL     OW15649   3.590   0.958   6.329 -0.1070 -0.4250 -0.1188
 1339SOL    HW115650   3.668   0.934   6.378  0.0418 -0.9827 -0.6306
 1339SOL    HW215651   3.567   0.881   6.277  1.8157  0.3087 -2.0503
 1340SOL     OW15652   2.005   1.432   3.806  0.7667 -0.5607 -0.2433
 1340SOL    HW115653   2.040   1.377   3.736 -0.3004 -0.4730 -0.8372
 1340SOL    HW215654   1.922   1.391   3.829  0.3634 -0.3544 -1.3056
 1341SOL     OW15655   0.353   0.316   6.859 -0.4898  0.1369 -0.2601
 1341SOL    HW115656   0.426   0.275   6.905 -0.3515  0.0589 -0.5487
 1341SOL    HW215657   0.407   0.375   6.806  0.2286 -0.1713  0.1328
 1342SOL     OW15658   2.224   1.098   2.231  0.5399 -0.5414 -0.4627
 1342SOL    HW115659   2.247   1.025   2.288  1.2538 -0.9447 -1.2720
 1342SOL    HW215660   2.305   1.148   2.218 -0.5155  1.0745 -0.8654
 1343SOL     OW15661   4.056   2.568  12.645  0.1408  0.0083 -0.2664
 1343SOL    HW115662   3.963   2.558  12.664 -0.3664  1.2121 -2.1446
 1343SOL    HW215663   4.087   2.619  12.720 -0.1410 -0.8662  0.4433
 1344SOL     OW15664   2.803   0.308   8.979  0.0301  0.2524  0.3897
 1344SOL    HW115665   2.708   0.303   8.988 -0.1335  2.7527  0.0446
 1344SOL    HW215666   2.836   0.225   9.013 -2.3175  0.3516  2.8502
 1345SOL     OW15667   0.426   1.104   7.465 -0.1613  0.7817 -0.8491
 1345SOL    HW115668   0.418   1.111   7.560  1.3453  1.4810 -0.7722
 1345SOL    HW215669   0.412   1.010   7.452 -0.4162  0.6190  0.6678
 1346SOL     OW15670   0.432   2.014  17.232  0.3134 -0.9581  0.3081
 1346SOL    HW115671   0.426   1.930  17.186  0.8206 -0.4717 -0.6335
 1346SOL    HW215672   0.377   2.000  17.310 -0.9282  0.1891 -0.3492
 1347SOL     OW15673   3.282   2.989  13.697  0.1426  0.4266 -0.2237
 1347SOL    HW115674   3.348   2.943  13.645  0.8072 -1.0618  1.9369
 1347SOL    HW215675   3.324   2.999  13.783  1.0540 -0.9684 -0.5099
 1348SOL     OW15676   2.603   3.463   9.030  0.0282  0.4360  0.4596
 1348SOL    HW115677   2.646   3.469   9.115 -0.8359 -0.1005  0.9357
 1348SOL    HW215678   2.622   3.375   8.997 -0.1186  0.7459 -0.4629
 1349SOL     OW15679   4.167   2.788   8.469  0.3817 -0.2853  0.0315
 1349SOL    HW115680   4.229   2.778   8.541 -1.0108  1.1283  1.4187
 1349SOL    HW215681   4.149   2.880   8.451  0.9692 -0.2908 -0.5752
 1350SOL     OW15682   1.063   4.601   7.046  0.9649 -0.3757 -0.9993
 1350SOL    HW115683   1.107   4.551   6.977  0.4020  1.4919 -2.7158
 1350SOL    HW215684   1.025   4.536   7.104 -1.9204  1.5068 -0.7390
 1351SOL     OW15685   0.043   4.390   3.453 -0.3074  0.3228  0.0190
 1351SOL    HW115686   0.084   4.362   3.371 -2.0412  0.8478 -1.0478
 1351SOL    HW215687   0.041   4.485   3.442  2.1797  0.2554 -0.9539
 1352SOL     OW15688   0.039   1.209   0.337  0.1777  0.1331  0.8550
 1352SOL    HW115689   0.030   1.114   0.331 -0.7856  0.3285 -1.0140
 1352SOL    HW215690   4.686   1.232   0.359 -0.3195 -0.4286 -0.5899
 1353SOL     OW15691   4.195   4.032  15.900 -0.0606  0.3621 -0.1381
 1353SOL    HW115692   4.281   4.004  15.870  0.1518  0.7629  0.1002
 1353SOL    HW215693   4.155   4.057  15.817  0.0133 -1.8750 -0.8626
 1354SOL     OW15694   3.819   0.048   2.678  0.0395 -0.2500  0.7099
 1354SOL    HW115695   3.879   0.121   2.696  0.5384 -0.7206  0.9427
 1354SOL    HW215696   3.744   0.081   2.727 -1.2311 -0.9109 -0.8050
 1355SOL     OW15697   2.842   1.985   5.027 -0.3311 -0.4489  0.5151
 1355SOL    HW115698   2.782   2.049   5.065  0.8051 -0.1990  1.9053
 1355SOL    HW215699   2.899   1.955   5.098 -0.5652  2.5609  1.9604
 1356SOL     OW15700   2.845   4.443   1.912  0.1881 -0.2405  0.0928
 1356SOL    HW115701   2.823   4.377   1.846 -0.2683 -1.8366  1.8645
 1356SOL    HW215702   2.816   4.407   1.996 -3.0129 -0.7277 -1.2103
 1357SOL     OW15703   2.174   0.904  17.304  0.1591  0.3560 -0.2922
 1357SOL    HW115704   2.159   0.895  17.398 -0.8580  0.5005 -0.4454
 1357SOL    HW215705   2.226   0.826  17.285 -1.6157 -0.8326 -0.2985
 1358SOL     OW15706   1.441   0.636  12.650  0.4943 -0.2363  0.2924
 1358SOL    HW115707   1.347   0.629  12.632  0.6997  1.9153 -1.6823
 1358SOL    HW215708   1.492   0.584  12.588 -0.3001 -1.8380  0.9827
 1359SOL     OW15709   4.313   4.478   5.976  0.4652 -0.5292  0.1790
 1359SOL    HW115710   4.372   4.469   6.051  0.3458 -0.0163  0.3344
 1359SOL    HW215711   4.246   4.532   6.017 -1.6111 -2.8643 -0.1690
 1360SOL     OW15712   1.704   3.568  16.203 -0.4322  0.1122  0.1600
 1360SOL    HW115713   1.797   3.553  16.219 -0.4196  0.2538  0.2206
 1360SOL    HW215714   1.692   3.528  16.117  0.7040 -0.4204  0.2486
 1361SOL     OW15715   1.475   4.669   8.865 -0.2036  0.6100  0.3277
 1361SOL    HW115716   1.388   4.661   8.905  0.2224  1.4373  1.4174
 1361SOL    HW215717   1.532   4.672   8.942 -1.2940 -1.1643  1.2208
 1362SOL     OW15718   4.326   0.639   2.680  0.3145 -0.4585 -0.2127
 1362SOL    HW115719   4.383   0.670   2.750 -0.1912  0.3485 -0.1588
 1362SOL    HW215720   4.395   0.652   2.615 -0.9188  1.2903 -1.1600
 1363SOL     OW15721   1.031   1.988   3.036 -0.2997 -0.3980 -0.1206
 1363SOL    HW115722   1.082   2.038   3.100 -0.1955  0.2657 -0.7184
 1363SOL    HW215723   1.054   1.901   3.067 -1.5673  0.1731  2.4414
 1364SOL     OW15724   0.680   2.530   6.320 -0.2081 -0.7557 -0.0557
 1364SOL    HW115725   0.712   2.577   6.244 -0.4493  0.7981  0.7923
 1364SOL    HW215726   0.694   2.588   6.395 -1.4295 -0.4715 -0.0482
 1365SOL     OW15727   4.180   3.711   3.618  0.2703  0.1939  0.1504
 1365SOL    HW115728   4.228   3.739   3.540 -0.1503  0.7932  0.1086
 1365SOL    HW215729   4.226   3.632   3.647 -0.1639  0.8119  2.5294
 1366SOL     OW15730   3.476   3.079   5.963 -0.3769  0.0773  0.0987
 1366SOL    HW115731   3.455   2.986   5.969  1.6112 -0.6914 -4.1049
 1366SOL    HW215732   3.565   3.090   5.995  0.1245 -1.3689 -0.8112
 1367SOL     OW15733   3.188   2.705   1.207  0.0485  0.4184  0.0907
 1367SOL    HW115734   3.258   2.769   1.194  0.7708 -0.6463 -1.2963
 1367SOL    HW215735   3.178   2.667   1.120 -0.6933 -1.0352  0.8199
 1368SOL     OW15736   2.248   2.905   6.035 -0.3500 -0.0430 -0.1286
 1368SOL    HW115737   2.294   2.911   6.119 -1.8198 -0.4898  0.7108
 1368SOL    HW215738   2.166   2.949   6.057  1.3087  1.8745  2.2888
 1369SOL     OW15739   0.929   3.790   4.709  0.0783  0.1176 -0.1409
 1369SOL    HW115740   0.929   3.819   4.800  0.2517  1.1848 -0.4800
 1369SOL    HW215741   0.924   3.694   4.715  1.5026 -0.0364 -1.4204
 1370SOL     OW15742   0.270   3.556   1.774 -0.1210  0.0888  0.0785
 1370SOL    HW115743   0.318   3.501   1.712 -0.1235 -1.4394  1.4365
 1370SOL    HW215744   0.193   3.499   1.770 -0.1440  0.1971 -0.9579
 1371SOL     OW15745   0.417   3.552   2.007  0.5255  0.9091 -0.2588
 1371SOL    HW115746   0.418   3.458   1.993 -0.8301  0.9352 -0.5379
 1371SOL    HW215747   0.365   3.572   1.929  0.3144  1.8037  0.1003
 1372SOL     OW15748   3.010   0.385   6.971 -0.0357 -0.3347 -0.0870
 1372SOL    HW115749   2.927   0.429   6.951 -0.6759 -1.4810  0.0113
 1372SOL    HW215750   2.987   0.318   7.035 -1.4819 -0.2285 -0.4990
 1373SOL     OW15751   2.793   0.011   6.515  0.1159 -0.6277  0.0330
 1373SOL    HW115752   2.762   4.723   6.428 -1.8513  0.0492  0.5306
 1373SOL    HW215753   2.753   4.687   6.576  0.3145  0.3877  1.2089
 1374SOL     OW15754   3.084   3.747  15.122 -0.2168 -0.3262  0.9392
 1374SOL    HW115755   3.067   3.690  15.047  0.6993 -0.0025  0.4779
 1374SOL    HW215756   3.000   3.791  15.133 -1.6269 -1.9191 -3.4151
 1375SOL     OW15757   0.483   3.687   8.257  0.5172  0.2764 -0.1043
 1375SOL    HW115758   0.405   3.715   8.305  0.6145 -0.1378  0.2869
 1375SOL    HW215759   0.454   3.690   8.166 -0.6043 -0.3046  0.2365
 1376SOL     OW15760   2.653   2.439   3.801 -0.3109 -0.8181 -0.7385
 1376SOL    HW115761   2.701   2.492   3.864 -0.0019  0.5466 -2.1235
 1376SOL    HW215762   2.699   2.463   3.720  1.3070 -1.5728 -0.0260
 1377SOL     OW15763   0.541   1.558   0.623 -0.5005 -0.1490 -0.0468
 1377SOL    HW115764   0.573   1.569   0.533 -2.2043 -2.2251 -0.9040
 1377SOL    HW215765   0.454   1.597   0.624 -0.0745  0.8786 -1.6886
 1378SOL     OW15766   0.402   0.990   1.728  0.0877 -0.5905  0.0592
 1378SOL    HW115767   0.389   1.040   1.648  1.0988 -1.1397 -0.4366
 1378SOL    HW215768   0.340   0.918   1.719  1.3270 -1.8328  1.3961
 1379SOL     OW15769   4.120   2.789   4.192 -0.1335  0.2925 -0.8194
 1379SOL    HW115770   4.098   2.717   4.252  1.2978  0.2436 -0.3427
 1379SOL    HW215771   4.054   2.781   4.123 -1.4018 -1.2924  0.5698
 1380SOL     OW15772   3.676   1.427   7.925 -0.4138 -0.0505 -0.2024
 1380SOL    HW115773   3.646   1.480   7.852 -1.0210 -1.5785 -1.0731
 1380SOL    HW215774   3.745   1.369   7.892  1.2281  2.0362 -0.4502
 1381SOL     OW15775   0.478   1.384   7.720  0.0212 -0.3174 -0.3219
 1381SOL    HW115776   0.497   1.343   7.805 -1.9632 -0.7837 -0.1094
 1381SOL    HW215777   0.564   1.417   7.695 -0.3920  0.5530 -0.5784
 1382SOL     OW15778   4.268   0.011   6.694  0.1815 -0.2997  0.4353
 1382SOL    HW115779   4.343   0.042   6.745  1.5519 -1.0816 -1.0930
 1382SOL    HW215780   4.289   0.045   6.607 -0.1976  0.8204  0.7925
 1383SOL     OW15781   3.389   3.474   1.449 -0.7561  0.3090  0.4561
 1383SOL    HW115782   3.469   3.422   1.454 -1.7460 -1.1633  0.9920
 1383SOL    HW215783   3.333   3.431   1.514  0.7551 -0.8978  0.9461
 1384SOL     OW15784   3.688   3.154   7.238  0.1002 -0.6989 -0.1095
 1384SOL    HW115785   3.742   3.076   7.225 -2.0185 -2.5700  2.4285
 1384SOL    HW215786   3.611   3.132   7.185  0.2229 -0.3265 -0.4403
 1385SOL     OW15787   0.094   1.973   2.926  0.6497  0.3562 -0.8952
 1385SOL    HW115788   0.008   1.972   2.968  1.4663  2.1512  0.8172
 1385SOL    HW215789   0.152   1.967   3.001 -0.6589  4.3602  0.4449
 1386SOL     OW15790   1.403   1.444   2.608  0.3197 -0.5874 -0.0260
 1386SOL    HW115791   1.359   1.515   2.655  0.1167 -0.6411 -0.1299
 1386SOL    HW215792   1.479   1.482   2.565 -0.0241 -0.2584 -0.3488
 1387SOL     OW15793   1.937   2.605   4.537 -0.5533  0.0682 -0.2206
 1387SOL    HW115794   1.910   2.580   4.625 -0.1563 -0.7525 -0.3364
 1387SOL    HW215795   1.923   2.699   4.551  0.2374  0.0443  0.7462
 1388SOL     OW15796   2.579   3.520   5.093  0.3937  0.1186  0.5399
 1388SOL    HW115797   2.658   3.568   5.118 -0.5677  3.6351 -3.0754
 1388SOL    HW215798   2.566   3.491   5.184 -1.3245 -1.1601 -0.1116
 1389SOL     OW15799   3.745   1.246   6.222  0.3384 -0.2296  0.3849
 1389SOL    HW115800   3.828   1.249   6.175 -0.3863 -0.7953 -0.9197
 1389SOL    HW215801   3.767   1.205   6.306 -0.0903 -1.4697 -0.1064
 1390SOL     OW15802   2.551   1.858  10.419  0.5743  0.7329 -0.0896
 1390SOL    HW115803   2.533   1.876  10.327 -3.4403 -1.4827  0.2641
 1390SOL    HW215804   2.632   1.807  10.416  2.3233  3.4754  0.5091
 1391SOL     OW15805   0.780   2.730  13.068  0.5132  0.1759 -0.2712
 1391SOL    HW115806   0.702   2.784  13.053  0.4251 -0.4059 -1.9466
 1391SOL    HW215807   0.770   2.669  12.994 -0.0856 -1.7021  1.3493
 1392SOL     OW15808   3.499   2.277   7.471 -0.3509  0.1931  0.1528
 1392SOL    HW115809   3.483   2.241   7.558  1.1569  0.7202  0.6384
 1392SOL    HW215810   3.594   2.277   7.462 -0.1565  2.0651  2.0699
 1393SOL     OW15811   3.165   2.092  12.064 -0.1983  0.7822  0.0504
 1393SOL    HW115812   3.171   2.002  12.030  0.7821  0.3725  1.2756
 1393SOL    HW215813   3.190   2.083  12.156  0.4873 -1.0246 -0.2891
 1394SOL     OW15814   3.099   4.518   0.356 -0.0474  0.1469  0.9588
 1394SOL    HW115815   3.111   4.436   0.308  2.4498 -0.1369  2.0079
 1394SOL    HW215816   3.047   4.564   0.291 -0.3038 -2.8275 -0.9511
 1395SOL     OW15817   1.045   1.967   7.117 -0.4384  0.3461 -0.4955
 1395SOL    HW115818   1.085   2.050   7.089 -0.6274 -0.0726 -1.9945
 1395SOL    HW215819   1.114   1.905   7.094 -1.2800 -0.7937  0.0800
 1396SOL     OW15820   0.716   2.112   2.358 -0.7961 -0.2407 -0.1750
 1396SOL    HW115821   0.793   2.144   2.405  1.3884 -2.3289 -2.2948
 1396SOL    HW215822   0.723   2.164   2.278  0.3334  2.0493  1.4193
 1397SOL     OW15823   1.448   2.835   8.301 -0.0650  0.7040  0.0072
 1397SOL    HW115824   1.502   2.838   8.222  0.8360  1.5850  0.6659
 1397SOL    HW215825   1.484   2.913   8.343 -0.5956  0.4404  0.9570
 1398SOL     OW15826   0.917   1.023   2.321  0.5954 -0.2344  0.1092
 1398SOL    HW115827   0.978   0.985   2.258  0.1177  1.3741 -1.3250
 1398SOL    HW215828   0.844   1.053   2.267  0.6331 -3.2619 -1.6233
 1399SOL     OW15829   2.240   2.035   7.129  0.9666 -0.1359  0.2801
 1399SOL    HW115830   2.283   1.974   7.189  2.1538 -1.5786 -1.9898
 1399SOL    HW215831   2.235   1.972   7.056 -0.4615 -0.0448  0.3134
 1400SOL     OW15832   0.175   0.374  13.254  0.0886 -0.1575  0.6352
 1400SOL    HW115833   0.193   0.413  13.169  0.5076  0.6702  1.0999
 1400SOL    HW215834   0.263   0.377  13.292 -0.1500  0.7266  1.1130
 1401SOL     OW15835   0.534   2.633   4.710 -0.1123  0.0893 -0.2432
 1401SOL    HW115836   0.623   2.600   4.722 -0.1622  0.0617  0.0384
 1401SOL    HW215837   0.487   2.551   4.700  2.2356 -0.9344 -2.9584
 1402SOL     OW15838   0.650   4.565   2.893 -0.0817  0.2743 -0.2769
 1402SOL    HW115839   0.743   4.580   2.906  0.6280 -2.0379 -2.6225
 1402SOL    HW215840   0.609   4.645   2.926 -0.9624  0.5311 -1.9570
 1403SOL     OW15841   3.362   1.851   1.557 -0.3205 -0.5050 -0.4355
 1403SOL    HW115842   3.396   1.867   1.469  0.9316 -3.9402 -0.5468
 1403SOL    HW215843   3.437   1.870   1.614 -1.1787 -2.6116  1.3957
 1404SOL     OW15844   3.003   3.948   5.302 -0.4183  0.2651  0.1570
 1404SOL    HW115845   2.974   3.921   5.389  0.3433  1.4570  0.7912
 1404SOL    HW215846   3.076   4.006   5.324 -0.1369 -0.1519  0.3025
 1405SOL     OW15847   4.451   3.480   4.350 -0.3059  0.5171  0.7667
 1405SOL    HW115848   4.358   3.497   4.363  0.2630  4.5542 -0.6453
 1405SOL    HW215849   4.470   3.438   4.434 -0.0430 -0.5149  0.1913
 1406SOL     OW15850   0.910   4.319   6.507 -0.0238 -0.4102  0.7062
 1406SOL    HW115851   0.971   4.246   6.517 -0.5759 -1.0604 -0.6862
 1406SOL    HW215852   0.880   4.292   6.420  2.3248 -0.4720 -0.0815
 1407SOL     OW15853   4.046   4.251   9.082 -0.3824  0.4651 -0.3135
 1407SOL    HW115854   4.054   4.157   9.068  1.8817  0.2416  2.5128
 1407SOL    HW215855   4.131   4.279   9.048  1.2348 -2.0970  1.6422
 1408SOL     OW15856   4.213   3.126  16.136  0.0183  0.1015  0.3930
 1408SOL    HW115857   4.285   3.088  16.186 -0.5780  0.7362  1.7195
 1408SOL    HW215858   4.137   3.124  16.194 -1.6735  2.6775 -1.7325
 1409SOL     OW15859   1.916   1.165   8.317  0.4243  0.1804  0.5631
 1409SOL    HW115860   1.945   1.077   8.341  1.3285  0.3919  0.2510
 1409SOL    HW215861   1.824   1.145   8.300  0.0262  1.0651  1.7201
 1410SOL     OW15862   4.268   0.235   9.265  0.1816  0.2411 -0.1363
 1410SOL    HW115863   4.350   0.280   9.242  0.7369 -0.8761 -0.3600
 1410SOL    HW215864   4.241   0.272   9.349 -2.6866 -0.7463 -0.6402
 1411SOL     OW15865   0.713   3.578   4.129 -0.7189  0.0968 -0.2023
 1411SOL    HW115866   0.789   3.575   4.188 -0.5204  1.5955 -0.3578
 1411SOL    HW215867   0.649   3.635   4.171 -1.0859 -0.2948 -0.2421
 1412SOL     OW15868   0.076   3.493   0.421 -0.2785 -0.1830  0.4632
 1412SOL    HW115869   0.149   3.459   0.369 -0.8882 -0.4408 -0.2322
 1412SOL    HW215870   0.060   3.574   0.373  0.2615 -0.7905 -0.7289
 1413SOL     OW15871   0.734   1.132   4.857  0.5980  0.4634  0.3653
 1413SOL    HW115872   0.720   1.055   4.911 -0.3301  0.7681  0.5624
 1413SOL    HW215873   0.670   1.190   4.897 -0.2661  0.9621 -1.7114
 1414SOL     OW15874   3.265   3.315  13.051  0.6168  0.6924  0.4416
 1414SOL    HW115875   3.246   3.408  13.059  0.7343  0.5764  2.0064
 1414SOL    HW215876   3.313   3.309  13.133  0.6424  1.2174  0.4651
 1415SOL     OW15877   4.044   4.082   7.433  1.1075  0.6396 -0.5856
 1415SOL    HW115878   4.064   4.009   7.492  1.9745  0.2961 -1.2851
 1415SOL    HW215879   3.974   4.125   7.481  1.5636 -0.7359  1.3333
 1416SOL     OW15880   1.620   2.354   1.984 -0.0618  0.3446 -1.2002
 1416SOL    HW115881   1.539   2.340   2.033  1.2203 -0.0102  0.8052
 1416SOL    HW215882   1.639   2.269   1.946  0.2967  0.1702 -0.6258
 1417SOL     OW15883   4.260   2.924   8.943  0.3643  0.1990 -0.0225
 1417SOL    HW115884   4.291   2.836   8.924  2.2832  0.4559  1.9544
 1417SOL    HW215885   4.344   2.966   8.926  0.6018 -0.5104 -0.5978
 1418SOL     OW15886   2.904   4.079   3.778  0.0649 -0.3416  0.3598
 1418SOL    HW115887   2.931   4.147   3.840 -1.0639  0.8253 -0.4149
 1418SOL    HW215888   2.882   4.130   3.700  4.0382 -1.6052 -1.5648
 1419SOL     OW15889   0.100   4.558  17.198  0.1305  0.2725 -0.2104
 1419SOL    HW115890   0.017   4.562  17.247 -0.3410  0.1674 -0.9981
 1419SOL    HW215891   0.106   4.465  17.174  0.5518  0.6971 -1.7143
 1420SOL     OW15892   0.242   4.050   2.829  0.8029 -0.2248 -0.2740
 1420SOL    HW115893   0.249   4.065   2.923 -0.7971 -3.3896  0.3626
 1420SOL    HW215894   0.302   3.976   2.821  2.0984  0.5811  2.0739
 1421SOL     OW15895   3.020   1.817   8.378 -0.0366  0.0640 -0.3863
 1421SOL    HW115896   3.037   1.758   8.452 -0.6526 -1.3645 -1.3806
 1421SOL    HW215897   2.930   1.846   8.390 -0.1544 -1.8577  3.2422
 1422SOL     OW15898   4.578   3.787   7.205 -0.6032  0.3712  0.3522
 1422SOL    HW115899   4.558   3.776   7.298  2.1765  3.4924  1.2997
 1422SOL    HW215900   4.669   3.761   7.197 -0.3973  1.3992 -0.7029
 1423SOL     OW15901   2.262   4.240   5.300  0.5022 -0.1637 -0.2651
 1423SOL    HW115902   2.287   4.317   5.248 -0.5918  0.7232  0.5230
 1423SOL    HW215903   2.211   4.192   5.236  1.6393 -0.0858 -1.2224
 1424SOL     OW15904   2.645   2.078   8.964 -0.4001  0.3955 -0.1402
 1424SOL    HW115905   2.602   2.030   9.035  0.5673  0.5970  0.5796
 1424SOL    HW215906   2.680   2.155   9.009  2.0682 -1.1064  0.4898
 1425SOL     OW15907   2.356   0.540  13.907 -0.3567  0.0071 -0.3954
 1425SOL    HW115908   2.450   0.538  13.920 -1.0111 -1.8881  3.9957
 1425SOL    HW215909   2.336   0.627  13.941 -0.0251 -0.2948  0.5599
 1426SOL     OW15910   3.585   3.944  13.615  0.2232 -0.7737 -0.4565
 1426SOL    HW115911   3.556   3.953  13.706  1.9693  2.3449 -0.1920
 1426SOL    HW215912   3.660   3.885  13.619  1.3945  0.5945 -2.1468
 1427SOL     OW15913   3.896   4.628  12.232 -0.1373 -0.0705 -0.6295
 1427SOL    HW115914   3.871   4.577  12.308 -0.7499 -0.7124 -1.2679
 1427SOL    HW215915   3.960   4.688  12.271  0.0399 -0.4896 -0.2812
 1428SOL     OW15916   1.610   4.070   4.502 -0.5033  0.4374  0.4932
 1428SOL    HW115917   1.550   4.040   4.434  0.6761 -1.1796  0.1729
 1428SOL    HW215918   1.605   4.165   4.492 -0.2175  0.4193  0.2206
 1429SOL     OW15919   3.030   0.728   8.855  0.5897 -0.0789 -0.0442
 1429SOL    HW115920   3.026   0.647   8.805  0.3149 -1.6133  2.4808
 1429SOL    HW215921   2.984   0.790   8.798  1.7974  0.6757 -0.1896
 1430SOL     OW15922   1.454   3.032   5.188  0.5901 -0.0306 -0.0860
 1430SOL    HW115923   1.422   2.978   5.116  0.4755 -0.4642  0.2927
 1430SOL    HW215924   1.548   3.011   5.191  0.3552 -1.3119 -1.6100
 1431SOL     OW15925   4.011   3.613   7.576  0.6134 -0.3850  0.1076
 1431SOL    HW115926   3.926   3.574   7.552 -0.2159  0.5869  1.4618
 1431SOL    HW215927   4.066   3.540   7.548  0.2016  0.2452 -2.3752
 1432SOL     OW15928   2.003   0.174   8.678 -0.5064  0.4961 -0.2629
 1432SOL    HW115929   1.912   0.200   8.692 -0.8283 -0.0299 -1.3306
 1432SOL    HW215930   2.011   0.167   8.583 -0.3574 -4.9364  0.1089
 1433SOL     OW15931   0.216   1.416   6.181 -0.4550  0.4016 -0.3456
 1433SOL    HW115932   0.258   1.464   6.253 -1.7696 -0.6403  1.1250
 1433SOL    HW215933   0.292   1.382   6.135 -1.2789 -0.5003 -1.0607
 1434SOL     OW15934   1.802   4.341   7.302 -0.1898  0.1574 -0.4724
 1434SOL    HW115935   1.815   4.267   7.242  0.1096 -2.3147  2.5917
 1434SOL    HW215936   1.741   4.306   7.367 -1.1116 -0.7410 -1.8312
 1435SOL     OW15937   0.407   1.915   1.149  0.1942 -0.3547 -0.1849
 1435SOL    HW115938   0.441   1.915   1.059  2.0760 -1.9365  0.5387
 1435SOL    HW215939   0.343   1.986   1.142 -2.0130 -2.3269  0.1570
 1436SOL     OW15940   2.797   0.992   1.811 -0.3000  0.1534 -0.2627
 1436SOL    HW115941   2.798   0.921   1.876  1.4564 -0.6040 -1.1292
 1436SOL    HW215942   2.890   0.999   1.791 -0.1226 -0.0650  0.4949
 1437SOL     OW15943   2.818   4.297   6.849  0.2689 -0.4304 -0.0381
 1437SOL    HW115944   2.814   4.351   6.928  0.0959  1.5753 -1.4113
 1437SOL    HW215945   2.900   4.321   6.806  0.9237 -1.4988  0.6155
 1438SOL     OW15946   3.958   0.025   5.089  0.0873 -0.3918  0.3166
 1438SOL    HW115947   3.953   0.108   5.136  0.6950 -1.0596  1.5713
 1438SOL    HW215948   3.994   0.056   5.006 -0.3054  0.9567  0.6456
 1439SOL     OW15949   2.607   2.328   8.810 -0.3823 -0.4811 -0.3757
 1439SOL    HW115950   2.537   2.365   8.756  0.2530  0.4493 -0.5462
 1439SOL    HW215951   2.554   2.286   8.877 -0.1358  0.6600  0.5267
 1440SOL     OW15952   1.577   2.052  14.557  0.2883  0.5286 -0.1457
 1440SOL    HW115953   1.504   2.109  14.578  0.1522  1.6981 -3.7163
 1440SOL    HW215954   1.617   2.022  14.639  2.2203  0.8417 -0.9798
 1441SOL     OW15955   0.646   0.912  16.367  0.2473  0.3960  0.1578
 1441SOL    HW115956   0.637   0.899  16.461 -0.4779  2.3200  0.3598
 1441SOL    HW215957   0.584   0.982  16.349 -0.2736 -0.2730 -0.6674
 1442SOL     OW15958   1.029   1.367   4.186 -0.1447 -0.3065 -0.3789
 1442SOL    HW115959   1.082   1.422   4.244  0.9835  0.3068 -1.9998
 1442SOL    HW215960   0.950   1.355   4.239 -1.6486 -1.9722 -3.0341
 1443SOL     OW15961   0.779   2.811  10.946  0.1754 -0.2615  0.0420
 1443SOL    HW115962   0.792   2.822  11.040  0.5499  0.9147 -0.1451
 1443SOL    HW215963   0.872   2.805  10.923  0.2361 -0.6675  0.3996
 1444SOL     OW15964   2.626   0.051   5.340  0.7186 -0.0787  0.6975
 1444SOL    HW115965   2.604   4.705   5.382 -2.4826 -0.1876 -1.2196
 1444SOL    HW215966   2.639   0.022   5.250  1.9789 -0.4764  1.0162
 1445SOL     OW15967   2.258   3.542   8.065  0.2840 -0.1480  0.6795
 1445SOL    HW115968   2.288   3.483   8.134  2.6212  2.2216  1.7193
 1445SOL    HW215969   2.307   3.624   8.073 -1.4054  0.8038  1.4860
 1446SOL     OW15970   4.071   0.544  11.870  0.3895  0.0354 -0.2226
 1446SOL    HW115971   4.082   0.557  11.775  3.2832  3.2545  0.5672
 1446SOL    HW215972   3.982   0.576  11.884  1.8755  3.6552  0.8194
 1447SOL     OW15973   1.070   3.934   0.298  0.1050  0.3556 -0.0062
 1447SOL    HW115974   0.989   3.970   0.336 -0.6815 -1.9482  0.5202
 1447SOL    HW215975   1.137   3.998   0.322  0.8250  0.0244 -1.1385
 1448SOL     OW15976   2.514   0.303   9.074  0.3664  0.5751 -0.5493
 1448SOL    HW115977   2.448   0.329   9.010  0.4820 -1.1098 -1.3590
 1448SOL    HW215978   2.508   0.208   9.068  3.6989  0.2229  1.9163
 1449SOL     OW15979   4.020   2.302   1.564  0.4109 -0.1465  0.1854
 1449SOL    HW115980   4.002   2.232   1.626  1.1887 -1.1105 -0.6798
 1449SOL    HW215981   4.107   2.276   1.535  0.9398  0.1582  1.4581
 1450SOL     OW15982   3.119   4.222   5.433 -0.0712 -0.6552 -0.0753
 1450SOL    HW115983   3.041   4.273   5.453  0.1922  0.4542 -1.8281
 1450SOL    HW215984   3.114   4.145   5.489  1.0602  1.9698  3.6400
 1451SOL     OW15985   4.468   2.351   8.679 -0.3320  0.0204  0.5267
 1451SOL    HW115986   4.557   2.378   8.704  0.0161 -0.0787 -0.6041
 1451SOL    HW215987   4.432   2.318   8.761  1.4659 -0.1118  1.2610
 1452SOL     OW15988   0.019   3.832   7.502 -0.6217 -0.0899  0.5392
 1452SOL    HW115989   0.091   3.810   7.560 -0.1866 -1.0029 -0.3476
 1452SOL    HW215990   4.693   3.772   7.542 -0.1493  0.2109  1.7429
 1453SOL     OW15991   0.214   1.124  16.318  0.0811 -0.5673 -0.2152
 1453SOL    HW115992   0.175   1.050  16.273 -2.3081  2.7821 -3.6988
 1453SOL    HW215993   0.301   1.088  16.332  0.0681 -0.8663 -0.9249
 1454SOL     OW15994   4.272   0.933   8.382 -0.7317  0.2679 -0.1560
 1454SOL    HW115995   4.231   1.016   8.403 -2.1240  0.2308 -2.7204
 1454SOL    HW215996   4.351   0.932   8.435  1.8888 -0.5171 -4.0538
 1455SOL     OW15997   2.255   3.895   2.699 -0.2661  0.2920 -0.1753
 1455SOL    HW115998   2.268   3.843   2.619 -0.0240  0.8053 -0.4679
 1455SOL    HW215999   2.163   3.878   2.719 -0.7929  0.2533 -2.5759
 1456SOL     OW16000   1.195   4.013   4.225 -0.3322  0.2598 -0.8601
 1456SOL    HW116001   1.110   3.970   4.229  0.6747 -1.6302  0.3370
 1456SOL    HW216002   1.180   4.102   4.258 -3.2392 -0.7715  0.5715
 1457SOL     OW16003   2.522   1.894   7.743  0.1006  0.1977  0.1189
 1457SOL    HW116004   2.465   1.972   7.743  1.4196  1.1577 -1.6073
 1457SOL    HW216005   2.603   1.933   7.775  0.2849  1.5141 -1.9612
 1458SOL     OW16006   1.367   0.500  13.761  0.0816 -0.0689 -0.0984
 1458SOL    HW116007   1.380   0.584  13.716  0.5664 -0.5116 -0.7806
 1458SOL    HW216008   1.456   0.474  13.783 -0.8974 -2.8562  0.5135
 1459SOL     OW16009   3.248   4.531   6.678  0.6551  0.2402  0.3263
 1459SOL    HW116010   3.192   4.597   6.719  0.0706  0.0928 -0.2360
 1459SOL    HW216011   3.339   4.561   6.677  0.1283  1.8114  0.1848
 1460SOL     OW16012   1.679   0.407   5.361  0.5555 -0.5839 -0.4135
 1460SOL    HW116013   1.736   0.435   5.290 -1.4000 -0.0567 -1.7837
 1460SOL    HW216014   1.613   0.357   5.312 -0.5288  0.2685  0.1667
 1461SOL     OW16015   2.310   2.435   2.716  0.3805  0.5627  0.4688
 1461SOL    HW116016   2.373   2.372   2.751  1.3744  0.9409 -0.6504
 1461SOL    HW216017   2.222   2.398   2.724 -0.6811  2.8573 -0.5224
 1462SOL     OW16018   0.788   4.254   3.192 -0.0694  0.2004  0.7982
 1462SOL    HW116019   0.728   4.267   3.118  1.3771  0.7376 -0.2754
 1462SOL    HW216020   0.748   4.310   3.259  5.0275  3.9281  0.7491
 1463SOL     OW16021   1.432   4.541  17.468 -0.4519 -0.5744  0.6186
 1463SOL    HW116022   1.396   4.474  17.527  2.0995  0.7078  3.6555
 1463SOL    HW216023   1.521   4.511  17.454 -1.0923 -1.7399 -0.8956
 1464SOL     OW16024   0.179   1.016   5.235  0.1522 -0.1988 -0.1175
 1464SOL    HW116025   0.123   1.056   5.302  2.3339  1.1207  0.8877
 1464SOL    HW216026   0.120   0.954   5.192 -0.3169  0.1724 -0.0216
 1465SOL     OW16027   3.840   3.018   1.462 -0.1359  0.0104  0.3195
 1465SOL    HW116028   3.749   2.996   1.483  0.3718 -1.6930  0.7030
 1465SOL    HW216029   3.879   2.948   1.513  1.0949  1.3659  1.2471
 1466SOL     OW16030   2.001   3.191   7.161  0.0741  0.2204  0.0855
 1466SOL    HW116031   2.018   3.218   7.071 -1.4440 -1.2856 -0.6610
 1466SOL    HW216032   1.928   3.249   7.184  0.0448 -0.3630  1.4398
 1467SOL     OW16033   0.727   1.584  13.412 -0.2858  0.4179 -0.4194
 1467SOL    HW116034   0.782   1.520  13.367 -2.1851 -0.2457 -1.8010
 1467SOL    HW216035   0.790   1.652  13.437  1.3555 -1.2127 -0.1724
 1468SOL     OW16036   1.925   1.874   9.920 -0.0495  0.0488 -0.1216
 1468SOL    HW116037   1.921   1.868  10.015  1.7645  1.8592  0.0577
 1468SOL    HW216038   1.983   1.800   9.904 -0.5021 -0.1453 -0.8757
 1469SOL     OW16039   0.891   2.656  15.050  0.0928 -0.2667  0.3670
 1469SOL    HW116040   0.941   2.685  15.126  0.5211  0.9767 -0.3822
 1469SOL    HW216041   0.814   2.622  15.094  0.6677  0.3931  1.8714
 1470SOL     OW16042   3.018   2.558  10.907  0.1245 -0.3025 -0.0586
 1470SOL    HW116043   2.972   2.637  10.880 -1.0766 -1.3467 -1.0480
 1470SOL    HW216044   3.028   2.521  10.819  0.1106  0.1595 -0.2532
 1471SOL     OW16045   1.254   3.332  15.184  0.1242 -0.3764  0.3717
 1471SOL    HW116046   1.167   3.357  15.151  0.4361  0.6656  0.3372
 1471SOL    HW216047   1.305   3.324  15.103  3.9074  2.8206  2.4001
 1472SOL     OW16048   2.334   1.978  17.052 -0.2266 -0.3401  0.1085
 1472SOL    HW116049   2.254   2.015  17.014 -1.2762 -1.9945  0.7449
 1472SOL    HW216050   2.318   1.984  17.146 -0.9001 -3.3082  0.1550
 1473SOL     OW16051   2.039   2.141  14.285  0.6540  0.0237  0.4270
 1473SOL    HW116052   2.028   2.074  14.353 -2.3823  0.7870  0.6779
 1473SOL    HW216053   2.091   2.096  14.218 -2.2587 -0.6960 -1.3607
 1474SOL     OW16054   1.073   2.653  13.115  0.0456 -0.3919 -0.2605
 1474SOL    HW116055   1.149   2.709  13.096  0.3149 -0.9623 -0.8276
 1474SOL    HW216056   1.004   2.708  13.077  0.3781 -0.4776 -0.9891
 1475SOL     OW16057   0.989   0.092   4.857 -0.1958 -0.0529  0.5635
 1475SOL    HW116058   1.050   0.119   4.789 -1.1690  0.7859  0.0168
 1475SOL    HW216059   1.057   0.070   4.920  0.6639  0.2875 -0.2529
 1476SOL     OW16060   1.585   2.885   1.322 -0.5544 -0.2322  0.1103
 1476SOL    HW116061   1.502   2.855   1.284 -1.5497  2.6840  0.0399
 1476SOL    HW216062   1.561   2.929   1.403  1.3229  2.8290 -1.0131
 1477SOL     OW16063   4.058   2.027  15.590  0.2057  0.2650 -0.8563
 1477SOL    HW116064   4.020   1.996  15.673  0.8264  1.9966  0.0663
 1477SOL    HW216065   4.095   1.950  15.547 -2.9142  0.0650 -3.2183
 1478SOL     OW16066   3.621   2.118   2.002  0.8168  0.6103 -0.7128
 1478SOL    HW116067   3.630   2.096   1.909 -1.0068  0.8175 -0.9387
 1478SOL    HW216068   3.629   2.214   2.003  0.7753  0.6034  0.2697
 1479SOL     OW16069   2.805   0.140  16.537 -0.7692  0.3142  0.1796
 1479SOL    HW116070   2.818   0.235  16.540 -2.1377  0.4744  1.0874
 1479SOL    HW216071   2.778   0.134  16.446  2.2390 -1.4897 -0.5841
 1480SOL     OW16072   0.360   4.464   4.350  0.6795  0.4557  0.0756
 1480SOL    HW116073   0.334   4.555   4.369 -1.4679 -0.0504 -0.4289
 1480SOL    HW216074   0.374   4.477   4.256  0.1898 -1.2726 -0.2382
 1481SOL     OW16075   1.076   3.033   2.185  0.4171 -0.4877 -0.4699
 1481SOL    HW116076   0.999   3.000   2.139  0.8064 -0.5424 -1.0720
 1481SOL    HW216077   1.110   3.083   2.111 -0.7820 -0.9468 -1.3321
 1482SOL     OW16078   2.464   4.092  10.109  0.4860 -0.1857  0.5455
 1482SOL    HW116079   2.460   4.160  10.175 -0.9442  0.9210 -0.7021
 1482SOL    HW216080   2.443   4.150  10.036 -0.7917  0.5062  1.4810
 1483SOL     OW16081   3.431   1.751  14.949  0.1664 -0.3943 -0.5355
 1483SOL    HW116082   3.367   1.772  14.881  0.4289  0.6597 -0.4586
 1483SOL    HW216083   3.504   1.726  14.893  1.9291  2.7175  0.3673
 1484SOL     OW16084   2.759   0.752   9.934 -0.0751 -0.5171 -0.2956
 1484SOL    HW116085   2.739   0.842   9.907  1.5707  0.9905  3.4486
 1484SOL    HW216086   2.724   0.743  10.023  3.3114 -1.6484  0.9449
 1485SOL     OW16087   4.539   1.126   8.386  0.3060 -1.2990 -0.0758
 1485SOL    HW116088   4.505   1.156   8.470 -0.3378  0.3041 -0.9004
 1485SOL    HW216089   4.614   1.076   8.418 -0.4744 -2.7012 -0.4270
 1486SOL     OW16090   4.209   1.655   1.336 -1.1168  0.3895  0.5384
 1486SOL    HW116091   4.122   1.690   1.358 -1.0511  1.0292 -0.2029
 1486SOL    HW216092   4.254   1.688   1.414 -0.6717  0.2221  0.3504
 1487SOL     OW16093   2.841   3.157   3.227 -0.2809 -0.1916  0.0236
 1487SOL    HW116094   2.870   3.247   3.242  1.1503 -0.5348 -0.6850
 1487SOL    HW216095   2.754   3.156   3.268 -0.7097 -0.3222 -0.8784
 1488SOL     OW16096   0.660   3.957  13.013 -0.1860  0.7088 -0.3596
 1488SOL    HW116097   0.755   3.965  13.013  0.0116 -1.5689  2.1826
 1488SOL    HW216098   0.638   4.007  13.092  1.1922  0.0803  0.4255
 1489SOL     OW16099   4.061   0.638   6.341  0.1403  0.1194  0.4986
 1489SOL    HW116100   4.138   0.654   6.396  1.3984 -0.0133 -1.2088
 1489SOL    HW216101   3.991   0.657   6.403 -0.5813  0.0895 -0.3249
 1490SOL     OW16102   1.158   0.974  14.906  0.4552 -0.5865  0.5095
 1490SOL    HW116103   1.107   0.978  14.825 -0.5479 -0.5637  1.1410
 1490SOL    HW216104   1.156   1.066  14.933 -2.5635 -0.5875  0.3236
 1491SOL     OW16105   3.393   4.710   7.083  0.0985  0.4824 -0.0639
 1491SOL    HW116106   3.380   0.065   7.063  3.0640  0.8526 -0.2571
 1491SOL    HW216107   3.352   4.699   7.168  1.1192 -0.1285  0.3481
 1492SOL     OW16108   1.144   1.967   3.687  0.2344 -0.3819 -0.2001
 1492SOL    HW116109   1.086   2.016   3.746  0.0785 -1.4709  0.5544
 1492SOL    HW216110   1.196   2.037   3.648  0.1096  0.0609  0.4216
 1493SOL     OW16111   2.217   2.258   5.120  0.2622 -0.5953  0.2654
 1493SOL    HW116112   2.212   2.177   5.070  0.9749 -0.8964  0.6872
 1493SOL    HW216113   2.184   2.224   5.204 -0.1874  1.7791  1.0520
 1494SOL     OW16114   1.713   1.406  16.961 -0.3114 -0.1791 -0.2557
 1494SOL    HW116115   1.764   1.348  16.905  0.7315  2.1181 -1.7035
 1494SOL    HW216116   1.647   1.350  17.001 -1.6372  1.6664  0.1378
 1495SOL     OW16117   0.018   1.420  17.393 -0.1104  0.1325  0.2026
 1495SOL    HW116118   0.031   1.358  17.464  0.4556 -0.1463 -0.1433
 1495SOL    HW216119   0.067   1.376  17.323 -0.0741  0.6229 -0.0834
 1496SOL     OW16120   1.506   3.726  17.106 -0.2688  0.0651  0.3454
 1496SOL    HW116121   1.502   3.631  17.121 -0.9329  0.2436  1.2457
 1496SOL    HW216122   1.452   3.725  17.026  1.5651  0.6077 -0.8917
 1497SOL     OW16123   1.836   1.569   7.199 -0.7489  0.2010  0.1351
 1497SOL    HW116124   1.770   1.601   7.260 -0.4877 -0.2201  0.6380
 1497SOL    HW216125   1.828   1.474   7.190  0.5623  0.0073  0.9297
 1498SOL     OW16126   0.990   4.246   7.791 -0.2229 -0.3454 -0.7093
 1498SOL    HW116127   0.956   4.310   7.854  1.1173 -1.2810  0.9933
 1498SOL    HW216128   0.934   4.169   7.801 -0.7335  0.3122  1.6658
 1499SOL     OW16129   4.311   3.753  13.510  0.6408 -0.1128  0.2467
 1499SOL    HW116130   4.384   3.810  13.483  0.8113 -0.6033 -0.3260
 1499SOL    HW216131   4.262   3.824  13.553  1.5399  0.1170  0.9065
 1500SOL     OW16132   0.383   3.733   8.712 -0.0165  0.4698  0.1503
 1500SOL    HW116133   0.450   3.776   8.765 -2.0982  0.0051  3.1104
 1500SOL    HW216134   0.315   3.709   8.775 -2.3591  0.2355 -2.4647
 1501SOL     OW16135   2.819   1.326  13.228  0.1449 -0.7741 -0.1698
 1501SOL    HW116136   2.744   1.384  13.213 -0.9959 -2.1652  0.1992
 1501SOL    HW216137   2.883   1.378  13.180 -2.5039  1.5374 -1.2448
 1502SOL     OW16138   1.793   1.042   6.821 -0.1968 -0.3229 -0.3952
 1502SOL    HW116139   1.775   0.978   6.752  1.7620 -0.1974 -1.0226
 1502SOL    HW216140   1.731   1.113   6.804 -0.1099 -0.2507 -0.4063
 1503SOL     OW16141   4.395   2.464  11.888  0.2796  0.3578  0.5808
 1503SOL    HW116142   4.461   2.429  11.947 -1.2011  0.3700  2.2307
 1503SOL    HW216143   4.323   2.402  11.885 -0.6212  1.4193 -0.0257
 1504SOL     OW16144   0.700   4.283   2.006 -0.2920  0.1418 -0.2316
 1504SOL    HW116145   0.609   4.307   1.988 -1.2428 -2.5383  0.8961
 1504SOL    HW216146   0.754   4.359   1.987  1.2683 -0.8989  0.0368
 1505SOL     OW16147   3.321   0.289   3.256 -0.3529  0.2934  0.7854
 1505SOL    HW116148   3.390   0.355   3.245  0.4480 -0.6219  0.3950
 1505SOL    HW216149   3.312   0.274   3.350  1.6799 -0.0019  0.9278
 1506SOL     OW16150   0.619   4.445   6.769 -0.3257  0.1150 -0.0700
 1506SOL    HW116151   0.540   4.491   6.796 -0.5768 -0.1222 -0.4016
 1506SOL    HW216152   0.650   4.427   6.858  0.1179 -2.4724 -0.7693
 1507SOL     OW16153   0.944   4.697   7.440 -0.4314 -0.2660  0.2410
 1507SOL    HW116154   0.997   4.618   7.450 -2.4035 -1.6362 -0.1808
 1507SOL    HW216155   0.857   4.660   7.429 -0.7791  0.7278 -0.3276
 1508SOL     OW16156   4.642   0.754   6.382 -0.4802 -0.7210 -0.2065
 1508SOL    HW116157   4.595   0.834   6.362 -0.2103 -0.3191  0.7620
 1508SOL    HW216158   4.681   0.780   6.466 -1.1879 -0.3110 -0.0124
 1509SOL     OW16159   4.246   1.748   9.069  0.1654  0.8058 -0.6057
 1509SOL    HW116160   4.181   1.785   9.129  2.2820  2.4676  0.6531
 1509SOL    HW216161   4.261   1.661   9.106 -0.2747  2.4564  3.4452
 1510SOL     OW16162   1.787   1.473   8.210  0.1250 -0.0455 -0.6566
 1510SOL    HW116163   1.862   1.462   8.269 -1.0972 -2.5925  0.4105
 1510SOL    HW216164   1.836   1.475   8.128  1.6022  0.2681  0.2267
 1511SOL     OW16165   3.386   0.094  14.379  0.0501 -0.0261 -0.2405
 1511SOL    HW116166   3.380   0.174  14.431  0.8038 -0.5401  0.6209
 1511SOL    HW216167   3.325   0.034  14.422  2.1025 -0.3156  2.2591
 1512SOL     OW16168   1.827   2.177   2.298  0.3929  0.4010 -0.2778
 1512SOL    HW116169   1.780   2.095   2.285  2.7545 -1.0893  0.6807
 1512SOL    HW216170   1.768   2.202   2.370  0.3171 -2.7051  0.7342
 1513SOL     OW16171   0.845   2.661   2.399  0.5945  0.4234 -0.4369
 1513SOL    HW116172   0.904   2.594   2.364  0.1083  1.7045 -3.7082
 1513SOL    HW216173   0.833   2.629   2.488 -0.3316 -0.6130 -0.9314
 1514SOL     OW16174   3.923   2.170  14.570  0.0272 -0.1301  0.1829
 1514SOL    HW116175   3.876   2.088  14.583  0.0577  0.2098  2.4385
 1514SOL    HW216176   3.977   2.179  14.649 -1.2694 -1.3878  1.2172
 1515SOL     OW16177   0.252   0.494  12.721 -0.5930 -0.0714 -0.2388
 1515SOL    HW116178   0.301   0.446  12.654 -0.9901  0.3063 -0.7959
 1515SOL    HW216179   0.314   0.565  12.738  0.6695 -0.8639 -1.4921
 1516SOL     OW16180   1.569   1.492   8.041 -0.4362 -0.1988  0.4880
 1516SOL    HW116181   1.505   1.461   8.106 -1.6073  1.1344 -0.0345
 1516SOL    HW216182   1.648   1.505   8.094 -0.7882  1.1698  0.6740
 1517SOL     OW16183   4.077   4.097   5.334 -0.0224 -0.3180 -0.3524
 1517SOL    HW116184   4.007   4.142   5.287 -2.3907  1.0678  4.5399
 1517SOL    HW216185   4.061   4.119   5.426 -2.7079 -3.7980  0.0214
 1518SOL     OW16186   1.506   2.519   4.642 -0.3701  1.0628 -0.3069
 1518SOL    HW116187   1.568   2.591   4.629 -0.4778  1.1588 -0.2899
 1518SOL    HW216188   1.557   2.445   4.675 -1.4567  1.2622  1.7900
 1519SOL     OW16189   4.359   1.561   6.587 -0.4733 -0.1810 -0.2515
 1519SOL    HW116190   4.293   1.526   6.647 -1.2826 -1.4504 -1.8778
 1519SOL    HW216191   4.413   1.623   6.637 -1.2211  2.5609 -2.8615
 1520SOL     OW16192   1.739   4.444   7.849  0.2771  0.4197 -0.4963
 1520SOL    HW116193   1.779   4.454   7.936 -1.9586 -1.2834  0.7481
 1520SOL    HW216194   1.646   4.435   7.869  0.8266 -1.4056  1.2727
 1521SOL     OW16195   2.522   1.200   3.957 -0.6881  0.3311  1.0217
 1521SOL    HW116196   2.551   1.284   3.922  1.2694  0.3062  2.6191
 1521SOL    HW216197   2.602   1.176   4.003 -0.7607  1.5452  1.7895
 1522SOL     OW16198   2.523   4.333   3.123  0.5397  0.3239  0.2918
 1522SOL    HW116199   2.505   4.426   3.130  0.4483  0.2265  1.2652
 1522SOL    HW216200   2.441   4.289   3.143  1.6230 -1.1758  1.4241
 1523SOL     OW16201   3.111   2.416   5.251 -0.4126  0.0398  0.1164
 1523SOL    HW116202   3.074   2.438   5.336  2.4338 -0.9179  1.6134
 1523SOL    HW216203   3.145   2.334   5.288 -1.5348 -1.2646 -1.6944
 1524SOL     OW16204   2.325   1.840  15.643 -0.2622  1.0688  0.1298
 1524SOL    HW116205   2.382   1.913  15.623  3.0882 -1.1737  1.4607
 1524SOL    HW216206   2.271   1.885  15.708 -1.5210  0.5218 -0.5346
 1525SOL     OW16207   3.706   0.528   2.593  0.0161  0.6638 -0.8916
 1525SOL    HW116208   3.701   0.497   2.683 -0.7851  0.5894 -0.9643
 1525SOL    HW216209   3.624   0.498   2.554 -0.5342  1.4115 -0.3116
 1526SOL     OW16210   2.670   2.114  10.534  0.0576 -0.5987  0.7480
 1526SOL    HW116211   2.748   2.086  10.581 -0.3934 -0.8543  1.3559
 1526SOL    HW216212   2.676   2.207  10.558 -2.5802 -0.0552 -0.6385
 1527SOL     OW16213   2.059   2.234  10.772 -0.0378  0.6016  0.2094
 1527SOL    HW116214   2.138   2.289  10.776 -0.9050  1.7108  2.0370
 1527SOL    HW216215   2.030   2.281  10.850  0.5219 -2.6813  2.4051
 1528SOL     OW16216   2.744   3.525   6.927  0.5836 -0.2978  0.2121
 1528SOL    HW116217   2.821   3.479   6.895  2.2398  2.4147  0.3616
 1528SOL    HW216218   2.789   3.590   6.980 -0.0270  0.8553 -0.6717
 1529SOL     OW16219   3.362   0.164   6.660  0.0871 -0.4285 -0.2730
 1529SOL    HW116220   3.267   0.167   6.673  0.0270 -0.3214 -0.7284
 1529SOL    HW216221   3.367   0.108   6.582 -0.5017 -1.9746  0.8124
 1530SOL     OW16222   1.369   2.088   2.360  1.0020 -0.0127  0.1759
 1530SOL    HW116223   1.367   1.998   2.326  2.1089 -0.3505  1.0072
 1530SOL    HW216224   1.425   2.078   2.437  0.6473  0.5720  0.5091
 1531SOL     OW16225   1.349   0.679   3.448  0.3556  0.0612 -0.2567
 1531SOL    HW116226   1.380   0.651   3.362  1.8726 -0.6597  0.5422
 1531SOL    HW216227   1.338   0.591   3.484  0.9786 -0.0501 -0.3460
 1532SOL     OW16228   2.027   1.050   2.605 -1.0122 -0.4699 -0.1337
 1532SOL    HW116229   2.030   0.982   2.538  2.1393 -1.4343  1.0282
 1532SOL    HW216230   2.073   1.129   2.575  0.6307 -1.9524 -1.4450
 1533SOL     OW16231   2.125   4.397  14.761  0.1716 -0.5153  0.3107
 1533SOL    HW116232   2.102   4.411  14.669 -0.9819 -1.4286  0.4626
 1533SOL    HW216233   2.084   4.473  14.804 -0.6405 -0.6981 -0.1326
 1534SOL     OW16234   1.372   3.781   6.816  0.2373 -0.4650  0.3511
 1534SOL    HW116235   1.439   3.848   6.827 -0.3149  0.0107  0.7935
 1534SOL    HW216236   1.368   3.763   6.722 -0.4049  2.1015 -0.0996
 1535SOL     OW16237   3.485   2.301   3.054 -0.1483 -0.3465  0.5602
 1535SOL    HW116238   3.577   2.278   3.064  0.5644  1.7014 -1.3644
 1535SOL    HW216239   3.458   2.236   2.988  0.1575  0.5178 -0.4172
 1536SOL     OW16240   1.665   1.779   6.490 -0.0930 -0.4711  0.6203
 1536SOL    HW116241   1.736   1.731   6.447 -2.2928 -1.2482 -2.2001
 1536SOL    HW216242   1.717   1.843   6.537 -0.8796 -1.1906  2.4654
 1537SOL     OW16243   1.246   0.149   4.389 -0.2720 -0.0766  0.0472
 1537SOL    HW116244   1.181   0.174   4.322  1.9982  0.5989 -1.9262
 1537SOL    HW216245   1.318   0.113   4.337  1.0260  2.0885  0.3156
 1538SOL     OW16246   3.198   4.651   8.757  0.4568 -0.0141  0.3668
 1538SOL    HW116247   3.164   4.722   8.702 -1.2514 -0.2599  1.0966
 1538SOL    HW216248   3.279   4.625   8.713  1.6183  0.2569  2.3485
 1539SOL     OW16249   0.293   0.941   4.545  0.4336  0.0382  0.4691
 1539SOL    HW116250   0.228   1.010   4.532 -1.0137 -1.5556 -0.7582
 1539SOL    HW216251   0.347   0.957   4.467 -0.1272 -1.1755 -0.1619
 1540SOL     OW16252   2.695   4.281  14.860 -0.3876 -0.0683 -0.0540
 1540SOL    HW116253   2.695   4.234  14.944  1.2295  0.4300  0.2167
 1540SOL    HW216254   2.734   4.362  14.890 -2.9578  1.3863 -0.6529
 1541SOL     OW16255   4.003   1.477  16.405 -0.7161  0.0653 -0.1947
 1541SOL    HW116256   4.046   1.417  16.466  1.5982 -0.0368 -1.9184
 1541SOL    HW216257   3.945   1.418  16.357  0.8014  0.4919 -2.5619
 1542SOL     OW16258   2.356   4.558  12.219  0.7061  0.4412  0.1212
 1542SOL    HW116259   2.365   4.651  12.238 -2.4981  0.9035 -0.6547
 1542SOL    HW216260   2.436   4.519  12.255  1.9624  2.5801 -0.3287
 1543SOL     OW16261   3.123   4.212   1.983  0.3495  0.1479  0.0009
 1543SOL    HW116262   3.164   4.130   1.955 -1.1728 -2.2278  4.7449
 1543SOL    HW216263   3.058   4.170   2.039  0.6376 -1.8833 -1.1795
 1544SOL     OW16264   3.722   0.931  13.911  0.2025 -0.3415  0.0844
 1544SOL    HW116265   3.730   0.853  13.967 -2.2393 -1.0032 -0.4938
 1544SOL    HW216266   3.701   0.891  13.827 -0.4289  0.8862 -0.3288
 1545SOL     OW16267   0.286   3.888  11.811 -0.0741 -0.6383 -0.2929
 1545SOL    HW116268   0.237   3.806  11.811 -0.5980 -0.3131  1.6973
 1545SOL    HW216269   0.375   3.862  11.787 -0.8077 -1.9754 -1.5593
 1546SOL     OW16270   0.751   0.841   0.145 -0.1346  0.2980  0.4111
 1546SOL    HW116271   0.662   0.859   0.116 -0.2946  0.3153  0.9144
 1546SOL    HW216272   0.786   0.929   0.136  0.4371 -0.0231 -0.5654
 1547SOL     OW16273   0.760   3.798  15.552  0.0418  0.7920 -0.3428
 1547SOL    HW116274   0.718   3.762  15.630 -0.9578  1.5880 -0.5311
 1547SOL    HW216275   0.850   3.776  15.576  0.1106  1.2207 -0.2173
 1548SOL     OW16276   0.305   0.377   9.015  0.1933 -0.6574  0.2116
 1548SOL    HW116277   0.361   0.299   9.019  0.3253 -0.5879 -0.2809
 1548SOL    HW216278   0.239   0.350   8.951  0.8434  0.0711 -0.7662
 1549SOL     OW16279   1.813   2.836   8.046  0.0781 -0.0816 -0.2205
 1549SOL    HW116280   1.812   2.741   8.043 -1.1026 -0.0599 -0.4968
 1549SOL    HW216281   1.895   2.848   7.998 -1.0514  0.4462 -2.0171
 1550SOL     OW16282   3.419   1.426   2.611  0.1002  0.4473  0.1853
 1550SOL    HW116283   3.371   1.509   2.619  2.1419  1.7168 -0.7068
 1550SOL    HW216284   3.343   1.367   2.615 -1.6245  2.6876  0.7269
 1551SOL     OW16285   4.219   0.690   6.926 -0.4625 -0.1630  0.2959
 1551SOL    HW116286   4.148   0.661   6.869 -1.5452 -2.5059  2.8605
 1551SOL    HW216287   4.200   0.782   6.944  1.9968  0.2589  0.7765
 1552SOL     OW16288   4.480   3.193   0.943  0.3756  0.1809  0.5269
 1552SOL    HW116289   4.491   3.154   0.857 -0.0126  2.5350 -0.5891
 1552SOL    HW216290   4.384   3.199   0.938  0.5160  2.2261 -0.0432
 1553SOL     OW16291   2.603   4.458   7.332  0.3788 -0.2931  0.0539
 1553SOL    HW116292   2.692   4.488   7.354  1.2931 -3.1818  0.2494
 1553SOL    HW216293   2.608   4.464   7.237  2.7890  1.4435  0.2950
 1554SOL     OW16294   2.774   3.657   2.359 -0.9028  0.7627 -0.7295
 1554SOL    HW116295   2.695   3.632   2.311 -1.3717 -1.4155  1.1821
 1554SOL    HW216296   2.750   3.708   2.437 -0.9151 -0.6301  0.1929
 1555SOL     OW16297   2.349   3.880   8.325  0.1102 -0.4318 -0.2703
 1555SOL    HW116298   2.290   3.884   8.400 -0.5675 -0.6357 -0.8032
 1555SOL    HW216299   2.425   3.916   8.373 -0.4367 -1.7343  1.5740
 1556SOL     OW16300   2.052   3.901   1.105  0.1199  0.2941  0.3456
 1556SOL    HW116301   2.062   3.996   1.107 -0.4597  0.3468  0.6792
 1556SOL    HW216302   1.960   3.893   1.081  0.7603  2.6704 -2.8016
 1557SOL     OW16303   0.879   3.776   5.103 -0.7873 -0.0397 -0.0461
 1557SOL    HW116304   0.894   3.866   5.072 -0.8757 -0.0143 -0.0147
 1557SOL    HW216305   0.958   3.765   5.155 -1.2242  0.9426  0.8170
 1558SOL     OW16306   3.770   2.266   3.029 -0.0401 -0.5182 -0.1664
 1558SOL    HW116307   3.750   2.174   3.044  1.2195 -1.0325 -1.6960
 1558SOL    HW216308   3.834   2.257   2.959  0.4689 -0.7255  0.3196
 1559SOL     OW16309   2.356   0.977   9.249 -0.3334 -0.4849  0.1047
 1559SOL    HW116310   2.427   1.008   9.193  0.4122 -1.3172  0.5963
 1559SOL    HW216311   2.382   0.999   9.338  0.4424 -0.8237 -0.0402
 1560SOL     OW16312   4.471   1.844   5.185 -0.2054 -0.2658  0.2052
 1560SOL    HW116313   4.413   1.833   5.260 -1.3342  1.9738 -0.3309
 1560SOL    HW216314   4.480   1.752   5.161 -0.0129  0.1316 -1.2628
 1561SOL     OW16315   4.460   1.694   6.828 -0.2131  0.6708  0.1266
 1561SOL    HW116316   4.481   1.602   6.846 -1.4170  0.6184  1.2521
 1561SOL    HW216317   4.486   1.737   6.910  1.1524  1.8932 -0.9440
 1562SOL     OW16318   2.669   0.507   4.602  0.1788 -0.4973 -0.1075
 1562SOL    HW116319   2.684   0.602   4.599  2.9928 -0.8948  1.3552
 1562SOL    HW216320   2.577   0.504   4.626  0.5097  2.4247  1.5494
 1563SOL     OW16321   3.415   3.330   4.039  0.2414 -0.5216 -0.0113
 1563SOL    HW116322   3.394   3.367   4.125 -0.1466 -1.0732  0.1300
 1563SOL    HW216323   3.509   3.320   4.051  0.3448 -1.0035 -1.1980
 1564SOL     OW16324   1.855   0.037  12.128 -0.2941  0.1498  0.0447
 1564SOL    HW116325   1.766   0.002  12.131 -0.5676  0.8324 -0.1335
 1564SOL    HW216326   1.843   0.101  12.057 -2.3938 -0.1412  0.1615
 1565SOL     OW16327   2.891   3.297  12.540  0.0675  0.1124 -0.2798
 1565SOL    HW116328   2.863   3.214  12.501  0.9237 -0.6833  0.7874
 1565SOL    HW216329   2.900   3.263  12.629  1.4227 -2.6202 -1.4442
 1566SOL     OW16330   1.272   1.182   7.537  0.1112 -0.0156 -0.7413
 1566SOL    HW116331   1.191   1.216   7.574  0.9237 -0.5065  1.4510
 1566SOL    HW216332   1.228   1.107   7.495  4.0768 -2.1730 -1.0332
 1567SOL     OW16333   1.109   0.912  10.458 -0.3524  0.0771  0.1819
 1567SOL    HW116334   1.050   0.837  10.450 -0.3276  0.0624  0.1351
 1567SOL    HW216335   1.163   0.886  10.533 -0.4899 -0.3663  0.1238
 1568SOL     OW16336   2.393   2.442  15.806 -0.4317 -0.2905 -0.2411
 1568SOL    HW116337   2.342   2.523  15.801 -0.6970 -0.4200  0.3638
 1568SOL    HW216338   2.480   2.474  15.782 -0.2836 -0.7213 -0.2621
 1569SOL     OW16339   3.229   2.191   8.084 -0.1551 -0.6364  0.1486
 1569SOL    HW116340   3.278   2.261   8.127  0.5661 -0.7947 -0.4174
 1569SOL    HW216341   3.197   2.141   8.159 -1.6417 -1.6975 -1.2090
 1570SOL     OW16342   2.532   2.279   6.087  0.3887 -0.3539  0.7516
 1570SOL    HW116343   2.488   2.217   6.030  1.6748 -1.9949  1.5505
 1570SOL    HW216344   2.457   2.317   6.133  0.5342 -1.8340  2.2275
 1571SOL     OW16345   3.811   0.047   5.676 -0.1421 -0.2426 -0.0473
 1571SOL    HW116346   3.837   0.015   5.590  3.6469 -2.7187  2.0092
 1571SOL    HW216347   3.875   0.118   5.682 -2.1286  1.5412  0.0159
 1572SOL     OW16348   3.263   2.498   4.851 -0.4196  0.7993 -0.5594
 1572SOL    HW116349   3.261   2.433   4.921 -0.8517  1.5706  0.1338
 1572SOL    HW216350   3.239   2.576   4.900  0.2600 -0.6116  2.0033
 1573SOL     OW16351   1.944   4.228  15.026  0.1443 -0.3962  0.0172
 1573SOL    HW116352   1.944   4.324  15.034 -0.7613 -0.1233 -2.9678
 1573SOL    HW216353   2.026   4.197  15.063  0.1614  0.9704  1.1305
 1574SOL     OW16354   4.428   3.079   3.023 -0.0704 -0.2734 -0.0280
 1574SOL    HW116355   4.487   3.082   3.099 -3.3205 -1.1943  2.5559
 1574SOL    HW216356   4.479   3.128   2.959 -0.1202  2.4361  2.0018
 1575SOL     OW16357   1.310   2.323   6.775 -0.0065  0.4526  0.2880
 1575SOL    HW116358   1.231   2.373   6.796 -0.8470 -0.6617 -0.1588
 1575SOL    HW216359   1.373   2.377   6.821 -1.2063  1.6253  0.5558
 1576SOL     OW16360   0.499   0.770   8.349 -0.0076 -0.5308  0.5248
 1576SOL    HW116361   0.566   0.716   8.307 -0.3239 -1.3963  1.1430
 1576SOL    HW216362   0.536   0.851   8.315 -0.9336 -0.6650 -0.7845
 1577SOL     OW16363   1.845   4.083   7.159 -0.3908 -0.4381  0.2234
 1577SOL    HW116364   1.765   4.041   7.125 -0.5839 -1.2266  1.6578
 1577SOL    HW216365   1.882   4.110   7.075 -3.7054 -0.7018 -1.3264
 1578SOL     OW16366   2.781   3.745   7.748 -0.4860 -0.4081  1.1310
 1578SOL    HW116367   2.735   3.829   7.749 -2.0376 -1.2320 -1.3655
 1578SOL    HW216368   2.709   3.699   7.704 -0.5558  1.7528 -0.9876
 1579SOL     OW16369   4.515   0.282   7.404 -0.1630 -0.2795 -0.5503
 1579SOL    HW116370   4.556   0.211   7.354 -0.5234 -0.8478 -0.0348
 1579SOL    HW216371   4.502   0.351   7.339  0.4721 -0.3598 -0.7606
 1580SOL     OW16372   2.608   3.782   3.681 -0.0626  0.0337  0.1480
 1580SOL    HW116373   2.657   3.805   3.602  1.0413  0.8795  1.0667
 1580SOL    HW216374   2.678   3.776   3.747 -1.8763  0.9825  2.1531
 1581SOL     OW16375   4.710   0.323  11.777 -0.1073 -0.0760  0.7932
 1581SOL    HW116376   4.719   0.418  11.773 -0.3124 -0.0126  1.8979
 1581SOL    HW216377   0.022   0.307  11.857 -0.9053  1.5995  1.6141
 1582SOL     OW16378   0.359   4.487  14.389 -0.3385 -0.3985 -0.3649
 1582SOL    HW116379   0.377   4.393  14.389  0.0879 -0.3173  1.1483
 1582SOL    HW216380   0.266   4.487  14.414  0.3344 -0.6350  2.1791
 1583SOL     OW16381   4.632   2.123   3.552  0.2012 -0.4834 -0.2213
 1583SOL    HW116382   4.614   2.057   3.485  0.7355  0.4891 -1.3277
 1583SOL    HW216383   4.559   2.117   3.613  1.7583 -0.8575  1.5907
 1584SOL     OW16384   0.365   4.080   2.079  0.2576 -0.5113 -0.5329
 1584SOL    HW116385   0.393   4.161   2.121  1.1869 -1.0841 -0.0618
 1584SOL    HW216386   0.276   4.110   2.059  1.2391  1.4085 -1.9267
 1585SOL     OW16387   1.585   2.382   8.205 -0.4593  0.0863  0.3371
 1585SOL    HW116388   1.638   2.461   8.193  0.0206 -0.2730  0.0732
 1585SOL    HW216389   1.653   2.320   8.231 -0.6677  0.3645  1.5307
 1586SOL     OW16390   1.782   2.019  11.789 -0.6576  0.1083  0.2864
 1586SOL    HW116391   1.871   2.045  11.812  0.0329 -2.2430  0.2746
 1586SOL    HW216392   1.789   2.004  11.695  2.2250 -0.1015  0.5259
 1587SOL     OW16393   2.461   4.245   3.663  0.1611  0.4230 -0.0601
 1587SOL    HW116394   2.447   4.191   3.740  0.0951  2.2857  1.2407
 1587SOL    HW216395   2.531   4.191   3.628  0.1272 -1.1812  2.3622
 1588SOL     OW16396   1.553   2.886   2.879  0.4394 -0.2013 -0.1896
 1588SOL    HW116397   1.628   2.899   2.936  2.4213 -0.3836 -2.7405
 1588SOL    HW216398   1.528   2.977   2.862 -0.7739 -0.6356 -0.7408
 1589SOL     OW16399   2.930   2.221   1.484 -0.5651  0.3878 -0.0534
 1589SOL    HW116400   2.881   2.302   1.467  0.1502  0.9739  0.6612
 1589SOL    HW216401   2.902   2.206   1.575  0.1763 -0.7491 -0.0184
 1590SOL     OW16402   2.081   0.335   5.578  0.0623 -0.2786  0.3561
 1590SOL    HW116403   2.138   0.262   5.552  0.7290  0.3078  0.1651
 1590SOL    HW216404   2.052   0.323   5.668  0.3267  1.6756  0.7085
 1591SOL     OW16405   2.679   0.990   9.885 -0.0958 -0.0541  0.3933
 1591SOL    HW116406   2.691   1.053   9.956 -0.3300 -0.7852  1.0893
 1591SOL    HW216407   2.588   1.004   9.859 -0.1703 -0.8440  0.2355
 1592SOL     OW16408   2.318   0.266   1.372 -0.3974  0.9684  0.0424
 1592SOL    HW116409   2.293   0.195   1.431  1.5821 -1.4537 -2.0973
 1592SOL    HW216410   2.259   0.338   1.395 -1.8550 -1.3844  3.6794
 1593SOL     OW16411   2.643   3.216   6.129  0.1925  0.0108  0.2199
 1593SOL    HW116412   2.633   3.298   6.178  2.0371  1.0710 -1.1792
 1593SOL    HW216413   2.556   3.219   6.091 -0.0480 -0.1523  0.7543
 1594SOL     OW16414   0.276   4.031  10.880 -0.5663 -0.3017  0.0045
 1594SOL    HW116415   0.312   4.117  10.901  0.7617 -0.7670 -0.4103
 1594SOL    HW216416   0.187   4.049  10.911 -0.1653  0.4828  0.6810
 1595SOL     OW16417   3.902   2.426  14.848  0.0269 -0.0042  0.5246
 1595SOL    HW116418   3.918   2.482  14.924  1.1623  0.9794 -0.4430
 1595SOL    HW216419   3.982   2.373  14.855  0.1957 -0.0529 -1.7309
 1596SOL     OW16420   0.551   2.947   3.013 -0.3065 -0.5637  0.0950
 1596SOL    HW116421   0.485   3.015   3.026 -0.2746 -0.3621 -0.8107
 1596SOL    HW216422   0.588   2.953   3.101 -0.0266 -1.7308  0.0488
 1597SOL     OW16423   0.378   2.527   4.383 -0.0811  0.2787  0.2983
 1597SOL    HW116424   0.371   2.491   4.472 -2.8087 -0.4761 -0.2327
 1597SOL    HW216425   0.308   2.591   4.393 -0.3249  0.0677 -0.0702
 1598SOL     OW16426   3.258   2.436   7.892 -0.2830  0.3450  0.6222
 1598SOL    HW116427   3.178   2.479   7.922 -0.5328  0.8785 -0.8242
 1598SOL    HW216428   3.253   2.353   7.940  0.6551 -1.1683 -1.8998
 1599SOL     OW16429   1.923   1.424  11.757 -0.1284  0.3173 -0.4123
 1599SOL    HW116430   1.878   1.428  11.841 -1.6685 -0.5569 -1.1869
 1599SOL    HW216431   1.857   1.397  11.693  0.1083  1.5471 -1.1954
 1600SOL     OW16432   4.503   1.366  15.270  0.4980  0.5295 -0.1099
 1600SOL    HW116433   4.592   1.401  15.264  1.2960 -1.2478  1.3067
 1600SOL    HW216434   4.496   1.316  15.188  2.0029 -0.6532  0.4731
 1601SOL     OW16435   1.717   3.468   6.018  0.0092 -0.2571  0.0841
 1601SOL    HW116436   1.626   3.439   6.022  0.2382 -0.8115  1.1451
 1601SOL    HW216437   1.712   3.557   5.982 -1.1004 -0.0817  0.6877
 1602SOL     OW16438   1.603   2.420   7.867 -0.5381 -0.0817  0.0416
 1602SOL    HW116439   1.535   2.464   7.816 -0.4562  0.3213  0.2834
 1602SOL    HW216440   1.583   2.332   7.835  0.2017 -0.7873  1.5220
 1603SOL     OW16441   2.802   3.001   9.117 -0.1439 -0.3379  0.1729
 1603SOL    HW116442   2.767   2.918   9.085  1.7176 -1.2024  0.4195
 1603SOL    HW216443   2.816   2.984   9.210 -0.1333 -2.0489 -0.1459
 1604SOL     OW16444   1.470   0.236   3.257  0.0338  0.0488 -0.2508
 1604SOL    HW116445   1.477   0.198   3.169 -0.9663  0.1848 -0.3953
 1604SOL    HW216446   1.458   0.163   3.318  3.0767 -0.4224 -0.2212
 1605SOL     OW16447   1.710   2.308   3.551 -0.4412  0.3034  0.6392
 1605SOL    HW116448   1.715   2.312   3.646  1.3520  0.1162  0.5479
 1605SOL    HW216449   1.713   2.214   3.535  1.8202  0.7362 -1.4368
 1606SOL     OW16450   1.156   3.745   9.189 -0.3203 -0.2657  0.1913
 1606SOL    HW116451   1.239   3.713   9.225 -0.8925 -1.1346  0.7360
 1606SOL    HW216452   1.182   3.797   9.113 -2.4247  0.9768  0.3242
 1607SOL     OW16453   3.293   1.760   2.535  0.7692 -0.3297 -0.8364
 1607SOL    HW116454   3.271   1.727   2.622  0.4232  0.4994 -0.6065
 1607SOL    HW216455   3.385   1.783   2.544  0.7890 -0.3575 -0.9699
 1608SOL     OW16456   2.706   0.478   4.986 -0.1267 -0.6055 -0.0099
 1608SOL    HW116457   2.676   0.557   4.940  1.6987  0.0699 -0.0416
 1608SOL    HW216458   2.779   0.507   5.041 -0.4419  0.2873 -0.0692
 1609SOL     OW16459   3.556   4.421   5.352  0.5524  0.2167  0.3858
 1609SOL    HW116460   3.614   4.347   5.369  1.2714  0.4544 -1.0186
 1609SOL    HW216461   3.595   4.481   5.288 -0.3794  1.5315  1.0555
 1610SOL     OW16462   3.589   1.706   5.902 -0.2247 -0.4246  0.3723
 1610SOL    HW116463   3.561   1.619   5.928  1.0789 -0.4695  1.5975
 1610SOL    HW216464   3.682   1.708   5.924  0.2056  1.2399 -1.6079
 1611SOL     OW16465   1.558   0.637   7.965  0.0233  0.0408 -0.4037
 1611SOL    HW116466   1.644   0.679   7.962  0.1329 -0.2632 -1.6366
 1611SOL    HW216467   1.498   0.707   7.937 -0.9306  0.0415  1.7024
 1612SOL     OW16468   3.716   3.466   7.822  0.7487  0.0298 -0.0894
 1612SOL    HW116469   3.677   3.413   7.891 -1.9587  3.0204  0.7034
 1612SOL    HW216470   3.810   3.459   7.838  0.8105 -2.0845 -1.5002
 1613SOL     OW16471   4.651   3.969   4.234  0.2166  0.5552 -0.4312
 1613SOL    HW116472   4.631   3.875   4.237 -1.5859  0.9131 -1.4868
 1613SOL    HW216473   4.706   3.972   4.155  0.2892  0.0722 -0.3962
 1614SOL     OW16474   4.520   1.259   2.175 -0.5072 -0.1302 -0.0968
 1614SOL    HW116475   4.429   1.285   2.166  0.0078  1.6751 -0.0390
 1614SOL    HW216476   4.559   1.335   2.133 -0.9021  0.2891  0.2938
 1615SOL     OW16477   0.542   1.661   5.401  0.3229 -0.1156 -0.1566
 1615SOL    HW116478   0.625   1.708   5.403 -0.2068  0.8414 -1.0202
 1615SOL    HW216479   0.476   1.726   5.424 -1.3956 -0.9755 -2.6359
 1616SOL     OW16480   0.960   2.879   8.811 -0.2183  0.1032  0.1089
 1616SOL    HW116481   0.902   2.803   8.815  1.0412 -0.9151 -0.7299
 1616SOL    HW216482   1.042   2.831   8.799 -0.3722  0.2189 -1.5042
 1617SOL     OW16483   0.446   0.741  17.610 -0.1975  0.5910  0.0048
 1617SOL    HW116484   0.511   0.795  17.655  0.5563  0.9501 -1.5345
 1617SOL    HW216485   0.382   0.720  17.678  1.0984  1.1319  1.3721
 1618SOL     OW16486   4.165   2.814   0.061  0.8343  0.2043  0.7389
 1618SOL    HW116487   4.151   2.905   0.036  1.7674  0.7946  2.3361
 1618SOL    HW216488   4.077   2.782   0.043  1.7176 -1.3804 -0.6877
 1619SOL     OW16489   4.299   4.170   7.322  0.4708 -0.2712  0.5011
 1619SOL    HW116490   4.210   4.139   7.338  0.0924  0.7287  0.2951
 1619SOL    HW216491   4.362   4.130   7.383  2.2498 -1.2599 -1.9654
 1620SOL     OW16492   2.425   2.376   8.612  0.4074 -0.0945  0.1598
 1620SOL    HW116493   2.346   2.344   8.570  1.6577 -1.0160 -1.4759
 1620SOL    HW216494   2.497   2.351   8.554 -0.5533  0.0444 -1.1111
 1621SOL     OW16495   2.106   3.575   3.761 -0.4849 -0.0145  0.0801
 1621SOL    HW116496   2.110   3.585   3.666  1.4099 -0.8813  0.0577
 1621SOL    HW216497   2.198   3.582   3.787 -1.0496 -1.2965  2.4609
 1622SOL     OW16498   2.478   3.768   6.842  0.2152 -0.2616 -0.5005
 1622SOL    HW116499   2.568   3.780   6.873 -0.8603  0.2013  2.4105
 1622SOL    HW216500   2.488   3.804   6.754 -0.8794  1.8601  0.2333
 1623SOL     OW16501   2.448   3.836   6.572 -0.4488  0.2238  0.1963
 1623SOL    HW116502   2.424   3.746   6.549 -2.1686  0.7220  0.0592
 1623SOL    HW216503   2.492   3.881   6.500 -2.1141  0.1045 -0.8803
 1624SOL     OW16504   2.974   0.082   3.901 -0.2375  0.4544 -0.3669
 1624SOL    HW116505   2.974   0.081   3.997 -0.1560  0.6586 -0.3644
 1624SOL    HW216506   2.961   4.729   3.871 -1.6941  0.4611  0.2231
 1625SOL     OW16507   3.442   2.635   7.861 -0.0008 -0.3566 -0.2496
 1625SOL    HW116508   3.380   2.562   7.858  0.7735 -1.0812  1.3928
 1625SOL    HW216509   3.464   2.650   7.769  3.1845  0.5151  0.6661
 1626SOL     OW16510   0.493   4.485  17.251 -0.3282 -0.6065 -0.4038
 1626SOL    HW116511   0.551   4.439  17.190 -0.7629 -0.0836 -1.2161
 1626SOL    HW216512   0.432   4.522  17.187 -0.6535 -0.4801 -0.0267
 1627SOL     OW16513   1.237   4.012  15.095 -0.1348  0.4052  0.4711
 1627SOL    HW116514   1.219   4.030  15.002  0.2634  0.6275  0.4372
 1627SOL    HW216515   1.189   3.930  15.104  0.6674 -0.1806 -0.5087
 1628SOL     OW16516   3.893   0.093   7.466 -0.0447  0.1120 -0.4864
 1628SOL    HW116517   3.962   0.142   7.421 -0.4861 -1.1459 -2.5623
 1628SOL    HW216518   3.867   0.142   7.544 -0.2970 -1.5533  0.4785
 1629SOL     OW16519   2.842   3.707   1.083 -0.0922 -0.4150  0.2745
 1629SOL    HW116520   2.846   3.612   1.092 -0.0463 -0.2892  1.5634
 1629SOL    HW216521   2.760   3.715   1.035 -0.2137 -0.9331  0.3906
 1630SOL     OW16522   0.990   1.022   3.837 -0.3474  0.0126 -0.1511
 1630SOL    HW116523   0.941   0.995   3.915  0.8713 -0.2831  0.5211
 1630SOL    HW216524   0.916   1.013   3.778  1.2522  1.7700 -2.4236
 1631SOL     OW16525   4.209   2.463   3.979  0.1774 -0.0009 -0.3396
 1631SOL    HW116526   4.228   2.439   4.069  0.0340  0.0693 -0.2911
 1631SOL    HW216527   4.233   2.385   3.930 -0.8192 -0.5994  0.1405
 1632SOL     OW16528   1.783   4.478   0.226  0.3521 -0.2128 -0.5942
 1632SOL    HW116529   1.714   4.418   0.198  0.0447 -1.3597  2.6017
 1632SOL    HW216530   1.740   4.557   0.193 -0.0045 -0.7576 -1.4404
 1633SOL     OW16531   4.384   3.853   2.671  0.4274  0.0871 -0.1127
 1633SOL    HW116532   4.385   3.887   2.760  2.3293  1.1109 -0.5387
 1633SOL    HW216533   4.292   3.830   2.659  0.6855 -0.8863 -0.2622
 1634SOL     OW16534   1.748   1.912  17.442  0.2570 -0.1191  0.2194
 1634SOL    HW116535   1.824   1.856  17.456 -0.0809 -0.8383 -0.8692
 1634SOL    HW216536   1.678   1.847  17.450  2.0695 -2.0066  0.5147
 1635SOL     OW16537   2.260   1.906  11.259 -0.2747 -0.6458  0.0457
 1635SOL    HW116538   2.312   1.901  11.179  1.3539  0.1653  1.0634
 1635SOL    HW216539   2.204   1.984  11.249 -2.7850 -2.5444 -0.8187
 1636SOL     OW16540   2.665   3.572   3.007 -0.6740  0.8408 -0.7351
 1636SOL    HW116541   2.720   3.632   3.058 -0.6062  1.7276 -1.8442
 1636SOL    HW216542   2.605   3.541   3.075  0.8111  1.2898  0.7797
 1637SOL     OW16543   0.242   1.695   5.123  0.0013 -0.2203  0.1326
 1637SOL    HW116544   0.156   1.679   5.083  0.4659 -1.6520 -0.2928
 1637SOL    HW216545   0.219   1.673   5.213 -1.1181 -0.4723 -0.2069
 1638SOL     OW16546   3.515   1.738  11.429  0.2420  0.1386  0.1398
 1638SOL    HW116547   3.589   1.769  11.481  0.7009  0.3455 -0.6471
 1638SOL    HW216548   3.566   1.685  11.368  0.3586  3.4811 -2.6882
 1639SOL     OW16549   2.936   4.234   9.705 -0.9510 -0.0219  0.5067
 1639SOL    HW116550   2.920   4.200   9.616  2.1472  1.0680 -0.4670
 1639SOL    HW216551   3.020   4.277   9.692 -1.7475  1.1556 -0.8470
 1640SOL     OW16552   1.482   0.928  13.362 -0.0952 -0.3054  0.0080
 1640SOL    HW116553   1.577   0.934  13.360 -0.0273 -1.8688 -1.2454
 1640SOL    HW216554   1.469   0.881  13.279 -1.9981  1.0761 -0.4818
 1641SOL     OW16555   4.380   2.486  16.567 -0.3929  0.3167 -0.0929
 1641SOL    HW116556   4.381   2.563  16.624 -1.0621 -1.4774  2.3243
 1641SOL    HW216557   4.460   2.445  16.599 -0.1384  0.8421 -0.0558
 1642SOL     OW16558   0.398   3.097   7.701  0.5306  0.0889 -0.1679
 1642SOL    HW116559   0.471   3.134   7.652  0.8954  0.7578  0.8707
 1642SOL    HW216560   0.431   3.009   7.720  0.4750  0.0863 -0.0834
 1643SOL     OW16561   3.551   2.693   6.305  0.1705  0.4090  0.3030
 1643SOL    HW116562   3.555   2.788   6.289 -1.9989  0.4165 -0.2145
 1643SOL    HW216563   3.505   2.659   6.229  1.8140 -0.9631 -0.0706
 1644SOL     OW16564   3.848   1.840   2.931  0.0208  0.8256 -0.1933
 1644SOL    HW116565   3.893   1.912   2.973 -0.0776  0.6604  0.1917
 1644SOL    HW216566   3.922   1.795   2.889 -0.7542 -0.5844 -0.0757
 1645SOL     OW16567   4.293   3.987   5.154  0.0837  0.0264  0.0491
 1645SOL    HW116568   4.239   3.958   5.080 -0.3118  2.4393 -0.5806
 1645SOL    HW216569   4.235   3.988   5.230 -1.9237 -3.1126 -1.3953
 1646SOL     OW16570   3.130   4.383   4.337  0.4552 -0.2306  0.3411
 1646SOL    HW116571   3.064   4.373   4.268  1.4278  3.4903 -1.1106
 1646SOL    HW216572   3.190   4.318   4.301 -2.0656 -2.7277  0.6816
 1647SOL     OW16573   1.235   4.367   4.037  0.1029 -0.3081 -0.7769
 1647SOL    HW116574   1.284   4.434   3.990  0.6309 -0.2060 -0.0692
 1647SOL    HW216575   1.148   4.382   4.000 -1.2353 -1.4210  1.9404
 1648SOL     OW16576   4.684   4.508  12.511  0.5616  0.1728 -0.6344
 1648SOL    HW116577   4.696   4.540  12.421 -0.3125 -2.6259 -1.7596
 1648SOL    HW216578   0.036   4.527  12.538  0.9987  0.4596 -2.2546
 1649SOL     OW16579   4.031   4.563   8.159  0.0719 -0.2290 -0.0704
 1649SOL    HW116580   4.055   4.633   8.098 -3.8801  0.1494 -1.1609
 1649SOL    HW216581   4.031   4.484   8.106  0.4185  0.0230 -0.4457
 1650SOL     OW16582   3.816   4.030   8.154 -0.3591 -0.0405  0.5235
 1650SOL    HW116583   3.791   4.106   8.206 -4.3143 -0.7409 -0.3263
 1650SOL    HW216584   3.864   3.976   8.216 -0.2156 -1.2737 -0.6412
 1651SOL     OW16585   0.384   2.784   7.480  0.6354  0.0201  0.0895
 1651SOL    HW116586   0.354   2.701   7.518  0.8363  0.7696  1.8659
 1651SOL    HW216587   0.295   2.813   7.464  0.3507 -0.5188  0.6930
 1652SOL     OW16588   2.064   2.041  17.331 -0.6278 -0.4107  0.4630
 1652SOL    HW116589   1.979   2.067  17.367 -0.7117  0.1142 -0.1242
 1652SOL    HW216590   2.115   2.097  17.389 -2.1341  2.5014 -1.0470
 1653SOL     OW16591   1.431   3.313  15.376  0.0815 -0.1864 -0.0452
 1653SOL    HW116592   1.516   3.275  15.356 -0.0579 -0.6497  0.2292
 1653SOL    HW216593   1.381   3.291  15.297 -0.9984  0.0359  0.5745
 1654SOL     OW16594   0.083   3.183   2.278 -0.4985 -0.0378 -0.4506
 1654SOL    HW116595   4.736   3.158   2.241 -1.2537  0.5143  0.8636
 1654SOL    HW216596   0.093   3.265   2.230 -0.7407  1.6058  2.2664
 1655SOL     OW16597   2.927   4.695   2.166  0.1916 -1.6421  0.6954
 1655SOL    HW116598   2.896   4.697   2.257 -1.8012 -0.5213 -0.0058
 1655SOL    HW216599   3.009   0.002   2.186 -0.7437  1.4531 -2.3590
 1656SOL     OW16600   1.454   2.420   7.475 -0.0872  0.6042  0.5327
 1656SOL    HW116601   1.423   2.333   7.500 -1.3051  0.1537 -2.5942
 1656SOL    HW216602   1.422   2.419   7.385 -1.2754  2.0052  0.9220
 1657SOL     OW16603   2.821   1.032   5.851 -0.2923 -0.6010  0.1313
 1657SOL    HW116604   2.813   1.059   5.942 -4.3308 -1.3825 -0.0241
 1657SOL    HW216605   2.884   1.092   5.810 -0.5482 -1.1804 -1.1184
 1658SOL     OW16606   2.984   0.613   5.044  0.7564 -0.0645 -0.2270
 1658SOL    HW116607   3.015   0.681   4.984 -0.0161  0.7494  0.3041
 1658SOL    HW216608   3.063   0.560   5.055  0.7361  0.1030  0.7191
 1659SOL     OW16609   1.938   2.804   5.439  0.1874  0.1981 -0.0941
 1659SOL    HW116610   1.872   2.860   5.480  1.7071  0.8402  1.4460
 1659SOL    HW216611   1.965   2.745   5.509  1.4793  0.3616 -0.4574
 1660SOL     OW16612   1.080   0.717   6.618  0.0123  0.9646 -0.2702
 1660SOL    HW116613   1.097   0.810   6.629 -2.0082  1.1825  0.9852
 1660SOL    HW216614   1.124   0.696   6.536  0.9248  0.7472  0.2844
 1661SOL     OW16615   2.795   2.175   5.938 -0.6494 -0.8165  0.5934
 1661SOL    HW116616   2.873   2.217   5.975 -0.9166  0.9260 -0.7922
 1661SOL    HW216617   2.734   2.216   6.000 -0.5170  0.0485  0.1621
 1662SOL     OW16618   2.768   2.453   3.046 -0.5837 -0.6052  0.0853
 1662SOL    HW116619   2.812   2.400   2.980  1.4776  1.0227  0.1728
 1662SOL    HW216620   2.732   2.526   2.996 -0.1347  0.8365  1.8617
 1663SOL     OW16621   4.299   3.786   8.439 -0.0864  0.1744 -0.0980
 1663SOL    HW116622   4.251   3.710   8.408 -0.4328  1.0459 -1.7461
 1663SOL    HW216623   4.262   3.806   8.524 -1.5792 -0.1163 -0.6931
 1664SOL     OW16624   2.871   2.383  16.595  0.1094 -0.1655 -0.1826
 1664SOL    HW116625   2.840   2.443  16.528 -3.0924  0.4497  1.8241
 1664SOL    HW216626   2.922   2.448  16.644  0.8894 -2.0437  1.5261
 1665SOL     OW16627   3.076   2.078   0.438  0.5430  0.0734 -0.1545
 1665SOL    HW116628   3.038   2.059   0.352  0.9215  0.3121 -0.3735
 1665SOL    HW216629   3.154   2.126   0.411  2.1991 -1.6266  1.5300
 1666SOL     OW16630   3.274   1.355   6.337  0.5270  0.4137  0.4345
 1666SOL    HW116631   3.362   1.386   6.359  0.2428  0.4728  1.4835
 1666SOL    HW216632   3.238   1.339   6.424  0.4617 -0.0482  0.3220
 1667SOL     OW16633   1.313   2.850   7.245 -0.3401  0.3178  0.3926
 1667SOL    HW116634   1.276   2.852   7.156  2.5916  1.8046 -0.7883
 1667SOL    HW216635   1.338   2.758   7.252  2.7541  1.0086 -1.5229
 1668SOL     OW16636   4.529   0.045   5.908 -0.1664 -1.2412 -0.1165
 1668SOL    HW116637   4.540   0.005   5.822 -1.3511 -0.2613 -0.7317
 1668SOL    HW216638   4.594   0.005   5.965  3.2020  2.8620 -1.1483
 1669SOL     OW16639   1.432   3.896   3.370  0.6088  0.4397 -0.1337
 1669SOL    HW116640   1.377   3.954   3.423 -2.0861  0.2412 -2.6841
 1669SOL    HW216641   1.451   3.821   3.427  0.0269  0.2063 -0.2410
 1670SOL     OW16642   4.065   4.397   2.414 -0.3300 -0.3340  0.0539
 1670SOL    HW116643   4.145   4.413   2.464 -0.4887 -0.4590  0.3443
 1670SOL    HW216644   4.092   4.365   2.328  1.6312  1.2399  0.0837
 1671SOL     OW16645   4.545   3.172   3.278  0.2010 -0.3055  0.4589
 1671SOL    HW116646   4.511   3.249   3.323 -0.3804  0.3556 -1.1175
 1671SOL    HW216647   4.589   3.121   3.346 -0.2254  0.7364  1.4938
 1672SOL     OW16648   3.412   0.516   8.665 -0.8627  0.9224 -0.3711
 1672SOL    HW116649   3.500   0.550   8.678 -0.9286  1.2925 -0.8793
 1672SOL    HW216650   3.434   0.456   8.594  0.5571  1.1828 -0.1430
 1673SOL     OW16651   4.021   2.834   5.949  0.0117  0.1893 -0.6748
 1673SOL    HW116652   4.095   2.784   5.914  1.2064  0.0104  2.1126
 1673SOL    HW216653   4.049   2.844   6.040  1.6662  3.8242 -1.5827
 1674SOL     OW16654   1.141   1.145   8.462  0.0607  0.3185  0.3260
 1674SOL    HW116655   1.118   1.058   8.429 -1.5686  0.9087 -0.1201
 1674SOL    HW216656   1.064   1.192   8.427  0.5299  0.6399 -0.2860
 1675SOL     OW16657   2.530   1.657  11.670  0.3624 -0.0391  0.2446
 1675SOL    HW116658   2.612   1.684  11.713  0.8359 -0.0091 -0.6915
 1675SOL    HW216659   2.516   1.746  11.639 -2.4693 -0.4840  0.1950
 1676SOL     OW16660   4.259   0.079   8.516  0.1067 -0.3107  0.0272
 1676SOL    HW116661   4.168   0.057   8.533 -0.5060  1.2216 -1.2654
 1676SOL    HW216662   4.299   4.730   8.522  0.2632 -0.4047 -2.4267
 1677SOL     OW16663   1.386   3.245   0.238  0.1141  0.1035  0.6286
 1677SOL    HW116664   1.478   3.223   0.253  0.8612  2.5279 -0.3456
 1677SOL    HW216665   1.379   3.341   0.246 -0.5555  0.1580 -0.5609
 1678SOL     OW16666   1.485   3.332   6.082  0.2473  0.3358 -0.3595
 1678SOL    HW116667   1.393   3.326   6.108  0.6336  0.9254  1.0917
 1678SOL    HW216668   1.509   3.245   6.049 -1.8235 -0.6310  0.6986
 1679SOL     OW16669   2.282   3.544  12.894  0.3107 -0.1096  0.6033
 1679SOL    HW116670   2.228   3.578  12.823  2.8116  2.5712 -0.0265
 1679SOL    HW216671   2.223   3.480  12.933  0.4562 -0.2625  0.5724
 1680SOL     OW16672   1.755   2.293   7.266 -0.1290  1.0276 -0.3971
 1680SOL    HW116673   1.837   2.247   7.245  0.2464  1.5882 -0.1476
 1680SOL    HW216674   1.785   2.376   7.229 -2.5497  0.8633 -2.7438
 1681SOL     OW16675   2.769   2.116   6.866  0.3375  0.6192  0.2320
 1681SOL    HW116676   2.812   2.041   6.826 -1.8517  0.5036 -1.8588
 1681SOL    HW216677   2.778   2.091   6.958  1.0332  2.7691  0.7605
 1682SOL     OW16678   3.087   1.800   1.879  0.2422 -0.4892  0.1643
 1682SOL    HW116679   3.097   1.839   1.792 -0.2183 -1.0099 -0.1183
 1682SOL    HW216680   3.177   1.820   1.904  0.5013  0.4284 -1.4805
 1683SOL     OW16681   4.427   2.448   5.809 -0.1206 -0.0832 -0.0509
 1683SOL    HW116682   4.392   2.389   5.875  0.4190  0.0318  0.3422
 1683SOL    HW216683   4.520   2.443   5.834 -0.1141 -0.7595 -0.2102
 1684SOL     OW16684   2.621   0.285  17.581 -0.3816  0.4390  0.5689
 1684SOL    HW116685   2.575   0.231  17.645 -0.2033 -0.1859  0.1743
 1684SOL    HW216686   2.697   0.302  17.636 -0.5448 -1.6309  1.4210
 1685SOL     OW16687   1.978   0.568   2.505  0.0558  0.1094 -0.6063
 1685SOL    HW116688   2.035   0.630   2.459  1.1142  0.6566  1.4098
 1685SOL    HW216689   1.912   0.560   2.437 -0.1328 -0.0133 -0.4073
 1686SOL     OW16690   0.408   3.896   3.984  0.1771 -0.3383 -0.0540
 1686SOL    HW116691   0.459   3.830   4.031 -0.9511 -0.9852  0.2778
 1686SOL    HW216692   0.430   3.875   3.893 -1.1358  2.1708 -0.9557
 1687SOL     OW16693   1.572   4.361   1.970 -0.2587  0.8660  0.1175
 1687SOL    HW116694   1.507   4.390   2.034  0.9906  1.5562  1.0789
 1687SOL    HW216695   1.654   4.378   2.016 -0.1525  0.9849 -0.1157
 1688SOL     OW16696   3.128   2.467   9.930 -0.6455  0.1360  0.6297
 1688SOL    HW116697   3.212   2.480   9.974 -0.8919 -0.8533  1.3918
 1688SOL    HW216698   3.157   2.524   9.859  0.9766  0.1034  1.2764
 1689SOL     OW16699   1.063   2.364   6.239 -0.1536 -0.3304 -0.1048
 1689SOL    HW116700   1.121   2.427   6.281  0.4988 -1.3591  0.5340
 1689SOL    HW216701   0.993   2.352   6.303  0.9661  3.1366  1.7301
 1690SOL     OW16702   0.522   0.164   9.000 -0.1181  0.6115 -0.0882
 1690SOL    HW116703   0.556   0.156   9.089  2.7874  0.1021 -1.2283
 1690SOL    HW216704   0.547   0.078   8.965  0.1659  0.7292 -0.1711
 1691SOL     OW16705   1.108   2.603  11.155  0.3631  0.1776 -0.2856
 1691SOL    HW116706   1.026   2.638  11.191  0.1061  0.6271 -1.3029
 1691SOL    HW216707   1.112   2.515  11.190  0.2059  0.4931  0.5174
 1692SOL     OW16708   0.726   0.999   8.554 -0.2653  0.0154  0.1091
 1692SOL    HW116709   0.756   0.984   8.465  0.3102 -0.5137  0.3994
 1692SOL    HW216710   0.649   1.050   8.527 -1.2091 -1.5402 -0.1398
 1693SOL     OW16711   2.387   3.608   4.099  0.3928 -0.5163  0.1334
 1693SOL    HW116712   2.418   3.599   4.189  1.8230 -2.0455 -0.4932
 1693SOL    HW216713   2.292   3.595   4.101  0.2737  0.3427  0.0388
 1694SOL     OW16714   4.421   0.177   3.296 -0.0783  0.3578  0.4348
 1694SOL    HW116715   4.399   0.270   3.287  2.2904  0.8843  0.1275
 1694SOL    HW216716   4.443   0.161   3.204 -0.8036 -2.0437  0.6749
 1695SOL     OW16717   1.366   1.028   3.406 -0.0210 -0.0104  0.3882
 1695SOL    HW116718   1.287   1.031   3.352 -0.6018  1.5374  1.3227
 1695SOL    HW216719   1.429   1.013   3.335 -2.9997  1.2843 -2.5082
 1696SOL     OW16720   3.889   1.610  12.869  0.1290  0.0531 -0.6514
 1696SOL    HW116721   3.897   1.616  12.964  2.2273  0.8751 -0.8823
 1696SOL    HW216722   3.821   1.544  12.853  0.0138 -0.1572  0.7225
 1697SOL     OW16723   2.512   0.288  14.769 -0.0004  0.0120  0.1863
 1697SOL    HW116724   2.480   0.377  14.787 -1.0874  0.2527 -3.0250
 1697SOL    HW216725   2.593   0.313  14.724 -0.1185 -2.7797 -1.5585
 1698SOL     OW16726   1.305   4.357  15.364 -0.2194 -0.1049 -0.4249
 1698SOL    HW116727   1.253   4.365  15.284  0.5684 -0.3309 -0.9539
 1698SOL    HW216728   1.393   4.353  15.326 -0.3703  0.8190 -0.8682
 1699SOL     OW16729   2.552   1.915  10.138  0.0716  0.4094 -0.9524
 1699SOL    HW116730   2.582   2.004  10.120  0.7578  0.5796  1.0968
 1699SOL    HW216731   2.607   1.858  10.084  0.4242  0.1838 -0.3594
 1700SOL     OW16732   0.162   3.151  10.938 -0.0832  0.1637  0.3879
 1700SOL    HW116733   0.255   3.146  10.916 -0.0289  0.8278  0.4601
 1700SOL    HW216734   0.152   3.090  11.011  0.5822  1.7602  1.8076
 1701SOL     OW16735   3.764   4.147   4.220  0.0615  0.1547  0.0932
 1701SOL    HW116736   3.793   4.150   4.129  0.9962 -1.2085  0.3546
 1701SOL    HW216737   3.810   4.074   4.262 -1.0093  0.8826  2.5890
 1702SOL     OW16738   2.420   0.754   8.542  0.1453 -0.2407  0.0334
 1702SOL    HW116739   2.446   0.781   8.454 -1.2805  2.4604  0.4380
 1702SOL    HW216740   2.332   0.727   8.518 -0.3407  0.2631  1.2609
 1703SOL     OW16741   3.369   3.603  11.937  0.2102  0.4068  0.1508
 1703SOL    HW116742   3.341   3.571  12.022  2.0846  0.1935  0.6826
 1703SOL    HW216743   3.458   3.629  11.960 -0.8285  2.7495  1.5145
 1704SOL     OW16744   4.093   2.638   8.241  0.0034  0.1358  0.1622
 1704SOL    HW116745   4.103   2.717   8.188 -3.3196  0.6242  0.2407
 1704SOL    HW216746   4.148   2.651   8.319  0.6603  0.6071 -0.3766
 1705SOL     OW16747   2.524   4.590  16.729  0.9532  0.6030 -0.3104
 1705SOL    HW116748   2.529   4.685  16.738  2.4509  0.6959 -1.9938
 1705SOL    HW216749   2.511   4.564  16.820 -0.4219  0.3005 -0.5953
 1706SOL     OW16750   0.387   2.856   8.243 -0.3554  0.5208 -0.8728
 1706SOL    HW116751   0.451   2.877   8.311 -2.2831 -1.4585  1.5535
 1706SOL    HW216752   0.314   2.914   8.264 -0.9283  0.5244 -2.9165
 1707SOL     OW16753   2.596   0.891   7.139 -0.1863  0.6934  0.2028
 1707SOL    HW116754   2.524   0.952   7.130 -1.1222 -0.2365  1.4472
 1707SOL    HW216755   2.545   0.833   7.195  0.2584  0.0617 -0.0434
 1708SOL     OW16756   4.245   4.281   4.032 -0.1980 -0.2835 -0.3130
 1708SOL    HW116757   4.246   4.221   4.107 -4.7726  0.8197  0.6236
 1708SOL    HW216758   4.333   4.275   3.995 -0.3802  0.4808 -0.8640
 1709SOL     OW16759   3.255   1.056   6.776  0.1258  0.5042  0.4039
 1709SOL    HW116760   3.238   1.101   6.694 -1.0697  0.2454  0.5196
 1709SOL    HW216761   3.171   1.028   6.811  0.1770  0.0984  0.1944
 1710SOL     OW16762   0.460   3.800   4.788  0.2573  0.3321  0.7372
 1710SOL    HW116763   0.473   3.728   4.850 -1.4911 -0.7633 -0.1862
 1710SOL    HW216764   0.391   3.844   4.838  1.2707  1.3431  1.2636
 1711SOL     OW16765   2.804   4.663   8.398  0.1534 -0.3415  0.0676
 1711SOL    HW116766   2.822   4.721   8.324 -0.3673 -0.3821 -0.0880
 1711SOL    HW216767   2.803   4.730   8.466  0.3781 -0.7261  0.4574
 1712SOL     OW16768   1.936   0.829   3.851  0.3865 -0.1864 -0.0578
 1712SOL    HW116769   1.887   0.760   3.898 -0.5501 -0.9015 -2.0793
 1712SOL    HW216770   1.885   0.834   3.770 -2.3651 -0.5567  1.6572
 1713SOL     OW16771   4.627   0.530   7.953 -0.2197 -0.2408 -0.2117
 1713SOL    HW116772   4.578   0.449   7.967 -0.0462 -0.3835 -0.4187
 1713SOL    HW216773   4.668   0.531   8.039 -0.2622  0.3047 -0.1981
 1714SOL     OW16774   4.370   3.142  11.634  0.0976 -0.0236 -0.0831
 1714SOL    HW116775   4.405   3.213  11.687 -0.9881  0.5954 -0.2101
 1714SOL    HW216776   4.290   3.117  11.680  1.0927  2.4748  3.0021
 1715SOL     OW16777   1.931   3.018   6.778 -0.0277 -0.5633 -0.0380
 1715SOL    HW116778   1.967   3.003   6.690  0.0905 -2.0448  0.2614
 1715SOL    HW216779   2.012   3.032   6.826  0.5202  0.4054 -1.2308
 1716SOL     OW16780   0.932   1.021  10.924  0.1248  0.0197 -0.0171
 1716SOL    HW116781   1.019   1.010  10.960 -0.8820  0.1595  2.4654
 1716SOL    HW216782   0.905   0.930  10.913 -1.3260  0.2983  1.1596
 1717SOL     OW16783   1.706   0.186   3.604  0.5116  0.4555 -0.1531
 1717SOL    HW116784   1.734   0.261   3.551  0.9301  0.5901  0.2551
 1717SOL    HW216785   1.739   0.114   3.550 -1.2486  0.3139 -1.0387
 1718SOL     OW16786   2.211   4.173  15.111 -0.9134 -0.2994 -0.8181
 1718SOL    HW116787   2.304   4.189  15.128 -1.1234  0.8608 -0.7602
 1718SOL    HW216788   2.207   4.091  15.161 -0.5284  0.1992  0.0194
 1719SOL     OW16789   0.944   2.102   6.035 -0.4101  0.0085 -0.5504
 1719SOL    HW116790   0.913   2.049   6.108  0.9236  1.1047  0.8019
 1719SOL    HW216791   0.877   2.170   6.027  1.6250  1.9612 -0.9546
 1720SOL     OW16792   1.633   0.310   2.516  0.4544 -0.2618 -0.0262
 1720SOL    HW116793   1.639   0.360   2.598 -1.3106 -1.2275  0.6631
 1720SOL    HW216794   1.588   0.230   2.542  1.2554 -0.4283  0.8439
 1721SOL     OW16795   0.902   1.021   7.738  0.5752  0.3378  0.0176
 1721SOL    HW116796   0.930   1.052   7.652  0.6084  0.6434  0.1357
 1721SOL    HW216797   0.857   0.942   7.710  0.4822  1.1089 -2.0322
 1722SOL     OW16798   0.275   1.328   1.670 -0.2071  0.1382  0.0518
 1722SOL    HW116799   0.257   1.320   1.577 -1.0398  2.8002 -0.0170
 1722SOL    HW216800   0.239   1.412   1.699  0.2121 -0.9820  3.8231
 1723SOL     OW16801   2.401   1.429  10.776 -0.1319  0.1982  0.2143
 1723SOL    HW116802   2.474   1.371  10.754 -0.0465  0.3691  0.0410
 1723SOL    HW216803   2.353   1.366  10.830 -0.4615 -0.4139 -0.7724
 1724SOL     OW16804   4.006   1.104   8.905 -0.5515 -0.0430 -0.0230
 1724SOL    HW116805   3.998   1.103   9.001 -2.8604 -1.8372 -0.2544
 1724SOL    HW216806   3.942   1.038   8.879 -0.3826  0.0979 -0.7883
 1725SOL     OW16807   4.524   3.216   9.096 -0.0977 -0.2181 -0.1477
 1725SOL    HW116808   4.471   3.254   9.026 -0.3436  1.4258  0.9456
 1725SOL    HW216809   4.475   3.248   9.171 -1.2001  1.1561 -1.4535
 1726SOL     OW16810   1.146   1.045   6.382  0.0830  0.2653 -0.3778
 1726SOL    HW116811   1.210   1.115   6.394  1.1612 -0.4720 -1.8231
 1726SOL    HW216812   1.194   0.991   6.319 -0.9243 -1.4556  0.3390
 1727SOL     OW16813   2.140   3.291   9.246  0.2850  0.1525 -0.1632
 1727SOL    HW116814   2.172   3.221   9.303 -0.2934 -0.5766 -0.7221
 1727SOL    HW216815   2.180   3.373   9.273 -0.6443 -0.0860  1.8997
 1728SOL     OW16816   0.702   1.804   3.076  0.2465 -0.8682 -0.0218
 1728SOL    HW116817   0.695   1.899   3.084 -1.5760 -0.8667 -1.5474
 1728SOL    HW216818   0.623   1.771   3.120 -0.1349 -0.3387 -0.3132
 1729SOL     OW16819   4.407   4.027   4.810  0.2994  0.0195  0.3550
 1729SOL    HW116820   4.316   4.010   4.785 -0.4471  5.5515 -0.7371
 1729SOL    HW216821   4.425   3.956   4.872  1.2825 -0.4127 -0.4288
 1730SOL     OW16822   1.966   4.233   2.969 -0.1067  0.2256  0.4257
 1730SOL    HW116823   1.907   4.302   3.000 -0.3011 -0.8317  2.4430
 1730SOL    HW216824   2.011   4.216   3.052 -0.6621 -2.4849  0.1425
 1731SOL     OW16825   0.160   3.075  16.850 -0.3620 -0.2033 -0.1563
 1731SOL    HW116826   0.251   3.103  16.847 -0.3085 -0.4468 -0.9264
 1731SOL    HW216827   0.122   3.153  16.890 -0.3062  0.0959 -0.6850
 1732SOL     OW16828   1.541   4.381   3.101  0.2075  0.3152  0.3979
 1732SOL    HW116829   1.516   4.382   3.009  0.3229 -0.3667  0.3607
 1732SOL    HW216830   1.460   4.353   3.143  0.2031  0.4991  0.5119
 1733SOL     OW16831   4.078   3.547  14.096  0.0297  0.0304 -0.2623
 1733SOL    HW116832   4.000   3.587  14.059  0.1583 -1.6471 -2.3421
 1733SOL    HW216833   4.153   3.601  14.070 -0.6164  0.7507 -0.6429
 1734SOL     OW16834   1.963   4.586  15.345  0.2408 -0.9322 -0.6531
 1734SOL    HW116835   1.951   4.678  15.320 -0.9331 -0.6634  0.8926
 1734SOL    HW216836   1.967   4.589  15.440  1.7810 -1.2855 -0.7099
 1735SOL     OW16837   2.825   1.106   3.326 -0.0699 -0.0896 -0.0290
 1735SOL    HW116838   2.845   1.199   3.331 -2.4861  0.3759  0.8530
 1735SOL    HW216839   2.863   1.088   3.240 -1.2265 -0.4422 -0.4619
 1736SOL     OW16840   4.228   0.888   3.366 -0.4679 -0.9310 -0.2247
 1736SOL    HW116841   4.290   0.888   3.439 -1.8328  0.1616  0.9315
 1736SOL    HW216842   4.209   0.981   3.356 -0.2606 -0.8630  0.0090
 1737SOL     OW16843   1.050   3.652   5.837  0.4903 -0.0911  0.0294
 1737SOL    HW116844   1.130   3.637   5.787  0.8446 -1.7144  1.1105
 1737SOL    HW216845   1.032   3.744   5.817 -2.3024 -0.1869  2.0263
 1738SOL     OW16846   3.039   0.257   1.227 -0.0803  0.3125  0.6764
 1738SOL    HW116847   2.957   0.243   1.180 -0.7010  1.8773  1.2878
 1738SOL    HW216848   3.035   0.349   1.255  0.9196  0.4965  0.2389
 1739SOL     OW16849   1.631   0.580   6.369 -0.0822 -0.2223  0.0278
 1739SOL    HW116850   1.573   0.514   6.332  0.2704  0.8429 -2.4104
 1739SOL    HW216851   1.578   0.659   6.371 -0.6889 -0.6525  1.1785
 1740SOL     OW16852   1.545   2.411   8.512  0.2564  0.0729 -0.3727
 1740SOL    HW116853   1.585   2.498   8.505  0.7384 -0.1424 -0.3150
 1740SOL    HW216854   1.486   2.415   8.437  0.0642  0.0504 -0.2220
 1741SOL     OW16855   1.242   3.423   7.631 -0.3362  0.6573  0.2559
 1741SOL    HW116856   1.206   3.368   7.701 -0.7500  1.2539  0.5069
 1741SOL    HW216857   1.295   3.356   7.588 -0.5365  2.1062 -2.2222
 1742SOL     OW16858   1.171   2.913   1.773  0.1451 -0.0955 -0.2115
 1742SOL    HW116859   1.108   2.846   1.800  0.5684  0.6497  2.7018
 1742SOL    HW216860   1.103   2.977   1.756  0.9801  0.4499 -1.4808
 1743SOL     OW16861   2.431   1.653   9.494 -0.2470  0.1072 -0.2261
 1743SOL    HW116862   2.483   1.639   9.573 -0.1561  0.7415 -0.1683
 1743SOL    HW216863   2.479   1.597   9.433  0.8363  0.3160  0.4247
 1744SOL     OW16864   0.385   3.466   5.233  0.4104  0.2956  1.3374
 1744SOL    HW116865   0.362   3.556   5.256  1.1047  1.5348 -2.9374
 1744SOL    HW216866   0.362   3.420   5.314  0.2719  2.3943  2.4969
 1745SOL     OW16867   0.431   4.556   1.681 -0.2736 -0.2410 -0.0283
 1745SOL    HW116868   0.344   4.596   1.672 -0.1113  0.0385 -0.3369
 1745SOL    HW216869   0.441   4.522   1.592 -1.2342 -0.9711  0.1355
 1746SOL     OW16870   0.471   2.263   7.086 -0.1702 -0.5776 -0.4204
 1746SOL    HW116871   0.382   2.231   7.104 -1.2102  1.6558 -1.6033
 1746SOL    HW216872   0.503   2.275   7.176 -0.5059  2.9149 -0.7560
 1747SOL     OW16873   0.881   4.291   1.713  0.1869  0.2727  0.5323
 1747SOL    HW116874   0.916   4.301   1.802 -2.1863 -1.0869  1.5967
 1747SOL    HW216875   0.789   4.289   1.738  0.2212  1.3565  0.7574
 1748SOL     OW16876   2.908   4.010   8.397  0.3148 -0.0652  0.4164
 1748SOL    HW116877   2.910   4.050   8.310  1.7638 -3.6235 -1.2147
 1748SOL    HW216878   2.976   4.071   8.427 -0.0347 -0.7255  2.5664
 1749SOL     OW16879   3.079   0.976   5.196 -0.0047 -0.2218 -0.4852
 1749SOL    HW116880   3.014   0.958   5.128  0.8106 -0.9254 -1.0793
 1749SOL    HW216881   3.095   1.069   5.183  1.0776 -0.1828  1.0828
 1750SOL     OW16882   4.628   0.540  16.920  0.1041  0.2807 -0.3187
 1750SOL    HW116883   4.704   0.587  16.955  1.0957 -1.7640  0.2791
 1750SOL    HW216884   4.567   0.537  16.993 -0.2538 -0.0536 -0.6273
 1751SOL     OW16885   0.484   3.981   9.142  0.1731  0.5415 -0.1293
 1751SOL    HW116886   0.493   4.012   9.052  0.2498  0.2743 -0.2129
 1751SOL    HW216887   0.492   3.886   9.137  1.0756  0.5106  2.0217
 1752SOL     OW16888   1.147   4.313   7.568 -0.2909 -0.0971 -0.6712
 1752SOL    HW116889   1.084   4.286   7.634 -0.1644 -1.9628 -1.2962
 1752SOL    HW216890   1.197   4.231   7.557 -1.3542 -1.1350  2.3614
 1753SOL     OW16891   3.737   1.798   7.527 -0.0446 -0.4619  0.0251
 1753SOL    HW116892   3.670   1.821   7.592 -1.2589 -1.4359 -0.8601
 1753SOL    HW216893   3.821   1.832   7.558 -0.7236 -0.5729  1.9986
 1754SOL     OW16894   2.009   4.205  15.354  0.1106 -0.4604 -0.2475
 1754SOL    HW116895   2.046   4.275  15.301  0.6230  0.2388  1.0273
 1754SOL    HW216896   1.917   4.183  15.338 -0.0510  0.3865 -0.4582
 1755SOL     OW16897   4.435   3.759  16.093  0.4713 -0.3376 -0.8894
 1755SOL    HW116898   4.485   3.678  16.098 -1.5946 -1.3606  2.8022
 1755SOL    HW216899   4.458   3.793  16.006 -2.7152 -0.4800 -1.8230
 1756SOL     OW16900   3.768   0.951   8.875  0.0995  0.2663  0.0114
 1756SOL    HW116901   3.781   0.883   8.809 -0.7016  0.9980 -0.9007
 1756SOL    HW216902   3.710   0.894   8.925 -0.6908  1.5076  0.4971
 1757SOL     OW16903   0.058   2.548   5.132  0.0168  0.4809  0.5421
 1757SOL    HW116904   0.054   2.498   5.050 -1.5647 -0.6202  1.3092
 1757SOL    HW216905   0.117   2.493   5.184  1.1545  0.9098 -0.2804
 1758SOL     OW16906   0.948   0.653   6.301  0.1550  0.0638  0.7989
 1758SOL    HW116907   0.996   0.586   6.349  0.9262  1.2049  1.6253
 1758SOL    HW216908   0.929   0.619   6.214 -1.2069  2.1681  0.2614
 1759SOL     OW16909   3.686   3.357   2.083  0.1007  0.8139  0.2620
 1759SOL    HW116910   3.731   3.343   2.000 -1.4713 -0.2456 -0.4182
 1759SOL    HW216911   3.753   3.336   2.147  0.8645 -1.3594 -1.2680
 1760SOL     OW16912   4.598   3.253   4.225  0.3371  0.6453 -0.0486
 1760SOL    HW116913   4.546   3.333   4.227  0.3175  0.6984 -2.7360
 1760SOL    HW216914   4.591   3.221   4.315  0.1381  1.7282  0.3199
 1761SOL     OW16915   3.315   4.579   4.370 -0.3342 -0.4452 -0.0094
 1761SOL    HW116916   3.286   4.627   4.292  2.0586 -0.3847 -0.8492
 1761SOL    HW216917   3.242   4.516   4.371 -2.3247  1.9900  4.4667
 1762SOL     OW16918   2.692   0.978   8.484 -0.6122  0.0266  0.3151
 1762SOL    HW116919   2.633   0.926   8.429 -3.8132  0.0105  3.7706
 1762SOL    HW216920   2.654   0.963   8.571 -0.0728  0.1372  0.5752
 1763SOL     OW16921   0.028   1.890   5.405  0.5243  0.5160  0.0097
 1763SOL    HW116922   0.086   1.816   5.387 -0.2435 -0.6881  2.5456
 1763SOL    HW216923   0.052   1.886   5.497  0.6920 -1.1471 -0.1127
 1764SOL     OW16924   3.421   0.676   7.635 -0.2608 -0.5656  0.3970
 1764SOL    HW116925   3.447   0.739   7.568 -0.0933  0.0585  1.0595
 1764SOL    HW216926   3.429   0.720   7.719 -2.3608  1.2241 -0.3327
 1765SOL     OW16927   2.065   3.099  12.911 -0.1599 -0.1782 -0.1917
 1765SOL    HW116928   1.994   3.088  12.848 -0.4331  2.5096 -0.3609
 1765SOL    HW216929   2.016   3.084  12.992  1.6245 -1.2734  0.6876
 1766SOL     OW16930   2.350   1.362   7.201  0.3598  0.1773  0.3307
 1766SOL    HW116931   2.434   1.361   7.247  1.5302  0.8539 -1.7903
 1766SOL    HW216932   2.285   1.389   7.266  1.7175  0.7277  1.4468
 1767SOL     OW16933   0.810   0.340   3.473 -0.4249 -0.1732 -0.3023
 1767SOL    HW116934   0.802   0.259   3.422 -0.3003  0.0855 -0.7348
 1767SOL    HW216935   0.759   0.390   3.410  0.0152  0.4798 -0.1417
 1768SOL     OW16936   3.650   0.842  11.866  0.0846  0.0896  0.2428
 1768SOL    HW116937   3.626   0.871  11.778 -1.1883 -0.0227  0.5518
 1768SOL    HW216938   3.728   0.893  11.886 -1.2998  1.6272  1.6804
 1769SOL     OW16939   1.031   4.197  14.013  0.5331 -0.0194 -0.4572
 1769SOL    HW116940   1.079   4.278  14.031 -0.1500  0.7374 -1.9556
 1769SOL    HW216941   1.004   4.162  14.097 -0.7391  0.0431 -0.8340
 1770SOL     OW16942   4.726   3.392   4.487  0.0980  0.3477  0.0453
 1770SOL    HW116943   0.056   3.458   4.471 -2.2253  2.6106 -0.6515
 1770SOL    HW216944   0.020   3.317   4.437 -1.4518  0.0287 -0.4547
 1771SOL     OW16945   1.862   3.340  16.669  0.2630  0.3072 -0.1222
 1771SOL    HW116946   1.806   3.263  16.680 -1.8965  1.7564 -0.9769
 1771SOL    HW216947   1.808   3.402  16.621 -0.1184  2.5204  3.1544
 1772SOL     OW16948   2.520   2.446   6.809 -0.3560 -0.6157 -0.7395
 1772SOL    HW116949   2.488   2.361   6.839  0.0420 -0.6947 -0.5377
 1772SOL    HW216950   2.558   2.412   6.729 -0.8542  0.2713 -1.3568
 1773SOL     OW16951   4.047   1.434   7.243 -0.4205 -0.7960  0.6577
 1773SOL    HW116952   4.061   1.517   7.288 -0.3570  0.1697 -1.1704
 1773SOL    HW216953   3.991   1.386   7.304 -1.9326  2.0175  1.4627
 1774SOL     OW16954   4.136   4.238   1.736  0.1198  0.3259  0.1150
 1774SOL    HW116955   4.123   4.200   1.649 -0.5735  2.4160 -0.7060
 1774SOL    HW216956   4.099   4.164   1.785  0.8275  1.6451  2.6447
 1775SOL     OW16957   4.316   4.338  16.276  0.2677 -0.8016 -0.5042
 1775SOL    HW116958   4.262   4.302  16.206  1.6554  0.2349 -2.0986
 1775SOL    HW216959   4.249   4.354  16.343  1.3461 -0.0177  0.3897
 1776SOL     OW16960   1.669   3.430  15.978  0.5964  0.2766 -0.2679
 1776SOL    HW116961   1.690   3.450  15.887 -3.0039 -0.2728 -1.2392
 1776SOL    HW216962   1.591   3.374  15.968  1.3053 -1.1611  2.1766
 1777SOL     OW16963   2.805   2.403  13.695 -0.2006  0.1326 -0.2084
 1777SOL    HW116964   2.888   2.439  13.663 -0.5876  0.7461 -0.5062
 1777SOL    HW216965   2.832   2.312  13.710  1.7435  0.7541  0.0752
 1778SOL     OW16966   0.825   1.381   6.779 -0.7011 -0.5479  0.0555
 1778SOL    HW116967   0.822   1.474   6.803  0.2955 -0.7569  0.9978
 1778SOL    HW216968   0.847   1.350   6.867  1.4930 -0.8326 -0.5921
 1779SOL     OW16969   4.526   4.307   6.178  0.4099  0.1671 -0.9558
 1779SOL    HW116970   4.478   4.224   6.176 -1.0807  1.0014  0.0440
 1779SOL    HW216971   4.479   4.327   6.259  1.8958 -0.8655  0.1669
 1780SOL     OW16972   3.390   0.168   2.988 -0.2470 -0.2660 -0.1019
 1780SOL    HW116973   3.301   0.203   2.987 -0.4426 -0.8128 -1.3929
 1780SOL    HW216974   3.396   0.150   3.082  1.4693 -0.1553 -0.1896
 1781SOL     OW16975   4.315   0.577  12.182 -0.2219 -0.1048 -0.1872
 1781SOL    HW116976   4.299   0.647  12.119 -0.0083  0.1837  0.0731
 1781SOL    HW216977   4.407   0.595  12.200  0.6588 -3.5089 -1.3753
 1782SOL     OW16978   4.557   2.231  15.868 -0.2647  0.2297 -0.0400
 1782SOL    HW116979   4.553   2.318  15.907  1.7696 -0.4816  1.7429
 1782SOL    HW216980   4.649   2.213  15.886  1.1195  4.1848 -3.1742
 1783SOL     OW16981   2.289   0.446  11.555  0.6300  0.4652  0.1729
 1783SOL    HW116982   2.284   0.537  11.526  1.7764 -0.0077 -1.5235
 1783SOL    HW216983   2.367   0.416  11.508  0.2610  0.6391 -0.5421
 1784SOL     OW16984   1.485   0.810   8.778 -0.3656 -0.2159 -0.6510
 1784SOL    HW116985   1.466   0.903   8.764 -2.1853 -0.0497  3.0661
 1784SOL    HW216986   1.578   0.812   8.799 -0.5298  1.3695 -0.0691
 1785SOL     OW16987   4.705   3.948   4.859 -0.0565  0.2472  0.0194
 1785SOL    HW116988   4.633   3.888   4.881 -0.6179  0.1556 -2.0595
 1785SOL    HW216989   4.657   4.003   4.797  1.2772 -0.9665 -2.1221
 1786SOL     OW16990   4.307   4.316   9.024 -0.5451  0.4879  0.5136
 1786SOL    HW116991   4.334   4.310   9.116  0.5150 -0.5511  0.1517
 1786SOL    HW216992   4.304   4.410   9.010  0.0933  0.3508 -0.5465
 1787SOL     OW16993   3.508   0.343   3.969  0.0032  0.6323 -0.2239
 1787SOL    HW116994   3.532   0.364   4.059  0.0992  0.6501 -0.2541
 1787SOL    HW216995   3.555   0.260   3.961  0.8635  1.1109 -0.1752
 1788SOL     OW16996   4.073   2.669   9.046  0.0891 -0.1368 -0.8585
 1788SOL    HW116997   4.149   2.612   9.035  1.9083  1.9400  1.0279
 1788SOL    HW216998   4.051   2.672   9.139  2.6067 -3.0576 -0.1748
 1789SOL     OW16999   2.412   1.068   9.956 -0.6299  0.2151  0.7911
 1789SOL    HW117000   2.348   1.004   9.987 -1.4432  0.8461  0.4104
 1789SOL    HW217001   2.423   1.114  10.040 -0.4588 -0.7371  1.2919
 1790SOL     OW17002   2.024   4.528   5.592  0.2869 -0.3892 -0.4876
 1790SOL    HW117003   2.095   4.464   5.598 -0.2899 -0.9543  0.4665
 1790SOL    HW217004   1.984   4.498   5.511 -0.5591 -0.2066 -0.1466
 1791SOL     OW17005   2.778   0.538  15.214  0.0255  0.1642 -0.1428
 1791SOL    HW117006   2.865   0.561  15.247 -0.4177 -1.2019  2.0107
 1791SOL    HW217007   2.761   0.467  15.276  1.1088 -0.3825 -0.4607
 1792SOL     OW17008   4.355   4.421   7.221  0.2912 -0.5932 -0.6365
 1792SOL    HW117009   4.295   4.423   7.147 -0.6329 -1.1019  0.0955
 1792SOL    HW217010   4.349   4.332   7.256 -0.6049 -0.8889 -1.5629
 1793SOL     OW17011   4.242   3.945   2.350  0.5852 -0.4311  0.8284
 1793SOL    HW117012   4.326   3.976   2.382  0.6634 -0.1498  0.3582
 1793SOL    HW217013   4.210   4.020   2.299 -0.1776 -2.9326 -2.4073
 1794SOL     OW17014   2.539   2.770   4.641 -0.2144  0.5768  0.0852
 1794SOL    HW117015   2.607   2.804   4.582  1.9878 -0.0726  2.2096
 1794SOL    HW217016   2.579   2.785   4.727 -0.4197 -0.5683  0.3768
 1795SOL     OW17017   0.216   1.069   2.411  0.6032  0.9148 -0.1977
 1795SOL    HW117018   0.222   1.021   2.329 -2.2008  0.3972 -0.0922
 1795SOL    HW217019   0.248   0.999   2.468 -1.9160  0.1541  0.2780
 1796SOL     OW17020   4.531   2.551   3.934 -0.7341  0.1538 -0.5393
 1796SOL    HW117021   4.504   2.525   4.022 -0.0664  1.0802 -0.0565
 1796SOL    HW217022   4.516   2.646   3.930  0.2773  0.3820  0.9188
 1797SOL     OW17023   1.889   3.870  12.520  0.4732 -0.3517  0.3274
 1797SOL    HW117024   1.803   3.833  12.537  0.8891 -0.0504  3.1264
 1797SOL    HW217025   1.894   3.896  12.429 -1.3807  0.0425  0.3497
 1798SOL     OW17026   0.464   1.681  14.834 -0.2703  0.1434 -0.0717
 1798SOL    HW117027   0.512   1.705  14.754 -1.9309  1.3280 -0.7315
 1798SOL    HW217028   0.460   1.586  14.821  0.6991 -0.0333  0.9622
 1799SOL     OW17029   3.976   4.064  15.155  0.3397  0.1245 -0.0398
 1799SOL    HW117030   3.897   4.056  15.100 -0.4792 -1.4630  1.3665
 1799SOL    HW217031   4.034   4.048  15.081 -0.1837 -0.4411 -0.3331
 1800SOL     OW17032   4.046   4.003   1.883  0.2903  0.1810 -0.1146
 1800SOL    HW117033   3.991   4.045   1.949 -1.8611  0.3209 -2.0051
 1800SOL    HW217034   4.095   3.940   1.937  0.8022  0.3596 -0.3764
 1801SOL     OW17035   1.732   1.027   0.599  0.0708  0.6848  0.6712
 1801SOL    HW117036   1.732   1.007   0.692  0.0398  1.4045  0.8272
 1801SOL    HW217037   1.825   1.036   0.582 -0.4862  0.2480 -2.7419
 1802SOL     OW17038   0.248   4.463   8.616 -0.5548 -0.6853 -0.3024
 1802SOL    HW117039   0.230   4.468   8.710 -0.1550 -0.1387 -0.2543
 1802SOL    HW217040   0.343   4.458   8.622 -0.4747  0.8765 -0.3308
 1803SOL     OW17041   0.806   4.263  10.733  0.0222 -0.1680 -0.6018
 1803SOL    HW117042   0.789   4.169  10.739  1.0984 -0.2843  0.7416
 1803SOL    HW217043   0.902   4.272  10.730 -0.2492  3.4342  1.8852
 1804SOL     OW17044   1.487   1.085  11.904 -0.8936  0.6742 -0.1587
 1804SOL    HW117045   1.440   1.113  11.983 -0.6214 -1.9762  0.9534
 1804SOL    HW217046   1.535   1.162  11.873 -1.1157 -0.1182 -2.4884
 1805SOL     OW17047   1.202   2.186   5.413 -0.5021 -0.0319  0.3975
 1805SOL    HW117048   1.251   2.217   5.337 -1.2640 -0.0551 -0.1037
 1805SOL    HW217049   1.269   2.178   5.480  0.0319  0.0551 -0.1341
 1806SOL     OW17050   3.002   0.576  11.614  0.9367  0.1853  0.1872
 1806SOL    HW117051   3.068   0.538  11.673  1.3734  1.2068  0.3588
 1806SOL    HW217052   2.964   0.648  11.666  0.1074 -0.4784  0.4976
 1807SOL     OW17053   4.181   3.301   9.285 -0.1643  0.0860 -0.0476
 1807SOL    HW117054   4.256   3.244   9.303  0.3757  0.6194 -0.5742
 1807SOL    HW217055   4.164   3.325   9.376  3.2760  0.1055  0.5948
 1808SOL     OW17056   0.837   4.398  15.534  0.2142 -0.3003 -0.1448
 1808SOL    HW117057   0.903   4.463  15.513 -2.2728  1.7542 -1.4807
 1808SOL    HW217058   0.899   4.328  15.556 -0.4328 -0.2029  2.0744
 1809SOL     OW17059   1.802   3.733   7.929 -0.3265  0.6156  0.2465
 1809SOL    HW117060   1.842   3.676   7.995 -0.4335  3.1788  2.5396
 1809SOL    HW217061   1.883   3.772   7.896  0.4543  0.4217  1.9162
 1810SOL     OW17062   4.087   1.207   4.864  0.5547  0.2465 -0.8899
 1810SOL    HW117063   4.019   1.209   4.796 -0.8666 -2.2238  0.4530
 1810SOL    HW217064   4.113   1.297   4.882  1.5877 -0.0240 -1.0553
 1811SOL     OW17065   4.650   3.386   4.001 -0.0203 -0.0423  0.3055
 1811SOL    HW117066   4.686   3.325   3.937  1.6904  0.8550  0.4252
 1811SOL    HW217067   4.642   3.323   4.074  1.8905  1.5562  1.8743
 1812SOL     OW17068   2.686   2.947  12.183  0.4130 -0.0596 -0.1443
 1812SOL    HW117069   2.698   2.987  12.097  0.8796  0.0695 -0.0172
 1812SOL    HW217070   2.601   2.984  12.208 -0.1395 -1.2343 -0.2939
 1813SOL     OW17071   0.607   3.471   7.364  0.2001 -0.3566 -0.2230
 1813SOL    HW117072   0.539   3.537   7.373  0.9174  0.3354  0.1111
 1813SOL    HW217073   0.678   3.503   7.419 -1.2828 -1.3996  2.2805
 1814SOL     OW17074   0.111   4.009   5.083  0.0020  0.0302 -0.4354
 1814SOL    HW117075   0.031   4.045   5.122 -0.6268 -2.2505  0.4023
 1814SOL    HW217076   0.066   3.968   5.010  1.0917  0.0192 -1.0944
 1815SOL     OW17077   0.593   0.691  10.037 -0.2031  0.6061  0.5879
 1815SOL    HW117078   0.500   0.698  10.057 -0.7714 -0.3342 -1.6826
 1815SOL    HW217079   0.631   0.747  10.105  1.1093 -0.8925  1.0901
 1816SOL     OW17080   0.006   1.238   7.274  0.0275 -0.5945  0.3040
 1816SOL    HW117081   0.027   1.147   7.296  1.9508  0.1597  1.6164
 1816SOL    HW217082   0.072   1.256   7.207 -0.9983 -0.4365 -0.6571
 1817SOL     OW17083   4.433   2.823   7.542 -0.5753 -0.0494  0.4137
 1817SOL    HW117084   4.349   2.810   7.586 -0.1448  0.8581  1.4911
 1817SOL    HW217085   4.440   2.751   7.478  2.7918  0.1700  0.5149
 1818SOL     OW17086   3.717   0.973  10.059 -0.5872 -0.2159 -0.0021
 1818SOL    HW117087   3.783   0.972  10.128  1.7562 -3.5060 -2.2677
 1818SOL    HW217088   3.633   0.980  10.103 -0.6457 -3.4907  0.3845
 1819SOL     OW17089   1.348   0.987   1.939 -0.1044 -0.2534  0.2082
 1819SOL    HW117090   1.380   0.908   1.983  0.3070 -0.1195  0.1529
 1819SOL    HW217091   1.344   0.964   1.847  1.5302 -0.4938  0.2054
 1820SOL     OW17092   2.238   1.442   0.081  0.2301  0.0235 -0.2179
 1820SOL    HW117093   2.242   1.402   0.167 -1.1172  1.1605  0.3740
 1820SOL    HW217094   2.297   1.518   0.090  1.4077 -0.9408  0.1844
 1821SOL     OW17095   1.964   1.850   0.044 -0.1937 -0.6499  0.4730
 1821SOL    HW117096   1.952   1.939   0.075 -2.0346 -0.8743  0.3711
 1821SOL    HW217097   1.902   1.809   0.104 -1.2727  0.2864 -0.0040
 1822SOL     OW17098   1.435   3.621  14.393  0.1868 -0.0322 -0.3459
 1822SOL    HW117099   1.441   3.583  14.306 -2.3070  0.3445 -0.6944
 1822SOL    HW217100   1.513   3.677  14.386 -0.8802  1.7000  1.5401
 1823SOL     OW17101   4.416   2.840   5.639 -0.1380  0.2316 -0.3209
 1823SOL    HW117102   4.455   2.879   5.717 -1.1419  0.4118  0.0821
 1823SOL    HW217103   4.490   2.814   5.584 -0.9249  0.1645 -1.3450
 1824SOL     OW17104   0.467   0.373  14.848  0.3816 -0.3152 -0.5698
 1824SOL    HW117105   0.396   0.341  14.904 -0.8763 -0.2146 -2.1106
 1824SOL    HW217106   0.480   0.462  14.880  2.1156 -0.5819 -0.5074
 1825SOL     OW17107   0.379   0.350   3.025  0.2944  1.0116  0.3070
 1825SOL    HW117108   0.349   0.441   3.027 -2.1377  0.2942 -2.0207
 1825SOL    HW217109   0.473   0.350   3.009  0.3784 -0.0735  0.8631
 1826SOL     OW17110   3.597   0.786   9.020  0.6287 -0.0380 -0.5551
 1826SOL    HW117111   3.504   0.765   9.030  0.5901 -0.4094 -1.7336
 1826SOL    HW217112   3.639   0.702   9.036 -1.3476 -1.5675 -3.3495
 1827SOL     OW17113   4.518   4.489  16.117 -0.0297 -0.0384 -0.1233
 1827SOL    HW117114   4.501   4.439  16.196  1.1947 -0.2187  0.0119
 1827SOL    HW217115   4.427   4.517  16.103 -0.3574 -1.1123 -0.1430
 1828SOL     OW17116   4.604   0.748   1.963  0.3320 -0.1308 -1.0377
 1828SOL    HW117117   4.600   0.693   1.885  0.3376 -0.1298 -1.0387
 1828SOL    HW217118   4.659   0.825   1.949  1.4092 -0.8745 -0.8935
 1829SOL     OW17119   4.397   3.430  10.894 -0.2051  0.0150 -0.4368
 1829SOL    HW117120   4.423   3.458  10.982 -1.3611 -1.1648  0.2754
 1829SOL    HW217121   4.357   3.511  10.862 -1.7509 -0.1881  1.0254
 1830SOL     OW17122   3.931   0.864   0.064 -0.1241 -0.2932 -0.2415
 1830SOL    HW117123   3.936   0.776   0.025 -0.5302 -0.5820  0.3583
 1830SOL    HW217124   4.009   0.901   0.023 -2.2856  1.8359 -2.4044
 1831SOL     OW17125   2.855   4.123   8.153 -0.1884  0.2198  0.1600
 1831SOL    HW117126   2.778   4.167   8.116  0.3782 -0.6837 -2.1277
 1831SOL    HW217127   2.924   4.187   8.135 -0.7875  0.9604  0.4700
 1832SOL     OW17128   3.729   0.789  12.340  0.6061 -0.0829 -0.3106
 1832SOL    HW117129   3.794   0.764  12.407 -0.6716  2.0471  1.7034
 1832SOL    HW217130   3.656   0.808  12.398  0.1118  1.3760 -1.4066
 1833SOL     OW17131   0.340   2.743   9.748 -0.1773  0.0510  0.5175
 1833SOL    HW117132   0.315   2.808   9.814 -1.4795  0.5567 -0.4909
 1833SOL    HW217133   0.281   2.671   9.772  0.1088 -1.1317 -2.3823
 1834SOL     OW17134   1.126   2.190   7.454 -0.3739 -0.2798  0.0950
 1834SOL    HW117135   1.192   2.236   7.401 -1.0634 -0.2581 -0.7482
 1834SOL    HW217136   1.177   2.126   7.504 -1.0625 -0.5252  0.4757
 1835SOL     OW17137   4.724   3.811  16.009  0.0068  0.2415  0.4145
 1835SOL    HW117138   0.077   3.836  16.025  0.1596 -1.3168  1.9704
 1835SOL    HW217139   4.714   3.757  16.087  0.9535 -1.5450 -0.7151
 1836SOL     OW17140   4.366   3.288   5.260  0.3576 -0.7990 -0.1215
 1836SOL    HW117141   4.395   3.228   5.327  0.3101  0.8008  1.3388
 1836SOL    HW217142   4.385   3.253   5.173  1.0925  0.8759 -0.6439
 1837SOL     OW17143   2.646   0.955   4.682  0.2192 -0.1633  0.1516
 1837SOL    HW117144   2.698   0.885   4.643  0.7350  0.8230 -0.9241
 1837SOL    HW217145   2.588   0.975   4.609  1.4143  2.8023  0.0385
 1838SOL     OW17146   0.509   1.631   7.330 -0.2918  0.1687  0.0904
 1838SOL    HW117147   0.418   1.661   7.332  0.4709  2.5585 -1.2555
 1838SOL    HW217148   0.530   1.646   7.422 -1.6956  0.1988  0.3993
 1839SOL     OW17149   2.844   3.745  12.359  0.0130  0.2078 -0.0422
 1839SOL    HW117150   2.918   3.691  12.334 -0.3486 -0.1198 -0.4051
 1839SOL    HW217151   2.807   3.684  12.423 -0.4857  0.1185 -0.4134
 1840SOL     OW17152   3.681   4.131   7.101 -0.4391  0.3565  0.4601
 1840SOL    HW117153   3.733   4.055   7.128 -1.6213 -0.3019  0.8611
 1840SOL    HW217154   3.734   4.176   7.034 -0.8806 -0.0615 -0.1714
 1841SOL     OW17155   0.214   0.503   8.356  0.4605  0.2773 -0.1625
 1841SOL    HW117156   0.288   0.448   8.331 -1.5452 -1.5831 -1.9677
 1841SOL    HW217157   0.268   0.569   8.399 -1.5858  1.2509  0.8848
 1842SOL     OW17158   1.819   3.943  16.207  1.0453 -0.2248 -0.4803
 1842SOL    HW117159   1.764   3.878  16.250  0.4107  0.6266 -0.0173
 1842SOL    HW217160   1.840   3.993  16.286 -0.5150 -0.5296  0.1196
 1843SOL     OW17161   2.518   2.470   5.106  0.1193  0.0558  0.0616
 1843SOL    HW117162   2.461   2.477   5.029  2.8094  2.1024 -1.7262
 1843SOL    HW217163   2.460   2.490   5.179  1.3617  1.1656  0.7406
 1844SOL     OW17164   2.566   2.070  11.364 -0.4889 -0.3427 -0.0922
 1844SOL    HW117165   2.471   2.072  11.347 -0.6054  1.3958  0.7129
 1844SOL    HW217166   2.602   2.017  11.293  0.3088 -0.0813  0.1233
 1845SOL     OW17167   2.845   2.499  14.575  0.2938 -0.0013 -0.2806
 1845SOL    HW117168   2.880   2.588  14.577 -1.7297  0.7739  0.4892
 1845SOL    HW217169   2.809   2.501  14.486  1.1423 -0.8905 -0.6478
 1846SOL     OW17170   1.691   2.672   5.680 -0.3057 -0.2527  0.5748
 1846SOL    HW117171   1.640   2.601   5.720  0.0072 -0.6777  0.2178
 1846SOL    HW217172   1.631   2.745   5.694  0.6032  0.8115 -1.0299
 1847SOL     OW17173   0.762   1.878   6.541  0.1855 -0.0041 -0.0421
 1847SOL    HW117174   0.697   1.885   6.470 -0.5046 -0.9926  0.4794
 1847SOL    HW217175   0.824   1.948   6.519 -0.7936  1.2227  1.1232
 1848SOL     OW17176   1.634   2.611   7.317 -0.4649  0.2100  0.2871
 1848SOL    HW117177   1.663   2.698   7.344  0.7520  0.0605 -0.5493
 1848SOL    HW217178   1.578   2.627   7.241  0.1840  0.3957 -0.1495
 1849SOL     OW17179   4.027   2.566   1.529  0.0843 -0.4661 -0.2740
 1849SOL    HW117180   4.025   2.473   1.507 -4.1083  0.1266 -2.4569
 1849SOL    HW217181   4.120   2.579   1.511  0.0288  0.5679  0.1850
 1850SOL     OW17182   2.048   4.263   9.300 -0.0847  0.5557  0.2766
 1850SOL    HW117183   2.142   4.247   9.299  0.0748  1.5186 -0.5634
 1850SOL    HW217184   2.006   4.182   9.327 -1.2985  1.1694  0.2233
 1851SOL     OW17185   2.301   4.575   1.360  0.6289  0.3116 -0.3042
 1851SOL    HW117186   2.281   4.605   1.271 -1.2010 -0.1165 -0.0451
 1851SOL    HW217187   2.224   4.518   1.367  1.7494 -1.3515 -1.5288
 1852SOL     OW17188   1.562   1.932   5.798 -0.5628 -0.1703 -0.0234
 1852SOL    HW117189   1.524   1.995   5.736  1.3405 -0.3251 -1.3234
 1852SOL    HW217190   1.481   1.888   5.826  1.0056 -1.0779  3.1193
 1853SOL     OW17191   3.294   3.736   5.555 -0.0796 -0.4212 -0.0809
 1853SOL    HW117192   3.291   3.732   5.460  0.7099 -0.3253 -0.1065
 1853SOL    HW217193   3.352   3.663   5.576 -0.9785 -1.2333 -0.4301
 1854SOL     OW17194   4.710   0.539   8.219  0.3055 -0.1932  0.4200
 1854SOL    HW117195   4.657   0.595   8.275 -0.5638 -1.6803  1.0694
 1854SOL    HW217196   0.047   0.525   8.279 -0.0098  0.3838  0.9397
 1855SOL     OW17197   0.969   1.227  14.630 -0.1315 -0.3109 -0.2942
 1855SOL    HW117198   0.952   1.133  14.632 -0.5834 -0.1922  1.5488
 1855SOL    HW217199   0.971   1.236  14.535  2.5172 -1.4285 -0.3407
 1856SOL     OW17200   0.987   3.868  16.518 -0.2304 -0.0640 -0.0802
 1856SOL    HW117201   1.043   3.918  16.577 -0.3467 -0.8061  0.6516
 1856SOL    HW217202   0.905   3.914  16.534  0.2225  0.1406  1.6397
 1857SOL     OW17203   0.509   2.768  15.532 -0.4056 -0.3735 -0.1251
 1857SOL    HW117204   0.495   2.791  15.440 -0.9683  1.6784  0.4663
 1857SOL    HW217205   0.476   2.854  15.559  0.3110 -0.4171  0.8875
 1858SOL     OW17206   3.505   2.817   3.777  0.2973  0.6557 -0.3718
 1858SOL    HW117207   3.557   2.898   3.777 -0.7595  1.3515  2.5272
 1858SOL    HW217208   3.525   2.799   3.869 -0.7060  1.9238  0.0984
 1859SOL     OW17209   1.472   0.998   3.655  0.6000 -0.0040 -0.0226
 1859SOL    HW117210   1.409   1.030   3.720  1.5790  1.8921 -0.0085
 1859SOL    HW217211   1.443   1.035   3.572  0.6003 -1.4957 -0.6897
 1860SOL     OW17212   0.845   3.895   8.225  0.1041  0.4230 -0.0259
 1860SOL    HW117213   0.793   3.815   8.238  0.9022 -0.1415 -0.3098
 1860SOL    HW217214   0.813   3.959   8.289  1.4694  0.1782  0.9059
 1861SOL     OW17215   2.440   3.154  13.831  0.3108  0.2719  0.9293
 1861SOL    HW117216   2.398   3.208  13.764  1.4577 -0.2807 -0.2285
 1861SOL    HW217217   2.377   3.169  13.902  0.4390  4.6301  0.1351
 1862SOL     OW17218   3.120   4.522   5.564 -0.1314  0.8788 -0.5785
 1862SOL    HW117219   3.043   4.553   5.516 -2.0047  0.7984  2.3596
 1862SOL    HW217220   3.190   4.514   5.499  0.7315 -0.0453  0.4689
 1863SOL     OW17221   1.602   1.212   6.650 -0.6441  0.6377  0.4882
 1863SOL    HW117222   1.615   1.305   6.670 -0.1994  0.9213 -1.1566
 1863SOL    HW217223   1.679   1.194   6.597 -0.4513  0.8509  0.6941
 1864SOL     OW17224   2.263   0.345   8.247  0.2319  0.0190  0.4189
 1864SOL    HW117225   2.335   0.407   8.229 -0.9027  1.6047  1.3613
 1864SOL    HW217226   2.192   0.409   8.250 -0.6660 -1.0087  1.1219
 1865SOL     OW17227   2.031   2.026  12.213  0.1416 -1.0536 -0.3228
 1865SOL    HW117228   2.044   1.957  12.278  2.2954  0.0631  0.4448
 1865SOL    HW217229   2.122   2.055  12.203  0.0447 -0.7202 -0.2316
 1866SOL     OW17230   4.689   0.020   7.370  0.0964  0.3003  0.0553
 1866SOL    HW117231   4.619   4.694   7.354  0.1530  0.7157 -1.8444
 1866SOL    HW217232   0.026   4.710   7.332  0.2647  0.3685  0.3053
 1867SOL     OW17233   3.291   1.441   3.758  0.2335 -0.2853  0.0402
 1867SOL    HW117234   3.351   1.514   3.743 -0.4533  0.4962  1.1164
 1867SOL    HW217235   3.212   1.487   3.786  0.4987  0.8884 -1.1065
 1868SOL     OW17236   0.865   3.737   1.861 -0.4260 -0.0727  0.6078
 1868SOL    HW117237   0.881   3.732   1.955 -3.5131 -1.2453  1.0783
 1868SOL    HW217238   0.889   3.828   1.842  0.4648 -0.5720 -0.7101
 1869SOL     OW17239   2.404   3.744   4.984 -0.3671  0.1120 -0.0655
 1869SOL    HW117240   2.483   3.698   5.012 -1.5534 -0.4673  2.3232
 1869SOL    HW217241   2.352   3.672   4.948 -2.3033  0.2191  2.4720
 1870SOL     OW17242   0.637   1.081  12.526 -0.1621 -0.4727 -0.1454
 1870SOL    HW117243   0.703   1.061  12.460  1.0359 -0.4648  1.0457
 1870SOL    HW217244   0.565   1.103  12.468 -1.3439  1.1235  1.9208
 1871SOL     OW17245   4.308   1.576   3.371 -0.0270  0.0052 -0.3129
 1871SOL    HW117246   4.256   1.556   3.292 -2.7329  1.6852  1.0449
 1871SOL    HW217247   4.249   1.634   3.418  0.7026  0.5708 -0.1087
 1872SOL     OW17248   4.416   4.563   8.583  0.2651  0.7617  0.2101
 1872SOL    HW117249   4.496   4.546   8.632  0.0117  1.6636  0.9322
 1872SOL    HW217250   4.383   4.476   8.560 -2.1650  1.4427  1.0628
 1873SOL     OW17251   2.001   1.797   2.916  0.6111  0.6347 -0.5145
 1873SOL    HW117252   1.913   1.822   2.889 -0.1627  0.2531  1.6222
 1873SOL    HW217253   1.981   1.729   2.980  0.4589  1.0814 -0.0857
 1874SOL     OW17254   3.699   0.450   6.660  0.4376 -0.0220 -0.0421
 1874SOL    HW117255   3.790   0.428   6.680 -0.5985 -1.9162  2.6176
 1874SOL    HW217256   3.708   0.522   6.598  0.8877 -0.2036 -0.1898
 1875SOL     OW17257   1.678   0.003   5.054 -0.4703  0.3232  0.1347
 1875SOL    HW117258   1.713   4.681   4.987 -0.5701  0.5844 -0.1512
 1875SOL    HW217259   1.724   0.084   5.032  0.3582 -0.4210 -0.8927
 1876SOL     OW17260   2.714   3.738  10.835 -0.3451  0.1603 -0.2243
 1876SOL    HW117261   2.771   3.665  10.813 -1.3183 -0.2312 -1.4553
 1876SOL    HW217262   2.769   3.814  10.817  0.7353 -1.0983 -2.2301
 1877SOL     OW17263   0.336   2.789   9.482 -0.0101 -0.4264 -0.3252
 1877SOL    HW117264   0.338   2.780   9.578  0.7079 -0.6117 -0.3563
 1877SOL    HW217265   0.421   2.753   9.459 -0.4223 -0.9774 -0.9531
 1878SOL     OW17266   3.032   2.831   2.775  0.5997  0.1895 -0.2604
 1878SOL    HW117267   3.075   2.878   2.704  0.4164 -0.1604 -0.6081
 1878SOL    HW217268   2.940   2.856   2.762  1.6105  3.2515 -1.4100
 1879SOL     OW17269   2.050   2.472   5.810 -0.6430  0.5017 -0.4282
 1879SOL    HW117270   2.036   2.394   5.755 -3.1215  1.0710 -0.5794
 1879SOL    HW217271   1.999   2.444   5.886 -1.0366  0.8316 -0.5736
 1880SOL     OW17272   3.853   1.069   7.452  0.4959 -0.2521  0.0786
 1880SOL    HW117273   3.889   0.991   7.496 -1.3982 -0.7355  0.7887
 1880SOL    HW217274   3.869   1.043   7.361 -0.0568  0.9916 -0.3722
 1881SOL     OW17275   4.675   3.785   4.560 -0.2839 -0.5774 -0.0878
 1881SOL    HW117276   0.029   3.796   4.584 -0.3387  1.4830 -0.8031
 1881SOL    HW217277   4.639   3.874   4.551 -0.4477 -0.3124  3.1885
 1882SOL     OW17278   3.203   3.914   1.914  0.3001  0.1287  0.2604
 1882SOL    HW117279   3.298   3.922   1.908  0.2178  2.2828  1.7857
 1882SOL    HW217280   3.192   3.854   1.988 -1.4279 -0.2690 -0.2998
 1883SOL     OW17281   0.684   4.099   1.455  0.0752 -0.3977  0.0141
 1883SOL    HW117282   0.620   4.077   1.388 -0.0137 -0.5510  0.1496
 1883SOL    HW217283   0.619   4.100   1.526 -1.3919  2.1322 -1.3987
 1884SOL     OW17284   2.922   0.134   7.921  0.1746  0.4560  0.2057
 1884SOL    HW117285   3.014   0.147   7.900 -0.1511  0.6991 -1.1134
 1884SOL    HW217286   2.884   0.144   7.833  0.3215 -0.7028  0.0106
 1885SOL     OW17287   2.863   0.905   1.285 -0.0076  0.3377  0.0240
 1885SOL    HW117288   2.886   0.935   1.197 -1.1414  1.3438  0.0609
 1885SOL    HW217289   2.769   0.924   1.293 -0.4987 -2.6576  1.5093
 1886SOL     OW17290   0.130   2.765   1.570 -0.0881  0.1296 -0.7072
 1886SOL    HW117291   0.123   2.670   1.570 -0.4608  0.1578  2.3251
 1886SOL    HW217292   0.041   2.794   1.592 -0.2361 -0.9948  0.2057
 1887SOL     OW17293   0.732   1.851   8.211  0.3763  0.6689 -0.0211
 1887SOL    HW117294   0.675   1.775   8.222  0.6783  0.3980 -0.3232
 1887SOL    HW217295   0.691   1.910   8.275 -0.5698  0.4628 -0.4355
 1888SOL     OW17296   4.143   1.796   6.760  0.1087 -0.0508  0.2431
 1888SOL    HW117297   4.238   1.795   6.745 -0.0312 -2.5328 -0.4576
 1888SOL    HW217298   4.115   1.806   6.669  1.3023  0.6323 -0.0576
 1889SOL     OW17299   1.842   1.549   5.236  0.4541  0.1054  0.3053
 1889SOL    HW117300   1.918   1.569   5.291 -0.2719  3.0632  0.2189
 1889SOL    HW217301   1.809   1.635   5.211  0.4819  0.2038  0.6034
 1890SOL     OW17302   2.169   1.504   8.692 -0.0891  0.0939 -0.0302
 1890SOL    HW117303   2.258   1.523   8.664  0.4028  1.3033  2.3536
 1890SOL    HW217304   2.186   1.477   8.782  2.0652 -1.0107 -0.7794
 1891SOL     OW17305   1.200   1.119  10.703 -0.4339  0.0331  0.5791
 1891SOL    HW117306   1.131   1.155  10.648 -0.5574  0.1208  0.7885
 1891SOL    HW217307   1.228   1.202  10.743 -0.0920  0.0036  0.4032
 1892SOL     OW17308   0.505   2.199  13.667 -0.1757  0.1297  0.1339
 1892SOL    HW117309   0.570   2.147  13.619 -1.2844 -0.0737 -1.1463
 1892SOL    HW217310   0.463   2.252  13.599  1.2608  0.9936 -0.0820
 1893SOL     OW17311   1.530   4.515  13.428 -0.4811 -0.1312  0.3850
 1893SOL    HW117312   1.546   4.601  13.388 -0.4217 -0.1830  0.2978
 1893SOL    HW217313   1.457   4.480  13.377  1.1704 -0.0923 -2.0153
 1894SOL     OW17314   3.600   4.376   2.385 -0.6962  0.7422  0.5721
 1894SOL    HW117315   3.614   4.373   2.291  0.0318 -0.9977  0.7209
 1894SOL    HW217316   3.677   4.426   2.410 -0.0812  0.4810 -0.8237
 1895SOL     OW17317   1.635   3.377  14.613  0.2035 -0.0270  0.2461
 1895SOL    HW117318   1.635   3.377  14.708  2.1803  0.6477  0.2514
 1895SOL    HW217319   1.728   3.388  14.594  0.1387 -1.3900 -0.9195
 1896SOL     OW17320   1.999   2.055   3.329  0.5521 -0.4101 -0.3130
 1896SOL    HW117321   2.079   2.037   3.279  0.7408  1.5721 -0.7180
 1896SOL    HW217322   2.010   1.997   3.405 -0.3114 -0.2610 -0.0754
 1897SOL     OW17323   0.932   2.109   8.276 -0.3157 -0.1543  0.9715
 1897SOL    HW117324   0.975   2.188   8.245 -1.0999  1.1107  3.1016
 1897SOL    HW217325   0.903   2.068   8.195 -0.8553  0.1388  1.0189
 1898SOL     OW17326   2.211   3.040   7.498 -0.2459  0.1226 -0.4170
 1898SOL    HW117327   2.128   3.068   7.538  0.6468  0.8695  0.9470
 1898SOL    HW217328   2.238   3.119   7.452 -1.7404  1.1654  0.4993
 1899SOL     OW17329   0.448   3.917   8.499  0.1577 -0.6674 -0.1614
 1899SOL    HW117330   0.358   3.899   8.470 -0.1737 -2.3020  1.9584
 1899SOL    HW217331   0.450   3.874   8.584 -3.2215  0.6181  0.5911
 1900SOL     OW17332   4.650   3.987   3.021  1.0153 -0.5815  0.0990
 1900SOL    HW117333   4.669   4.041   3.097  1.5181 -0.9287  0.2191
 1900SOL    HW217334   4.701   3.917   3.062  1.8141  0.5133  0.9761
 1901SOL     OW17335   0.186   0.823  12.055  0.2035  0.3671  0.2027
 1901SOL    HW117336   0.136   0.759  12.106 -0.6491  1.6564  0.9758
 1901SOL    HW217337   0.185   0.774  11.973 -2.1838 -0.9483  1.0118
 1902SOL     OW17338   3.960   1.575   4.645 -0.4600 -0.1318  0.2063
 1902SOL    HW117339   3.946   1.670   4.638 -2.8479 -0.4026  1.3930
 1902SOL    HW217340   3.952   1.561   4.739  0.7598 -0.2499  0.2911
 1903SOL     OW17341   3.357   3.998  13.443 -0.8205  0.1162  0.3262
 1903SOL    HW117342   3.419   3.996  13.515 -0.4432  0.1165  0.0002
 1903SOL    HW217343   3.409   3.985  13.363 -2.5717 -0.6638 -0.7047
 1904SOL     OW17344   3.130   2.928   5.939 -0.4116  0.2955 -0.6854
 1904SOL    HW117345   3.223   2.937   5.958 -0.3724  1.6050 -1.4742
 1904SOL    HW217346   3.128   2.833   5.931 -0.2453  0.0582  2.2067
 1905SOL     OW17347   1.741   1.569   4.048 -0.2832  0.0192 -0.1090
 1905SOL    HW117348   1.795   1.643   4.078  1.1200 -1.1227  0.1722
 1905SOL    HW217349   1.678   1.615   3.991 -0.6031 -2.0018 -1.3895
 1906SOL     OW17350   1.685   0.036  12.427  0.2321  0.0828  0.4539
 1906SOL    HW117351   1.781   0.028  12.422  0.2260 -0.9131  1.8794
 1906SOL    HW217352   1.657   0.020  12.337 -0.7639  0.3750  0.7133
 1907SOL     OW17353   3.184   1.092   8.967 -0.5284  0.2588 -0.2160
 1907SOL    HW117354   3.266   1.135   8.940  0.4031 -1.5719 -0.3275
 1907SOL    HW217355   3.206   1.028   9.035 -0.7703 -1.2192 -1.5325
 1908SOL     OW17356   1.805   3.280  10.245 -0.1421  0.2657 -0.0597
 1908SOL    HW117357   1.825   3.208  10.304  1.2559  0.2878 -0.4946
 1908SOL    HW217358   1.751   3.242  10.175 -0.3260  2.1575 -0.9632
 1909SOL     OW17359   1.132   1.619   4.319  0.7220  0.4424 -0.1105
 1909SOL    HW117360   1.134   1.666   4.236 -1.6763  0.8636  0.0734
 1909SOL    HW217361   1.044   1.637   4.352  0.8586 -1.2598  1.1664
 1910SOL     OW17362   3.008   0.453   6.625 -0.5496  0.2340  0.3725
 1910SOL    HW117363   2.928   0.403   6.638 -1.4321  1.4874 -0.2354
 1910SOL    HW217364   3.053   0.391   6.569 -0.1071  1.4366 -0.6087
 1911SOL     OW17365   3.921   0.293   2.795  1.4243  0.4162 -0.5456
 1911SOL    HW117366   3.945   0.326   2.709 -1.7219  1.3682 -1.0832
 1911SOL    HW217367   3.987   0.341   2.844  1.6416 -1.3910  0.9751
 1912SOL     OW17368   0.276   3.431   7.358  0.3511  0.2106 -0.4277
 1912SOL    HW117369   0.330   3.505   7.383  4.5007 -2.5770 -1.0709
 1912SOL    HW217370   0.201   3.433   7.417  1.3105  0.2021  0.7898
 1913SOL     OW17371   3.917   0.250   2.362 -0.2963  0.6693  0.0792
 1913SOL    HW117372   3.922   0.340   2.395  4.3535  0.6192 -0.5779
 1913SOL    HW217373   3.829   0.230   2.395  1.1719 -0.4987  3.2453
 1914SOL     OW17374   0.931   0.068   3.972 -0.5744  0.3396  0.2298
 1914SOL    HW117375   0.999   0.126   3.936 -1.9469  0.3850 -2.3045
 1914SOL    HW217376   0.989   0.009   4.021 -0.6117 -0.4615 -0.6812
 1915SOL     OW17377   0.344   1.105   0.075 -0.5194  0.7912 -0.4999
 1915SOL    HW117378   0.264   1.055   0.061  0.0213  0.3289 -1.8307
 1915SOL    HW217379   0.322   1.166   0.146 -0.6687 -0.4746  0.5425
 1916SOL     OW17380   1.873   3.366   5.830 -0.2697 -0.1643  0.2054
 1916SOL    HW117381   1.837   3.279   5.809  0.2574 -0.3931  0.2521
 1916SOL    HW217382   1.809   3.403   5.891 -0.6474  0.5657 -0.6235
 1917SOL     OW17383   4.032   1.986   9.469 -0.0294 -0.0312 -0.0145
 1917SOL    HW117384   3.970   2.035   9.416  0.2814 -1.2840 -1.5259
 1917SOL    HW217385   3.973   1.946   9.533  0.4206 -0.3626  0.2003
 1918SOL     OW17386   2.464   1.130   5.103  0.9227 -0.3838 -0.4483
 1918SOL    HW117387   2.519   1.130   5.024  0.6424 -0.2134 -0.6449
 1918SOL    HW217388   2.516   1.167   5.174 -0.6023 -1.8376  1.4355
 1919SOL     OW17389   2.435   4.291   6.281  0.2076 -0.3299  0.2219
 1919SOL    HW117390   2.505   4.293   6.345 -0.2877 -0.8269  0.7831
 1919SOL    HW217391   2.462   4.370   6.234 -3.4082  0.9947  0.3266
 1920SOL     OW17392   0.391   1.107   1.490  0.0420  0.1039 -0.1352
 1920SOL    HW117393   0.463   1.068   1.440 -0.0951 -1.0716  0.5851
 1920SOL    HW217394   0.377   1.197   1.461 -0.5202 -0.3580 -1.2714
 1921SOL     OW17395   2.042   3.809   2.809 -0.4004 -0.1179 -0.4613
 1921SOL    HW117396   1.960   3.765   2.832 -0.8428  1.7811  1.5309
 1921SOL    HW217397   2.077   3.821   2.897 -2.0602  2.6521 -0.1533
 1922SOL     OW17398   2.732   0.892   5.320 -0.1158 -0.0582  0.1048
 1922SOL    HW117399   2.741   0.970   5.265  2.2210  0.4374  1.1942
 1922SOL    HW217400   2.638   0.898   5.331 -0.0435 -0.3164  0.8306
 1923SOL     OW17401   2.130   4.412   7.608 -0.0345 -0.0435  0.1855
 1923SOL    HW117402   2.105   4.352   7.537  3.1712 -0.7741 -0.3131
 1923SOL    HW217403   2.199   4.469   7.575  0.7993 -1.5966 -0.7522
 1924SOL     OW17404   3.282   2.092  12.738  0.2369  0.2482 -0.4114
 1924SOL    HW117405   3.342   2.018  12.750 -0.8545 -0.2803  1.6828
 1924SOL    HW217406   3.313   2.135  12.658 -1.0668  1.8051 -0.0652
 1925SOL     OW17407   1.732   0.868   6.630 -1.0476  0.2337 -0.4931
 1925SOL    HW117408   1.702   0.785   6.666 -1.9312  1.2022  1.0068
 1925SOL    HW217409   1.701   0.873   6.539  2.2825  0.4905 -1.6188
 1926SOL     OW17410   0.176   2.627   2.509  0.0371 -0.2743  0.0838
 1926SOL    HW117411   0.238   2.683   2.462 -0.3902  0.1301  0.0016
 1926SOL    HW217412   0.215   2.540   2.506  0.8976  0.1498 -1.0618
 1927SOL     OW17413   4.573   1.720   7.821  0.4263 -0.0660 -0.4948
 1927SOL    HW117414   4.511   1.732   7.893  0.9552 -1.3664  0.1834
 1927SOL    HW217415   4.530   1.648   7.774 -0.4074  1.6994 -2.4739
 1928SOL     OW17416   4.343   2.665   9.378 -0.4829 -0.1141 -0.1458
 1928SOL    HW117417   4.404   2.701   9.313 -0.0109  0.0466  0.3888
 1928SOL    HW217418   4.404   2.640   9.447 -1.6726  0.5240  1.1403
 1929SOL     OW17419   3.263   4.162   7.231  0.4054  0.5705  0.6521
 1929SOL    HW117420   3.304   4.112   7.301  0.6533  2.4085  1.8067
 1929SOL    HW217421   3.179   4.179   7.274 -0.7063 -0.4661 -1.1098
 1930SOL     OW17422   4.704   0.610  11.741 -0.3874 -0.1490  0.6238
 1930SOL    HW117423   4.666   0.649  11.820  0.4173 -4.2728  3.0920
 1930SOL    HW217424   4.684   0.677  11.677 -1.3175  0.1290  1.1985
 1931SOL     OW17425   0.168   2.707   2.936  0.7352 -0.5833  0.2365
 1931SOL    HW117426   0.243   2.652   2.915  1.9132  0.3419  2.0155
 1931SOL    HW217427   0.197   2.755   3.014  0.9032  0.2293 -0.3289
 1932SOL     OW17428   2.050   1.444   6.798  0.5320  0.4893 -0.3397
 1932SOL    HW117429   2.023   1.525   6.842  1.6391  0.8124 -0.2466
 1932SOL    HW217430   2.072   1.482   6.713  1.1840  3.7411  1.2779
 1933SOL     OW17431   2.746   4.222   3.051 -0.1862 -0.2020 -0.2607
 1933SOL    HW117432   2.661   4.260   3.073 -0.1750 -0.4879  0.2579
 1933SOL    HW217433   2.798   4.301   3.035  1.5932 -1.5459 -1.0852
 1934SOL     OW17434   1.146   2.560   4.796  0.3644  0.0090  0.4366
 1934SOL    HW117435   1.202   2.608   4.857 -0.7774 -0.1184  1.5681
 1934SOL    HW217436   1.187   2.592   4.715 -0.1568 -0.3074  0.0459
 1935SOL     OW17437   3.071   2.052   4.083 -0.5199  0.1836  0.2065
 1935SOL    HW117438   3.029   2.132   4.054 -0.0314  0.4161  0.1376
 1935SOL    HW217439   3.165   2.072   4.087 -0.0822 -2.0402  1.7967
 1936SOL     OW17440   3.610   2.429  16.780 -0.2368  0.1464  0.0739
 1936SOL    HW117441   3.530   2.377  16.774 -0.3759  0.6687 -2.4768
 1936SOL    HW217442   3.667   2.363  16.740 -0.3277 -0.5699  1.1221
 1937SOL     OW17443   4.119   3.372   2.449 -0.3201 -0.3948  0.5023
 1937SOL    HW117444   4.166   3.289   2.437  0.7788  0.2905 -0.0244
 1937SOL    HW217445   4.185   3.432   2.414 -2.5535  0.4280 -2.2482
 1938SOL     OW17446   2.363   2.411   4.826 -0.2126  0.2567  0.0790
 1938SOL    HW117447   2.329   2.322   4.840  0.3716  0.2026  1.0879
 1938SOL    HW217448   2.280   2.457   4.811  0.8595  2.4476  0.9972
 1939SOL     OW17449   2.253   3.260  12.983 -0.1531  0.2629 -0.1664
 1939SOL    HW117450   2.276   3.228  13.070 -0.9573 -0.4158 -0.2030
 1939SOL    HW217451   2.187   3.199  12.949 -0.6006 -1.8368  4.4423
 1940SOL     OW17452   4.330   4.547   6.259 -0.1134  0.4997  0.0899
 1940SOL    HW117453   4.314   4.629   6.305  2.2903  1.0785 -0.1094
 1940SOL    HW217454   4.327   4.476   6.323 -0.9029  0.7271  0.3021
 1941SOL     OW17455   4.293   3.622   5.568 -0.4781 -0.0282 -0.0600
 1941SOL    HW117456   4.306   3.613   5.473 -1.2295  0.3986 -0.2085
 1941SOL    HW217457   4.207   3.663   5.562 -0.1296  0.5389 -1.1856
 1942SOL     OW17458   2.688   0.512   5.763 -0.5210  0.9773  0.2157
 1942SOL    HW117459   2.737   0.566   5.701 -1.0392  0.8703 -0.2748
 1942SOL    HW217460   2.698   0.560   5.846  1.7277 -2.5553  2.0183
 1943SOL     OW17461   4.330   0.228   1.131 -0.0582 -0.0248 -0.2476
 1943SOL    HW117462   4.316   0.156   1.070  0.3384 -1.0911  0.9374
 1943SOL    HW217463   4.419   0.204   1.156  0.2259  1.2811  0.0084
 1944SOL     OW17464   1.946   1.839   7.889  0.1309 -0.2411 -0.3013
 1944SOL    HW117465   2.024   1.817   7.839  2.3233  0.5724  2.7427
 1944SOL    HW217466   1.879   1.856   7.823  0.2643 -2.3784 -0.9809
 1945SOL     OW17467   1.129   0.404   7.236  0.9386 -0.9265  0.3609
 1945SOL    HW117468   1.044   0.361   7.242  0.2080  0.5096  0.3383
 1945SOL    HW217469   1.119   0.458   7.157  2.0144 -1.4918 -0.1593
 1946SOL     OW17470   2.729   4.270   8.418 -0.3438  0.0602 -0.1408
 1946SOL    HW117471   2.775   4.233   8.494  1.1540 -1.0986 -1.6067
 1946SOL    HW217472   2.799   4.317   8.373 -0.5556  0.4483 -0.0629
 1947SOL     OW17473   3.376   2.406  12.078  0.2776 -0.2149 -0.3976
 1947SOL    HW117474   3.383   2.343  12.150  0.9892 -1.8862 -1.9474
 1947SOL    HW217475   3.394   2.485  12.130 -0.3022  0.0269 -0.5630
 1948SOL     OW17476   3.611   3.395   8.962  0.6212 -0.0004  0.3565
 1948SOL    HW117477   3.666   3.331   8.916 -1.8859 -1.6701 -0.3764
 1948SOL    HW217478   3.546   3.341   9.007  0.0709  0.3540 -0.0133
 1949SOL     OW17479   0.835   2.701   2.903 -0.1283 -0.5164 -0.0982
 1949SOL    HW117480   0.863   2.610   2.890 -1.2105 -0.9045  0.2826
 1949SOL    HW217481   0.740   2.699   2.888 -0.4670 -0.2744  2.0583
 1950SOL     OW17482   0.057   3.220   3.827  0.4662  0.0356  0.0351
 1950SOL    HW117483   0.082   3.134   3.861 -0.7616 -0.0043  0.8432
 1950SOL    HW217484   4.708   3.200   3.791 -0.3547  2.6191  0.5973
 1951SOL     OW17485   3.880   3.667  12.736 -0.2367 -0.1377  0.1572
 1951SOL    HW117486   3.859   3.674  12.643 -0.6189 -0.9280  0.1802
 1951SOL    HW217487   3.902   3.753  12.771  0.0974 -0.2504  0.2226
 1952SOL     OW17488   1.152   1.800   1.633 -0.1670 -0.0625 -0.4216
 1952SOL    HW117489   1.159   1.705   1.622 -2.9493 -0.3558  0.1881
 1952SOL    HW217490   1.213   1.830   1.566  0.9568  1.9637  1.4677
 1953SOL     OW17491   0.436   3.019   6.832 -0.3726  0.4277  0.1874
 1953SOL    HW117492   0.369   3.002   6.899  1.4876  0.1894  1.9888
 1953SOL    HW217493   0.406   3.101   6.794 -0.2845  0.0191 -0.7492
 1954SOL     OW17494   3.334   1.668   1.126 -0.0607  0.5120  0.4047
 1954SOL    HW117495   3.360   1.752   1.166  2.7338 -0.1859  0.0860
 1954SOL    HW217496   3.253   1.646   1.172 -0.2936  0.4421 -0.0368
 1955SOL     OW17497   1.093   1.928   5.379  0.6683  0.2090 -0.2962
 1955SOL    HW117498   1.016   1.921   5.322  0.3977  0.6901  0.0011
 1955SOL    HW217499   1.092   2.023   5.392 -2.2255  0.1749 -0.1119
 1956SOL     OW17500   2.950   1.908  11.725  0.1557 -0.2105  0.1029
 1956SOL    HW117501   2.984   1.893  11.636 -1.2229  2.3432 -0.8192
 1956SOL    HW217502   2.892   1.983  11.714 -1.7363 -1.3025  2.5778
 1957SOL     OW17503   0.055   4.325   3.108 -0.1550  0.0337  0.1068
 1957SOL    HW117504   0.003   4.402   3.084 -0.1850  0.1922  0.6952
 1957SOL    HW217505   0.108   4.324   3.028 -0.4414  2.9322 -0.1168
 1958SOL     OW17506   1.967   3.459  10.160  0.2003  0.0314 -0.6044
 1958SOL    HW117507   1.915   3.404  10.218 -0.4959  0.5539 -0.7434
 1958SOL    HW217508   1.916   3.457  10.079  0.2841  1.7948 -0.7036
 1959SOL     OW17509   2.929   1.669   0.664 -0.4240  0.1946  0.1599
 1959SOL    HW117510   2.912   1.736   0.597 -0.0124 -0.8492 -0.9873
 1959SOL    HW217511   2.992   1.614   0.618  0.0914  1.3129 -0.4870
 1960SOL     OW17512   0.109   4.421   4.969 -0.0811  0.2515  0.1654
 1960SOL    HW117513   0.035   4.368   4.999 -0.0506  1.0853  1.7408
 1960SOL    HW217514   0.182   4.373   5.009 -2.3303 -1.3641  2.3670
 1961SOL     OW17515   3.106   0.467  17.102 -0.1164 -0.1364 -0.1460
 1961SOL    HW117516   3.112   0.562  17.101  0.5462 -0.1691  0.4197
 1961SOL    HW217517   3.021   0.447  17.141 -0.3178  1.9858  0.4934
 1962SOL     OW17518   0.396   4.713   3.003  0.0083  0.0815 -0.2731
 1962SOL    HW117519   0.357   4.672   2.926 -2.9734  2.3659  0.0032
 1962SOL    HW217520   0.365   0.066   2.998 -0.3150  0.1624  3.1319
 1963SOL     OW17521   3.687   4.175  15.262 -0.1442  0.3300  0.5797
 1963SOL    HW117522   3.757   4.230  15.226 -0.3673 -0.9542 -1.8153
 1963SOL    HW217523   3.658   4.122  15.188  1.2017  0.8733 -0.3520
 1964SOL     OW17524   0.575   3.177   6.055  0.5175 -0.2160 -0.8784
 1964SOL    HW117525   0.495   3.153   6.103  0.6277  0.1290 -0.5288
 1964SOL    HW217526   0.546   3.189   5.965  0.1624  1.4317 -0.5346
 1965SOL     OW17527   4.724   3.286   5.983 -0.3640  0.5413 -0.1092
 1965SOL    HW117528   0.037   3.255   6.058 -0.5253  2.1998  0.7064
 1965SOL    HW217529   0.044   3.355   5.947  0.1001 -0.4331 -1.2313
 1966SOL     OW17530   2.345   1.433   3.869 -0.2715  0.0748 -0.4636
 1966SOL    HW117531   2.380   1.463   3.953  2.0260 -1.5583 -0.8300
 1966SOL    HW217532   2.250   1.429   3.885 -0.1044  1.7634  0.9065
 1967SOL     OW17533   0.247   1.734   7.347 -0.0325 -0.4147 -0.2058
 1967SOL    HW117534   0.170   1.784   7.319  0.4758  1.9205  2.5585
 1967SOL    HW217535   0.213   1.678   7.417 -3.1582  1.5477 -0.1398
 1968SOL     OW17536   3.790   1.657  17.606 -0.0233 -0.3902 -0.5124
 1968SOL    HW117537   3.847   1.689  17.677  2.4023 -2.1109 -1.6592
 1968SOL    HW217538   3.844   1.678  17.530  0.9329  1.7766  0.7492
 1969SOL     OW17539   0.700   0.506   3.266  0.9146 -0.5263  0.5865
 1969SOL    HW117540   0.643   0.559   3.321 -0.0439 -1.6734  0.6873
 1969SOL    HW217541   0.728   0.574   3.204 -0.1200 -1.8677 -1.3504
 1970SOL     OW17542   0.842   4.645   5.035  0.4725 -0.7163  0.4578
 1970SOL    HW117543   0.853   4.556   5.004  0.2205 -0.8161  0.6508
 1970SOL    HW217544   0.848   4.706   4.962  1.2938  0.6646  1.6709
 1971SOL     OW17545   1.992   0.088   2.217  0.2738 -0.1756 -0.0813
 1971SOL    HW117546   1.948   0.062   2.137  2.2681  1.2065 -1.6346
 1971SOL    HW217547   1.956   0.174   2.239  1.4556  0.5320 -0.9335
 1972SOL     OW17548   4.356   0.403  15.569  0.3815 -0.0430 -0.0299
 1972SOL    HW117549   4.367   0.383  15.662  0.2470 -0.9266 -0.2083
 1972SOL    HW217550   4.261   0.395  15.559  0.1775  0.6931  1.2553
 1973SOL     OW17551   4.424   1.849   8.733  0.2707 -0.5270  0.3425
 1973SOL    HW117552   4.403   1.922   8.674 -1.7036 -0.1324  1.5504
 1973SOL    HW217553   4.359   1.784   8.709  1.3647 -0.9615 -1.4579
 1974SOL     OW17554   2.981   4.038   3.359  0.0380  0.4461  0.0265
 1974SOL    HW117555   3.060   4.073   3.400 -0.0273  0.3051  0.2697
 1974SOL    HW217556   3.016   4.017   3.272  0.1999 -0.5835  0.3381
 1975SOL     OW17557   4.210   3.187   0.981  0.0682  0.6560  0.3938
 1975SOL    HW117558   4.166   3.105   0.959 -2.4059  2.0574  0.0012
 1975SOL    HW217559   4.139   3.246   1.007  1.8892  2.5332  1.0950
 1976SOL     OW17560   2.823   3.397   2.822 -0.0019 -0.1006 -0.6531
 1976SOL    HW117561   2.826   3.318   2.875 -1.0667  1.0569  1.1316
 1976SOL    HW217562   2.760   3.455   2.865 -1.3137  0.1330 -2.8545
 1977SOL     OW17563   0.570   2.968   2.461  0.5213  0.2477  0.2755
 1977SOL    HW117564   0.532   3.053   2.439  0.4885 -0.0713 -0.8996
 1977SOL    HW217565   0.604   2.980   2.550 -0.7594 -2.2536  1.0815
 1978SOL     OW17566   3.215   2.404   2.916  0.0251 -0.5581 -0.4857
 1978SOL    HW117567   3.180   2.445   2.836  1.2653 -0.4987 -0.9926
 1978SOL    HW217568   3.166   2.322   2.915  2.3302 -1.9508  0.7583
 1979SOL     OW17569   4.363   0.493   4.514  0.8099  0.2908  0.2017
 1979SOL    HW117570   4.439   0.548   4.535 -0.1285  0.3562  3.4001
 1979SOL    HW217571   4.377   0.465   4.424  0.9456 -0.5339  0.4825
 1980SOL     OW17572   2.597   4.148   6.724  0.1423 -0.2897 -0.4103
 1980SOL    HW117573   2.665   4.195   6.773 -0.1206  1.3984 -1.6910
 1980SOL    HW217574   2.645   4.066   6.713  2.0266  0.7172  0.2305
 1981SOL     OW17575   1.437   0.411   5.631 -0.3182 -0.6491  0.5162
 1981SOL    HW117576   1.450   0.467   5.555 -2.3532  2.6602  2.5584
 1981SOL    HW217577   1.498   0.444   5.698 -1.1644 -1.2220  1.5734
 1982SOL     OW17578   1.364   0.844  13.098  0.1238  0.7608  0.1535
 1982SOL    HW117579   1.334   0.883  13.016 -1.2343 -0.6936 -0.0411
 1982SOL    HW217580   1.440   0.797  13.063  0.0630 -1.4713  2.9905
 1983SOL     OW17581   1.627   0.848   6.335 -0.3635 -0.0361  0.6603
 1983SOL    HW117582   1.691   0.918   6.349  0.9465 -0.6738 -2.1606
 1983SOL    HW217583   1.608   0.857   6.241  0.7747 -0.0711  0.4353
 1984SOL     OW17584   3.188   0.595   1.576 -0.0835  0.9985  0.4186
 1984SOL    HW117585   3.176   0.642   1.659  0.5039 -1.4411  1.8763
 1984SOL    HW217586   3.209   0.659   1.507  1.8747 -0.7988 -0.6530
 1985SOL     OW17587   0.873   3.402   8.850 -0.3818 -0.1670  0.3221
 1985SOL    HW117588   0.925   3.443   8.920 -0.3227  0.8126 -0.2918
 1985SOL    HW217589   0.935   3.372   8.784 -1.0747  0.1297 -0.4643
 1986SOL     OW17590   3.313   2.943   1.159 -0.1059  0.0687 -0.0247
 1986SOL    HW117591   3.387   2.958   1.218  2.1078  0.5850 -2.9283
 1986SOL    HW217592   3.332   3.013   1.097 -2.6915  2.1221  1.5311
 1987SOL     OW17593   0.192   3.826   6.502 -0.0522  0.8105  0.6525
 1987SOL    HW117594   0.257   3.799   6.567 -0.5297  1.3151  1.3367
 1987SOL    HW217595   0.239   3.893   6.453 -0.5111  0.9102  0.3514
 1988SOL     OW17596   1.186   3.489   1.157  0.3005 -0.1610 -0.1140
 1988SOL    HW117597   1.137   3.547   1.215 -0.5922  1.6149 -2.6365
 1988SOL    HW217598   1.116   3.466   1.096 -0.7786 -1.4470  1.6290
 1989SOL     OW17599   3.561   4.601   4.767 -0.3512 -0.2029  0.4310
 1989SOL    HW117600   3.514   4.539   4.822 -0.1583 -1.9050 -1.3384
 1989SOL    HW217601   3.629   4.630   4.827  0.5052 -0.5546 -0.3798
 1990SOL     OW17602   3.010   2.215   8.470  0.3009  0.1249 -0.1388
 1990SOL    HW117603   2.918   2.239   8.483  0.0978 -0.4248 -0.6293
 1990SOL    HW217604   3.047   2.296   8.433 -0.2379  0.2458 -0.4042
 1991SOL     OW17605   2.248   4.465  15.179 -0.1467 -0.1110 -0.2513
 1991SOL    HW117606   2.204   4.424  15.104  1.1930 -1.2717 -0.4116
 1991SOL    HW217607   2.339   4.451  15.152  0.1563  2.1737 -0.4224
 1992SOL     OW17608   3.549   1.787   2.492 -0.5483 -0.5546  0.3494
 1992SOL    HW117609   3.583   1.871   2.526  1.0323 -0.2116 -2.1471
 1992SOL    HW217610   3.562   1.802   2.399 -1.4561  0.9878  0.4739
 1993SOL     OW17611   0.065   1.911   3.665  0.1513  0.7387 -0.0531
 1993SOL    HW117612   0.097   1.823   3.644  1.1988  0.5892  2.1615
 1993SOL    HW217613   0.019   1.940   3.586 -1.3600  1.4209  1.0694
 1994SOL     OW17614   4.207   0.186   5.096 -0.2333 -0.6256 -0.5248
 1994SOL    HW117615   4.211   0.227   5.010 -1.0024 -0.5781 -0.5344
 1994SOL    HW217616   4.169   0.250   5.155  1.7251  0.1626 -0.1013
 1995SOL     OW17617   3.776   3.649   9.003 -0.0692 -0.2424  0.3535
 1995SOL    HW117618   3.870   3.654   8.987 -0.1788  1.2139  0.2028
 1995SOL    HW217619   3.764   3.558   8.974  2.5173 -0.7013  0.7211
 1996SOL     OW17620   3.219   0.896   9.153  0.4080 -0.5016  0.0803
 1996SOL    HW117621   3.253   0.813   9.121  0.5834 -1.2106  2.0574
 1996SOL    HW217622   3.146   0.861   9.204 -1.0503  0.1297 -1.5662
 1997SOL     OW17623   3.649   2.152   7.112  0.0119  0.0302  0.3368
 1997SOL    HW117624   3.643   2.058   7.131  1.4934  0.4323  2.7317
 1997SOL    HW217625   3.555   2.167   7.123 -0.2487 -3.1733  2.7167
 1998SOL     OW17626   4.342   2.531  14.139 -0.5812  0.0572 -0.0465
 1998SOL    HW117627   4.306   2.610  14.098 -0.9107 -0.6458 -1.1172
 1998SOL    HW217628   4.264   2.476  14.138 -0.0828 -0.5925 -3.4326
 1999SOL     OW17629   1.409   2.689   1.820 -0.0625  0.1750  0.9752
 1999SOL    HW117630   1.420   2.594   1.818  2.5430  0.4640  1.5071
 1999SOL    HW217631   1.362   2.706   1.902  0.1393  0.0835  1.1082
 2000SOL     OW17632   1.034   4.516   8.932 -0.3117  0.0198  0.6453
 2000SOL    HW117633   1.119   4.554   8.952 -0.9577  1.2344  1.1302
 2000SOL    HW217634   0.989   4.600   8.917 -0.7790 -0.3268  0.0986
 2001SOL     OW17635   3.814   1.709   5.558  0.3195 -0.0497  0.1173
 2001SOL    HW117636   3.877   1.720   5.629 -1.0476 -1.4010  1.5552
 2001SOL    HW217637   3.758   1.647   5.604  0.5456 -0.7988 -0.6231
 2002SOL     OW17638   3.429   3.408  10.214 -0.2325  0.0029 -0.1813
 2002SOL    HW117639   3.437   3.372  10.302 -2.6307  0.6256  0.2900
 2002SOL    HW217640   3.359   3.472  10.222 -0.9134 -0.7632  0.0132
 2003SOL     OW17641   3.544   2.252   3.457  0.4405  0.6556  0.2668
 2003SOL    HW117642   3.616   2.310   3.433 -0.6206  2.5824  1.7161
 2003SOL    HW217643   3.482   2.271   3.388  0.2325  0.9953  0.5484
 2004SOL     OW17644   4.071   4.507   0.165  0.2913  0.0885 -0.2205
 2004SOL    HW117645   4.102   4.596   0.147  0.7892 -0.2821 -1.2135
 2004SOL    HW217646   4.037   4.483   0.078 -1.5174  0.5934  0.3526
 2005SOL     OW17647   3.163   4.291   4.839  0.6429 -0.2426  0.6485
 2005SOL    HW117648   3.090   4.303   4.900  0.2351 -0.7750  0.2742
 2005SOL    HW217649   3.206   4.215   4.877  0.1095 -0.4309  0.8800
 2006SOL     OW17650   1.960   1.774   6.333 -0.5189 -0.0553  0.5186
 2006SOL    HW117651   2.035   1.831   6.318 -0.7681  0.4642  1.2259
 2006SOL    HW217652   1.994   1.691   6.301  1.8609  1.5790 -1.1220
 2007SOL     OW17653   0.525   3.501   6.129 -0.1498  0.4411 -0.1697
 2007SOL    HW117654   0.472   3.496   6.050 -0.8231 -1.0266  0.3844
 2007SOL    HW217655   0.603   3.455   6.100 -0.7664 -0.9000  0.3241
 2008SOL     OW17656   4.655   0.962   2.912  0.5138  0.0156 -0.2629
 2008SOL    HW117657   4.579   0.966   2.853  1.4084  0.6069 -1.3632
 2008SOL    HW217658   4.729   1.008   2.872  0.0051  1.7033  0.7538
 2009SOL     OW17659   3.222   2.124   9.149  0.7615 -0.1761 -0.8071
 2009SOL    HW117660   3.242   2.176   9.071 -1.2571  0.1519 -1.1137
 2009SOL    HW217661   3.201   2.042   9.105  0.3011 -0.7593  0.4888
 2010SOL     OW17662   2.038   1.402   9.605 -0.5581  0.2886  0.1336
 2010SOL    HW117663   1.988   1.325   9.635 -1.0017  0.9419  1.0590
 2010SOL    HW217664   2.028   1.453   9.685  1.8696 -0.6686  1.0490
 2011SOL     OW17665   3.336   0.668   9.113 -0.2396 -0.1946  0.2672
 2011SOL    HW117666   3.312   0.591   9.061  0.3238 -0.2609  0.1036
 2011SOL    HW217667   3.349   0.617   9.193 -3.7926 -0.2666  0.8247
 2012SOL     OW17668   0.550   2.199   5.295 -0.3456  0.1688  0.1600
 2012SOL    HW117669   0.505   2.198   5.210 -0.4761  1.6017  0.2114
 2012SOL    HW217670   0.622   2.256   5.268  1.0598 -2.5425 -1.9349
 2013SOL     OW17671   1.879   1.198   9.706 -0.0057 -0.3411 -0.6609
 2013SOL    HW117672   1.947   1.140   9.740  0.8480  1.1564  0.1545
 2013SOL    HW217673   1.816   1.176   9.775  0.7940  0.3444  0.2882
 2014SOL     OW17674   4.078   4.472   8.503  0.5322 -0.6616 -0.1722
 2014SOL    HW117675   3.996   4.457   8.455 -0.4406 -1.1538  1.6430
 2014SOL    HW217676   4.037   4.520   8.574 -0.9357  1.0430 -2.1710
 2015SOL     OW17677   3.478   3.733   7.523 -0.5657  0.3413  0.4317
 2015SOL    HW117678   3.532   3.660   7.553  0.6805 -0.0308 -2.6877
 2015SOL    HW217679   3.396   3.715   7.570 -2.2398  1.0566 -2.2142
 2016SOL     OW17680   2.833   2.296   3.387 -0.1633 -0.3721  0.4245
 2016SOL    HW117681   2.916   2.255   3.412 -1.1694 -2.0205  1.0444
 2016SOL    HW217682   2.813   2.248   3.306 -2.8101  2.1426 -0.4251
 2017SOL     OW17683   2.146   2.266   1.860 -0.0282 -0.0779 -0.2597
 2017SOL    HW117684   2.079   2.277   1.927 -0.4788 -2.7016 -0.2492
 2017SOL    HW217685   2.207   2.201   1.896 -0.4444 -0.5153 -0.3390
 2018SOL     OW17686   2.464   3.606   8.823  0.2675 -0.3222 -0.4481
 2018SOL    HW117687   2.371   3.582   8.826  0.3228 -0.3697  1.2422
 2018SOL    HW217688   2.505   3.546   8.886 -1.3653  0.1775  1.0885
 2019SOL     OW17689   2.455   1.271   8.734 -0.4753 -0.7023  0.0311
 2019SOL    HW117690   2.443   1.366   8.727  2.4128 -0.3382  0.2058
 2019SOL    HW217691   2.526   1.268   8.797 -0.8184  3.3984  0.6427
 2020SOL     OW17692   3.475   4.696  11.348  0.3828  0.6056  0.1680
 2020SOL    HW117693   3.407   4.650  11.298  0.7577  0.0228  0.1875
 2020SOL    HW217694   3.417   0.015  11.398 -1.3499 -1.1879  0.2041
 2021SOL     OW17695   2.807   2.389   0.943  0.0328 -0.1915 -0.0612
 2021SOL    HW117696   2.799   2.354   1.032  0.2310 -0.0824  0.0003
 2021SOL    HW217697   2.734   2.451   0.940  0.2707  0.1681  1.3730
 2022SOL     OW17698   4.054   0.092   2.540  0.0265  0.0447 -0.0183
 2022SOL    HW117699   3.965   0.072   2.569 -0.2245  1.0573 -0.1014
 2022SOL    HW217700   4.035   0.149   2.466  1.4547 -0.8905 -1.0970
 2023SOL     OW17701   2.471   1.762  15.360  0.3514 -0.3325  0.2550
 2023SOL    HW117702   2.530   1.818  15.410  0.1301 -0.4258  0.6288
 2023SOL    HW217703   2.423   1.719  15.431 -0.9386  1.2392  0.3287
 2024SOL     OW17704   2.520   1.002   8.742 -0.0740  0.1809 -0.3196
 2024SOL    HW117705   2.444   0.946   8.758 -0.2030  0.4631  0.0761
 2024SOL    HW217706   2.488   1.092   8.741  1.0925  0.6218  2.8333
 2025SOL     OW17707   2.852   2.412  11.144  0.6296  0.4915  0.3472
 2025SOL    HW117708   2.872   2.323  11.114 -0.6020  0.3129  0.0593
 2025SOL    HW217709   2.905   2.467  11.086 -0.2058 -1.3874 -2.1969
 2026SOL     OW17710   3.545   3.362  13.525  0.3805 -0.0088 -0.4875
 2026SOL    HW117711   3.531   3.446  13.481  0.3175  1.6509  2.6846
 2026SOL    HW217712   3.637   3.342  13.508 -0.5657 -2.8461 -2.1985
 2027SOL     OW17713   3.672   0.195   4.192 -0.3944  0.6122 -0.2547
 2027SOL    HW117714   3.663   0.120   4.133 -0.3325  0.0632  0.4371
 2027SOL    HW217715   3.600   0.170   4.249  0.8079  0.2080  1.0803
 2028SOL     OW17716   2.682   3.849  12.581 -0.3348  0.3536  0.3917
 2028SOL    HW117717   2.599   3.835  12.627  0.0498 -0.1231  0.9484
 2028SOL    HW217718   2.653   3.832  12.492  1.1212  1.2780 -0.2470
 2029SOL     OW17719   2.278   0.336   3.088 -0.0890  0.6104  0.0342
 2029SOL    HW117720   2.227   0.405   3.045 -0.4095 -0.1894 -0.8570
 2029SOL    HW217721   2.363   0.381   3.091  1.1025 -1.5192 -2.4496
 2030SOL     OW17722   3.451   3.256   4.900 -0.0603  0.2625 -0.0417
 2030SOL    HW117723   3.409   3.287   4.981  2.3374  2.4022  0.3807
 2030SOL    HW217724   3.504   3.333   4.881  0.7687 -0.3495 -0.2074
 2031SOL     OW17725   4.552   4.031   5.182  0.2390  0.0243 -0.1105
 2031SOL    HW117726   4.456   4.028   5.175  0.1838 -1.0471  1.1528
 2031SOL    HW217727   4.555   3.944   5.222  0.2855  0.2125  0.2967
 2032SOL     OW17728   2.595   2.290   8.199 -0.7276  0.1229 -0.1727
 2032SOL    HW117729   2.617   2.270   8.290  0.0249 -3.2294 -1.0859
 2032SOL    HW217730   2.519   2.347   8.206 -0.0575  0.8247  1.2589
 2033SOL     OW17731   4.124   2.961   3.826  0.2412  0.0765  0.4227
 2033SOL    HW117732   4.031   2.969   3.848  1.1155  2.6161  3.2268
 2033SOL    HW217733   4.133   2.868   3.847  1.3674  0.2100  0.5583
 2034SOL     OW17734   3.393   2.378   8.238  0.4028  0.5262 -0.0591
 2034SOL    HW117735   3.485   2.394   8.254  0.4667  1.2213 -1.1107
 2034SOL    HW217736   3.360   2.468   8.242 -0.5620  0.0804  2.0781
 2035SOL     OW17737   0.094   2.765  15.123 -0.0790  0.4988 -0.5765
 2035SOL    HW117738   0.070   2.839  15.068  3.7833  1.7435 -0.6307
 2035SOL    HW217739   0.190   2.769  15.131 -0.1211  0.1151  0.1800
 2036SOL     OW17740   4.096   3.080   4.694  0.0676  0.0315 -0.1367
 2036SOL    HW117741   4.104   3.168   4.658 -0.3809  0.2155  0.2058
 2036SOL    HW217742   4.113   3.029   4.615  0.2997  2.4889 -1.6649
 2037SOL     OW17743   0.111   0.341   4.606 -0.1568  0.0657  0.2000
 2037SOL    HW117744   0.037   0.348   4.546 -0.1176  0.3219  0.1793
 2037SOL    HW217745   0.090   0.278   4.675  2.2138 -0.5356  0.3648
 2038SOL     OW17746   0.795   2.429   2.917 -0.2233  0.4911  0.3061
 2038SOL    HW117747   0.891   2.427   2.919 -0.2396 -0.2355  0.5440
 2038SOL    HW217748   0.781   2.334   2.925  2.3900 -0.0437 -1.4524
 2039SOL     OW17749   2.753   2.999   7.056  0.2958 -0.4110  0.1235
 2039SOL    HW117750   2.693   2.938   7.097  0.3029 -1.3565 -1.3029
 2039SOL    HW217751   2.825   2.942   7.029 -0.1257 -0.4684 -0.8775
 2040SOL     OW17752   4.311   1.385  12.922  0.1620 -0.1987  0.4905
 2040SOL    HW117753   4.396   1.378  12.966  0.0875 -0.5267  0.5852
 2040SOL    HW217754   4.250   1.428  12.981  0.8314  0.1315  0.9396
 2041SOL     OW17755   2.828   4.242  17.446  0.4053  0.3482 -0.0828
 2041SOL    HW117756   2.852   4.150  17.461 -0.2096  0.2550  0.3178
 2041SOL    HW217757   2.915   4.273  17.470  0.6721  0.4392 -1.1366
 2042SOL     OW17758   3.328   4.381   1.927 -0.0142 -0.3182 -0.3168
 2042SOL    HW117759   3.359   4.435   2.000  0.8215 -0.9703 -0.1950
 2042SOL    HW217760   3.259   4.327   1.966 -0.9835  2.7763  2.2457
 2043SOL     OW17761   4.460   4.289   4.808 -0.2005  0.0157 -0.4334
 2043SOL    HW117762   4.421   4.201   4.815 -1.9432  0.9295  1.3955
 2043SOL    HW217763   4.440   4.331   4.892  0.8578  0.3399 -0.3477
 2044SOL     OW17764   0.064   4.415   4.312 -0.0740 -0.1320 -0.0333
 2044SOL    HW117765   0.006   4.481   4.274 -0.2820  0.6127  1.5815
 2044SOL    HW217766   0.152   4.442   4.286 -0.3593  0.3794 -0.4627
 2045SOL     OW17767   4.622   1.612   0.677 -0.4291  0.3805  0.0977
 2045SOL    HW117768   4.530   1.638   0.689 -0.1902  1.1020  0.3318
 2045SOL    HW217769   4.654   1.610   0.767  0.7704 -0.9502 -0.3634
 2046SOL     OW17770   0.112   2.771   6.139 -0.5179  0.0671  0.1926
 2046SOL    HW117771   0.098   2.832   6.212  2.7572 -0.0917  0.9721
 2046SOL    HW217772   0.130   2.685   6.177 -0.5233  0.1212  0.3192
 2047SOL     OW17773   2.941   0.109   7.043  0.1105 -0.3212  0.2267
 2047SOL    HW117774   2.985   0.032   7.080  2.0635  0.5730 -0.2226
 2047SOL    HW217775   2.871   0.134   7.103  2.9729 -0.7178  3.7608
 2048SOL     OW17776   3.785   0.795   7.313  0.1777 -0.0817  0.7640
 2048SOL    HW117777   3.879   0.779   7.322  0.7055  3.1704  0.8374
 2048SOL    HW217778   3.778   0.769   7.221  1.9956  1.5373  0.1645
 2049SOL     OW17779   1.607   4.180  12.661  0.1341  0.2078  0.2990
 2049SOL    HW117780   1.659   4.260  12.647  0.7854 -0.1774  0.5216
 2049SOL    HW217781   1.553   4.182  12.582  0.9255 -0.7450 -0.2631
 2050SOL     OW17782   4.418   0.512   3.436  0.2060  0.6098 -0.2732
 2050SOL    HW117783   4.323   0.525   3.441 -0.0419 -1.5095  0.5696
 2050SOL    HW217784   4.432   0.533   3.343 -1.1642 -1.6590 -0.9950
 2051SOL     OW17785   3.669   3.464  12.861  0.2994 -0.0266  0.3384
 2051SOL    HW117786   3.634   3.552  12.879  0.3717  0.7127 -3.2421
 2051SOL    HW217787   3.687   3.426  12.947  1.4234 -2.6083 -1.0587
 2052SOL     OW17788   0.666   3.024   3.238 -0.2483  0.0558 -0.1640
 2052SOL    HW117789   0.701   3.112   3.256 -1.7464  1.0018 -1.8055
 2052SOL    HW217790   0.617   2.989   3.312  1.8272 -1.9060  0.2835
 2053SOL     OW17791   4.620   3.645   7.729 -0.0619  0.2513 -0.3074
 2053SOL    HW117792   4.535   3.610   7.701 -0.2503  0.1528  0.3787
 2053SOL    HW217793   4.589   3.678   7.814  1.3047 -2.2159  1.1356
 2054SOL     OW17794   4.418   0.502  14.520  0.5445 -0.0170  0.7957
 2054SOL    HW117795   4.335   0.457  14.535  0.9579  0.0542  3.2692
 2054SOL    HW217796   4.422   0.573  14.584  2.2518 -1.1183  1.9121
 2055SOL     OW17797   2.932   3.946   1.913  0.3619 -0.4153  0.5293
 2055SOL    HW117798   2.910   3.985   1.998  0.0375  2.2008 -0.7771
 2055SOL    HW217799   3.022   3.922   1.934  1.0050  0.9276 -0.7324
 2056SOL     OW17800   3.486   3.176   9.659  0.2501 -0.2125 -0.3115
 2056SOL    HW117801   3.571   3.207   9.688  0.5474 -0.9366 -0.4052
 2056SOL    HW217802   3.422   3.237   9.695  0.5919 -0.1742  0.2272
 2057SOL     OW17803   1.533   4.424  13.004  0.7629  0.3047 -1.2193
 2057SOL    HW117804   1.565   4.498  12.952  2.0307  1.6533  1.4852
 2057SOL    HW217805   1.447   4.424  12.962  0.3877 -1.9479 -0.4401
 2058SOL     OW17806   1.828   0.048   6.807  0.3298  0.1947  0.2733
 2058SOL    HW117807   1.786   0.118   6.856 -0.3614  0.9947 -1.4771
 2058SOL    HW217808   1.786   0.054   6.722 -1.5841  0.1704  1.2216
 2059SOL     OW17809   4.260   1.489   9.163  0.3144 -0.5041  0.2964
 2059SOL    HW117810   4.325   1.476   9.231  1.9137 -2.3214 -1.5661
 2059SOL    HW217811   4.267   1.402   9.124 -1.3235 -0.1705 -0.7497
 2060SOL     OW17812   2.926   3.323  12.875  0.5761 -0.5703  0.1797
 2060SOL    HW117813   2.992   3.254  12.884  1.9080  0.7206  0.2221
 2060SOL    HW217814   2.848   3.283  12.913  1.1936 -1.7368  0.2238
 2061SOL     OW17815   3.867   0.365   8.077  0.6140 -0.7602  0.0376
 2061SOL    HW117816   3.866   0.298   8.010 -0.5491  0.6396 -1.3377
 2061SOL    HW217817   3.922   0.434   8.040  0.4470 -0.6397  0.0115
 2062SOL     OW17818   0.804   0.958   4.023  0.0401  0.3505 -0.0250
 2062SOL    HW117819   0.818   1.009   4.102 -1.7213 -2.1087  1.8711
 2062SOL    HW217820   0.731   1.006   3.984 -0.5051 -0.1583  0.3681
 2063SOL     OW17821   1.507   0.136   8.354  0.4582  0.0403 -0.9146
 2063SOL    HW117822   1.571   0.065   8.352 -1.3696 -1.6264 -0.1961
 2063SOL    HW217823   1.477   0.116   8.443  1.2412  0.6031 -0.5172
 2064SOL     OW17824   2.570   3.337   7.309  0.4776  0.2719  0.4384
 2064SOL    HW117825   2.539   3.336   7.218  1.6045 -1.1337  0.0694
 2064SOL    HW217826   2.656   3.295   7.302 -0.4404 -1.7653  1.4624
 2065SOL     OW17827   2.512   0.762   6.630  0.1886  0.1934 -0.0054
 2065SOL    HW117828   2.571   0.688   6.615 -0.3789  0.2701 -2.5403
 2065SOL    HW217829   2.466   0.729   6.708 -0.4809  0.8849 -0.1118
 2066SOL     OW17830   3.876   2.711   8.490  0.5930 -0.3989  0.0739
 2066SOL    HW117831   3.940   2.738   8.424 -1.1456  0.3644 -1.3091
 2066SOL    HW217832   3.934   2.700   8.565  1.0448 -0.3697 -0.2704
 2067SOL     OW17833   2.961   4.166  15.712  0.6673 -0.2815  0.6914
 2067SOL    HW117834   2.908   4.150  15.635 -0.2347  2.9630  0.6218
 2067SOL    HW217835   2.951   4.260  15.726  0.7749 -0.5655  2.7098
 2068SOL     OW17836   1.867   1.036   7.947 -0.4482 -0.4594 -0.5210
 2068SOL    HW117837   1.830   0.953   7.978  0.5105 -1.6948 -2.7303
 2068SOL    HW217838   1.879   1.073   8.035 -0.1654 -0.4065 -0.5829
 2069SOL     OW17839   1.906   4.192   2.005 -0.5092 -0.0569 -0.0421
 2069SOL    HW117840   1.895   4.261   2.070 -1.3209 -1.4890  1.3256
 2069SOL    HW217841   1.972   4.235   1.950 -0.9969  0.0556 -0.5447
 2070SOL     OW17842   4.125   1.976   1.614 -0.6167  0.5090  0.2373
 2070SOL    HW117843   4.168   2.044   1.561 -0.5875 -0.0724 -0.4753
 2070SOL    HW217844   4.105   2.016   1.699 -0.4459  0.6891  0.1931
 2071SOL     OW17845   4.127   1.072   0.250 -0.1422 -0.3612  0.4396
 2071SOL    HW117846   4.125   1.063   0.345 -0.0125 -0.4916  0.4301
 2071SOL    HW217847   4.070   0.997   0.233 -0.3732 -0.5307  1.9884
 2072SOL     OW17848   3.478   0.473  12.513  0.0399  0.2730 -0.1573
 2072SOL    HW117849   3.544   0.445  12.451 -1.0821 -1.3168 -0.6379
 2072SOL    HW217850   3.413   0.406  12.492 -0.2260 -0.3357  2.5259
 2073SOL     OW17851   3.234   3.595  13.043 -0.2295 -0.4909 -0.2971
 2073SOL    HW117852   3.328   3.605  13.030 -0.0664 -0.2644  1.0608
 2073SOL    HW217853   3.214   3.688  13.030  1.9106  0.0021 -0.0270
 2074SOL     OW17854   0.478   3.496   6.819  0.5046  0.0108  0.7312
 2074SOL    HW117855   0.517   3.473   6.903  0.8452 -1.2084  0.2375
 2074SOL    HW217856   0.507   3.587   6.813 -0.0820  0.2895  2.2151
 2075SOL     OW17857   3.828   4.189   7.566  0.2151 -0.0318  0.0486
 2075SOL    HW117858   3.784   4.133   7.631 -1.0074 -0.7502 -1.4069
 2075SOL    HW217859   3.759   4.192   7.500 -0.4774  0.2932  0.7778
 2076SOL     OW17860   4.464   0.428  12.848 -0.2076  0.6054  0.2525
 2076SOL    HW117861   4.550   0.450  12.812  0.2461  3.4060  3.0986
 2076SOL    HW217862   4.471   0.333  12.854 -1.2679  0.4335 -1.0522
 2077SOL     OW17863   1.976   2.669   8.724  0.0067 -0.4060 -0.4498
 2077SOL    HW117864   2.046   2.730   8.747  0.6588 -0.1839 -3.0451
 2077SOL    HW217865   1.981   2.608   8.798  1.5224 -0.4900 -0.6066
 2078SOL     OW17866   2.600   1.582   1.561 -0.5045 -0.3285  0.5480
 2078SOL    HW117867   2.672   1.605   1.620 -0.7700 -0.4882  0.9363
 2078SOL    HW217868   2.621   1.489   1.552  0.2179 -0.0899 -0.1977
 2079SOL     OW17869   2.702   1.896   5.544 -0.3844 -0.3218  0.0118
 2079SOL    HW117870   2.728   1.894   5.636  1.7657 -1.7482 -0.6067
 2079SOL    HW217871   2.629   1.836   5.556 -1.8993  2.1996  3.4819
 2080SOL     OW17872   2.618   0.999   6.361  0.0006  0.3928  0.3542
 2080SOL    HW117873   2.606   0.955   6.445  0.5221 -1.6636 -0.6585
 2080SOL    HW217874   2.626   0.930   6.295 -0.9541  1.6503 -1.0846
 2081SOL     OW17875   0.830   3.628  10.244 -0.0153 -0.4764  0.9122
 2081SOL    HW117876   0.748   3.613  10.197  0.2392 -0.8331  0.5802
 2081SOL    HW217877   0.886   3.562  10.203 -0.8135 -0.2359 -0.5823
 2082SOL     OW17878   1.508   0.015   4.699 -0.1482 -0.1937  0.2533
 2082SOL    HW117879   1.443   0.083   4.718  0.2564  0.1472  0.4034
 2082SOL    HW217880   1.579   0.060   4.744  1.9994 -1.4527 -1.8608
 2083SOL     OW17881   1.059   3.596   1.675 -0.9198 -0.0940 -0.2172
 2083SOL    HW117882   0.977   3.635   1.706  0.1200 -1.1017  3.8378
 2083SOL    HW217883   1.117   3.670   1.694 -2.2922  0.8408  0.3182
 2084SOL     OW17884   0.999   0.127  16.623 -0.1957  0.0031  0.4636
 2084SOL    HW117885   0.960   0.193  16.680 -1.9052 -1.3374  0.8747
 2084SOL    HW217886   0.939   0.115  16.549 -0.5302  0.0189  0.7276
 2085SOL     OW17887   1.481   4.732   9.486 -0.3774  0.5384  0.1833
 2085SOL    HW117888   1.486   0.077   9.533 -0.0114  0.4802  0.2417
 2085SOL    HW217889   1.567   4.699   9.509  0.3475  2.3658  0.0696
 2086SOL     OW17890   1.241   2.428   8.419 -0.1526 -0.4606 -0.3335
 2086SOL    HW117891   1.160   2.384   8.445 -0.5112 -0.5723 -1.6330
 2086SOL    HW217892   1.250   2.406   8.327 -1.3335  1.2167 -0.8625
 2087SOL     OW17893   1.640   1.850   6.907  0.1034  0.6596  0.2457
 2087SOL    HW117894   1.692   1.773   6.885  0.4809  1.2966 -1.0609
 2087SOL    HW217895   1.554   1.831   6.870 -0.5941  1.4245  1.4627
 2088SOL     OW17896   1.169   1.930  17.015  0.5874 -0.3584 -0.0369
 2088SOL    HW117897   1.150   1.846  16.973 -1.0765  0.6272 -1.2828
 2088SOL    HW217898   1.095   1.941  17.076  0.5323  0.6662 -0.3044
 2089SOL     OW17899   2.176   1.051   5.822 -0.2395  0.1242  0.4243
 2089SOL    HW117900   2.227   0.970   5.833  1.4868  0.9946 -1.1529
 2089SOL    HW217901   2.122   1.048   5.901 -0.4130 -1.2283  0.2625
 2090SOL     OW17902   2.802   4.438  12.712  0.3751  1.1033 -0.7237
 2090SOL    HW117903   2.811   4.521  12.667  0.4048  1.2747 -0.4018
 2090SOL    HW217904   2.818   4.379  12.638 -1.1074 -0.5434  0.2850
 2091SOL     OW17905   4.548   4.216   2.727 -0.6966  0.0849 -0.2639
 2091SOL    HW117906   4.466   4.186   2.767  0.3510 -0.6578  1.3110
 2091SOL    HW217907   4.600   4.141   2.701 -0.6870  0.7738 -2.2263
 2092SOL     OW17908   0.820   2.292  13.706 -0.0696  0.1761 -0.0245
 2092SOL    HW117909   0.856   2.288  13.618  0.0907 -3.8668  0.2625
 2092SOL    HW217910   0.792   2.382  13.688 -0.5861  0.3243  1.4719
 2093SOL     OW17911   3.302   2.755   8.696  0.2022  0.0127  0.2165
 2093SOL    HW117912   3.240   2.730   8.627  3.1995  0.3279 -2.6106
 2093SOL    HW217913   3.369   2.687   8.694  1.5794  1.3911  0.1811
 2094SOL     OW17914   3.949   2.651   7.648 -0.9693 -0.5552 -0.2931
 2094SOL    HW117915   3.860   2.647   7.681 -0.5708  1.1171  0.9705
 2094SOL    HW217916   3.972   2.560   7.628  1.5807 -0.3077  1.4665
 2095SOL     OW17917   2.880   4.376   4.175 -0.3577 -0.0767  0.4492
 2095SOL    HW117918   2.814   4.404   4.111 -1.2616 -1.1895  0.8943
 2095SOL    HW217919   2.828   4.364   4.255  0.0910  0.3516  0.8037
 2096SOL     OW17920   3.000   1.974   2.941 -0.2260  0.1058  0.4511
 2096SOL    HW117921   3.057   1.910   2.983 -1.3795 -0.5347  1.0495
 2096SOL    HW217922   2.968   2.020   3.019 -2.3647 -0.4498 -0.1117
 2097SOL     OW17923   2.302   3.762   3.498 -0.3727 -0.2935  0.1658
 2097SOL    HW117924   2.381   3.808   3.470 -0.5962  0.3579  0.6125
 2097SOL    HW217925   2.331   3.721   3.580 -3.2198  0.4050  1.5035
 2098SOL     OW17926   2.336   1.808   4.973  0.0813 -0.8134  0.3056
 2098SOL    HW117927   2.415   1.802   4.918 -0.4370 -0.5660 -0.4776
 2098SOL    HW217928   2.296   1.725   4.944  1.3567 -1.0168 -0.9157
 2099SOL     OW17929   2.571   2.794   7.826 -0.8647  0.0346 -0.2248
 2099SOL    HW117930   2.547   2.724   7.887 -0.6335 -1.3993 -1.7675
 2099SOL    HW217931   2.610   2.857   7.887 -1.7823 -0.3457  0.7492
 2100SOL     OW17932   3.005   2.276  14.487 -0.3403 -0.1038  0.0170
 2100SOL    HW117933   3.010   2.246  14.578 -0.6352 -0.2432 -0.0144
 2100SOL    HW217934   2.963   2.361  14.501  1.7264  0.8194  0.6982
 2101SOL     OW17935   2.047   0.937   7.512 -0.4948  0.0822  0.2117
 2101SOL    HW117936   2.104   0.984   7.572 -1.2192  0.2317  0.7897
 2101SOL    HW217937   1.971   0.994   7.525 -0.0768  0.5494  0.5487
 2102SOL     OW17938   4.268   0.564   0.975 -0.2988  0.3958  0.0721
 2102SOL    HW117939   4.246   0.479   0.938 -1.5702  0.9970 -0.5567
 2102SOL    HW217940   4.209   0.623   0.928 -1.1833  1.1386  2.1045
 2103SOL     OW17941   4.733   2.821   7.761 -0.4720  0.4587 -0.4881
 2103SOL    HW117942   0.025   2.893   7.817  0.2603 -0.9205  0.9240
 2103SOL    HW217943   4.646   2.799   7.795 -1.3797  5.2239  0.2090
 2104SOL     OW17944   3.719   3.744   5.895  0.2270  0.0655 -0.2098
 2104SOL    HW117945   3.628   3.718   5.913 -0.0159  1.0748  0.0359
 2104SOL    HW217946   3.711   3.780   5.806  1.0084 -1.1830 -0.7837
 2105SOL     OW17947   2.918   1.058  12.202  0.4265  0.4996  0.0293
 2105SOL    HW117948   3.000   1.050  12.154  0.7234 -0.0733  0.6388
 2105SOL    HW217949   2.862   0.992  12.160  0.5662  0.1565  0.3854
 2106SOL     OW17950   2.103   2.668   6.099 -0.0514  0.2084 -0.1024
 2106SOL    HW117951   2.035   2.720   6.141  0.4854  0.5182  0.3885
 2106SOL    HW217952   2.136   2.734   6.038  1.3888 -0.0796  0.3659
 2107SOL     OW17953   0.462   0.177   1.283  0.2495  0.3804 -0.2506
 2107SOL    HW117954   0.533   0.204   1.226 -0.5778 -2.2060 -2.4820
 2107SOL    HW217955   0.490   0.087   1.297  0.9279  0.3687 -1.6993
 2108SOL     OW17956   1.514   2.877   3.443 -0.0977 -0.3552 -0.4571
 2108SOL    HW117957   1.473   2.790   3.441 -0.6804 -0.0621 -1.3313
 2108SOL    HW217958   1.444   2.924   3.489 -0.6888  1.0943 -2.8316
 2109SOL     OW17959   4.386   1.011   0.431 -0.2827 -0.1042 -0.5606
 2109SOL    HW117960   4.297   0.975   0.429 -0.2527 -0.2346  0.6117
 2109SOL    HW217961   4.427   0.957   0.499 -1.2266 -0.3018 -0.1488
 2110SOL     OW17962   0.131   3.680  10.196 -0.6013  0.0161  0.5133
 2110SOL    HW117963   0.101   3.596  10.232  2.4786 -0.8285  1.0995
 2110SOL    HW217964   0.104   3.739  10.266  0.2517  0.1215  0.7445
 2111SOL     OW17965   0.428   3.175  10.857  0.1499  0.0154 -0.4532
 2111SOL    HW117966   0.452   3.219  10.939  0.6939 -0.2009 -0.4982
 2111SOL    HW217967   0.511   3.134  10.832  0.4712  0.4167 -0.0468
 2112SOL     OW17968   3.031   4.470   3.534 -0.0683  0.6264  0.4799
 2112SOL    HW117969   3.081   4.395   3.567  1.3989  1.2262 -0.3378
 2112SOL    HW217970   2.997   4.438   3.451 -0.1032  0.7359  0.4524
 2113SOL     OW17971   0.863   2.476   2.634  0.5860 -0.0828 -0.4881
 2113SOL    HW117972   0.907   2.490   2.718 -2.3662  1.7082  0.7607
 2113SOL    HW217973   0.776   2.448   2.664  0.5256  0.4163 -0.1965
 2114SOL     OW17974   3.694   3.982   2.725  0.0282  0.5220 -0.5950
 2114SOL    HW117975   3.769   4.041   2.736  0.5227 -0.8266  3.2986
 2114SOL    HW217976   3.745   3.913   2.682 -0.7646 -1.4005  1.5279
 2115SOL     OW17977   3.775   1.466   3.618 -0.1198 -0.2458 -0.6425
 2115SOL    HW117978   3.825   1.513   3.551 -1.3014  1.2844 -0.4328
 2115SOL    HW217979   3.840   1.471   3.688  0.9603 -0.3862 -1.6327
 2116SOL     OW17980   1.865   0.810  16.500 -0.5036 -0.8828 -0.1319
 2116SOL    HW117981   1.776   0.825  16.468 -0.1409  0.7192 -0.3630
 2116SOL    HW217982   1.874   0.717  16.479  0.3982 -0.8877  0.2754
 2117SOL     OW17983   2.747   0.758   0.869  0.4698 -0.3006 -0.0481
 2117SOL    HW117984   2.709   0.753   0.781 -0.0807  1.3114  0.0894
 2117SOL    HW217985   2.677   0.712   0.914 -0.7917  1.9990  0.3488
 2118SOL     OW17986   3.707   0.391   5.729  0.3070  0.0484 -0.7447
 2118SOL    HW117987   3.675   0.477   5.702 -0.1727  0.7009  1.8557
 2118SOL    HW217988   3.675   0.341   5.654 -3.7821  1.5264 -0.0299
 2119SOL     OW17989   3.275   2.375   6.611 -0.5382 -0.2907 -0.3675
 2119SOL    HW117990   3.194   2.424   6.596  0.7155  1.9778  0.2460
 2119SOL    HW217991   3.335   2.416   6.549 -0.6197 -1.8405 -1.4739
 2120SOL     OW17992   2.249   2.911  15.739  0.3463 -0.0704 -0.0529
 2120SOL    HW117993   2.254   2.971  15.665 -2.5837 -1.9355 -1.7596
 2120SOL    HW217994   2.328   2.930  15.789  0.1444 -0.2121  0.3183
 2121SOL     OW17995   1.027   0.802   4.361  0.1417 -0.2147 -0.3535
 2121SOL    HW117996   1.059   0.712   4.346 -0.4648 -0.5782  0.5468
 2121SOL    HW217997   1.099   0.850   4.320  0.9703 -1.7734 -0.7611
 2122SOL     OW17998   2.478   1.847   6.324  0.0427  0.3687 -0.6430
 2122SOL    HW117999   2.518   1.914   6.381 -1.7514  2.1995 -1.5224
 2122SOL    HW218000   2.545   1.785   6.296 -0.5222 -1.0077  1.0780
 2123SOL     OW18001   3.123   0.578   8.621  0.1446 -0.1852  0.1995
 2123SOL    HW118002   3.213   0.563   8.650  0.1504 -0.1598  0.1949
 2123SOL    HW218003   3.137   0.595   8.528  0.5876  2.0677  0.6750
 2124SOL     OW18004   2.148   1.480   2.851  0.6128 -0.0362  0.1980
 2124SOL    HW118005   2.069   1.527   2.828  1.4667  1.6884  0.8194
 2124SOL    HW218006   2.108   1.402   2.891 -1.9517  0.9799 -0.4685
 2125SOL     OW18007   3.782   3.131   6.427  0.7347  0.3702 -0.0602
 2125SOL    HW118008   3.797   3.081   6.507 -0.9622 -2.3710 -1.4788
 2125SOL    HW218009   3.745   3.207   6.473  2.6437  0.2616  1.6780
 2126SOL     OW18010   3.512   3.611   3.350 -0.1752  0.1404 -0.2891
 2126SOL    HW118011   3.465   3.617   3.266 -2.8401 -0.2081  1.1775
 2126SOL    HW218012   3.588   3.669   3.348 -0.0954  0.0416 -0.0768
 2127SOL     OW18013   0.475   1.219   2.106  0.6020 -0.2433  0.1294
 2127SOL    HW118014   0.473   1.229   2.010 -1.1083  0.9255  0.2840
 2127SOL    HW218015   0.396   1.166   2.107  0.9207 -0.8637 -4.0683
 2128SOL     OW18016   0.519   0.906   7.202  0.5262  0.6435 -0.2046
 2128SOL    HW118017   0.606   0.943   7.186 -0.7515  3.7483  0.0001
 2128SOL    HW218018   0.536   0.818   7.235 -2.2930  0.4682  0.7925
 2129SOL     OW18019   0.558   3.082  13.255 -0.8157  0.1783  0.3284
 2129SOL    HW118020   0.546   3.165  13.211 -1.0116  1.3505  2.5829
 2129SOL    HW218021   0.531   3.025  13.183 -0.2795  0.2465  0.0701
 2130SOL     OW18022   0.730   3.650   8.276  0.2558  0.3561  0.1580
 2130SOL    HW118023   0.637   3.660   8.256  0.6730  0.4703 -1.6966
 2130SOL    HW218024   0.729   3.682   8.366  2.2983 -0.6190  0.5239
 2131SOL     OW18025   1.397   2.754  17.065  0.3621  0.0324 -0.0828
 2131SOL    HW118026   1.342   2.738  16.989 -1.2139  0.7224  0.9087
 2131SOL    HW218027   1.360   2.828  17.114 -1.2155 -2.2619  2.1829
 2132SOL     OW18028   1.172   2.416   7.684  0.1624 -0.2008 -0.0746
 2132SOL    HW118029   1.114   2.435   7.611 -1.3803  1.6114  1.6115
 2132SOL    HW218030   1.219   2.499   7.688 -2.0809  1.0101  0.8803
 2133SOL     OW18031   4.004   4.503  12.670  0.0338  0.3989  0.0569
 2133SOL    HW118032   3.987   4.489  12.763 -0.5448 -0.2924 -0.1507
 2133SOL    HW218033   4.042   4.590  12.682 -2.8945  1.3112  2.5450
 2134SOL     OW18034   2.958   3.590  13.286 -0.1594  0.2478 -0.5954
 2134SOL    HW118035   2.898   3.659  13.316  1.0802  1.2582 -0.4256
 2134SOL    HW218036   2.967   3.612  13.193  0.8434 -1.4380 -0.8953
 2135SOL     OW18037   4.316   0.954   5.449 -0.2492 -0.4746  0.4205
 2135SOL    HW118038   4.310   0.885   5.383  0.9072 -1.1824  1.0484
 2135SOL    HW218039   4.387   0.915   5.500  1.4292  1.2063 -0.6521
 2136SOL     OW18040   3.146   2.193   5.375  0.2745  0.7055 -0.1679
 2136SOL    HW118041   3.083   2.141   5.424  0.0326  0.7056 -0.4741
 2136SOL    HW218042   3.220   2.132   5.369  0.4910  1.3632 -4.6090
 2137SOL     OW18043   3.924   1.473   1.460 -0.3286  0.0346 -0.0447
 2137SOL    HW118044   3.875   1.551   1.488 -2.0193 -0.4395 -1.7044
 2137SOL    HW218045   3.898   1.481   1.368  0.7882  0.7587 -0.3011
 2138SOL     OW18046   0.132   3.853   7.958 -0.0620  0.3449  0.4680
 2138SOL    HW118047   0.212   3.802   7.951  0.1439  0.7055  0.2161
 2138SOL    HW218048   0.089   3.791   8.017  0.5850 -1.3794 -0.8736
 2139SOL     OW18049   3.037   2.846   7.888  0.1525  0.4995 -0.3507
 2139SOL    HW118050   3.007   2.934   7.911  0.6806  0.6168 -0.1360
 2139SOL    HW218051   3.121   2.840   7.932  0.2861 -2.1333 -0.9799
 2140SOL     OW18052   2.219   2.777   7.516 -0.2387  0.3295  0.3651
 2140SOL    HW118053   2.221   2.868   7.486 -1.8465 -0.1281 -1.1139
 2140SOL    HW218054   2.313   2.760   7.527 -0.2722 -0.6224 -0.8579
 2141SOL     OW18055   3.473   2.124   4.648  0.6259 -0.1612  0.4686
 2141SOL    HW118056   3.448   2.075   4.726  0.3096 -1.1487 -0.2497
 2141SOL    HW218057   3.483   2.216   4.672 -1.7699  0.8749 -2.4671
 2142SOL     OW18058   3.867   0.104   6.752  0.7557  0.5281  0.4826
 2142SOL    HW118059   3.877   0.058   6.668 -1.7074  0.8307  0.0165
 2142SOL    HW218060   3.774   0.081   6.756  0.5200  1.2776 -0.7230
 2143SOL     OW18061   2.019   1.162   4.398  0.0051  0.3654 -0.7404
 2143SOL    HW118062   2.028   1.113   4.317 -0.9843 -0.1671 -0.5219
 2143SOL    HW218063   1.926   1.162   4.419  0.2063 -1.3719  0.1876
 2144SOL     OW18064   2.136   0.115   2.491  0.4012 -0.5209  0.6337
 2144SOL    HW118065   2.102   0.135   2.403  1.3513  1.8260  0.7927
 2144SOL    HW218066   2.073   0.153   2.551 -0.2697  1.0747 -1.0821
 2145SOL     OW18067   1.317   2.183   3.765 -0.2329  0.3447  1.0001
 2145SOL    HW118068   1.306   2.189   3.860  1.0752 -0.1097  1.1758
 2145SOL    HW218069   1.300   2.272   3.734  1.1413 -0.1593 -1.2248
 2146SOL     OW18070   4.140   2.688   7.241  0.0684  0.1773  0.1509
 2146SOL    HW118071   4.052   2.720   7.262 -0.0741 -0.6324  0.7677
 2146SOL    HW218072   4.129   2.628   7.167  1.8662 -0.9586  0.8084
 2147SOL     OW18073   1.223   4.555   0.727 -0.3041 -0.1876 -0.0384
 2147SOL    HW118074   1.242   4.476   0.778  0.1476 -1.8346 -2.6978
 2147SOL    HW218075   1.159   4.593   0.787 -0.8103  2.6543 -2.3711
 2148SOL     OW18076   2.788   1.393   5.486  0.1806 -0.2515 -0.3028
 2148SOL    HW118077   2.757   1.472   5.531 -1.5584  0.0476 -2.0409
 2148SOL    HW218078   2.749   1.324   5.539 -1.7368  2.0852  1.3462
 2149SOL     OW18079   4.496   1.467   3.631 -0.2529 -0.2652 -0.1752
 2149SOL    HW118080   4.460   1.507   3.552 -2.0074  0.6802  1.1068
 2149SOL    HW218081   4.427   1.476   3.696 -0.5586 -0.2819 -0.4959
 2150SOL     OW18082   0.798   3.482   4.965 -0.4106  0.1018 -0.4703
 2150SOL    HW118083   0.719   3.446   4.925 -1.3198  1.1184  0.4045
 2150SOL    HW218084   0.769   3.521   5.048  0.5939 -0.9596  0.3810
 2151SOL     OW18085   0.788   1.438   0.400  0.0624 -0.1198 -0.6055
 2151SOL    HW118086   0.740   1.356   0.386  0.4348 -0.8520  2.3828
 2151SOL    HW218087   0.721   1.494   0.360 -0.7942  1.0661  2.5246
 2152SOL     OW18088   2.509   1.751   1.249 -0.4871 -0.1433 -0.1022
 2152SOL    HW118089   2.510   1.774   1.156 -0.9944 -0.1573 -0.1108
 2152SOL    HW218090   2.417   1.728   1.263  0.3168 -1.3087  3.3083
 2153SOL     OW18091   0.507   2.277   9.806 -0.7875 -0.0448  0.0821
 2153SOL    HW118092   0.478   2.315   9.889  1.0291  0.5939  0.4285
 2153SOL    HW218093   0.537   2.357   9.764  0.9631  0.4151  2.1876
 2154SOL     OW18094   1.617   2.223  11.796  0.0138  0.3778  0.1949
 2154SOL    HW118095   1.672   2.144  11.797  0.2042  0.5041 -1.1569
 2154SOL    HW218096   1.531   2.186  11.777 -0.0504  1.3083 -1.2757
 2155SOL     OW18097   1.108   1.501  17.443  0.3449 -0.5361  0.3640
 2155SOL    HW118098   1.190   1.490  17.395  0.0584 -1.3552  0.0592
 2155SOL    HW218099   1.054   1.516  17.366  3.1766  1.4467 -1.2008
 2156SOL     OW18100   3.680   4.289  17.294 -0.4886 -0.5175  0.0285
 2156SOL    HW118101   3.611   4.312  17.357  0.6309  0.0922  1.0317
 2156SOL    HW218102   3.639   4.224  17.237  2.1325 -1.4895 -0.7504
 2157SOL     OW18103   0.204   4.709   6.984  0.0018  0.7266  0.2353
 2157SOL    HW118104   0.212   0.040   7.051  0.2839  1.2399 -0.3280
 2157SOL    HW218105   0.187   0.030   6.911  0.8432 -0.5525 -0.9659
 2158SOL     OW18106   0.738   3.380   9.286 -0.1650  0.5728  0.5894
 2158SOL    HW118107   0.741   3.329   9.367  0.4175  0.9039  0.7742
 2158SOL    HW218108   0.643   3.393   9.279 -0.2615  0.0151  0.8624
 2159SOL     OW18109   3.777   4.241   2.902  0.0329 -0.4094  0.0883
 2159SOL    HW118110   3.704   4.281   2.855 -0.9329  0.4036  2.2781
 2159SOL    HW218111   3.755   4.257   2.994 -0.3490 -0.8704  0.0794
 2160SOL     OW18112   1.292   2.133   9.425 -0.0715 -0.6008  0.1348
 2160SOL    HW118113   1.337   2.070   9.481  1.2153  0.8935  0.7726
 2160SOL    HW218114   1.261   2.067   9.363 -2.3957  1.1596 -0.5986
 2161SOL     OW18115   0.955   2.210   9.527 -0.3715 -0.1633  0.2172
 2161SOL    HW118116   0.863   2.195   9.506 -0.9362  1.6135  1.3773
 2161SOL    HW218117   0.959   2.231   9.621 -0.6239  2.6996 -0.4015
 2162SOL     OW18118   0.741   2.777   3.391 -0.6311 -0.2936  0.5229
 2162SOL    HW118119   0.781   2.827   3.320 -0.7618  0.9112  1.2794
 2162SOL    HW218120   0.721   2.848   3.452 -2.2089 -1.3490  1.2274
 2163SOL     OW18121   2.609   3.882  16.698  0.1973  0.0682  0.6285
 2163SOL    HW118122   2.598   3.977  16.695 -1.8260 -0.2035 -0.2231
 2163SOL    HW218123   2.639   3.879  16.789 -1.8382  0.0102  1.2947
 2164SOL     OW18124   4.475   4.377  17.443 -0.5264 -0.1115 -0.3962
 2164SOL    HW118125   4.460   4.449  17.504 -0.5487 -0.0526 -0.4712
 2164SOL    HW218126   4.482   4.306  17.506  0.1635  1.6687  1.5189
 2165SOL     OW18127   0.657   4.154   7.113  0.2409 -0.5047 -0.0843
 2165SOL    HW118128   0.718   4.080   7.108  3.1581  1.9793 -0.8908
 2165SOL    HW218129   0.700   4.204   7.183  2.3163 -0.8202 -1.1353
 2166SOL     OW18130   0.559   1.286  17.718 -0.6961  0.6929  0.2705
 2166SOL    HW118131   0.546   1.274  17.624  1.9882 -0.9761  0.1042
 2166SOL    HW218132   0.517   1.213   0.016  0.1513 -0.0906 -0.1820
 2167SOL     OW18133   1.589   4.251   7.459  0.3243  0.3046 -0.2799
 2167SOL    HW118134   1.577   4.161   7.429  1.4549  0.3215 -0.7969
 2167SOL    HW218135   1.653   4.238   7.529  0.4112 -2.6980 -0.9163
 2168SOL     OW18136   1.670   1.397  11.580  0.3895 -0.6742 -0.7496
 2168SOL    HW118137   1.608   1.414  11.509 -1.4182 -0.1183  0.9325
 2168SOL    HW218138   1.711   1.317  11.549  1.9144 -0.5091  0.8773
 2169SOL     OW18139   2.317   0.529   7.994  0.2629 -0.7166 -0.0676
 2169SOL    HW118140   2.330   0.569   7.908  0.5754  2.0104  1.2611
 2169SOL    HW218141   2.300   0.440   7.963 -2.0593  0.0513 -0.9797
 2170SOL     OW18142   3.939   2.848   1.187 -0.2215 -0.0662 -0.0610
 2170SOL    HW118143   3.902   2.787   1.250  1.9047 -1.0634  0.2312
 2170SOL    HW218144   3.876   2.842   1.115 -0.5491  0.2655  0.1974
 2171SOL     OW18145   3.485   1.747   4.932 -0.0874 -0.2169 -0.4085
 2171SOL    HW118146   3.470   1.661   4.973  1.8992 -0.7612 -0.8592
 2171SOL    HW218147   3.550   1.779   4.994 -0.4869 -0.8134  0.3277
 2172SOL     OW18148   2.976   0.521   2.129 -0.3401  0.2177  0.1230
 2172SOL    HW118149   3.013   0.607   2.108  1.0716 -1.2364 -3.2655
 2172SOL    HW218150   2.893   0.528   2.082  0.1080 -0.0645 -0.7027
 2173SOL     OW18151   3.410   4.301  10.828 -0.3106 -0.2209 -0.5288
 2173SOL    HW118152   3.429   4.233  10.764 -0.5036  0.4200 -1.2703
 2173SOL    HW218153   3.321   4.324  10.800 -0.0003  0.5471 -0.8764
 2174SOL     OW18154   4.098   4.673   2.177 -0.6272  0.7691  0.5875
 2174SOL    HW118155   4.112   4.589   2.133 -0.7248  1.8188 -1.4497
 2174SOL    HW218156   4.004   4.662   2.192 -0.4664  0.6496  1.4832
 2175SOL     OW18157   0.351   3.637  10.054  0.0064  0.1401 -0.0880
 2175SOL    HW118158   0.318   3.621   9.965  0.0818  3.6007 -0.7307
 2175SOL    HW218159   0.277   3.673  10.102 -2.9892 -0.1248 -4.4743
 2176SOL     OW18160   1.603   2.589   2.832 -0.2144 -0.0052  0.1619
 2176SOL    HW118161   1.588   2.679   2.860  1.1506 -0.0145  0.9194
 2176SOL    HW218162   1.652   2.590   2.750 -0.2344  0.6395  0.1603
 2177SOL     OW18163   0.931   4.267   4.316 -0.3337  0.1444  0.3202
 2177SOL    HW118164   0.842   4.266   4.352 -1.0303  0.2825 -1.3962
 2177SOL    HW218165   0.962   4.357   4.324 -1.7224  0.5130  1.5039
 2178SOL     OW18166   0.010   0.068   5.499 -0.1665 -0.2675  0.3214
 2178SOL    HW118167   4.662   0.024   5.495  0.3576 -1.1928 -0.8524
 2178SOL    HW218168   4.722   0.148   5.544 -1.9238  0.3497 -1.7684
 2179SOL     OW18169   2.943   1.561   2.239  0.2780 -0.1449  0.0110
 2179SOL    HW118170   2.893   1.581   2.318  1.6919  2.4269  0.2408
 2179SOL    HW218171   2.945   1.650   2.205 -1.7164 -0.1639 -0.1265
 2180SOL     OW18172   1.603   1.741   1.189  0.0486 -0.0755 -0.1324
 2180SOL    HW118173   1.601   1.672   1.124  0.5133 -0.2384  0.0286
 2180SOL    HW218174   1.589   1.819   1.135 -1.5029 -0.2604  0.0026
 2181SOL     OW18175   3.676   3.374   6.498 -0.1108 -0.3803  0.1569
 2181SOL    HW118176   3.699   3.432   6.571  0.9769  0.4876 -0.8633
 2181SOL    HW218177   3.580   3.376   6.495 -0.1023 -0.5316 -0.1561
 2182SOL     OW18178   4.614   0.077  10.878 -0.2009 -0.0464 -0.0642
 2182SOL    HW118179   4.570   0.127  10.947 -1.0715 -2.2026  0.9503
 2182SOL    HW218180   4.533   0.039  10.844  1.4267 -2.2480 -1.4534
 2183SOL     OW18181   0.965   2.560   5.812  0.0882  0.2620  0.4425
 2183SOL    HW118182   1.039   2.564   5.874 -0.5168 -0.9118  1.2342
 2183SOL    HW218183   0.931   2.477   5.846 -0.7764  0.5718  0.3213
 2184SOL     OW18184   0.586   3.228  15.208  0.1710 -0.7186 -0.0840
 2184SOL    HW118185   0.505   3.263  15.245 -0.9656 -1.9571 -1.4368
 2184SOL    HW218186   0.653   3.270  15.263  0.5438  0.4683 -1.4500
 2185SOL     OW18187   2.689   3.374   9.813 -0.1196  0.1593  0.2664
 2185SOL    HW118188   2.676   3.454   9.864  0.3556  0.1156  0.4515
 2185SOL    HW218189   2.691   3.313   9.887 -1.6035  1.2199  1.1857
 2186SOL     OW18190   2.148   4.606   6.495  0.2198 -0.7816 -0.2262
 2186SOL    HW118191   2.066   4.647   6.521  0.3895 -1.3000  1.1046
 2186SOL    HW218192   2.134   4.527   6.547 -1.8510 -0.4684 -0.3124
 2187SOL     OW18193   1.691   4.544   7.525 -0.1504 -0.4090 -0.2955
 2187SOL    HW118194   1.766   4.526   7.581  0.7050  1.0299 -0.9842
 2187SOL    HW218195   1.704   4.474   7.461  0.7650  1.3462 -2.0361
 2188SOL     OW18196   2.777   2.920  17.212 -0.0917 -0.1513  0.3192
 2188SOL    HW118197   2.803   2.915  17.304 -0.1139  0.6247  0.3697
 2188SOL    HW218198   2.686   2.894  17.223 -0.2025  0.1975  0.2069
 2189SOL     OW18199   3.230   0.085   9.116 -0.2970  0.1170 -0.3435
 2189SOL    HW118200   3.234   0.134   9.033  0.6734  0.3542 -0.1572
 2189SOL    HW218201   3.140   0.096   9.146 -0.8319 -1.0215 -1.4957
 2190SOL     OW18202   0.245   3.672   2.955 -0.3054 -0.1312 -0.3220
 2190SOL    HW118203   0.297   3.593   2.942 -0.4329 -0.1638 -0.6340
 2190SOL    HW218204   0.299   3.745   2.924  0.1766 -0.8804 -1.2269
 2191SOL     OW18205   0.355   1.998   8.179 -0.1991 -0.2758 -0.2314
 2191SOL    HW118206   0.330   2.058   8.249 -0.5757 -1.1863  0.4085
 2191SOL    HW218207   0.273   1.958   8.151  0.8790 -1.7568 -1.2926
 2192SOL     OW18208   4.118   4.011  11.692  0.3199  0.4428 -0.5758
 2192SOL    HW118209   4.099   4.088  11.639 -3.4798 -1.4240 -1.9569
 2192SOL    HW218210   4.161   4.057  11.764  1.0399 -0.7334 -0.2450
 2193SOL     OW18211   0.091   3.014   4.602 -0.3579  0.3361 -0.1644
 2193SOL    HW118212   0.182   3.019   4.573 -0.3105  1.2848  0.1488
 2193SOL    HW218213   0.077   3.108   4.596  2.3835  0.8319  1.3195
 2194SOL     OW18214   3.976   4.404   0.660  0.6203  0.3343  0.3384
 2194SOL    HW118215   3.949   4.496   0.666  2.8048  1.0363 -0.5865
 2194SOL    HW218216   4.042   4.422   0.593 -2.2687  1.5383 -2.1478
 2195SOL     OW18217   4.338   4.068   6.761  0.0777 -0.1146  0.0337
 2195SOL    HW118218   4.248   4.068   6.728 -0.3101  1.8190  1.1510
 2195SOL    HW218219   4.335   4.020   6.843  0.7176  0.5377  0.4334
 2196SOL     OW18220   4.405   2.673   8.941  0.1609 -0.0115 -0.2180
 2196SOL    HW118221   4.451   2.707   9.017  1.0046 -0.3061 -0.6047
 2196SOL    HW218222   4.409   2.578   8.949  0.2636  0.2287  2.6643
 2197SOL     OW18223   0.621   2.671  13.694 -0.3500  0.2313  0.3198
 2197SOL    HW118224   0.610   2.749  13.639  2.6421  2.3280  2.7087
 2197SOL    HW218225   0.708   2.642  13.668 -1.0088  0.8294 -2.5073
 2198SOL     OW18226   0.655   2.152   6.065  0.0997  0.0008 -0.0881
 2198SOL    HW118227   0.627   2.062   6.048 -0.2405  0.3661 -1.4357
 2198SOL    HW218228   0.640   2.146   6.159  3.0944 -0.4148  0.3880
 2199SOL     OW18229   0.284   1.172   9.843  0.3729  0.2733  0.5288
 2199SOL    HW118230   0.241   1.103   9.893  1.4076  0.1747  1.2916
 2199SOL    HW218231   0.374   1.138   9.838 -0.6293 -2.5849  2.2349
 2200SOL     OW18232   0.997   1.952   2.335  0.6637 -0.5230 -0.2497
 2200SOL    HW118233   1.010   1.999   2.252 -0.5129 -2.8074 -1.7144
 2200SOL    HW218234   0.935   1.884   2.309 -0.7551  0.2473  1.0678
 2201SOL     OW18235   3.101   0.819   1.741  0.3672  0.0240 -0.2399
 2201SOL    HW118236   3.052   0.843   1.661  1.2808 -0.2740 -0.8819
 2201SOL    HW218237   3.035   0.774   1.794 -0.6494  1.1630 -0.5085
 2202SOL     OW18238   4.363   4.597  12.867  0.1866 -0.5385 -0.4632
 2202SOL    HW118239   4.437   4.657  12.866 -0.0019 -0.2843  1.2591
 2202SOL    HW218240   4.381   4.557  12.952 -0.2010  3.2857  1.4334
 2203SOL     OW18241   3.114   2.484   0.660 -0.5479  0.2095 -0.5146
 2203SOL    HW118242   3.051   2.557   0.662 -0.5332  0.1404  3.0199
 2203SOL    HW218243   3.051   2.414   0.679  1.1055 -1.2561 -0.5469
 2204SOL     OW18244   0.004   1.793  17.470  0.2632  0.5310 -0.0308
 2204SOL    HW118245   4.702   1.880  17.477  0.9061  0.7769  0.5820
 2204SOL    HW218246   0.002   1.764  17.562 -0.8139  0.3926 -0.0966
 2205SOL     OW18247   1.881   1.934  11.043 -0.4616  0.0290 -0.2047
 2205SOL    HW118248   1.940   1.868  11.080 -1.0118 -0.1889  0.2832
 2205SOL    HW218249   1.938   1.950  10.968  0.7932 -0.3458  0.6661
 2206SOL     OW18250   1.466   2.171   1.061 -0.5167  0.2626 -0.2615
 2206SOL    HW118251   1.498   2.240   1.120  0.4890 -0.7672  0.3846
 2206SOL    HW218252   1.522   2.189   0.985  1.2694 -1.5131  0.6686
 2207SOL     OW18253   2.166   3.424   4.612  0.4119 -0.1676  0.5827
 2207SOL    HW118254   2.108   3.355   4.645 -0.1592  0.6939  1.3934
 2207SOL    HW218255   2.109   3.500   4.620 -2.0145 -1.7063 -2.2664
 2208SOL     OW18256   2.841   2.811   5.539 -0.1386  0.6869  0.0778
 2208SOL    HW118257   2.854   2.762   5.620  0.1595 -0.5564 -0.7282
 2208SOL    HW218258   2.761   2.768   5.508  1.2801 -0.0595 -2.5534
 2209SOL     OW18259   1.856   0.903   7.175 -0.3628 -0.4631 -0.1040
 2209SOL    HW118260   1.895   0.960   7.109  1.1283 -2.3630 -0.8815
 2209SOL    HW218261   1.933   0.849   7.191  0.1175  0.1392 -0.3908
 2210SOL     OW18262   0.877   3.766   9.207 -0.0391 -0.6014 -0.0738
 2210SOL    HW118263   0.967   3.799   9.210 -0.4396  0.5861 -1.2045
 2210SOL    HW218264   0.836   3.807   9.283 -1.2830 -1.3809 -0.3185
 2211SOL     OW18265   0.110   2.074  12.096 -0.1530 -0.4832  0.0514
 2211SOL    HW118266   0.174   2.102  12.161 -0.8100  2.2744 -0.5230
 2211SOL    HW218267   0.157   1.997  12.064  0.7379 -0.4433  1.2335
 2212SOL     OW18268   4.017   0.224  15.647 -0.0021  0.3579 -0.9474
 2212SOL    HW118269   3.946   0.159  15.645  0.8966 -0.6526 -0.1613
 2212SOL    HW218270   4.082   0.154  15.643 -0.2915  0.2219 -3.4559
 2213SOL     OW18271   4.715   4.512   4.748 -0.1070 -0.0631 -0.2739
 2213SOL    HW118272   0.004   4.480   4.834 -0.3009  0.9543  0.1737
 2213SOL    HW218273   4.630   4.472   4.729 -0.9796  2.4691 -1.6958
 2214SOL     OW18274   4.722   3.785   1.521 -0.4168 -0.0519 -0.3737
 2214SOL    HW118275   4.700   3.873   1.490  2.2969  1.1775  1.1403
 2214SOL    HW218276   0.052   3.754   1.460 -0.0832  1.0104 -0.5458
 2215SOL     OW18277   2.670   4.146   9.803  0.1583 -0.5221 -0.4820
 2215SOL    HW118278   2.621   4.201   9.864  1.9106 -1.0230  1.3915
 2215SOL    HW218279   2.755   4.190   9.799 -0.0220 -0.2269 -0.9436
 2216SOL     OW18280   4.619   4.205   4.382 -0.1702  0.8224  0.8928
 2216SOL    HW118281   4.666   4.125   4.361  0.7836  1.2990  1.2233
 2216SOL    HW218282   4.677   4.271   4.344 -0.6660  0.3116 -0.7530
 2217SOL     OW18283   0.262   0.132   6.481  0.4486 -0.3130 -0.6803
 2217SOL    HW118284   0.331   0.111   6.419  1.4683 -0.3939  0.4850
 2217SOL    HW218285   0.246   0.057   6.538  2.3848 -0.5012 -0.3997
 2218SOL     OW18286   3.724   3.909   1.064  0.0898  0.1368 -0.5221
 2218SOL    HW118287   3.705   4.002   1.054  0.0931  0.1647 -0.2643
 2218SOL    HW218288   3.723   3.909   1.159  1.1976  1.1152 -0.5187
 2219SOL     OW18289   4.463   0.419   4.232  1.0528  0.4069  0.4089
 2219SOL    HW118290   4.434   0.477   4.161  0.1170  0.5716  0.9154
 2219SOL    HW218291   4.543   0.383   4.193  1.3039  1.9960 -0.5409
 2220SOL     OW18292   0.920   1.457   2.653  0.1387 -0.0252  0.1573
 2220SOL    HW118293   0.910   1.367   2.622  2.2879  0.4457 -1.8335
 2220SOL    HW218294   0.829   1.485   2.641  0.2857  0.0302 -0.8439
 2221SOL     OW18295   2.156   1.244   6.252  0.5800 -0.7402 -0.5619
 2221SOL    HW118296   2.098   1.204   6.317  0.2238 -0.0696 -0.4581
 2221SOL    HW218297   2.237   1.224   6.298  0.4422 -1.7689 -0.7770
 2222SOL     OW18298   3.778   4.220   1.654  0.0134 -0.2699 -0.6147
 2222SOL    HW118299   3.852   4.167   1.628  1.4828  1.5961 -0.2374
 2222SOL    HW218300   3.717   4.165   1.703  0.8222 -1.5033 -1.0141
 2223SOL     OW18301   2.019   3.110   6.071  0.4781 -0.0153 -0.0552
 2223SOL    HW118302   2.028   3.192   6.022 -0.0232  0.9892  1.5207
 2223SOL    HW218303   1.989   3.149   6.153 -0.2388  0.8840 -0.7297
 2224SOL     OW18304   1.592   3.192   7.629 -0.0194 -0.1467  0.3192
 2224SOL    HW118305   1.502   3.215   7.605 -0.1984 -0.8934  0.2759
 2224SOL    HW218306   1.636   3.224   7.550 -0.7294 -1.0999 -0.4690
 2225SOL     OW18307   1.274   2.670   4.997  0.1291  0.4040  0.6635
 2225SOL    HW118308   1.369   2.670   5.012  0.2099  0.0329  0.1629
 2225SOL    HW218309   1.241   2.752   5.033  0.3383  0.3087  1.0687
 2226SOL     OW18310   2.829   3.726   6.123 -0.3977 -0.0933 -0.1481
 2226SOL    HW118311   2.891   3.661   6.092 -2.3186 -0.9309 -2.2928
 2226SOL    HW218312   2.765   3.671   6.168 -0.2412 -1.4193 -1.5464
 2227SOL     OW18313   1.179   0.317   8.576 -0.1155 -0.3060  0.3811
 2227SOL    HW118314   1.177   0.294   8.668  0.3024  0.2002  0.5142
 2227SOL    HW218315   1.169   0.412   8.577  1.2319 -0.1575 -0.1490
 2228SOL     OW18316   3.303   3.187   8.587  0.4397  0.1039  0.0099
 2228SOL    HW118317   3.213   3.155   8.587  0.4477  0.0944  0.9574
 2228SOL    HW218318   3.348   3.128   8.647 -0.4001  0.7077  1.2412
 2229SOL     OW18319   1.876   4.122   1.026 -0.0456 -0.3225  0.3509
 2229SOL    HW118320   1.872   4.213   0.997  0.2090 -0.1087  0.9638
 2229SOL    HW218321   1.807   4.117   1.092  0.1432  0.2403  0.5862
 2230SOL     OW18322   3.950   0.279   5.162  0.0547  0.1370 -0.1999
 2230SOL    HW118323   3.919   0.361   5.122 -0.9262 -0.4912 -0.7196
 2230SOL    HW218324   4.021   0.316   5.214 -1.6634 -0.9424  2.9506
 2231SOL     OW18325   2.470   1.953   8.799 -0.1278  0.2650  0.7814
 2231SOL    HW118326   2.546   2.004   8.825 -0.7064  1.4289  0.1956
 2231SOL    HW218327   2.474   1.887   8.869 -1.4850  1.2173  1.7476
 2232SOL     OW18328   0.242   1.972   1.538  0.0028 -0.3205  0.0588
 2232SOL    HW118329   0.258   2.007   1.450  1.4788  0.6786  0.7363
 2232SOL    HW218330   0.329   1.956   1.573  0.9143  2.5586 -0.9093
 2233SOL     OW18331   0.632   3.472   7.063 -0.1141  0.1786 -0.0704
 2233SOL    HW118332   0.602   3.479   7.154 -0.0167  3.3008 -0.3046
 2233SOL    HW218333   0.694   3.399   7.062 -0.2372  0.0804 -0.6772
 2234SOL     OW18334   0.585   3.655  12.019 -0.4663 -0.0708  0.5174
 2234SOL    HW118335   0.564   3.590  11.952  1.4703  1.9825 -2.0926
 2234SOL    HW218336   0.659   3.703  11.983  0.0940 -0.2668  1.4076
 2235SOL     OW18337   1.108   3.155   0.305 -0.0230 -0.1204 -0.1036
 2235SOL    HW118338   1.152   3.094   0.364  0.7019 -1.8173 -2.3958
 2235SOL    HW218339   1.190   3.186   0.266 -0.4585  2.3920  0.9544
 2236SOL     OW18340   2.433   1.539   8.679 -0.1540 -0.1586 -0.4285
 2236SOL    HW118341   2.507   1.533   8.619 -0.8766  2.6883 -1.6374
 2236SOL    HW218342   2.458   1.612   8.735 -2.3189  0.4102 -0.2101
 2237SOL     OW18343   4.058   2.557   4.354  1.0207  0.2527  0.3820
 2237SOL    HW118344   4.060   2.564   4.449 -1.5186  0.1241  0.4550
 2237SOL    HW218345   4.117   2.485   4.332 -1.2416 -1.0595 -1.3905
 2238SOL     OW18346   0.141   0.255   3.019  0.3284 -0.9748  0.0669
 2238SOL    HW118347   0.119   0.309   2.943 -0.3845 -1.6701 -0.2228
 2238SOL    HW218348   0.231   0.283   3.035 -0.1412  0.0693  0.9175
 2239SOL     OW18349   4.047   0.609   6.709  0.4869 -0.4695 -0.0025
 2239SOL    HW118350   4.004   0.529   6.739  0.1728 -0.2813  0.0553
 2239SOL    HW218351   3.988   0.638   6.640 -0.1509 -2.3327 -0.2348
 2240SOL     OW18352   0.412   2.541  13.815 -0.5942  0.0227 -0.6001
 2240SOL    HW118353   0.482   2.588  13.771  0.6031 -0.0779  1.2125
 2240SOL    HW218354   0.464   2.475  13.859  0.4936  0.1992 -1.6304
 2241SOL     OW18355   3.076   2.582   8.008  0.0073  0.3448  0.2632
 2241SOL    HW118356   3.041   2.656   7.960  0.4639 -1.2367 -2.4886
 2241SOL    HW218357   3.124   2.622   8.081  1.5609  1.5031 -1.3999
 2242SOL     OW18358   2.607   0.333   3.112 -0.0298 -0.2585 -0.0112
 2242SOL    HW118359   2.614   0.286   3.195  1.7012 -0.2439 -0.1553
 2242SOL    HW218360   2.613   0.426   3.131  1.9151  0.0045 -1.8740
 2243SOL     OW18361   3.596   1.297  16.754 -0.5541  0.1969  0.2849
 2243SOL    HW118362   3.621   1.235  16.685 -2.2331 -0.8480  0.6178
 2243SOL    HW218363   3.638   1.250  16.826  1.8045  2.3100  0.3039
 2244SOL     OW18364   4.178   0.526   7.156 -0.5170  0.0165  0.2799
 2244SOL    HW118365   4.176   0.579   7.235  0.5398 -0.1295  0.4015
 2244SOL    HW218366   4.141   0.589   7.094 -1.4915  1.1247  1.9828
 2245SOL     OW18367   0.543   2.337  13.179 -0.2677  0.5222 -0.0039
 2245SOL    HW118368   0.568   2.406  13.116 -1.4485 -0.9610 -2.0909
 2245SOL    HW218369   0.553   2.256  13.129 -2.7645 -0.2291  0.7400
 2246SOL     OW18370   1.199   3.177   4.104  0.0797 -0.3149 -0.4701
 2246SOL    HW118371   1.110   3.151   4.128 -0.4430  2.3504  0.4630
 2246SOL    HW218372   1.204   3.265   4.140 -0.3509  0.2833 -1.8946
 2247SOL     OW18373   0.062   3.299   9.229 -0.5863  0.2710 -0.0152
 2247SOL    HW118374   0.096   3.377   9.185  0.6097 -1.0616 -1.4306
 2247SOL    HW218375   0.083   3.218   9.183 -1.0274  0.7091 -0.9677
 2248SOL     OW18376   0.976   1.378  10.803 -0.2891  0.0786  0.4697
 2248SOL    HW118377   0.962   1.388  10.708 -1.5357  1.0554  0.7532
 2248SOL    HW218378   1.070   1.370  10.817 -0.7266 -1.3146  2.5382
 2249SOL     OW18379   1.956   2.154   1.164  0.0506 -0.1377  0.0237
 2249SOL    HW118380   1.989   2.243   1.175  0.5247 -0.2247 -0.7075
 2249SOL    HW218381   1.876   2.168   1.114  0.8288  2.3540 -0.5298
 2250SOL     OW18382   4.672   2.431   3.559  0.2132 -0.1509  0.1845
 2250SOL    HW118383   4.690   2.348   3.514 -1.2650 -0.3002 -0.1331
 2250SOL    HW218384   4.609   2.403   3.626  0.4095 -1.5313 -0.2002
 2251SOL     OW18385   0.771   2.761   6.957 -0.6162 -0.5755  0.2405
 2251SOL    HW118386   0.725   2.805   7.029 -2.0595 -1.0727 -0.3787
 2251SOL    HW218387   0.808   2.688   7.008  2.0085 -0.0068 -0.8758
 2252SOL     OW18388   4.376   2.325  10.911  0.2671  0.4208  0.8305
 2252SOL    HW118389   4.336   2.238  10.919 -1.5050  1.1972  0.2450
 2252SOL    HW218390   4.431   2.322  10.989  1.0888  1.9147  0.2995
 2253SOL     OW18391   4.602   0.793   2.240  0.0312  0.1865 -0.3424
 2253SOL    HW118392   4.597   0.792   2.145 -1.0524  0.4493 -0.2902
 2253SOL    HW218393   4.639   0.876   2.269 -3.5992  1.1857  1.4779
 2254SOL     OW18394   1.101   2.377   8.866 -0.0209  0.1505  0.0315
 2254SOL    HW118395   1.156   2.348   8.938 -0.5281  1.9091  1.1236
 2254SOL    HW218396   1.162   2.416   8.804 -0.3296  1.8317  0.7992
 2255SOL     OW18397   3.589   4.542   2.893  0.4712 -0.2981 -0.6204
 2255SOL    HW118398   3.564   4.559   2.803  1.6908  2.0855 -0.5109
 2255SOL    HW218399   3.544   4.461   2.919 -1.3529  0.2494 -2.0880
 2256SOL     OW18400   0.241   2.343   3.053  0.5281 -0.2539  0.0347
 2256SOL    HW118401   0.159   2.301   3.026 -0.9390  1.6971  1.4971
 2256SOL    HW218402   0.206   2.423   3.092  1.8722  1.0033 -1.3025
 2257SOL     OW18403   2.439   2.885   3.080 -0.4144 -0.1394  0.6589
 2257SOL    HW118404   2.351   2.905   3.112 -0.4668  0.2101  0.2938
 2257SOL    HW218405   2.442   2.795   3.113 -2.8482 -0.4459  0.0659
 2258SOL     OW18406   4.394   3.078   4.727  0.8520  0.0399 -0.5392
 2258SOL    HW118407   4.447   2.998   4.730  0.5098 -0.1865 -0.5041
 2258SOL    HW218408   4.360   3.076   4.817  1.2977 -0.1448 -0.3730
 2259SOL     OW18409   2.290   1.735  11.450 -0.8099 -0.0373 -0.2048
 2259SOL    HW118410   2.262   1.813  11.403  1.1054  0.9003  0.2157
 2259SOL    HW218411   2.346   1.787  11.509  1.0567  0.0576 -2.0701
 2260SOL     OW18412   3.751   4.391   1.860 -0.3934 -0.8071 -0.2572
 2260SOL    HW118413   3.834   4.435   1.843 -0.1069 -1.1005  0.3579
 2260SOL    HW218414   3.749   4.315   1.802 -0.2528  0.1151 -1.4696
 2261SOL     OW18415   1.340   4.088   6.932 -0.1080 -0.3453  0.3342
 2261SOL    HW118416   1.250   4.070   6.907  1.0829 -2.4681 -2.4961
 2261SOL    HW218417   1.346   4.184   6.933  1.2540 -0.4015 -1.6829
 2262SOL     OW18418   2.500   3.108   1.887  0.3715 -0.4525  0.3824
 2262SOL    HW118419   2.594   3.104   1.904 -0.1127  0.3370  3.3818
 2262SOL    HW218420   2.480   3.194   1.924  0.2628 -1.7511  3.3507
 2263SOL     OW18421   1.634   0.900  11.771  0.1435 -0.9882  0.0115
 2263SOL    HW118422   1.617   0.947  11.689 -1.9556  2.3947  2.4323
 2263SOL    HW218423   1.594   0.970  11.822 -0.3504 -0.7442 -0.7125
 2264SOL     OW18424   0.040   4.440  16.095 -0.3066  0.0725  0.2547
 2264SOL    HW118425   0.046   4.377  16.023 -1.3169  1.1521 -0.7630
 2264SOL    HW218426   4.685   4.427  16.116  0.0083 -2.5217  0.0367
 2265SOL     OW18427   3.549   4.408  10.507  0.1718  0.2455 -0.2954
 2265SOL    HW118428   3.509   4.338  10.455  1.8173 -0.2758 -0.8497
 2265SOL    HW218429   3.642   4.400  10.486  0.5258 -4.6030  3.0389
 2266SOL     OW18430   2.940   2.213   9.108  0.1522  0.5816  0.7621
 2266SOL    HW118431   2.992   2.187   9.032 -1.0338  0.4641  0.0036
 2266SOL    HW218432   2.944   2.309   9.099  1.6183  0.4444  0.0092
 2267SOL     OW18433   4.171   1.132   2.212  0.3285 -0.6152  0.2400
 2267SOL    HW118434   4.116   1.088   2.277  0.1166  1.2850  1.3496
 2267SOL    HW218435   4.248   1.088   2.250 -0.4788 -1.4883  0.8856
 2268SOL     OW18436   1.945   2.147   7.457  0.3309  0.6593 -0.2326
 2268SOL    HW118437   1.980   2.174   7.372  0.3235 -0.4963 -0.6138
 2268SOL    HW218438   1.875   2.086   7.432  0.1986  1.8120 -2.6606
 2269SOL     OW18439   2.107   1.347  10.592 -0.1359  0.9152  0.2007
 2269SOL    HW118440   2.088   1.277  10.655  1.1644  0.7530  0.4266
 2269SOL    HW218441   2.083   1.428  10.636  1.3919  0.7999  1.2574
 2270SOL     OW18442   2.099   0.424  13.866 -0.7799 -0.5051  0.6446
 2270SOL    HW118443   2.136   0.336  13.863  2.0473  0.6882  0.0261
 2270SOL    HW218444   2.177   0.479  13.871  0.0975 -1.7045  0.2543
 2271SOL     OW18445   0.296   1.782  16.589 -0.1683  1.1506 -0.3039
 2271SOL    HW118446   0.211   1.741  16.607  1.2567 -1.8481 -0.4991
 2271SOL    HW218447   0.276   1.822  16.504  3.2829  1.5232 -0.9405
 2272SOL     OW18448   1.783   3.848   5.163  0.2367 -0.6723  0.3314
 2272SOL    HW118449   1.871   3.830   5.131  0.7109  0.8205  0.7987
 2272SOL    HW218450   1.771   3.788   5.236  0.7928 -1.8817 -0.5700
 2273SOL     OW18451   0.614   3.534  10.099 -0.1493 -0.0843 -0.0699
 2273SOL    HW118452   0.525   3.567  10.098 -0.2626 -0.3431  1.4495
 2273SOL    HW218453   0.599   3.446  10.134  1.8519 -1.0824 -1.7163
 2274SOL     OW18454   1.605   2.959   2.041  0.0750  1.0722 -0.1224
 2274SOL    HW118455   1.679   3.011   2.010  1.7021 -0.3862  1.2729
 2274SOL    HW218456   1.547   2.953   1.965  0.0394  4.3130 -0.3373
 2275SOL     OW18457   4.424   3.764   3.185 -0.1270  0.1979  0.5035
 2275SOL    HW118458   4.505   3.785   3.138 -0.7889  0.7452 -0.4066
 2275SOL    HW218459   4.396   3.682   3.143  4.1590 -0.6464 -0.7130
 2276SOL     OW18460   0.236   0.150  16.392 -0.1006  0.2353 -0.1003
 2276SOL    HW118461   0.190   0.092  16.454  2.3209 -1.8343 -0.2219
 2276SOL    HW218462   0.244   0.233  16.438 -4.3333  1.7946 -2.2080
 2277SOL     OW18463   0.232   2.326  11.248 -0.2663  0.1659  0.0689
 2277SOL    HW118464   0.287   2.254  11.279 -1.0617 -0.7574 -0.6676
 2277SOL    HW218465   0.148   2.281  11.257  0.5515 -1.7047 -1.6699
 2278SOL     OW18466   3.882   3.138   1.964  0.3676  0.2304 -1.0072
 2278SOL    HW118467   3.909   3.199   1.895  0.1422  0.3139 -1.0228
 2278SOL    HW218468   3.946   3.069   1.947  0.8948  1.2809 -3.3121
 2279SOL     OW18469   2.030   3.445   3.522  0.1146  0.2560 -0.0893
 2279SOL    HW118470   2.016   3.390   3.599 -1.5396 -1.3914 -1.5453
 2279SOL    HW218471   1.964   3.403   3.466  0.1592  0.6355 -0.4199
 2280SOL     OW18472   1.473   0.582   8.618 -0.5440 -0.1752  0.6447
 2280SOL    HW118473   1.461   0.645   8.690 -2.7012  0.2695 -0.1020
 2280SOL    HW218474   1.565   0.603   8.600  0.0868 -2.7402  0.9043
 2281SOL     OW18475   1.969   4.360   9.053  0.2011 -0.4883  0.3115
 2281SOL    HW118476   1.990   4.341   9.144 -2.4007  2.7067  1.5961
 2281SOL    HW218477   2.038   4.421   9.025 -1.8924  0.7759 -2.0725
 2282SOL     OW18478   4.343   0.232   5.975  0.2055 -0.1356 -0.2660
 2282SOL    HW118479   4.290   0.168   6.023  0.9604 -2.3361 -2.3747
 2282SOL    HW218480   4.409   0.171   5.942 -0.2391  0.2147 -1.8107
 2283SOL     OW18481   1.609   4.351   4.446  0.2246 -0.0827  0.4436
 2283SOL    HW118482   1.597   4.386   4.358 -2.0631  0.3355  0.9231
 2283SOL    HW218483   1.544   4.401   4.495 -0.0422 -0.3732  0.3897
 2284SOL     OW18484   2.457   0.459   9.306  0.9383  0.0290  0.1205
 2284SOL    HW118485   2.482   0.400   9.234  0.9841  1.8998 -1.3901
 2284SOL    HW218486   2.462   0.536   9.249  0.8479  0.8717  1.2538
 2285SOL     OW18487   4.210   3.756   4.470 -0.2397  0.6398  0.1840
 2285SOL    HW118488   4.163   3.672   4.473 -4.1031  2.7332 -1.7556
 2285SOL    HW218489   4.299   3.735   4.499 -0.3861 -1.0956 -0.6000
 2286SOL     OW18490   0.048   0.882   8.103  0.8939  0.0398  0.0589
 2286SOL    HW118491   0.103   0.900   8.179  1.3509  0.6021 -0.4042
 2286SOL    HW218492   0.084   0.804   8.061 -2.0073 -0.4514 -1.5243
 2287SOL     OW18493   0.475   1.509   0.116  0.0182  0.1694 -0.5162
 2287SOL    HW118494   0.494   1.435   0.058 -1.8717 -0.3862 -0.4191
 2287SOL    HW218495   0.388   1.529   0.083  0.0200 -0.4351 -0.8848
 2288SOL     OW18496   0.250   0.154   1.433 -0.0720 -0.4085 -1.0751
 2288SOL    HW118497   0.282   0.236   1.471  1.4565 -1.0404 -1.0053
 2288SOL    HW218498   0.324   0.135   1.376 -0.2347 -0.0059 -1.4200
 2289SOL     OW18499   4.594   1.549   8.427 -0.2247 -0.1826  0.1290
 2289SOL    HW118500   4.683   1.580   8.443 -1.2297  2.9370 -0.2500
 2289SOL    HW218501   4.549   1.631   8.406 -0.9774 -1.3835 -2.8787
 2290SOL     OW18502   2.938   3.556   2.161  0.2078  0.2082  0.1449
 2290SOL    HW118503   2.860   3.519   2.118  1.3628 -0.4982 -1.3360
 2290SOL    HW218504   2.902   3.591   2.243  0.5069 -1.2070  0.8784
 2291SOL     OW18505   4.464   2.277   9.484 -0.3227  0.4282 -0.8843
 2291SOL    HW118506   4.504   2.196   9.453  0.0039 -1.3769  4.3059
 2291SOL    HW218507   4.381   2.254   9.525  0.1868  1.1884  0.5806
 2292SOL     OW18508   0.030   4.433   7.901  0.7203 -0.6100  0.7406
 2292SOL    HW118509   0.093   4.443   7.973  2.5100  3.7232 -1.4165
 2292SOL    HW218510   0.084   4.415   7.824  0.2037  0.2625  0.1744
 2293SOL     OW18511   0.610   4.282  13.752 -0.4396 -0.8705  0.3658
 2293SOL    HW118512   0.535   4.223  13.753 -0.8709 -0.3728 -2.6408
 2293SOL    HW218513   0.609   4.314  13.843 -1.9835 -1.1620  0.4592
 2294SOL     OW18514   2.685   2.153   0.277 -0.6337  0.1488  0.3531
 2294SOL    HW118515   2.604   2.140   0.228 -1.1024  1.8025  0.7120
 2294SOL    HW218516   2.728   2.071   0.252 -0.9898  0.1562 -0.2949
 2295SOL     OW18517   0.302   4.017   2.522 -0.2675  0.0792 -0.3247
 2295SOL    HW118518   0.282   3.991   2.612 -0.6585  2.0511  0.1721
 2295SOL    HW218519   0.219   3.999   2.477 -0.5152  0.7932 -0.1589
 2296SOL     OW18520   1.428   3.224   3.773  0.0289 -0.2913  0.3260
 2296SOL    HW118521   1.491   3.285   3.734  0.8210  0.7109  3.1546
 2296SOL    HW218522   1.353   3.258   3.724 -0.9995 -0.0331  2.0366
 2297SOL     OW18523   2.112   4.077   5.086  0.1844 -0.4059 -0.2290
 2297SOL    HW118524   2.185   4.072   5.025 -1.8195 -0.0489 -2.6694
 2297SOL    HW218525   2.099   3.984   5.101 -1.5864 -0.1127  0.0564
 2298SOL     OW18526   2.575   4.495   8.452  0.0446  0.3849  0.2658
 2298SOL    HW118527   2.664   4.530   8.443  0.1014 -0.6979 -3.6374
 2298SOL    HW218528   2.598   4.404   8.434 -1.4275  0.0528  0.1339
 2299SOL     OW18529   0.769   3.520   9.541  0.4556  0.5518  0.4624
 2299SOL    HW118530   0.778   3.449   9.477 -0.2176  1.6550 -0.8627
 2299SOL    HW218531   0.827   3.588   9.506 -0.3389  0.7499 -0.4863
 2300SOL     OW18532   3.693   4.124   8.859  0.0736  0.0960 -0.1554
 2300SOL    HW118533   3.606   4.128   8.818 -0.5906  3.9556  1.5838
 2300SOL    HW218534   3.714   4.032   8.842  0.2985  0.4131 -1.6497
 2301SOL     OW18535   0.161   2.050   5.215 -0.5733 -0.1634  0.0776
 2301SOL    HW118536   0.134   2.051   5.307 -1.2766 -0.1032 -0.1360
 2301SOL    HW218537   0.109   1.977   5.182  0.6871 -0.1556 -1.9388
 2302SOL     OW18538   2.482   2.922   2.241 -0.2094 -0.1038 -0.1232
 2302SOL    HW118539   2.390   2.929   2.217  0.1233 -2.9805 -2.2195
 2302SOL    HW218540   2.487   2.981   2.316 -1.4393 -0.5012  0.2745
 2303SOL     OW18541   0.019   1.898  14.721 -0.1870 -0.5743 -0.3479
 2303SOL    HW118542   0.042   1.873  14.632 -0.1732 -0.2763 -0.4285
 2303SOL    HW218543   0.106   1.906  14.761 -0.2783 -0.3721 -0.1856
 2304SOL     OW18544   4.175   3.946   4.663 -0.2421  0.0737  0.1016
 2304SOL    HW118545   4.160   4.030   4.621 -0.2918 -0.7790 -1.5888
 2304SOL    HW218546   4.187   3.884   4.591  1.9276  0.9329 -0.2601
 2305SOL     OW18547   2.242   3.693   5.839  0.0864  0.1329 -0.0098
 2305SOL    HW118548   2.244   3.722   5.930  1.1460  1.4382 -0.4459
 2305SOL    HW218549   2.310   3.625   5.846 -1.4399 -1.1080  2.9364
 2306SOL     OW18550   1.250   3.414   5.414  0.0743 -0.3292 -0.0224
 2306SOL    HW118551   1.229   3.499   5.375  0.4632  0.6386  1.8699
 2306SOL    HW218552   1.318   3.386   5.354 -0.6045  2.1251 -1.9290
 2307SOL     OW18553   2.725   0.555   8.848  0.1464  0.4964  0.4566
 2307SOL    HW118554   2.737   0.461   8.830  3.3595  1.2119 -1.0475
 2307SOL    HW218555   2.650   0.576   8.792 -0.0897 -0.9175  0.2411
 2308SOL     OW18556   0.648   2.964   5.465  0.0081 -0.1756 -0.2166
 2308SOL    HW118557   0.727   2.944   5.414 -1.0448 -1.4137 -1.3517
 2308SOL    HW218558   0.582   2.963   5.396 -0.1412 -3.0866 -0.0611
 2309SOL     OW18559   3.887   2.292   9.612  0.0768  0.1554  0.0742
 2309SOL    HW118560   3.918   2.377   9.583 -1.2526  0.8197  0.5703
 2309SOL    HW218561   3.820   2.279   9.545  0.6605  1.5169 -0.7516
 2310SOL     OW18562   4.286   0.449  10.422  0.4439 -0.0453 -0.4174
 2310SOL    HW118563   4.352   0.517  10.408 -0.7477  1.1096 -0.4057
 2310SOL    HW218564   4.261   0.423  10.334  2.5291 -2.3570 -0.3454
 2311SOL     OW18565   1.132   1.004   8.962 -0.4364 -0.0790  0.5332
 2311SOL    HW118566   1.191   1.072   8.930 -0.3962  1.1589  3.2487
 2311SOL    HW218567   1.186   0.929   8.937 -0.8552  0.4328 -1.8974
 2312SOL     OW18568   4.021   0.106  17.055  0.2746 -0.0497 -0.5829
 2312SOL    HW118569   4.115   0.093  17.053  0.3563  0.5331 -0.3613
 2312SOL    HW218570   3.991   0.021  17.089  1.1835 -0.7655 -1.5764
 2313SOL     OW18571   0.707   2.202   7.417 -0.3529 -0.3778 -0.3101
 2313SOL    HW118572   0.647   2.211   7.491  1.3376  0.2711  0.9794
 2313SOL    HW218573   0.697   2.109   7.400  1.6469 -0.7275  0.3786
 2314SOL     OW18574   4.170   1.676  12.871 -0.4259 -0.9547  0.1057
 2314SOL    HW118575   4.209   1.643  12.789 -0.1841  1.9977 -0.9737
 2314SOL    HW218576   4.076   1.659  12.868 -0.1670 -2.8637  2.5687
 2315SOL     OW18577   3.157   3.738   2.124  0.2606  0.5534 -0.1218
 2315SOL    HW118578   3.087   3.675   2.105  0.9131  0.1395 -1.1235
 2315SOL    HW218579   3.142   3.742   2.219 -0.2285 -1.8142 -0.0958
 2316SOL     OW18580   4.709   2.771   2.304  0.1509  0.3813  0.1108
 2316SOL    HW118581   0.059   2.801   2.329 -0.1339 -0.5449  2.2609
 2316SOL    HW218582   4.703   2.779   2.209  1.5272  0.6240  0.0512
 2317SOL     OW18583   1.215   1.237   4.018  0.0386  0.4047 -0.6168
 2317SOL    HW118584   1.267   1.291   3.959 -0.7846 -0.3639 -2.0265
 2317SOL    HW218585   1.164   1.302   4.067 -2.3575 -2.0705  0.2231
 2318SOL     OW18586   0.414   1.019   5.534  0.1958 -0.7317 -0.4670
 2318SOL    HW118587   0.412   1.111   5.508 -3.9748 -0.8462 -0.4818
 2318SOL    HW218588   0.494   1.016   5.585 -0.8399 -3.3030  0.9966
 2319SOL     OW18589   0.427   2.774   4.108 -0.5199 -0.4557 -0.1824
 2319SOL    HW118590   0.332   2.770   4.098 -0.4637 -0.6151 -0.6666
 2319SOL    HW218591   0.446   2.692   4.154 -2.3211 -0.6784  0.1380
 2320SOL     OW18592   3.406   2.483   8.720 -0.2098  0.2068  0.0274
 2320SOL    HW118593   3.500   2.465   8.719 -0.1100  0.7879 -0.6692
 2320SOL    HW218594   3.374   2.423   8.652  0.8357  0.6624 -0.8636
 2321SOL     OW18595   2.306   2.526   4.103 -0.5629 -0.1059  0.2429
 2321SOL    HW118596   2.383   2.557   4.151 -0.6327 -0.4555  0.5764
 2321SOL    HW218597   2.272   2.464   4.168 -1.3466  0.6577  0.5684
 2322SOL     OW18598   1.438   3.338   5.261  0.5245  0.3361 -0.2936
 2322SOL    HW118599   1.453   3.244   5.250 -1.9123  0.4628 -4.4767
 2322SOL    HW218600   1.520   3.386   5.252  0.2625  0.5843 -1.4125
 2323SOL     OW18601   0.966   0.199   4.215 -0.1582 -0.1328 -0.1908
 2323SOL    HW118602   0.921   0.158   4.141  0.1039  0.4207 -0.6617
 2323SOL    HW218603   1.040   0.242   4.172 -1.0259 -0.8767 -2.4552
 2324SOL     OW18604   3.577   4.011  13.149  0.4038  0.0024 -0.5233
 2324SOL    HW118605   3.593   3.960  13.229  0.1442 -0.7081 -0.9300
 2324SOL    HW218606   3.657   3.991  13.100  1.1709 -1.9194  1.5191
 2325SOL     OW18607   4.048   0.777   7.338 -0.2328 -0.8708 -0.6858
 2325SOL    HW118608   4.083   0.865   7.320  0.2062 -1.2578 -1.7246
 2325SOL    HW218609   4.112   0.732   7.394 -1.1900 -1.1470  0.1737
 2326SOL     OW18610   0.792   2.116   2.950 -0.1084 -0.5742 -0.3968
 2326SOL    HW118611   0.784   2.115   3.045 -1.6125 -0.2250 -0.5341
 2326SOL    HW218612   0.881   2.080   2.944  0.5178  0.9605 -0.2850
 2327SOL     OW18613   3.634   3.107   3.023 -0.2872  0.1896 -0.7102
 2327SOL    HW118614   3.586   3.027   3.043 -0.4411  0.2453 -0.8599
 2327SOL    HW218615   3.567   3.171   2.998 -0.4619 -0.1572 -1.1356
 2328SOL     OW18616   1.522   0.872   1.305 -0.9237 -0.7861 -0.5525
 2328SOL    HW118617   1.503   0.785   1.339 -2.2772 -0.5418 -0.6580
 2328SOL    HW218618   1.436   0.889   1.267 -0.1696  1.4819 -1.2960
 2329SOL     OW18619   0.243   0.754   2.885  0.4831 -0.1209 -0.6814
 2329SOL    HW118620   0.228   0.684   2.948 -0.2516  1.1434  0.5632
 2329SOL    HW218621   0.334   0.768   2.911  0.4873 -1.2613 -0.1024
 2330SOL     OW18622   0.548   1.025   9.798  0.3512 -0.0892  0.1955
 2330SOL    HW118623   0.570   1.108   9.841 -1.0596  0.5633 -0.3089
 2330SOL    HW218624   0.509   0.988   9.877  0.0868  0.2130  0.2089
 2331SOL     OW18625   0.561   0.766   4.712 -0.5615  0.2221 -0.1210
 2331SOL    HW118626   0.475   0.746   4.674  0.7958 -1.4799 -2.3079
 2331SOL    HW218627   0.571   0.690   4.770 -1.2882  0.6964  0.6270
 2332SOL     OW18628   3.973   3.607   7.861 -0.2214 -0.1733  0.7574
 2332SOL    HW118629   4.012   3.624   7.775 -4.0385  3.3539 -0.2852
 2332SOL    HW218630   3.928   3.690   7.877  0.7494  0.9745 -2.3915
 2333SOL     OW18631   1.811   3.447   4.844 -0.3930 -0.1270  0.4773
 2333SOL    HW118632   1.804   3.357   4.878  1.1416 -0.3693  0.1557
 2333SOL    HW218633   1.725   3.485   4.862 -0.0602  1.3014 -0.9581
 2334SOL     OW18634   1.559   1.586  16.827 -0.1459 -0.0851  0.5910
 2334SOL    HW118635   1.608   1.533  16.890  2.7762  2.7774  0.6958
 2334SOL    HW218636   1.619   1.590  16.752  1.0871 -0.2349  1.5880
 2335SOL     OW18637   2.467   4.236  16.363 -0.1712 -0.0050  0.3162
 2335SOL    HW118638   2.545   4.184  16.347 -2.4995 -1.7532 -5.2046
 2335SOL    HW218639   2.424   4.241  16.278  0.5241 -0.8186 -0.0908
 2336SOL     OW18640   3.148   1.777   9.293  0.0607 -0.1918  0.1408
 2336SOL    HW118641   3.169   1.802   9.204 -2.0294 -0.1811 -0.3604
 2336SOL    HW218642   3.079   1.843   9.302  1.1150  1.1435 -1.6054
 2337SOL     OW18643   0.665   0.730   3.771  0.3443 -0.8371  0.3556
 2337SOL    HW118644   0.755   0.740   3.741 -0.0183  1.0888 -0.0832
 2337SOL    HW218645   0.674   0.643   3.810 -0.5856 -1.3604 -0.5971
 2338SOL     OW18646   1.037   1.013   3.335  0.2654 -0.6769 -0.4277
 2338SOL    HW118647   1.044   1.108   3.329  4.0501 -0.8471  0.9325
 2338SOL    HW218648   0.957   1.006   3.282  0.7103 -3.7781 -0.7031
 2339SOL     OW18649   2.227   0.873   8.770 -0.1690  0.2379 -0.1372
 2339SOL    HW118650   2.236   0.968   8.779  0.3274  0.2287 -0.5568
 2339SOL    HW218651   2.149   0.862   8.715  0.2792  2.1706 -1.1537
 2340SOL     OW18652   2.224   2.711   3.950  0.2310 -0.1722 -0.6346
 2340SOL    HW118653   2.230   2.632   4.002  1.4018  1.4217  1.6372
 2340SOL    HW218654   2.311   2.715   3.912  1.0887 -4.2742  0.9666
 2341SOL     OW18655   2.347   4.095   2.824 -0.0638 -0.1617 -0.0720
 2341SOL    HW118656   2.311   4.020   2.776 -0.3221  0.5427 -0.9995
 2341SOL    HW218657   2.312   4.164   2.767 -0.9639 -1.0583 -0.6088
 2342SOL     OW18658   0.389   2.022   1.866 -0.8977 -0.2605  0.3990
 2342SOL    HW118659   0.316   1.980   1.820  0.1849  0.6105 -2.1190
 2342SOL    HW218660   0.360   2.113   1.862 -0.3212 -0.0973 -0.1442
 2343SOL     OW18661   0.360   0.167   7.595 -0.4063 -0.9812 -0.0481
 2343SOL    HW118662   0.448   0.150   7.627 -0.2909 -0.3317 -0.0271
 2343SOL    HW218663   0.374   0.234   7.529 -1.9061  0.1934  0.8158
 2344SOL     OW18664   3.390   1.063   2.484 -0.3606  0.7773 -0.0431
 2344SOL    HW118665   3.413   0.971   2.466 -3.6770 -0.5131  2.4417
 2344SOL    HW218666   3.426   1.077   2.572 -0.8328  1.3100  0.0581
 2345SOL     OW18667   3.602   1.744  16.088  0.3639  0.8233 -0.3843
 2345SOL    HW118668   3.640   1.830  16.104  2.0272 -0.7136  3.8404
 2345SOL    HW218669   3.531   1.751  16.152 -0.2921  0.7897 -1.1098
 2346SOL     OW18670   3.671   4.172   5.859  0.2515 -0.4470  0.7539
 2346SOL    HW118671   3.679   4.087   5.901  1.3475 -1.1268 -0.8112
 2346SOL    HW218672   3.578   4.192   5.873  0.4194 -0.4316  1.8013
 2347SOL     OW18673   2.303   2.116   0.801 -0.1860  0.1272  1.2864
 2347SOL    HW118674   2.241   2.053   0.836 -0.6469  0.0248  0.2952
 2347SOL    HW218675   2.352   2.143   0.878 -1.1828  3.5290  0.7657
 2348SOL     OW18676   0.663   3.220   6.444  0.1798 -0.1820 -0.0878
 2348SOL    HW118677   0.715   3.259   6.374  0.0161 -0.5728 -0.4277
 2348SOL    HW218678   0.594   3.287   6.446  0.5612  0.1931  0.4752
 2349SOL     OW18679   3.539   0.941  11.655 -0.0767  0.2447 -0.0100
 2349SOL    HW118680   3.592   0.943  11.576 -0.8661  0.3237 -0.5298
 2349SOL    HW218681   3.508   1.031  11.668 -1.5308 -0.1370 -0.9111
 2350SOL     OW18682   4.136   4.638  13.769 -0.2286  0.3889  0.2399
 2350SOL    HW118683   4.151   4.689  13.849  2.7156 -0.0555 -0.0348
 2350SOL    HW218684   4.148   4.549  13.802  0.7008  0.2535 -0.4540
 2351SOL     OW18685   2.619   1.221   1.216 -0.1913 -0.4680  0.3484
 2351SOL    HW118686   2.614   1.306   1.173 -1.5197 -0.6769  0.0794
 2351SOL    HW218687   2.705   1.229   1.257  0.4801  1.0837 -1.3696
 2352SOL     OW18688   1.342   1.907   5.165 -0.0864 -0.5305  0.3042
 2352SOL    HW118689   1.292   1.948   5.235 -1.4070  0.2661 -1.0966
 2352SOL    HW218690   1.419   1.870   5.208 -1.3374 -0.8270  2.2548
 2353SOL     OW18691   3.612   2.570   5.365 -0.5974  0.1448  0.4736
 2353SOL    HW118692   3.549   2.499   5.379 -0.1233  0.1533  2.6895
 2353SOL    HW218693   3.667   2.537   5.294 -1.1107 -1.2333  0.7135
 2354SOL     OW18694   0.981   4.310   0.773 -0.1672  1.0395 -0.4090
 2354SOL    HW118695   0.999   4.217   0.761  1.6143  1.1901  1.1511
 2354SOL    HW218696   1.045   4.333   0.840 -3.4245  0.6910  2.8448
 2355SOL     OW18697   2.013   2.096  10.319  0.4063  0.3795 -0.1986
 2355SOL    HW118698   2.011   2.060  10.231 -0.2595  0.7230 -0.3251
 2355SOL    HW218699   2.096   2.143  10.315  0.4686  0.2141 -0.7662
 2356SOL     OW18700   1.507   4.679   3.358 -0.4179  0.3635  0.3358
 2356SOL    HW118701   1.558   4.602   3.382  0.6448  0.7828 -0.6355
 2356SOL    HW218702   1.436   4.637   3.309 -1.5211  1.1119  1.2617
 2357SOL     OW18703   3.470   1.566  15.602  0.5937 -0.4604  0.1796
 2357SOL    HW118704   3.554   1.555  15.645  1.1376  1.7000 -0.3509
 2357SOL    HW218705   3.424   1.482  15.609  0.7733 -0.4715  1.2542
 2358SOL     OW18706   2.260   0.155   1.986  0.0679  0.0790 -0.3851
 2358SOL    HW118707   2.221   0.068   1.977  0.2678  0.0097 -0.6040
 2358SOL    HW218708   2.180   0.205   1.970  2.2951  2.8486 -3.0012
 2359SOL     OW18709   3.731   2.190  10.175  0.2391 -0.5214  0.6283
 2359SOL    HW118710   3.721   2.124  10.244 -1.7394  1.2447  2.0449
 2359SOL    HW218711   3.691   2.140  10.104  1.2103 -1.9949  1.1169
 2360SOL     OW18712   1.312   0.327   6.449  0.3958 -1.1038  0.4104
 2360SOL    HW118713   1.220   0.318   6.474 -0.3927  0.6072 -1.8403
 2360SOL    HW218714   1.301   0.318   6.354 -0.2077  0.5638  0.3184
 2361SOL     OW18715   1.729   4.263   6.317  0.1131 -0.0010  0.1801
 2361SOL    HW118716   1.756   4.186   6.367 -1.6057  0.6774  2.1916
 2361SOL    HW218717   1.799   4.316   6.357 -0.0547  1.6848 -1.7825
 2362SOL     OW18718   3.105   1.155   1.270 -0.3235  0.4567 -0.3311
 2362SOL    HW118719   3.120   1.227   1.332 -0.2046  1.5976 -1.6993
 2362SOL    HW218720   3.153   1.085   1.315  0.0425 -0.6580 -2.4919
 2363SOL     OW18721   0.540   2.773  12.683  0.7680 -0.1482 -0.3229
 2363SOL    HW118722   0.542   2.692  12.632  1.8984  0.4014 -1.1809
 2363SOL    HW218723   0.575   2.840  12.623  0.8067  0.3714  0.2806
 2364SOL     OW18724   2.821   1.339   4.946  0.6773  0.2433 -0.2336
 2364SOL    HW118725   2.733   1.370   4.922  0.1296 -0.8364  0.3523
 2364SOL    HW218726   2.809   1.245   4.934 -1.0121  0.5742 -1.1357
 2365SOL     OW18727   1.970   2.304   5.594 -0.2494 -0.0950 -0.4354
 2365SOL    HW118728   1.997   2.213   5.584  2.9235  0.6992  0.9606
 2365SOL    HW218729   1.876   2.287   5.590 -0.1617 -0.6474 -0.0555
 2366SOL     OW18730   0.047   1.758   1.989  0.3415 -0.2498 -0.5892
 2366SOL    HW118731   0.136   1.763   1.955  0.9299 -3.2690  0.5558
 2366SOL    HW218732   4.726   1.784   1.917 -0.4374 -0.1057  0.1038
 2367SOL     OW18733   4.590   4.519  16.542  0.1489 -0.2477 -0.3112
 2367SOL    HW118734   4.660   4.524  16.607 -2.4405  0.3388  2.4027
 2367SOL    HW218735   4.619   4.586  16.479 -0.4886  0.9854  0.7062
 2368SOL     OW18736   1.646   3.720   5.943 -0.5055 -0.5566 -0.3398
 2368SOL    HW118737   1.689   3.793   5.898 -0.1925 -0.0778  0.7256
 2368SOL    HW218738   1.561   3.744   5.906 -0.4814  0.1269  0.0375
 2369SOL     OW18739   2.848   0.348   4.790  0.8484 -0.3737  0.3108
 2369SOL    HW118740   2.799   0.409   4.735 -1.4380  0.4791  3.2788
 2369SOL    HW218741   2.817   0.366   4.879  0.1140 -1.7059  0.3311
 2370SOL     OW18742   3.824   2.080   2.770  0.5949 -0.0780 -0.1943
 2370SOL    HW118743   3.850   1.989   2.760 -2.8726 -1.3632  2.6733
 2370SOL    HW218744   3.732   2.077   2.745  0.5032  0.3655  0.0888
 2371SOL     OW18745   2.820   0.191   7.674  0.2939  0.0294 -0.4445
 2371SOL    HW118746   2.907   0.180   7.636  0.6997  0.3216  0.3867
 2371SOL    HW218747   2.793   0.277   7.642  0.5077  0.0134 -0.6694
 2372SOL     OW18748   1.512   3.426   9.009  0.1070  0.4577  0.4529
 2372SOL    HW118749   1.519   3.520   9.029  1.7141 -0.0541  2.2388
 2372SOL    HW218750   1.424   3.409   9.041 -0.3764  0.6098 -0.7919
 2373SOL     OW18751   3.960   3.810   8.614  0.1446  0.0325  0.3751
 2373SOL    HW118752   3.962   3.719   8.585  0.2501 -0.6225  2.4292
 2373SOL    HW218753   3.879   3.816   8.664 -1.9283 -0.2461 -3.0199
 2374SOL     OW18754   0.315   2.902   7.994  0.8229 -0.2308  0.1544
 2374SOL    HW118755   0.329   2.830   7.932 -1.5040  0.4433 -1.1708
 2374SOL    HW218756   0.359   2.871   8.072  3.2808  2.6062 -0.0857
 2375SOL     OW18757   0.837   4.518   7.719 -0.0921 -0.1388 -0.0962
 2375SOL    HW118758   0.811   4.493   7.808  0.2553 -3.0360 -0.8161
 2375SOL    HW218759   0.801   4.442   7.673 -2.1991  0.5341  0.4370
 2376SOL     OW18760   2.802   1.481  11.147  0.7109 -0.3338  0.4018
 2376SOL    HW118761   2.750   1.477  11.067 -1.0463  1.2591  1.4473
 2376SOL    HW218762   2.748   1.426  11.204  0.9344  0.5781  1.4963
 2377SOL     OW18763   1.094   4.705   2.172 -0.7532 -0.0847  0.5633
 2377SOL    HW118764   1.122   4.615   2.188 -0.5184  0.1813  1.6414
 2377SOL    HW218765   1.054   4.733   2.254 -0.9210  2.2215 -0.2962
 2378SOL     OW18766   2.056   2.656   7.273  0.4818 -0.5768 -0.8155
 2378SOL    HW118767   2.027   2.746   7.262 -2.0420 -1.4136 -0.9713
 2378SOL    HW218768   1.989   2.601   7.232 -0.6085 -0.8818  1.3812
 2379SOL     OW18769   0.897   3.514   4.678  0.0110 -0.1942 -0.0516
 2379SOL    HW118770   0.842   3.490   4.753 -0.4302 -2.0875 -0.9580
 2379SOL    HW218771   0.880   3.441   4.618 -0.6320 -0.1524  0.0750
 2380SOL     OW18772   3.623   0.677  16.509 -0.2188  0.5151 -0.2354
 2380SOL    HW118773   3.642   0.735  16.583 -0.2842 -0.0925  0.2534
 2380SOL    HW218774   3.644   0.736  16.436 -2.8992  1.4451 -0.2435
 2381SOL     OW18775   0.045   0.315   7.153 -0.6114 -0.5166  0.0662
 2381SOL    HW118776   0.127   0.270   7.172 -0.3382  0.2049  0.6019
 2381SOL    HW218777   0.041   0.383   7.220 -3.0811 -2.8289  2.2542
 2382SOL     OW18778   4.293   2.394   1.926  0.0392 -0.0494 -0.1180
 2382SOL    HW118779   4.327   2.424   2.011  0.0399 -0.7731  0.1371
 2382SOL    HW218780   4.262   2.474   1.885 -1.7558 -1.4860 -1.5625
 2383SOL     OW18781   0.567   1.312  14.322  0.6610 -0.1187 -0.1305
 2383SOL    HW118782   0.641   1.281  14.269  0.0977 -2.9760  0.8021
 2383SOL    HW218783   0.616   1.377  14.373  2.1865 -0.7574 -0.7705
 2384SOL     OW18784   3.856   0.967   6.048 -0.1549 -0.4112  0.2849
 2384SOL    HW118785   3.845   0.980   5.954  0.1423  0.4697  0.3785
 2384SOL    HW218786   3.772   0.927   6.072 -0.0516 -0.9636 -0.2571
 2385SOL     OW18787   3.494   4.183   9.267 -0.3861 -0.5426  0.1406
 2385SOL    HW118788   3.516   4.275   9.254  0.9416 -0.6448  1.5663
 2385SOL    HW218789   3.464   4.163   9.179 -0.5940  0.3155  0.0153
 2386SOL     OW18790   2.735   2.837   5.117  0.3073  0.2597 -0.4582
 2386SOL    HW118791   2.682   2.883   5.182 -0.6667 -1.9931  0.3195
 2386SOL    HW218792   2.755   2.753   5.158 -0.0800 -0.0699 -0.9590
 2387SOL     OW18793   1.685   4.218  17.674 -0.2648 -0.3604  0.4069
 2387SOL    HW118794   1.646   4.151  17.618 -2.1626  1.6947 -0.6916
 2387SOL    HW218795   1.774   4.184  17.667 -0.7913 -1.5775 -0.2695
 2388SOL     OW18796   0.957   3.213   9.166 -0.0955  0.0480  0.7965
 2388SOL    HW118797   0.890   3.265   9.210  0.5446 -0.6114  2.5583
 2388SOL    HW218798   0.912   3.187   9.086 -0.0853 -0.0160  0.8109
 2389SOL     OW18799   4.346   3.847   6.192  0.5745  0.4263 -0.0140
 2389SOL    HW118800   4.419   3.845   6.131 -2.0736  0.9255 -3.2140
 2389SOL    HW218801   4.288   3.784   6.148 -0.5898  0.7374  1.0634
 2390SOL     OW18802   2.272   0.958   4.972  0.2811  0.3040  0.2977
 2390SOL    HW118803   2.352   1.007   4.994 -0.5228  1.5078  0.5317
 2390SOL    HW218804   2.218   1.034   4.951  2.6250  1.8840  0.0042
 2391SOL     OW18805   0.518   4.505  15.401 -0.5200 -0.5803  0.6485
 2391SOL    HW118806   0.595   4.486  15.346 -0.5535 -1.0632  0.7645
 2391SOL    HW218807   0.496   4.418  15.435  1.2982 -1.9829 -1.7314
 2392SOL     OW18808   2.420   2.469   6.471 -0.2727 -0.3885  0.1657
 2392SOL    HW118809   2.486   2.492   6.406 -0.7212  2.1769  0.6277
 2392SOL    HW218810   2.370   2.549   6.482  0.1006  0.0558 -1.3125
 2393SOL     OW18811   3.095   2.522   6.180 -0.0762 -0.6145 -0.5834
 2393SOL    HW118812   3.036   2.501   6.253 -0.0906 -0.5370 -0.5725
 2393SOL    HW218813   3.177   2.517   6.228 -0.1721  0.7785 -0.2773
 2394SOL     OW18814   2.266   4.204   3.060  0.2030 -0.3953 -0.6481
 2394SOL    HW118815   2.289   4.183   2.969 -2.1028 -0.2576 -1.2810
 2394SOL    HW218816   2.284   4.122   3.105 -0.4905  0.4380  1.1282
 2395SOL     OW18817   1.498   0.285   5.215  0.0003 -0.3172  0.1447
 2395SOL    HW118818   1.494   0.190   5.223 -1.6969 -0.2943 -0.3833
 2395SOL    HW218819   1.526   0.297   5.124  0.9184  3.4529  0.9190
 2396SOL     OW18820   4.162   4.720  12.666 -0.0890  0.3979  0.1354
 2396SOL    HW118821   4.214   0.062  12.653 -0.8705  0.9908  0.5754
 2396SOL    HW218822   4.233   4.661  12.690 -0.1008 -1.3360 -4.2791
 2397SOL     OW18823   2.679   4.303   2.135  0.4690 -0.2854  0.4467
 2397SOL    HW118824   2.594   4.265   2.110  1.1546 -1.3441 -0.2880
 2397SOL    HW218825   2.658   4.375   2.194  0.3936 -0.3849  0.5415
 2398SOL     OW18826   4.502   0.813  16.077  0.3115  0.3179 -0.5381
 2398SOL    HW118827   4.518   0.720  16.098  0.9928  0.9236  1.6050
 2398SOL    HW218828   4.510   0.811  15.982  1.8496 -2.0250 -0.3685
 2399SOL     OW18829   2.443   3.102   9.533 -0.8204  0.3898  0.0074
 2399SOL    HW118830   2.535   3.112   9.558 -0.1773  3.0525 -3.4601
 2399SOL    HW218831   2.413   3.180   9.580 -1.7889  0.5787 -0.9366
 2400SOL     OW18832   0.666   3.226   5.544 -0.0167 -0.1174 -0.6237
 2400SOL    HW118833   0.662   3.138   5.507  0.3252 -0.1977 -0.4750
 2400SOL    HW218834   0.760   3.242   5.534  0.6008 -2.3979  1.7560
 2401SOL     OW18835   4.179   3.294  14.083  0.2392  0.0009 -0.1046
 2401SOL    HW118836   4.119   3.233  14.040  0.5184 -1.8818  2.1485
 2401SOL    HW218837   4.128   3.375  14.076  0.4160  0.2429  1.2798
 2402SOL     OW18838   2.698   2.449  10.907  0.4582  0.5170 -0.0135
 2402SOL    HW118839   2.757   2.453  10.982 -0.8019 -2.7510  1.1568
 2402SOL    HW218840   2.633   2.516  10.929  1.0523  0.8539  0.7024
 2403SOL     OW18841   3.701   2.781   7.514  0.9238 -0.2585  0.2566
 2403SOL    HW118842   3.668   2.691   7.514  2.1707 -0.7293 -1.8785
 2403SOL    HW218843   3.626   2.837   7.534  0.2037 -1.4819  1.0196
 2404SOL     OW18844   3.303   3.495   6.172 -0.3265  0.4247  0.2458
 2404SOL    HW118845   3.208   3.497   6.157 -0.5100  0.2291  1.4225
 2404SOL    HW218846   3.334   3.434   6.105  2.2009  1.2646  0.6703
 2405SOL     OW18847   4.156   4.208  11.887 -0.0126  0.5760  0.3886
 2405SOL    HW118848   4.221   4.181  11.952  0.8272 -0.2658 -0.7947
 2405SOL    HW218849   4.159   4.303  11.898 -0.1320  0.5932  0.2747
 2406SOL     OW18850   1.872   1.119  14.947 -0.1397 -0.5043  0.5999
 2406SOL    HW118851   1.922   1.037  14.947  1.3362  0.3924  0.4167
 2406SOL    HW218852   1.782   1.086  14.950  0.7553 -2.7426  3.0199
 2407SOL     OW18853   0.032   4.486   6.181  0.5120 -0.3064  0.4862
 2407SOL    HW118854   4.695   4.428   6.163 -0.5901  0.0737  3.7987
 2407SOL    HW218855   0.018   4.494   6.275  0.2822  0.6000  0.3689
 2408SOL     OW18856   1.171   3.134  13.506  0.3510 -0.0430 -0.4407
 2408SOL    HW118857   1.155   3.069  13.575  0.5550  0.3762  0.0008
 2408SOL    HW218858   1.081   3.166  13.504  0.0448 -0.8182  1.0763
 2409SOL     OW18859   3.319   1.632   3.185  0.3628  0.0224  0.0142
 2409SOL    HW118860   3.392   1.591   3.232  1.7410  0.9415 -1.3681
 2409SOL    HW218861   3.328   1.588   3.100  0.6043 -1.2306  0.6801
 2410SOL     OW18862   4.578   4.328   2.449  0.0290 -0.6015  0.4984
 2410SOL    HW118863   4.504   4.359   2.398 -1.0733 -1.8690  1.3295
 2410SOL    HW218864   4.533   4.264   2.503  0.7658 -0.7347  0.9557
 2411SOL     OW18865   2.374   2.314   3.585  0.3672 -0.0320 -1.0891
 2411SOL    HW118866   2.382   2.220   3.600 -0.4156 -0.1616 -1.4661
 2411SOL    HW218867   2.459   2.342   3.552 -0.0341  0.5262 -1.6474
 2412SOL     OW18868   1.593   3.776   2.273  0.0915 -0.5057  0.4668
 2412SOL    HW118869   1.602   3.759   2.367  2.8295 -0.0297  0.2969
 2412SOL    HW218870   1.653   3.712   2.235 -1.4597 -0.8806 -1.3392
 2413SOL     OW18871   1.720   4.180  12.361  0.4122 -0.6475  0.3773
 2413SOL    HW118872   1.626   4.195  12.371  0.4105 -0.9235  0.8213
 2413SOL    HW218873   1.759   4.264  12.384 -1.3869  0.2409  0.1999
 2414SOL     OW18874   2.766   3.844  12.838  0.0667  0.2684 -0.3229
 2414SOL    HW118875   2.741   3.824  12.748  0.1118  0.8403 -0.4666
 2414SOL    HW218876   2.799   3.934  12.830  0.2388  0.1142 -1.3355
 2415SOL     OW18877   3.394   3.326  15.634 -0.1293  0.0017 -0.2750
 2415SOL    HW118878   3.396   3.398  15.571 -0.1060 -1.1355 -1.5518
 2415SOL    HW218879   3.407   3.375  15.716 -2.0209  1.2048 -0.6843
 2416SOL     OW18880   0.613   1.370   4.023 -0.5826 -0.6264  0.2944
 2416SOL    HW118881   0.576   1.399   4.107 -2.6131 -0.7007 -0.5914
 2416SOL    HW218882   0.677   1.436   3.995  0.8468 -2.4316 -0.7204
 2417SOL     OW18883   3.067   1.807  10.443  0.1296  0.6763 -0.1784
 2417SOL    HW118884   3.004   1.855  10.389 -0.7907 -0.0433  0.2561
 2417SOL    HW218885   3.074   1.873  10.511  0.2625  1.0261 -0.5305
 2418SOL     OW18886   4.512   0.782   8.109  0.1574  0.1007  0.0018
 2418SOL    HW118887   4.605   0.797   8.090 -0.5718  1.7778 -2.1930
 2418SOL    HW218888   4.521   0.734   8.192 -1.3624 -0.7287 -0.3215
 2419SOL     OW18889   3.922   1.729   8.856  0.0345 -0.5406 -0.4257
 2419SOL    HW118890   3.856   1.766   8.797 -0.7929 -2.0317 -0.4176
 2419SOL    HW218891   3.884   1.644   8.875  0.0726 -0.4023  0.2774
 2420SOL     OW18892   2.853   4.040  12.530  0.2656  0.1452  0.2578
 2420SOL    HW118893   2.812   3.959  12.558 -0.6993 -0.1792 -2.0467
 2420SOL    HW218894   2.878   4.077  12.614 -1.1958  2.3164 -0.2622
 2421SOL     OW18895   2.781   0.631   8.243 -0.5131  0.0735  0.2313
 2421SOL    HW118896   2.696   0.674   8.241 -0.0872  0.8859 -0.4796
 2421SOL    HW218897   2.812   0.676   8.321  1.3467 -0.4906 -0.1770
 2422SOL     OW18898   3.348   1.566   9.610  0.1517  0.4235  0.1127
 2422SOL    HW118899   3.387   1.484   9.579 -0.3012  0.3422 -0.2559
 2422SOL    HW218900   3.341   1.621   9.532 -2.0080 -0.0197 -0.0170
 2423SOL     OW18901   0.832   3.041   8.080  0.2550 -0.7091 -0.2677
 2423SOL    HW118902   0.803   3.071   7.993 -0.8625 -2.3244 -0.4485
 2423SOL    HW218903   0.923   3.070   8.084  0.8790 -3.2599  3.3941
 2424SOL     OW18904   2.403   3.204  12.742 -0.3037 -0.3058  0.3722
 2424SOL    HW118905   2.376   3.235  12.829 -0.0702  0.2378  0.2561
 2424SOL    HW218906   2.371   3.285  12.700 -0.9275 -0.9619 -0.4255
 2425SOL     OW18907   3.154   2.569   8.461  0.7338  0.1357  0.1138
 2425SOL    HW118908   3.093   2.536   8.396  0.0840 -1.2829  1.4388
 2425SOL    HW218909   3.217   2.607   8.400  0.7420  0.3973  0.2823
 2426SOL     OW18910   1.470   3.751   3.939  0.7140  0.2819  0.2847
 2426SOL    HW118911   1.421   3.684   3.987  0.3278  1.4013  1.4299
 2426SOL    HW218912   1.542   3.774   3.998  1.9227 -0.7596 -0.7514
 2427SOL     OW18913   0.701   1.640   2.561 -0.2483  0.4817 -0.2834
 2427SOL    HW118914   0.634   1.634   2.492 -0.3548 -0.9494 -0.0494
 2427SOL    HW218915   0.661   1.595   2.635 -2.1929  2.1592 -0.3060
 2428SOL     OW18916   4.694   4.310   8.882 -0.4143 -0.3920 -0.6160
 2428SOL    HW118917   4.737   4.346   8.959 -1.5108 -0.7103  0.1331
 2428SOL    HW218918   4.629   4.250   8.918 -0.4713 -0.7183 -1.2520
 2429SOL     OW18919   2.822   4.052  13.092 -0.2535 -0.0609  0.2898
 2429SOL    HW118920   2.827   4.148  13.090 -0.3748 -0.0323  1.2437
 2429SOL    HW218921   2.731   4.050  13.122 -0.9767  2.7579 -1.7761
 2430SOL     OW18922   0.968   1.647  17.649  0.4284 -0.5985 -0.1316
 2430SOL    HW118923   0.896   1.584  17.646  1.2557 -1.5741  0.4068
 2430SOL    HW218924   1.035   1.617  17.587  0.7701 -0.8672  0.3660
 2431SOL     OW18925   4.403   3.482  17.681 -0.4314  0.3738 -0.3740
 2431SOL    HW118926   4.353   3.408  17.715 -1.7481  1.6779  0.5159
 2431SOL    HW218927   4.473   3.486  17.746  0.5374 -0.5924 -1.3535
 2432SOL     OW18928   2.597   0.126  12.824 -0.0654 -0.2491 -0.1050
 2432SOL    HW118929   2.619   0.111  12.916  0.5301 -0.8373 -0.3437
 2432SOL    HW218930   2.657   0.200  12.819  2.1128 -2.0623 -0.5458
 2433SOL     OW18931   1.162   1.587   3.668  0.1013 -0.4280 -0.5957
 2433SOL    HW118932   1.112   1.653   3.619 -0.0279 -2.4866 -3.2039
 2433SOL    HW218933   1.227   1.641   3.713  0.5688 -0.6506 -1.0072
 2434SOL     OW18934   0.002   0.965  16.142  0.4164 -0.3982 -0.1218
 2434SOL    HW118935   4.655   0.929  16.115  0.0413 -0.6010  1.2859
 2434SOL    HW218936   4.721   1.057  16.124  0.4262 -0.7190 -1.7545
 2435SOL     OW18937   4.495   1.402  17.313 -0.0390 -0.2258  0.3492
 2435SOL    HW118938   4.494   1.416  17.218 -0.0421  2.7112  0.7680
 2435SOL    HW218939   4.575   1.449  17.339 -1.1488  1.3094  1.0107
 2436SOL     OW18940   3.254   2.698   9.843  0.2473 -0.3571  0.3693
 2436SOL    HW118941   3.228   2.746   9.921  2.0118  2.8218 -0.9952
 2436SOL    HW218942   3.315   2.764   9.809 -2.0673  1.1338 -0.9114
 2437SOL     OW18943   3.859   2.918   5.132  0.3172 -0.5668 -0.0320
 2437SOL    HW118944   3.876   2.976   5.058 -0.3262  0.7503  0.8523
 2437SOL    HW218945   3.773   2.953   5.157  0.5330  0.0652 -0.1678
 2438SOL     OW18946   4.690   4.416   0.646  0.1387  0.0026 -0.0766
 2438SOL    HW118947   0.015   4.488   0.645 -0.3228  0.4084  0.0451
 2438SOL    HW218948   0.007   4.338   0.655 -0.8319 -0.5277  1.3314
 2439SOL     OW18949   4.356   3.033   4.050 -0.2822  0.0176 -0.5310
 2439SOL    HW118950   4.366   2.938   4.057 -2.4502 -0.1575  0.3022
 2439SOL    HW218951   4.376   3.061   4.139  1.9258 -0.6560 -0.8223
 2440SOL     OW18952   0.518   3.755   6.504 -0.0015 -0.5496  0.1432
 2440SOL    HW118953   0.503   3.801   6.586  1.5143  1.2211 -0.5675
 2440SOL    HW218954   0.591   3.812   6.479 -1.6030  1.4194 -0.0234
 2441SOL     OW18955   2.256   1.928   5.773  0.3969  0.0150  0.0293
 2441SOL    HW118956   2.304   1.863   5.824  0.2768 -0.0697  0.0340
 2441SOL    HW218957   2.278   2.012   5.814  0.5145  1.3081 -2.6770
 2442SOL     OW18958   1.433   4.525  16.123  0.2913  0.1598 -0.3390
 2442SOL    HW118959   1.394   4.438  16.129  3.6173 -1.2138  1.4927
 2442SOL    HW218960   1.515   4.516  16.075  0.3471 -1.6117  0.0944
 2443SOL     OW18961   2.073   2.629   7.893  0.0894 -0.2887 -0.1372
 2443SOL    HW118962   2.028   2.554   7.854 -0.7897  0.8392 -1.2519
 2443SOL    HW218963   2.066   2.693   7.823 -1.8655 -0.3039  0.0440
 2444SOL     OW18964   2.957   1.696   4.437  0.2074 -0.4276 -0.6332
 2444SOL    HW118965   2.995   1.675   4.522  0.3247 -1.9505 -1.0525
 2444SOL    HW218966   2.866   1.668   4.452 -0.0416  1.7555  1.8135
 2445SOL     OW18967   1.685   2.228   5.606 -0.4295 -0.3216  0.2810
 2445SOL    HW118968   1.711   2.143   5.570  1.1357 -0.4028  1.6014
 2445SOL    HW218969   1.641   2.266   5.530  0.5699  1.7041  0.7246
 2446SOL     OW18970   3.828   4.031  14.572  0.0522  0.8156 -0.0023
 2446SOL    HW118971   3.751   3.984  14.603 -0.4971  2.3956  0.9500
 2446SOL    HW218972   3.895   3.978  14.617  1.1323  1.8440 -0.4033
 2447SOL     OW18973   4.535   2.900   6.476 -0.5583  0.0733 -0.1419
 2447SOL    HW118974   4.544   2.824   6.419  3.0168  1.0879 -0.9617
 2447SOL    HW218975   4.573   2.967   6.418  0.6219 -0.9017 -0.4945
 2448SOL     OW18976   2.042   1.199  14.069  0.0681  0.2691  0.2636
 2448SOL    HW118977   2.099   1.183  14.144 -0.8883 -1.8252  0.5384
 2448SOL    HW218978   1.982   1.125  14.079  1.7125 -1.3519 -1.8838
 2449SOL     OW18979   0.487   0.647   8.821  0.0388 -0.0459 -0.0616
 2449SOL    HW118980   0.532   0.564   8.837 -0.5851 -0.3707  0.0005
 2449SOL    HW218981   0.561   0.708   8.814  0.4504 -0.4693  0.6449
 2450SOL     OW18982   0.430   1.129  11.885 -0.3515 -0.2725 -0.2904
 2450SOL    HW118983   0.499   1.196  11.893  0.4319 -1.2317  0.9393
 2450SOL    HW218984   0.369   1.178  11.830  2.2319  2.8602 -0.3955
 2451SOL     OW18985   1.659   1.443   5.963 -0.5873 -0.6327  0.1477
 2451SOL    HW118986   1.693   1.518   5.914  0.2082 -0.6821  0.6253
 2451SOL    HW218987   1.612   1.487   6.034 -4.7339 -2.8634 -1.1929
 2452SOL     OW18988   2.643   4.335   6.441  0.3793 -0.0735  0.3745
 2452SOL    HW118989   2.675   4.378   6.521 -0.3027 -0.2028  0.7136
 2452SOL    HW218990   2.723   4.296   6.405 -0.4179 -0.6385 -0.7644
 2453SOL     OW18991   4.213   3.924   4.233 -0.1715 -0.3682  0.4213
 2453SOL    HW118992   4.269   4.001   4.246 -1.6603  1.1414 -1.9918
 2453SOL    HW218993   4.236   3.863   4.302 -1.0738  2.2484  3.0410
 2454SOL     OW18994   1.329   4.356   1.776  0.4605  0.0968 -0.4097
 2454SOL    HW118995   1.344   4.361   1.682  0.9665  3.2823 -0.1445
 2454SOL    HW218996   1.415   4.357   1.817  0.1711 -1.4480  0.2432
 2455SOL     OW18997   1.499   0.556  17.466  0.2839 -0.5258 -0.2566
 2455SOL    HW118998   1.414   0.535  17.427  0.8477 -0.3813 -1.5662
 2455SOL    HW218999   1.489   0.650  17.484  0.0565 -0.6116  0.0746
 2456SOL     OW19000   4.682   1.623   4.176 -0.2495 -0.9408  1.0341
 2456SOL    HW119001   0.002   1.650   4.105  1.2421 -0.5312  2.3912
 2456SOL    HW219002   4.598   1.636   4.133  0.0213  4.6374  2.1179
 2457SOL     OW19003   3.210   1.831   3.765 -0.1223 -0.0560 -0.1024
 2457SOL    HW119004   3.273   1.864   3.829 -0.7204 -2.3525  1.6550
 2457SOL    HW219005   3.165   1.766   3.818 -0.9969 -0.7360 -1.7041
 2458SOL     OW19006   0.709   0.732   6.754  0.1549  0.3354  0.3225
 2458SOL    HW119007   0.722   0.772   6.668  1.0560 -0.2505  0.1859
 2458SOL    HW219008   0.645   0.793   6.790 -0.6683 -1.4972  1.9200
 2459SOL     OW19009   2.595   1.130   2.213 -0.4179 -0.0632  0.2275
 2459SOL    HW119010   2.578   1.161   2.124  0.0044  2.0294  0.8887
 2459SOL    HW219011   2.636   1.048   2.188  1.4212  0.5068  1.4024
 2460SOL     OW19012   3.976   2.951   7.619 -0.3503  0.1631 -0.3777
 2460SOL    HW119013   3.965   2.856   7.616 -1.6779  0.2954  0.5866
 2460SOL    HW219014   4.045   2.951   7.552 -0.5874 -1.5823 -0.6101
 2461SOL     OW19015   3.308   0.129   4.978  0.0342 -0.2692  0.7262
 2461SOL    HW119016   3.348   0.069   4.916 -3.5171 -1.9814  0.0717
 2461SOL    HW219017   3.368   0.120   5.052  1.8107  0.1990 -0.6535
 2462SOL     OW19018   2.635   1.508   2.355  0.0925  0.5634 -0.0794
 2462SOL    HW119019   2.588   1.541   2.278 -0.2380 -2.5683 -1.2165
 2462SOL    HW219020   2.654   1.595   2.391 -3.6902  0.7233  1.6012
 2463SOL     OW19021   2.616   1.297   1.664  0.2953 -0.0119  0.6822
 2463SOL    HW119022   2.566   1.361   1.715 -0.6309  1.3958 -1.9824
 2463SOL    HW219023   2.627   1.225   1.726  0.2406 -0.3818  0.2594
 2464SOL     OW19024   4.687   2.909   7.215  0.1048 -0.2651  0.1711
 2464SOL    HW119025   0.031   2.940   7.174  0.3824 -1.6609 -0.3520
 2464SOL    HW219026   4.652   2.990   7.252 -0.5621 -0.5420  0.1452
 2465SOL     OW19027   1.680   0.729  14.804  0.1554 -0.0610  0.1841
 2465SOL    HW119028   1.604   0.744  14.859  0.6029  0.0293  0.7734
 2465SOL    HW219029   1.631   0.714  14.723  0.9782 -1.5995 -0.0405
 2466SOL     OW19030   0.599   2.599   7.287 -0.5127 -0.0323  0.1955
 2466SOL    HW119031   0.600   2.686   7.326  0.6741 -0.2136  0.5928
 2466SOL    HW219032   0.554   2.619   7.206 -0.4817  0.6617  0.3509
 2467SOL     OW19033   1.996   2.231   4.639 -0.3345 -0.0178  0.2648
 2467SOL    HW119034   2.023   2.289   4.567 -3.9289  0.0907 -0.9957
 2467SOL    HW219035   2.038   2.151   4.609 -0.7623  0.4754 -1.6576
 2468SOL     OW19036   1.396   0.283   7.544  0.0379 -0.3709  0.0890
 2468SOL    HW119037   1.338   0.341   7.594  1.8654 -0.2710  2.0997
 2468SOL    HW219038   1.377   0.195   7.576 -0.3416 -0.1418  0.4978
 2469SOL     OW19039   4.403   2.320   3.647 -0.2072  0.3409  0.7741
 2469SOL    HW119040   4.350   2.399   3.636  0.1678  0.4928  0.0639
 2469SOL    HW219041   4.384   2.299   3.738  0.3381 -0.0710  0.7949
 2470SOL     OW19042   0.771   1.891  10.878 -0.1184  0.5184 -0.6836
 2470SOL    HW119043   0.816   1.809  10.899 -0.1233  0.6275 -0.2314
 2470SOL    HW219044   0.741   1.865  10.791  0.1684  1.8125 -1.1659
 2471SOL     OW19045   2.902   0.261  16.889  0.1322  0.3292  0.2040
 2471SOL    HW119046   2.962   0.249  16.815 -1.7084 -1.6071 -0.9814
 2471SOL    HW219047   2.830   0.204  16.861  0.8903 -0.8228  0.6129
 2472SOL     OW19048   0.510   0.167  11.929 -0.7073 -0.5431 -0.4949
 2472SOL    HW119049   0.551   0.083  11.906 -1.6193 -0.8491 -0.9789
 2472SOL    HW219050   0.518   0.169  12.025  2.7685  1.0517 -0.8179
 2473SOL     OW19051   3.690   2.649   2.152 -0.2373 -0.2795 -0.1896
 2473SOL    HW119052   3.683   2.744   2.154  0.2310 -0.2775  1.4342
 2473SOL    HW219053   3.634   2.633   2.228 -0.4254 -2.1197 -0.7253
 2474SOL     OW19054   0.134   3.884   4.016 -0.1103 -0.3341  0.4920
 2474SOL    HW119055   0.118   3.798   3.978  1.9897  0.2866 -1.8159
 2474SOL    HW219056   0.226   3.874   4.043 -0.3863 -0.4362  1.3717
 2475SOL     OW19057   1.149   4.628   5.007 -0.1284  0.2675  0.2280
 2475SOL    HW119058   1.230   4.592   4.971 -0.7517 -1.4178  0.5304
 2475SOL    HW219059   1.115   4.552   5.054 -2.2060  0.3698 -1.1079
 2476SOL     OW19060   3.241   2.455   7.154  0.0535  0.1494  0.1878
 2476SOL    HW119061   3.215   2.547   7.163  1.3776  0.4088  1.3863
 2476SOL    HW219062   3.241   2.424   7.245 -1.2817 -1.1968 -0.2834
 2477SOL     OW19063   2.368   2.188   0.391 -0.0224 -0.6417 -0.1981
 2477SOL    HW119064   2.407   2.101   0.396  1.5342  0.0889  0.4566
 2477SOL    HW219065   2.363   2.217   0.482  2.5145 -0.6526 -0.0398
 2478SOL     OW19066   2.357   3.116  13.203 -0.2671 -0.2979 -0.0758
 2478SOL    HW119067   2.285   3.168  13.239  1.1654 -0.4398  2.9941
 2478SOL    HW219068   2.424   3.119  13.272 -0.7015  3.7941  0.1422
 2479SOL     OW19069   3.069   1.415  11.933  0.3665  0.0507 -0.4373
 2479SOL    HW119070   3.124   1.483  11.895  1.1296 -0.5545 -0.4068
 2479SOL    HW219071   3.112   1.334  11.905  0.2273  0.3566 -1.5634
 2480SOL     OW19072   2.644   1.208   7.860 -0.2304 -0.5679 -0.5918
 2480SOL    HW119073   2.643   1.221   7.765 -3.9038  0.5157 -0.4015
 2480SOL    HW219074   2.575   1.142   7.865  1.2761 -1.9394  1.9609
 2481SOL     OW19075   3.901   4.518   6.898  0.0533 -0.4894  0.8414
 2481SOL    HW119076   3.848   4.579   6.948  0.2601  0.1017  0.3316
 2481SOL    HW219077   3.961   4.578   6.855 -1.8295 -0.4511 -1.7330
 2482SOL     OW19078   2.488   1.252  15.325  0.0076  0.5495  0.2245
 2482SOL    HW119079   2.392   1.250  15.327  0.0897 -1.2491  2.5211
 2482SOL    HW219080   2.497   1.157  15.313  1.0828  0.9667 -2.2823
 2483SOL     OW19081   3.994   4.042   1.534 -0.8775 -0.6046  0.0227
 2483SOL    HW119082   3.916   3.986   1.530 -3.2683  2.5831  1.2039
 2483SOL    HW219083   4.072   3.987   1.532 -1.1975 -0.9811 -2.0744
 2484SOL     OW19084   1.348   1.956   6.535  0.1133  0.1285  0.4808
 2484SOL    HW119085   1.288   2.014   6.487  1.2643  1.0633  0.1869
 2484SOL    HW219086   1.430   2.003   6.524  0.2290 -0.0484  0.5884
 2485SOL     OW19087   3.157   2.827   6.888 -0.1179  0.0161  0.3131
 2485SOL    HW119088   3.075   2.808   6.934 -0.2157 -1.4709 -0.4673
 2485SOL    HW219089   3.126   2.886   6.819 -1.9416 -0.7107  0.5084
 2486SOL     OW19090   3.451   4.015   2.865 -0.2483 -0.2189 -0.1749
 2486SOL    HW119091   3.391   3.953   2.825 -2.4376  1.8637 -0.1086
 2486SOL    HW219092   3.528   4.009   2.808 -0.7591  0.3844 -0.9200
 2487SOL     OW19093   1.688   3.995   2.992 -0.3025  0.5507 -0.0691
 2487SOL    HW119094   1.739   4.065   3.032 -1.5237  2.1562 -1.2736
 2487SOL    HW219095   1.603   4.008   3.035  0.5727  0.4283  1.6885
 2488SOL     OW19096   1.170   4.590   3.639 -0.5261  0.0570 -0.0640
 2488SOL    HW119097   1.090   4.602   3.689 -0.4627 -1.1374  0.3104
 2488SOL    HW219098   1.139   4.523   3.578  2.7006 -2.5884  1.1743
 2489SOL     OW19099   1.230   0.340   5.287 -0.1647  0.4679  0.9466
 2489SOL    HW119100   1.229   0.418   5.342 -2.2950  0.5171  0.8631
 2489SOL    HW219101   1.322   0.322   5.269 -0.2224  1.4428 -0.2597
 2490SOL     OW19102   3.408   2.673  11.497 -0.6403  0.0304  0.1959
 2490SOL    HW119103   3.478   2.610  11.483  0.4901  1.5508 -0.8594
 2490SOL    HW219104   3.344   2.639  11.435 -0.3735 -0.3657  0.1436
 2491SOL     OW19105   1.809   4.462   8.092 -0.7310  0.3741 -0.3170
 2491SOL    HW119106   1.903   4.442   8.092 -0.9716 -0.7650  1.3534
 2491SOL    HW219107   1.770   4.380   8.122 -0.5328  0.0043 -1.0743
 2492SOL     OW19108   1.217   4.149   0.373 -0.5487  0.3693 -0.5716
 2492SOL    HW119109   1.263   4.174   0.293  0.9569  0.7942  0.4113
 2492SOL    HW219110   1.222   4.235   0.417  0.9550  0.3783 -0.7562
 2493SOL     OW19111   2.530   2.665   4.306 -0.1970 -0.2824  0.0784
 2493SOL    HW119112   2.615   2.623   4.321  1.1062  2.4374  0.3628
 2493SOL    HW219113   2.541   2.695   4.216 -2.0508 -0.8652 -0.3343
 2494SOL     OW19114   3.430   3.077   7.182  0.0846  0.0234  0.0811
 2494SOL    HW119115   3.408   3.153   7.236 -1.6050 -0.6260  0.3281
 2494SOL    HW219116   3.429   3.126   7.100  1.1780  0.6906  0.4731
 2495SOL     OW19117   4.256   0.967   9.731 -0.2578  0.3711 -0.3867
 2495SOL    HW119118   4.322   0.899   9.713 -0.1796  0.3149  0.1186
 2495SOL    HW219119   4.246   0.937   9.821 -0.5177 -0.3742 -0.6583
 2496SOL     OW19120   3.390   1.597   9.882  0.0852 -0.7418  0.4966
 2496SOL    HW119121   3.419   1.684   9.853  0.5803 -0.7618  0.9170
 2496SOL    HW219122   3.374   1.547   9.802 -1.4118  2.2310 -1.0518
 2497SOL     OW19123   3.928   3.075   6.185  0.1373 -0.5811  0.6864
 2497SOL    HW119124   3.972   2.999   6.222 -0.4082  0.1520  2.8030
 2497SOL    HW219125   3.890   3.099   6.269 -1.1791 -1.1862  0.2551
 2498SOL     OW19126   4.134   2.190   5.282  0.3374 -0.4184  0.1431
 2498SOL    HW119127   4.190   2.113   5.290  0.3549 -0.4410 -0.1935
 2498SOL    HW219128   4.063   2.147   5.235  0.0118  0.0874  0.1711
 2499SOL     OW19129   2.294   1.560   6.646  0.3064  0.0006  0.2680
 2499SOL    HW119130   2.388   1.575   6.643  0.1263  0.4986 -2.8275
 2499SOL    HW219131   2.278   1.501   6.720  0.1643  0.4039  0.5588
 2500SOL     OW19132   4.209   2.791   9.704  0.5665 -0.0247 -0.4996
 2500SOL    HW119133   4.259   2.870   9.721  0.6028  0.1952 -1.5975
 2500SOL    HW219134   4.273   2.720   9.697  1.7157  0.9552  0.2705
 2501SOL     OW19135   2.930   3.073   5.474  0.3980  0.6071 -0.3494
 2501SOL    HW119136   2.913   2.982   5.501 -1.2665  0.8201 -0.6861
 2501SOL    HW219137   3.021   3.074   5.504 -0.0245  0.5965  0.9546
 2502SOL     OW19138   1.272   0.327   1.993  0.1137  0.6089 -0.0446
 2502SOL    HW119139   1.295   0.418   1.978  0.8498  0.8017  2.1850
 2502SOL    HW219140   1.218   0.336   1.915  1.8279  1.5882 -1.1010
 2503SOL     OW19141   2.828   4.563   3.226  0.4512  0.1475 -0.1429
 2503SOL    HW119142   2.825   4.475   3.189 -1.5279  0.6877 -1.2646
 2503SOL    HW219143   2.923   4.571   3.235  0.2835 -0.5695  2.1909
 2504SOL     OW19144   1.743   1.876   2.967 -0.1501 -0.2550  0.0350
 2504SOL    HW119145   1.717   1.809   3.030  1.5784  2.4150  3.5465
 2504SOL    HW219146   1.667   1.933   2.982  0.1610 -0.0719  0.8926
 2505SOL     OW19147   3.449   0.480   2.582  0.1568 -0.2691 -0.6565
 2505SOL    HW119148   3.387   0.413   2.612  0.2297  0.4882  1.1578
 2505SOL    HW219149   3.439   0.475   2.487 -0.6382  0.0750 -0.5901
 2506SOL     OW19150   3.660   0.935   2.702 -0.1012  0.4994  0.2557
 2506SOL    HW119151   3.754   0.930   2.682  0.1528  1.2734  1.2679
 2506SOL    HW219152   3.661   0.998   2.774 -2.4952  1.0900 -0.2410
 2507SOL     OW19153   0.311   1.394   5.322 -0.3303  0.0913 -0.1161
 2507SOL    HW119154   0.239   1.374   5.262  1.0894 -2.1073 -1.0860
 2507SOL    HW219155   0.273   1.474   5.357  1.5402  0.2360  1.5570
 2508SOL     OW19156   3.764   1.929  17.358  0.2675  0.1698 -0.1354
 2508SOL    HW119157   3.816   2.009  17.364 -2.3126  1.7403  1.4732
 2508SOL    HW219158   3.714   1.947  17.438 -0.9982 -2.3232 -0.3443
 2509SOL     OW19159   1.800   1.525   6.421  0.0230 -0.6470  0.0651
 2509SOL    HW119160   1.866   1.543   6.354 -0.7267  0.2378 -0.4300
 2509SOL    HW219161   1.842   1.462   6.480  1.9639  0.7141  0.1363
 2510SOL     OW19162   0.027   2.411   4.832  0.2363  0.0154  0.3683
 2510SOL    HW119163   4.719   2.337   4.872  1.1429 -1.3913 -1.1849
 2510SOL    HW219164   4.690   2.454   4.789  1.0490 -0.1418 -1.2162
 2511SOL     OW19165   4.308   0.013   2.632 -0.2080  0.5810  0.7071
 2511SOL    HW119166   4.214   0.027   2.626 -0.0508  1.9544  1.4809
 2511SOL    HW219167   4.343   0.101   2.642  0.8062  0.2389  0.1925
 2512SOL     OW19168   0.584   0.106   5.469  0.1185 -0.1706  0.1695
 2512SOL    HW119169   0.492   0.088   5.491 -0.3038 -0.8442 -2.2017
 2512SOL    HW219170   0.589   0.094   5.374  0.6379 -0.4915  0.2396
 2513SOL     OW19171   0.780   2.329   5.241 -0.0633 -0.4967  0.2992
 2513SOL    HW119172   0.787   2.423   5.257  2.3808 -1.1007  2.7048
 2513SOL    HW219173   0.820   2.295   5.321  0.3642  0.2054  0.3855
 2514SOL     OW19174   1.686   0.352   0.492  0.4967 -0.9386 -0.0366
 2514SOL    HW119175   1.756   0.292   0.519  0.4801 -0.3624  1.3139
 2514SOL    HW219176   1.698   0.426   0.551 -1.0461 -1.6061  1.1428
 2515SOL     OW19177   4.043   2.943   2.618  0.2955 -0.3007 -0.1593
 2515SOL    HW119178   4.071   2.917   2.706 -0.5598 -1.6011 -0.2681
 2515SOL    HW219179   3.989   2.868   2.592  1.8194 -1.7270  0.8152
 2516SOL     OW19180   0.082   2.908   9.099 -0.0787 -0.5308  0.7892
 2516SOL    HW119181   0.136   2.977   9.060  0.6226 -0.8704  1.1634
 2516SOL    HW219182   0.065   2.932   9.190 -0.3690  0.5005  0.4557
 2517SOL     OW19183   0.018   1.424   3.101  0.0950 -0.2145  0.0935
 2517SOL    HW119184   4.721   1.512   3.119  1.4230  0.0641  1.2911
 2517SOL    HW219185   0.003   1.416   3.007 -1.3316  0.2661  0.2784
 2518SOL     OW19186   0.413   3.177   7.955  0.3544  0.4737 -0.7961
 2518SOL    HW119187   0.404   3.180   7.860  1.5929 -0.6952 -0.9533
 2518SOL    HW219188   0.394   3.084   7.966  0.9145  0.6813  1.9300
 2519SOL     OW19189   2.370   3.717  13.089  0.3468  0.2215 -0.1291
 2519SOL    HW119190   2.365   3.653  13.018 -0.8232  1.1229 -0.8411
 2519SOL    HW219191   2.284   3.719  13.131  0.4483  2.3673 -0.0609
 2520SOL     OW19192   1.826   1.476  17.574  0.0461 -0.3088 -0.0088
 2520SOL    HW119193   1.916   1.442  17.580 -0.5780 -1.7847  0.7760
 2520SOL    HW219194   1.810   1.502  17.665  0.5494  0.1425 -0.0418
 2521SOL     OW19195   3.584   2.906   1.285  0.3669  0.2859  0.5428
 2521SOL    HW119196   3.621   2.832   1.237 -1.3099  0.8208 -1.5810
 2521SOL    HW219197   3.619   2.901   1.374 -1.4408 -1.1182  1.1981
 2522SOL     OW19198   2.697   1.849   0.770 -0.5401 -0.1482 -0.0027
 2522SOL    HW119199   2.777   1.802   0.746 -1.4216 -0.3479 -2.4928
 2522SOL    HW219200   2.735   1.936   0.754  1.1481 -1.1589 -1.4070
 2523SOL     OW19201   3.291   0.091   1.282  0.0053 -0.1451  1.0474
 2523SOL    HW119202   3.196   0.081   1.283 -0.1059  0.9739  3.1434
 2523SOL    HW219203   3.301   0.145   1.361  0.3910  0.1452  0.8009
 2524SOL     OW19204   0.928   0.717   5.009 -0.3475 -0.1415 -0.4091
 2524SOL    HW119205   0.880   0.641   4.976 -1.9168  1.5385 -2.0583
 2524SOL    HW219206   0.869   0.737   5.081  0.5600 -0.9310  0.5376
 2525SOL     OW19207   0.741   3.725   8.534  0.3262 -0.2692 -0.3146
 2525SOL    HW119208   0.750   3.817   8.557 -0.6566 -0.0491 -0.8154
 2525SOL    HW219209   0.832   3.696   8.527 -0.1910 -1.9124 -0.2512
 2526SOL     OW19210   4.564   0.725   7.394  0.6245 -0.1161  0.2820
 2526SOL    HW119211   4.644   0.721   7.447  1.5855 -1.2932 -1.2706
 2526SOL    HW219212   4.608   0.710   7.311 -1.3127 -0.7890 -0.6198
 2527SOL     OW19213   4.108   2.368   2.317  0.4512  0.5780  0.0340
 2527SOL    HW119214   4.054   2.407   2.249 -0.3292 -2.1315 -0.8803
 2527SOL    HW219215   4.118   2.441   2.378  1.3387 -0.0833  0.6962
 2528SOL     OW19216   0.136   2.326   2.116  0.1497  0.1313  0.0491
 2528SOL    HW119217   0.083   2.302   2.192  0.9084  0.6556  0.7512
 2528SOL    HW219218   0.227   2.331   2.146 -0.2561  1.3159  1.0728
 2529SOL     OW19219   1.541   1.192   7.466  0.3917 -0.0449 -0.4965
 2529SOL    HW119220   1.446   1.200   7.468  0.2762 -1.8214  0.6168
 2529SOL    HW219221   1.554   1.212   7.373  2.7758  1.2403  0.0990
 2530SOL     OW19222   3.897   0.272   8.378 -0.2247 -0.5603  0.1239
 2530SOL    HW119223   3.844   0.271   8.299 -1.5450 -1.4192  1.0158
 2530SOL    HW219224   3.980   0.256   8.333 -0.4505 -2.1158  0.2434
 2531SOL     OW19225   3.606   4.549   1.173 -0.0687 -0.4202 -0.2172
 2531SOL    HW119226   3.587   4.533   1.266  0.0125  0.7690  0.0021
 2531SOL    HW219227   3.696   4.519   1.180  0.4810  0.4508 -3.6965
 2532SOL     OW19228   1.653   0.583  13.768  0.1148 -0.0155  0.2612
 2532SOL    HW119229   1.688   0.524  13.701  1.2829 -0.0682  0.9309
 2532SOL    HW219230   1.634   0.657  13.711 -1.1314  0.6576  1.5549
 2533SOL     OW19231   3.561   2.268   9.835 -0.3614 -0.5076 -0.1126
 2533SOL    HW119232   3.579   2.355   9.799  1.5846 -1.4876 -1.5298
 2533SOL    HW219233   3.513   2.294   9.914 -0.3907  2.8745 -1.2215
 2534SOL     OW19234   3.394   3.708   7.944  0.5223  0.3522  0.2977
 2534SOL    HW119235   3.411   3.698   8.038 -0.7172 -1.7774  0.3059
 2534SOL    HW219236   3.330   3.779   7.950 -1.7742 -1.5019 -2.6085
 2535SOL     OW19237   0.653   2.090   7.900  0.2087 -0.1479 -0.0093
 2535SOL    HW119238   0.714   2.154   7.937 -0.6284  0.6256  0.0325
 2535SOL    HW219239   0.639   2.132   7.815 -0.6878  0.5739  0.4911
 2536SOL     OW19240   3.413   0.114   4.233  0.1265 -0.2497  0.1026
 2536SOL    HW119241   3.406   0.085   4.324  0.8636  0.0023  0.2443
 2536SOL    HW219242   3.358   0.051   4.187 -0.0610 -0.3679  0.4893
 2537SOL     OW19243   2.868   4.324   5.469  0.2693  0.1430 -0.1220
 2537SOL    HW119244   2.816   4.274   5.532 -2.7354 -0.2201 -2.8787
 2537SOL    HW219245   2.817   4.335   5.388 -0.4292 -0.1364  0.2770
 2538SOL     OW19246   2.876   1.009   8.068  0.1499 -0.1974 -0.0190
 2538SOL    HW119247   2.898   1.102   8.075 -0.3567 -0.1671  1.3061
 2538SOL    HW219248   2.901   0.975   8.154  0.7489 -0.7736 -0.4235
 2539SOL     OW19249   0.506   3.584   4.970  0.2838  0.5408  0.4811
 2539SOL    HW119250   0.444   3.512   4.980 -1.1277  1.4086 -1.9959
 2539SOL    HW219251   0.554   3.579   5.053 -0.6570  0.4804  1.0184
 2540SOL     OW19252   0.722   3.316   4.191 -0.3431 -0.8411 -0.2357
 2540SOL    HW119253   0.667   3.324   4.268  1.1146 -0.7158  0.7942
 2540SOL    HW219254   0.706   3.405   4.159 -2.0412 -0.8496  0.6063
 2541SOL     OW19255   4.448   1.675   8.114 -0.4455 -0.4661 -0.6794
 2541SOL    HW119256   4.492   1.590   8.121  0.6542  0.1470  0.0235
 2541SOL    HW219257   4.424   1.704   8.203  0.7148 -0.3071 -0.4202
 2542SOL     OW19258   3.808   3.336  10.296 -0.1946 -0.3787 -0.6731
 2542SOL    HW119259   3.773   3.406  10.240  1.5762  0.7406 -0.4068
 2542SOL    HW219260   3.901   3.331  10.275 -0.5061  1.0832 -2.3966
 2543SOL     OW19261   1.485   1.050   8.426 -0.0802  0.0746  0.2917
 2543SOL    HW119262   1.551   1.095   8.479 -0.4642  0.7706  0.1711
 2543SOL    HW219263   1.410   1.067   8.483  0.5045  1.6862  0.5843
 2544SOL     OW19264   0.854   2.281   7.927 -0.3445  0.1026  0.0404
 2544SOL    HW119265   0.910   2.303   8.001 -0.5669 -1.1861  0.6021
 2544SOL    HW219266   0.907   2.206   7.900 -0.4168 -0.3115  1.0726
 2545SOL     OW19267   4.076   3.855   4.916 -0.6091  0.5098 -0.0095
 2545SOL    HW119268   4.115   3.862   4.829  1.3751 -0.1211  0.8345
 2545SOL    HW219269   4.028   3.937   4.916 -1.0017  0.2826 -0.7317
 2546SOL     OW19270   3.345   0.188  14.098  0.3205 -0.1901  0.2097
 2546SOL    HW119271   3.344   0.175  14.193  0.3434  0.9709  0.3752
 2546SOL    HW219272   3.440   0.190  14.087  0.2597 -0.2838 -0.3412
 2547SOL     OW19273   4.271   4.658   9.301  0.0314 -0.1050 -0.1335
 2547SOL    HW119274   4.276   0.013   9.276 -0.3551 -0.1687 -0.4449
 2547SOL    HW219275   4.219   4.655   9.382 -0.2105 -2.8694 -0.3851
 2548SOL     OW19276   1.319   2.780   3.967 -0.2198 -0.6119  1.1584
 2548SOL    HW119277   1.251   2.845   3.951  0.3380  0.7504  4.4896
 2548SOL    HW219278   1.375   2.791   3.890  0.4783 -1.7728  1.4853
 2549SOL     OW19279   4.724   0.607   7.608  0.6172 -0.5268 -0.4122
 2549SOL    HW119280   0.014   0.549   7.680 -0.3726 -3.2578 -2.2618
 2549SOL    HW219281   4.654   0.653   7.655  0.7450 -1.3971  0.6247
 2550SOL     OW19282   2.110   3.195  10.395  0.5196  0.1653 -0.0706
 2550SOL    HW119283   2.063   3.278  10.402 -0.1523 -0.1832 -0.5153
 2550SOL    HW219284   2.171   3.195  10.321  1.3895 -0.6165  0.6341
 2551SOL     OW19285   3.388   3.988   7.438  0.1026 -0.4303 -0.1019
 2551SOL    HW119286   3.423   3.903   7.465  0.4579 -0.5288 -0.8664
 2551SOL    HW219287   3.360   4.019   7.524  2.4992  0.8383  0.2108
 2552SOL     OW19288   1.242   4.425   2.203  0.4632  0.0820 -0.5348
 2552SOL    HW119289   1.267   4.337   2.233 -0.1740 -0.9366 -3.0321
 2552SOL    HW219290   1.325   4.471   2.215  0.9317 -0.5412 -1.3772
 2553SOL     OW19291   3.441   1.202  15.902  0.1628  0.0016 -0.2622
 2553SOL    HW119292   3.418   1.110  15.909 -0.0010  0.1039  0.5475
 2553SOL    HW219293   3.525   1.183  15.859 -0.0114 -2.5513  0.5574
 2554SOL     OW19294   4.004   4.396   7.476  1.2574 -0.5073 -0.5710
 2554SOL    HW119295   3.930   4.346   7.511  0.6093  0.0657 -1.0992
 2554SOL    HW219296   4.066   4.364   7.541  0.8371  1.2853  0.7155
 2555SOL     OW19297   1.954   1.381   9.344 -0.3388 -0.1292 -0.0876
 2555SOL    HW119298   1.884   1.317   9.355  0.6159 -1.2754 -0.7242
 2555SOL    HW219299   1.987   1.390   9.433 -0.7789  0.1812  0.0477
 2556SOL     OW19300   0.458   0.060   8.576  0.1259  0.3061  0.7291
 2556SOL    HW119301   0.408   0.076   8.496  0.3605  0.3840  0.5989
 2556SOL    HW219302   0.531   0.117   8.551 -0.7613  1.0007 -0.2441
 2557SOL     OW19303   1.013   2.281   9.274  0.1936 -0.0154 -0.6418
 2557SOL    HW119304   0.988   2.269   9.366 -0.8137  1.2307 -0.7542
 2557SOL    HW219305   0.927   2.306   9.240  0.0626  0.6654  0.2038
 2558SOL     OW19306   1.204   3.252   7.187  0.0433 -0.2177  0.1652
 2558SOL    HW119307   1.198   3.161   7.157 -2.5577  0.4251 -1.2874
 2558SOL    HW219308   1.298   3.254   7.202 -0.1543  1.5934  1.1072
 2559SOL     OW19309   3.243   2.696   4.232 -0.2695  0.2879  0.0368
 2559SOL    HW119310   3.254   2.618   4.178  0.9752  1.0890 -0.8606
 2559SOL    HW219311   3.156   2.730   4.212 -0.1624  1.4722  1.5495
 2560SOL     OW19312   1.344   0.539   8.403 -0.0362 -0.3365 -0.3074
 2560SOL    HW119313   1.414   0.489   8.360  0.3420 -0.3936  0.3862
 2560SOL    HW219314   1.375   0.564   8.490  0.4221  0.9527 -0.8443
 2561SOL     OW19315   0.118   1.969   7.072 -0.4532  1.2027  0.2876
 2561SOL    HW119316   0.151   2.019   6.997  0.9305  0.0589  0.1398
 2561SOL    HW219317   0.197   1.970   7.126 -1.6134  1.4210  1.9962
 2562SOL     OW19318   3.315   1.796   7.358 -0.3119 -0.1110 -0.5030
 2562SOL    HW119319   3.252   1.838   7.417 -0.0978 -0.5340  0.0332
 2562SOL    HW219320   3.373   1.865   7.325 -2.5469  1.2262 -1.6240
 2563SOL     OW19321   0.217   3.080   4.113  0.0198 -0.2940 -0.6883
 2563SOL    HW119322   0.203   3.071   4.018  0.6554  0.6274 -0.8745
 2563SOL    HW219323   0.212   2.987   4.132 -0.4815 -0.3716 -1.1802
 2564SOL     OW19324   0.165   3.031   2.882 -0.1370 -0.6457 -0.8568
 2564SOL    HW119325   0.170   3.010   2.789  2.5835 -1.8377 -0.4334
 2564SOL    HW219326   0.080   2.996   2.912  1.0265 -1.0741  1.9796
 2565SOL     OW19327   1.083   0.251   3.851 -0.4565  0.0504  0.0305
 2565SOL    HW119328   1.085   0.224   3.759 -1.2573 -1.3611  0.4233
 2565SOL    HW219329   1.099   0.345   3.844  1.1381  0.0816  4.2375
 2566SOL     OW19330   0.366   2.216   4.781 -0.9710 -0.4332  0.2426
 2566SOL    HW119331   0.433   2.160   4.820  0.6386  2.1326  1.1534
 2566SOL    HW219332   0.291   2.156   4.774 -0.5326 -0.9738  0.1628
 2567SOL     OW19333   0.065   1.513   4.645 -0.1789  0.3045 -0.0932
 2567SOL    HW119334   0.141   1.560   4.611 -0.5193 -1.0276 -2.7026
 2567SOL    HW219335   0.003   1.539   4.576 -1.1629  1.8552  1.3840
 2568SOL     OW19336   4.336   2.261   6.235  0.0834 -0.1215 -0.1714
 2568SOL    HW119337   4.411   2.293   6.285 -0.6512 -1.2852  1.6812
 2568SOL    HW219338   4.262   2.284   6.290  0.8114 -3.7223  2.2939
 2569SOL     OW19339   1.838   2.497   1.593  0.1608 -0.3817 -0.1010
 2569SOL    HW119340   1.774   2.564   1.574 -0.1170 -0.7726 -0.5301
 2569SOL    HW219341   1.896   2.536   1.660 -1.4829 -0.2971  1.2687
 2570SOL     OW19342   0.711   3.076  15.566 -0.4162  0.6011  0.0562
 2570SOL    HW119343   0.758   3.002  15.527 -3.0953 -0.2144 -1.6363
 2570SOL    HW219344   0.732   3.068  15.659 -0.1456  0.2267 -0.0386
 2571SOL     OW19345   0.009   3.798  14.569  0.5302  0.3354 -0.0175
 2571SOL    HW119346   0.001   3.830  14.479  0.5050  1.1571  0.2805
 2571SOL    HW219347   4.673   3.841  14.612  0.6087  1.1378 -0.6841
 2572SOL     OW19348   3.523   1.453  12.934 -0.6388  0.4321 -0.0708
 2572SOL    HW119349   3.578   1.429  13.009  0.0359  0.5455 -0.5331
 2572SOL    HW219350   3.574   1.401  12.872  1.7852  0.1130  2.1731
 2573SOL     OW19351   3.915   2.131   7.350 -0.2174  0.4421 -0.0471
 2573SOL    HW119352   3.922   2.036   7.346 -1.5536  0.2916  1.3699
 2573SOL    HW219353   4.005   2.160   7.361  0.0516  0.0491 -1.2072
 2574SOL     OW19354   3.446   2.910  10.706 -0.3996  0.3756 -0.2766
 2574SOL    HW119355   3.453   2.913  10.801  1.0620  0.8109 -0.4097
 2574SOL    HW219356   3.515   2.970  10.679 -1.2348 -0.0345 -3.4415
 2575SOL     OW19357   1.955   0.473   0.352  0.0474 -0.2690 -0.8858
 2575SOL    HW119358   1.991   0.472   0.441 -1.6174 -0.6953 -0.2185
 2575SOL    HW219359   1.866   0.502   0.373  0.9413 -0.0387  2.6146
 2576SOL     OW19360   4.621   0.597  15.238 -0.9214  0.3520 -0.3459
 2576SOL    HW119361   4.674   0.559  15.308  0.5927  1.8230 -0.7026
 2576SOL    HW219362   4.538   0.596  15.286  0.1980 -0.1753  1.5794
 2577SOL     OW19363   4.331   0.985   6.074  0.4020 -0.3640 -0.6596
 2577SOL    HW119364   4.341   0.890   6.070  1.3033 -0.3856  2.5976
 2577SOL    HW219365   4.320   0.991   6.169  0.3736  0.7844 -0.7374
 2578SOL     OW19366   1.713   2.988   4.317 -0.0876 -0.4063  0.0228
 2578SOL    HW119367   1.652   2.946   4.255  0.6889  1.6311 -2.1279
 2578SOL    HW219368   1.656   2.999   4.393 -1.2652 -2.1236 -0.6181
 2579SOL     OW19369   1.463   1.607   8.863 -0.1565  0.0572  0.0654
 2579SOL    HW119370   1.541   1.553   8.849 -0.3088  0.0493 -0.7746
 2579SOL    HW219371   1.404   1.554   8.809 -0.4194 -0.8426  1.2372
 2580SOL     OW19372   3.001   3.174   2.712  0.3485  0.3410  0.1604
 2580SOL    HW119373   2.941   3.148   2.782 -0.2521 -0.1137 -0.5258
 2580SOL    HW219374   3.002   3.268   2.694  1.6794  0.3017  0.0232
 2581SOL     OW19375   1.852   3.195   9.884 -0.3692  0.2742  0.0309
 2581SOL    HW119376   1.807   3.201   9.800  1.1216 -1.0051 -0.8533
 2581SOL    HW219377   1.872   3.287   9.899 -0.2150  0.1224  0.7445
 2582SOL     OW19378   4.237   2.253   1.245  0.9108  0.4898  0.1260
 2582SOL    HW119379   4.269   2.322   1.186  0.4668  0.0480 -0.6336
 2582SOL    HW219380   4.170   2.219   1.185 -0.7232  2.5899  0.7305
 2583SOL     OW19381   4.380   3.210  10.737 -0.3051 -0.1009 -0.0746
 2583SOL    HW119382   4.390   3.285  10.795 -1.4980 -0.1084  0.1352
 2583SOL    HW219383   4.474   3.190  10.740 -0.0085  1.6010  2.1942
 2584SOL     OW19384   2.995   2.723   9.215  0.7794  0.8232 -0.6889
 2584SOL    HW119385   3.034   2.645   9.176  0.9638  1.7488 -2.3604
 2584SOL    HW219386   2.908   2.723   9.175 -0.2365  0.2592  1.5263
 2585SOL     OW19387   3.582   1.559   3.368  0.2891 -0.0785 -0.1186
 2585SOL    HW119388   3.529   1.484   3.393  1.5307 -0.9884 -0.2517
 2585SOL    HW219389   3.665   1.514   3.357  1.0202  1.0489  0.7332
 2586SOL     OW19390   0.322   0.054  14.769 -0.0150  0.0974  0.4301
 2586SOL    HW119391   0.306   0.145  14.744  1.0311  0.1669  0.0014
 2586SOL    HW219392   0.249   0.042  14.829  0.7312  2.7772  1.9199
 2587SOL     OW19393   0.790   1.644   8.498 -0.0926  1.0347 -0.5260
 2587SOL    HW119394   0.739   1.586   8.441 -0.1074 -0.8689  1.4220
 2587SOL    HW219395   0.722   1.685   8.552  1.6934  1.9247  1.0567
 2588SOL     OW19396   2.164   3.288  13.285 -0.2952 -0.1790 -0.8884
 2588SOL    HW119397   2.139   3.262  13.373  0.0748  1.8091 -0.1793
 2588SOL    HW219398   2.103   3.362  13.276 -1.8797 -1.1441  1.9152
 2589SOL     OW19399   3.517   1.162   8.443  0.1415  0.5399  0.0987
 2589SOL    HW119400   3.470   1.129   8.520 -0.2770 -1.7776 -1.1735
 2589SOL    HW219401   3.519   1.255   8.465 -1.0463  0.6505 -0.2521
 2590SOL     OW19402   3.751   4.595   6.103  0.0375  0.3068 -0.5492
 2590SOL    HW119403   3.753   4.590   6.008  0.4475 -0.0597 -0.5214
 2590SOL    HW219404   3.736   4.688   6.119 -0.5427  0.1412 -0.0948
 2591SOL     OW19405   4.134   3.977   2.587  0.0704  0.0193  0.7467
 2591SOL    HW119406   4.170   4.062   2.610  0.4671  0.1689 -0.4745
 2591SOL    HW219407   4.187   3.963   2.509 -2.3263  1.0129 -1.0846
 2592SOL     OW19408   2.984   0.351  10.966  0.8305  0.1428  0.4996
 2592SOL    HW119409   2.893   0.362  10.940  0.5118  0.9701  1.9860
 2592SOL    HW219410   2.999   0.415  11.035  1.1020 -0.2495  0.8061
 2593SOL     OW19411   2.825   4.438  11.743 -0.0158  0.5084  0.3538
 2593SOL    HW119412   2.754   4.502  11.753 -1.2898 -0.8815  0.1928
 2593SOL    HW219413   2.829   4.424  11.649  2.3610  3.6741 -0.0340
 2594SOL     OW19414   3.135   4.687   6.422 -0.0993 -0.1950 -0.0137
 2594SOL    HW119415   3.121   4.594   6.440  0.3916 -0.5166 -1.2959
 2594SOL    HW219416   3.077   4.702   6.347  0.9921 -0.3385 -0.8818
 2595SOL     OW19417   0.817   3.361   6.866 -0.4340 -0.1758  0.3708
 2595SOL    HW119418   0.847   3.320   6.948 -0.2215 -0.2248  0.2703
 2595SOL    HW219419   0.750   3.297   6.841  1.4110 -0.8321 -2.9168
 2596SOL     OW19420   4.112   0.698   2.531 -0.2115  0.1298  0.7217
 2596SOL    HW119421   4.185   0.689   2.593  0.7193  3.0346  0.0612
 2596SOL    HW219422   4.158   0.674   2.451  1.9578 -1.3886  2.4145
 2597SOL     OW19423   3.878   3.864   4.560  0.0506  0.3858  0.1640
 2597SOL    HW119424   3.965   3.878   4.597 -0.4714 -2.5042  2.4462
 2597SOL    HW219425   3.856   3.784   4.606 -0.2911  1.5261  1.9678
 2598SOL     OW19426   1.066   2.656  16.631  0.2540 -0.1404 -0.2774
 2598SOL    HW119427   0.975   2.677  16.612 -0.1572 -1.6423  0.0629
 2598SOL    HW219428   1.119   2.660  16.552 -0.6793  2.1001 -0.7779
 2599SOL     OW19429   2.208   0.159   3.529  0.1752 -0.3421 -0.2543
 2599SOL    HW119430   2.277   0.129   3.469  0.4613 -1.3352  0.5757
 2599SOL    HW219431   2.243   0.244   3.554  0.0339 -1.1490  2.6814
 2600SOL     OW19432   3.515   4.402   7.107 -0.5319 -0.1143 -0.1882
 2600SOL    HW119433   3.547   4.312   7.117 -0.7606 -0.1621  0.0993
 2600SOL    HW219434   3.553   4.438   7.187 -0.1755 -0.9905  0.0438
 2601SOL     OW19435   4.639   4.535   8.716 -0.0862  0.1700 -0.2444
 2601SOL    HW119436   4.665   4.500   8.802  0.5977  1.8665  0.2314
 2601SOL    HW219437   4.676   4.623   8.722  2.6007 -1.0023  0.3672
 2602SOL     OW19438   4.452   2.132   5.196 -0.6094 -0.1672  0.1861
 2602SOL    HW119439   4.488   2.070   5.132 -4.8914 -3.0191  0.5312
 2602SOL    HW219440   4.514   2.119   5.268  0.4958 -1.0849 -0.9357
 2603SOL     OW19441   1.122   0.392  13.912  0.2518 -0.4414  0.1818
 2603SOL    HW119442   1.053   0.400  13.846 -2.3428  1.5640  3.1598
 2603SOL    HW219443   1.198   0.444  13.888 -0.5365  0.5493 -0.1335
 2604SOL     OW19444   2.086   0.543   3.372  0.1017  0.0229  0.2458
 2604SOL    HW119445   2.121   0.625   3.408 -1.4401  1.5227 -1.7294
 2604SOL    HW219446   2.137   0.470   3.409 -2.7206 -1.0412  2.0633
 2605SOL     OW19447   3.770   2.204   6.508  0.0202 -0.2223  0.7475
 2605SOL    HW119448   3.754   2.161   6.592  0.0822  0.1803  0.9632
 2605SOL    HW219449   3.857   2.240   6.525 -0.5845  0.8609  1.5691
 2606SOL     OW19450   3.214   3.348   7.791  0.2602  0.4608  0.1267
 2606SOL    HW119451   3.164   3.371   7.870  0.3625 -0.1630  0.3696
 2606SOL    HW219452   3.237   3.257   7.809  3.1425  0.9993 -0.8210
 2607SOL     OW19453   4.245   1.882   7.048 -0.4618  0.0418  0.2262
 2607SOL    HW119454   4.223   1.879   6.955  0.0031  2.9109  0.0099
 2607SOL    HW219455   4.302   1.806   7.059 -1.3589 -0.7131 -0.3131
 2608SOL     OW19456   0.840   3.258   3.623 -0.2764  0.5146 -0.4296
 2608SOL    HW119457   0.879   3.253   3.710  2.5187  0.0592 -1.6925
 2608SOL    HW219458   0.915   3.241   3.565 -1.6264  2.1396 -2.6632
 2609SOL     OW19459   0.725   1.619   5.104  0.3446 -0.2599 -0.5401
 2609SOL    HW119460   0.750   1.527   5.115  0.9334  0.1250  1.3385
 2609SOL    HW219461   0.629   1.613   5.108  0.3533  0.2992  0.6034
 2610SOL     OW19462   2.115   1.655  10.930 -0.4686 -0.2022 -0.4300
 2610SOL    HW119463   2.046   1.674  10.866  0.4035 -0.4717 -1.4281
 2610SOL    HW219464   2.167   1.606  10.867 -0.2034 -1.6616  0.9369
 2611SOL     OW19465   4.660   4.216   4.991  0.4728 -0.2742 -0.0204
 2611SOL    HW119466   4.597   4.229   4.920  0.6132  1.2056  0.1220
 2611SOL    HW219467   4.630   4.138   5.037 -0.3800  0.1192  0.0946
 2612SOL     OW19468   2.102   1.671   3.986 -0.1669 -0.3112 -0.2190
 2612SOL    HW119469   2.034   1.691   4.051 -0.4518  2.0693 -1.2420
 2612SOL    HW219470   2.072   1.584   3.961 -2.2698  0.8426 -1.6960
 2613SOL     OW19471   1.103   3.003   0.976 -0.2946  0.0289  0.0377
 2613SOL    HW119472   1.069   2.942   0.911 -0.0697 -0.6186  0.5298
 2613SOL    HW219473   1.051   2.976   1.051  0.0651 -0.5200  0.0887
 2614SOL     OW19474   0.972   1.714   8.207 -0.6681  0.0936  0.2188
 2614SOL    HW119475   0.888   1.752   8.232 -1.0222  0.9562 -2.3578
 2614SOL    HW219476   1.033   1.782   8.237  2.3735 -2.4370 -0.2357
 2615SOL     OW19477   3.911   3.797  13.142 -0.4024 -0.0652  0.1592
 2615SOL    HW119478   3.922   3.877  13.090  0.1045  0.4482  1.0553
 2615SOL    HW219479   3.896   3.733  13.073 -1.1331  0.5284 -0.2294
 2616SOL     OW19480   2.277   3.959   9.498 -0.0372 -0.5324  0.4807
 2616SOL    HW119481   2.352   3.982   9.553  0.3324 -0.7867  0.0884
 2616SOL    HW219482   2.311   3.982   9.411  0.0987 -1.0366  0.4045
 2617SOL     OW19483   3.094   3.428   6.387 -0.6696 -0.1825  0.1529
 2617SOL    HW119484   3.032   3.478   6.441 -2.1556 -0.2645 -1.4727
 2617SOL    HW219485   3.073   3.337   6.411  1.1769 -1.0879 -1.7519
 2618SOL     OW19486   1.964   2.090   8.941 -0.3827  0.2445  0.3102
 2618SOL    HW119487   1.930   2.033   9.010  1.3834 -2.0910 -0.7436
 2618SOL    HW219488   2.044   2.046   8.912 -1.1112 -0.5044 -0.5943
 2619SOL     OW19489   0.841   2.769  11.252 -0.7272 -0.4348 -0.3059
 2619SOL    HW119490   0.889   2.847  11.280 -0.3274 -1.0688  0.7422
 2619SOL    HW219491   0.762   2.766  11.305 -0.3342  0.4082  0.3335
 2620SOL     OW19492   2.650   3.187   7.571  0.3247 -0.5060 -0.0876
 2620SOL    HW119493   2.578   3.134   7.606 -0.3429  0.8206  0.5156
 2620SOL    HW219494   2.603   3.237   7.505 -0.3965 -0.9243  0.1076
 2621SOL     OW19495   2.447   0.564   4.785  0.3927 -0.0373  0.5117
 2621SOL    HW119496   2.477   0.536   4.871 -0.6390 -0.4358  0.7373
 2621SOL    HW219497   2.359   0.594   4.807  0.6730  1.1713 -0.0202
 2622SOL     OW19498   1.236   3.918   8.984 -0.7506 -0.2971  0.3336
 2622SOL    HW119499   1.297   3.894   8.914  1.6603  3.4846  1.1430
 2622SOL    HW219500   1.254   4.012   8.992 -1.1653 -0.3211  1.4891
 2623SOL     OW19501   2.225   3.176   6.290  0.1646  0.0065  0.4417
 2623SOL    HW119502   2.131   3.166   6.302  0.2327 -0.2676  0.7419
 2623SOL    HW219503   2.269   3.113   6.347  1.5571  0.5119 -0.0744
 2624SOL     OW19504   2.182   0.353   7.238  0.1094  0.2409  0.4243
 2624SOL    HW119505   2.113   0.309   7.188  0.4743  0.4787 -0.2887
 2624SOL    HW219506   2.210   0.428   7.185 -2.4094 -0.3436 -1.7189
 2625SOL     OW19507   1.918   3.209   5.025 -0.1471  0.0307  0.5185
 2625SOL    HW119508   1.869   3.226   5.106  0.3313 -0.4562  0.9052
 2625SOL    HW219509   1.994   3.266   5.028 -0.7440  0.7753  1.4593
 2626SOL     OW19510   4.627   0.011   2.105  0.0701 -0.1446 -1.0716
 2626SOL    HW119511   4.646   0.080   2.169 -3.5014  1.8743 -2.1639
 2626SOL    HW219512   4.535   4.729   2.123  0.3874  0.7273  1.5331
 2627SOL     OW19513   3.316   3.744   1.462  0.2281 -0.0555 -0.0179
 2627SOL    HW119514   3.340   3.653   1.443  1.4778 -0.2055  2.3087
 2627SOL    HW219515   3.231   3.745   1.418  0.3646 -2.8442 -0.3307
 2628SOL     OW19516   1.757   0.450  15.552 -0.0709 -0.6278  0.4955
 2628SOL    HW119517   1.686   0.500  15.591  3.6442  3.9221  1.3437
 2628SOL    HW219518   1.802   0.514  15.497 -1.0283  0.2438  0.7314
 2629SOL     OW19519   3.127   1.822  13.023  0.0392 -0.1265 -0.1328
 2629SOL    HW119520   3.173   1.903  13.044  0.3946 -0.2721 -0.3604
 2629SOL    HW219521   3.164   1.799  12.938  0.3046 -1.6337  0.4059
 2630SOL     OW19522   1.510   2.228  10.891 -0.2724 -0.6345 -0.3123
 2630SOL    HW119523   1.449   2.202  10.822  0.3041  1.2568 -1.5346
 2630SOL    HW219524   1.594   2.209  10.847  1.1099 -0.1812  2.1315
 2631SOL     OW19525   0.108   0.438   7.796  0.5486  0.0974  0.1839
 2631SOL    HW119526   0.057   0.366   7.760 -0.1288  0.2823  0.7921
 2631SOL    HW219527   0.053   0.459   7.871 -1.9578 -1.1775 -1.3250
 2632SOL     OW19528   3.319   1.255   6.964 -0.3273 -0.1419  0.2655
 2632SOL    HW119529   3.387   1.196   6.929  0.7102  3.2816 -3.4285
 2632SOL    HW219530   3.241   1.214   6.928 -1.4758  2.1138  0.2202
 2633SOL     OW19531   3.775   3.795   0.826 -0.0434 -0.3674 -0.1331
 2633SOL    HW119532   3.752   3.864   0.763 -1.5703 -0.6107  0.1491
 2633SOL    HW219533   3.734   3.828   0.906 -1.4431 -1.9550 -0.1807
 2634SOL     OW19534   1.071   2.715   7.512 -0.5048  1.0334 -0.2622
 2634SOL    HW119535   1.061   2.641   7.453  0.0350 -0.5000  1.5463
 2634SOL    HW219536   1.156   2.690   7.550 -0.9563  0.0560  0.1032
 2635SOL     OW19537   2.443   3.134  16.069 -0.4306  0.0116  0.1414
 2635SOL    HW119538   2.359   3.156  16.031  0.7366  0.8296 -1.9367
 2635SOL    HW219539   2.462   3.051  16.026  2.0638 -0.0745  1.4193
 2636SOL     OW19540   0.727   3.088   6.914 -0.1115  0.3512  0.0510
 2636SOL    HW119541   0.633   3.074   6.926 -0.1448  2.0426  1.6860
 2636SOL    HW219542   0.741   3.064   6.822  0.7697 -3.1917  1.0894
 2637SOL     OW19543   3.662   1.814   5.132 -0.1508  0.1655  0.6095
 2637SOL    HW119544   3.727   1.812   5.202  0.5653 -1.0910 -0.0868
 2637SOL    HW219545   3.690   1.891   5.083  0.9224 -0.5411  0.1075
 2638SOL     OW19546   3.960   0.946   0.727  0.4305 -0.8538 -0.1306
 2638SOL    HW119547   3.991   1.019   0.782  0.7325 -0.5787 -0.6708
 2638SOL    HW219548   3.868   0.964   0.707  0.9654  0.7268 -1.0946
 2639SOL     OW19549   3.457   3.726   8.867  0.0590 -1.3422 -0.1496
 2639SOL    HW119550   3.366   3.697   8.874 -0.6120  0.3841 -1.7825
 2639SOL    HW219551   3.492   3.654   8.815 -0.2296 -1.2470 -0.4758
 2640SOL     OW19552   2.827   2.195   9.770  0.4979  0.3636  0.4658
 2640SOL    HW119553   2.814   2.147   9.688  1.4535 -0.8304  1.0167
 2640SOL    HW219554   2.763   2.265   9.757 -0.1554 -0.5057 -1.0626
 2641SOL     OW19555   4.286   2.615   1.466  0.0477 -0.5293  0.1910
 2641SOL    HW119556   4.379   2.635   1.476 -0.3021  1.1661  0.1626
 2641SOL    HW219557   4.253   2.691   1.418 -1.3133 -0.6781  0.8764
 2642SOL     OW19558   2.781   1.848   6.118  0.2314  0.2930 -0.2605
 2642SOL    HW119559   2.750   1.769   6.162  2.0957 -0.9065 -1.1145
 2642SOL    HW219560   2.866   1.826   6.081 -0.4112 -0.7240 -1.1269
 2643SOL     OW19561   2.846   1.385   3.470 -0.0471  0.3120 -0.1468
 2643SOL    HW119562   2.765   1.433   3.453 -0.6689 -0.4064  0.7372
 2643SOL    HW219563   2.847   1.358   3.562 -0.5585 -1.4060 -0.6398
 2644SOL     OW19564   3.698   0.002   6.375 -0.9756  0.3897 -0.1661
 2644SOL    HW119565   3.699   0.031   6.284  0.9365 -1.4067 -0.7034
 2644SOL    HW219566   3.610   0.033   6.400 -1.1880 -0.1977 -0.1814
 2645SOL     OW19567   1.266   1.394   4.553 -0.2591  0.4756 -0.0146
 2645SOL    HW119568   1.291   1.311   4.512  1.4039  1.4021 -0.8666
 2645SOL    HW219569   1.171   1.388   4.544  0.0817 -3.0759 -1.3004
 2646SOL     OW19570   1.868   4.543  11.311 -0.0183  0.0547  0.1502
 2646SOL    HW119571   1.850   4.450  11.297 -2.4850  0.4981  0.5038
 2646SOL    HW219572   1.862   4.562  11.404  2.8269 -0.8210  0.5337
 2647SOL     OW19573   1.405   2.007  11.922 -0.5552  0.2125  0.4353
 2647SOL    HW119574   1.478   1.951  11.947 -0.0105  0.2102 -1.1289
 2647SOL    HW219575   1.399   1.987  11.828 -0.6852  0.0932  0.4710
 2648SOL     OW19576   4.109   0.393   8.558 -0.3339  0.0988 -1.0345
 2648SOL    HW119577   4.028   0.356   8.524 -2.3319  1.0922  2.6100
 2648SOL    HW219578   4.078   0.483   8.569  0.7441  0.5892 -2.0187
 2649SOL     OW19579   3.488   2.573   3.127 -0.0949  0.0958 -0.6630
 2649SOL    HW119580   3.461   2.486   3.095  2.0693 -0.0767 -2.0383
 2649SOL    HW219581   3.514   2.557   3.218  1.6086  1.2154 -0.9547
 2650SOL     OW19582   1.020   4.723   8.342 -0.6540 -0.1846  0.0489
 2650SOL    HW119583   0.946   0.035   8.306 -0.2606 -0.3959 -1.0462
 2650SOL    HW219584   1.016   4.637   8.300  0.4861 -0.3547  0.3009
 2651SOL     OW19585   2.430   4.121   2.105  0.0387  0.9402  0.0217
 2651SOL    HW119586   2.355   4.182   2.108 -1.1067 -0.5736  1.9926
 2651SOL    HW219587   2.395   4.052   2.048 -0.5416  0.4664  0.9674
 2652SOL     OW19588   3.111   0.589   3.713  0.4160  0.0548 -0.6294
 2652SOL    HW119589   3.027   0.595   3.758 -0.1797  0.8111 -1.8382
 2652SOL    HW219590   3.163   0.530   3.769 -2.1242 -0.7623  0.8655
 2653SOL     OW19591   1.857   3.981  12.262 -0.6066 -0.1504 -0.5610
 2653SOL    HW119592   1.810   4.060  12.289 -1.1033 -1.6226  2.8962
 2653SOL    HW219593   1.944   4.019  12.251  0.0285 -1.3137  0.4141
 2654SOL     OW19594   3.461   4.483   8.097 -0.5837 -0.5322 -0.3807
 2654SOL    HW119595   3.532   4.422   8.078 -2.1243 -1.4872 -3.1559
 2654SOL    HW219596   3.511   4.548   8.145 -2.3080  0.4181  0.1180
 2655SOL     OW19597   4.596   0.555  16.109  0.4797 -0.1658 -0.3132
 2655SOL    HW119598   4.636   0.505  16.038 -2.4172  2.6589 -3.8947
 2655SOL    HW219599   4.533   0.492  16.144  1.0343  1.5080  3.7117
 2656SOL     OW19600   1.222   0.409   0.785 -0.6473  0.1395  0.1807
 2656SOL    HW119601   1.155   0.466   0.749  0.4082  1.4759  0.3115
 2656SOL    HW219602   1.278   0.470   0.833  0.6101 -0.6932 -0.2263
 2657SOL     OW19603   0.499   0.413   5.649 -0.0087  0.2405  0.7928
 2657SOL    HW119604   0.586   0.414   5.689 -0.1701  0.7314  1.1300
 2657SOL    HW219605   0.471   0.324   5.674 -0.3873 -0.5379 -2.4068
 2658SOL     OW19606   2.926   3.381   8.903 -0.0896 -0.0572  0.2085
 2658SOL    HW119607   2.919   3.458   8.961 -1.0567  0.2967 -0.3802
 2658SOL    HW219608   2.848   3.330   8.924 -0.0475  0.1978  1.0087
 2659SOL     OW19609   3.298   2.627   9.188 -0.0044 -0.1293 -1.0649
 2659SOL    HW119610   3.268   2.542   9.221  1.5489 -0.2963 -0.1207
 2659SOL    HW219611   3.305   2.676   9.270 -1.0630  1.1695 -1.7588
 2660SOL     OW19612   0.952   2.908   7.684  0.3946 -0.6335 -0.9159
 2660SOL    HW119613   0.923   2.852   7.756  1.1355 -0.3604 -0.4083
 2660SOL    HW219614   0.999   2.837   7.641  2.5231  0.0712  0.2688
 2661SOL     OW19615   2.168   0.700  11.243  0.6288 -0.4253  0.0929
 2661SOL    HW119616   2.162   0.711  11.338  0.1707  2.6921 -0.3205
 2661SOL    HW219617   2.176   0.790  11.214  0.0707 -0.6180 -0.6512
 2662SOL     OW19618   0.978   2.653  11.724  0.3176 -0.0330  0.3833
 2662SOL    HW119619   0.971   2.606  11.640  0.9670  2.0263 -0.8215
 2662SOL    HW219620   1.058   2.699  11.701  0.0040  1.3333  2.0739
 2663SOL     OW19621   1.111   1.082  11.824 -0.1942  0.1954  0.5624
 2663SOL    HW119622   1.178   1.122  11.770 -2.5550  1.1145 -1.6576
 2663SOL    HW219623   1.141   1.098  11.913  0.9967  0.7897  0.0454
 2664SOL     OW19624   3.625   2.719  11.898 -0.5213  0.6422  0.0367
 2664SOL    HW119625   3.672   2.779  11.956 -1.8378 -1.2994  3.1320
 2664SOL    HW219626   3.622   2.639  11.951 -1.8088  0.4489 -0.3481
 2665SOL     OW19627   2.012   1.837   8.663  0.4373  0.1683  0.4102
 2665SOL    HW119628   1.951   1.883   8.605  0.0322 -0.7928  0.0753
 2665SOL    HW219629   2.054   1.911   8.708 -1.2776 -0.5166  3.1672
 2666SOL     OW19630   2.761   1.268   2.352 -0.1864 -0.2868  0.0364
 2666SOL    HW119631   2.729   1.357   2.341  0.2036 -0.2677 -0.9914
 2666SOL    HW219632   2.690   1.225   2.304 -0.4687 -1.0532  1.1375
 2667SOL     OW19633   1.162   3.894   8.547 -0.3895  0.0081  0.6857
 2667SOL    HW119634   1.091   3.928   8.601 -2.6183 -2.4375 -0.6650
 2667SOL    HW219635   1.182   3.816   8.598  0.0194  0.3857  1.0972
 2668SOL     OW19636   3.561   3.467   5.809  0.4494  0.1400 -0.3293
 2668SOL    HW119637   3.654   3.444   5.810  0.3665 -0.2901 -2.0499
 2668SOL    HW219638   3.562   3.561   5.826  1.6057  0.0971 -0.1422
 2669SOL     OW19639   3.606   4.723   9.391 -0.2359  0.1028  0.1724
 2669SOL    HW119640   3.574   0.010   9.304 -0.7802 -0.1724  0.2932
 2669SOL    HW219641   3.679   4.670   9.360  0.4481 -0.1675  2.2930
 2670SOL     OW19642   0.186   0.976   2.090 -1.0977  0.0897  0.0122
 2670SOL    HW119643   0.114   1.019   2.136 -0.1849  0.9108  0.6468
 2670SOL    HW219644   0.203   1.028   2.012 -0.0591 -0.3760 -0.0659
 2671SOL     OW19645   2.540   3.877   2.311 -0.1732  0.1760  0.0336
 2671SOL    HW119646   2.460   3.892   2.262 -0.3915 -1.5570 -0.1479
 2671SOL    HW219647   2.501   3.812   2.370  1.3930 -0.3680  0.4874
 2672SOL     OW19648   2.209   3.219  15.944  0.3197  0.5094  0.8683
 2672SOL    HW119649   2.248   3.307  15.944  1.2678  0.0919  1.6132
 2672SOL    HW219650   2.124   3.234  15.985  0.1799 -1.4272  1.2812
 2673SOL     OW19651   4.376   4.411   3.727  0.3253  0.1338 -0.0980
 2673SOL    HW119652   4.309   4.371   3.671 -1.5083  0.3044  1.9585
 2673SOL    HW219653   4.413   4.330   3.763 -0.2430 -0.3803 -0.6499
 2674SOL     OW19654   2.632   2.417   9.118 -0.1103 -0.2990 -0.9329
 2674SOL    HW119655   2.610   2.479   9.187 -2.2278 -2.7404  0.6036
 2674SOL    HW219656   2.549   2.403   9.071 -0.5630 -0.9975  0.0736
 2675SOL     OW19657   1.526   4.682   6.896 -0.2512 -0.5608 -0.2086
 2675SOL    HW119658   1.583   4.689   6.972 -1.1718  0.2650  0.4029
 2675SOL    HW219659   1.453   4.737   6.926 -0.9880 -0.1502 -2.7965
 2676SOL     OW19660   1.086   0.970   2.116 -0.3820  0.2391 -0.1119
 2676SOL    HW119661   1.163   0.918   2.137 -0.6506  0.2465  0.8857
 2676SOL    HW219662   1.093   0.975   2.021 -2.3151  2.0955 -0.1454
 2677SOL     OW19663   2.182   4.730   4.450  0.1417  0.9187  0.1329
 2677SOL    HW119664   2.273   0.024   4.445  0.3054 -0.0983 -3.1518
 2677SOL    HW219665   2.187   4.640   4.419  1.1934  1.6641 -1.8582
 2678SOL     OW19666   1.917   1.803  10.175  0.4314  0.2128  0.2869
 2678SOL    HW119667   1.981   1.756  10.229 -0.1153  1.2474  1.8458
 2678SOL    HW219668   1.843   1.743  10.189  1.5164 -1.2163 -0.1312
 2679SOL     OW19669   2.569   1.754   1.851  0.2370  0.0947 -0.4568
 2679SOL    HW119670   2.641   1.780   1.794  0.6087 -0.4848 -0.2548
 2679SOL    HW219671   2.495   1.798   1.810 -0.0894 -0.0338 -0.0068
 2680SOL     OW19672   4.510   2.866   8.198  0.4430  0.6280 -1.1409
 2680SOL    HW119673   4.574   2.836   8.263 -1.4878 -2.5687 -0.7464
 2680SOL    HW219674   4.464   2.938   8.242  1.9717  0.3529  0.9254
 2681SOL     OW19675   2.881   3.122  11.737  0.1828  0.2135  0.0226
 2681SOL    HW119676   2.841   3.180  11.672 -0.1775  2.8131  2.5742
 2681SOL    HW219677   2.818   3.113  11.808  0.4670  0.8129  0.3458
 2682SOL     OW19678   4.067   2.255   2.923 -0.2717 -0.0530 -0.0493
 2682SOL    HW119679   4.121   2.285   2.996 -0.8764 -0.3235  0.5060
 2682SOL    HW219680   4.081   2.324   2.858 -0.7050  0.4992  0.4498
 2683SOL     OW19681   1.699   1.696   3.187  0.2734  0.0379 -0.0511
 2683SOL    HW119682   1.618   1.647   3.203 -1.3480  2.0867 -2.1091
 2683SOL    HW219683   1.739   1.713   3.273 -1.1956 -2.8685  1.2216
 2684SOL     OW19684   3.233   1.483   2.073 -0.3308 -1.1089 -0.2598
 2684SOL    HW119685   3.275   1.561   2.108 -2.3904  0.3687 -1.0989
 2684SOL    HW219686   3.223   1.436   2.155  0.5694  3.2221  2.3394
 2685SOL     OW19687   1.816   1.662  11.277  0.1193  0.0593  0.6160
 2685SOL    HW119688   1.855   1.734  11.228 -2.0466 -0.7580 -2.2656
 2685SOL    HW219689   1.888   1.645  11.338  0.9805 -0.9732 -0.6969
 2686SOL     OW19690   3.950   0.917   6.780  0.1284  0.6873 -0.2636
 2686SOL    HW119691   4.028   0.902   6.833  0.1853  0.8821 -0.2913
 2686SOL    HW219692   3.991   0.944   6.698  0.7243  0.9126  0.1146
 2687SOL     OW19693   3.679   2.324   4.860  0.0472  0.7379  0.6282
 2687SOL    HW119694   3.739   2.305   4.932  1.8779  0.4256 -0.9925
 2687SOL    HW219695   3.627   2.396   4.895 -1.7062  0.9817 -2.5077
 2688SOL     OW19696   3.904   4.687  11.100 -0.4555  0.1329  0.8910
 2688SOL    HW119697   3.891   4.657  11.010 -3.8087 -0.1513  1.4458
 2688SOL    HW219698   3.817   4.667  11.135 -0.6577  1.4508  1.1439
 2689SOL     OW19699   1.605   4.658  12.857  0.0369  0.6338  0.4869
 2689SOL    HW119700   1.559   4.665  12.773 -0.2332 -1.0676  0.5026
 2689SOL    HW219701   1.686   4.699  12.827  1.4612 -2.4848  0.1042
 2690SOL     OW19702   2.474   3.205   5.506  0.8556 -0.7946 -0.0450
 2690SOL    HW119703   2.527   3.144   5.557 -0.9464 -0.8838  1.7277
 2690SOL    HW219704   2.387   3.167   5.508  0.6877 -0.2734  2.5846
 2691SOL     OW19705   0.121   2.652   5.439 -0.6564 -0.0678 -0.0918
 2691SOL    HW119706   0.179   2.681   5.369 -0.1129 -0.8418  0.0357
 2691SOL    HW219707   0.083   2.568   5.414 -0.1840  0.6089 -3.0346
 2692SOL     OW19708   1.938   0.870   2.393 -0.4403  0.0768 -0.0212
 2692SOL    HW119709   1.984   0.916   2.324  2.5300  0.5570  2.2783
 2692SOL    HW219710   1.896   0.791   2.358  0.3951 -0.4394  0.1531
 2693SOL     OW19711   1.480   1.684   2.466  0.5201 -0.1002 -0.2489
 2693SOL    HW119712   1.489   1.728   2.551  1.5940 -1.2917  0.2462
 2693SOL    HW219713   1.399   1.723   2.432 -1.6016 -4.9282 -0.7548
 2694SOL     OW19714   4.205   1.488   6.300  0.3417 -0.5004  0.4930
 2694SOL    HW119715   4.236   1.439   6.376  0.9891  2.1417  1.9298
 2694SOL    HW219716   4.273   1.466   6.236 -1.2606 -0.2714 -1.2701
 2695SOL     OW19717   2.704   3.201   2.381  0.0042 -0.0719  0.4398
 2695SOL    HW119718   2.735   3.270   2.439  0.2646 -0.7349  1.0797
 2695SOL    HW219719   2.731   3.242   2.299 -0.8961  1.4933  0.9267
 2696SOL     OW19720   3.028   3.259  15.119  0.0177 -0.3766  0.2200
 2696SOL    HW119721   3.021   3.177  15.167 -2.3793  0.2378  0.8931
 2696SOL    HW219722   3.117   3.266  15.083 -0.3316  2.6688 -0.0389
 2697SOL     OW19723   0.052   0.541  11.137 -0.1882  0.1673 -0.2978
 2697SOL    HW119724   0.044   0.610  11.071  1.2032 -0.4754 -1.1472
 2697SOL    HW219725   0.066   0.464  11.081 -2.2115  1.3987 -2.4895
 2698SOL     OW19726   4.616   3.109   1.601 -0.1232 -0.2523 -0.1844
 2698SOL    HW119727   4.538   3.151   1.566 -0.6073 -1.0883 -0.1128
 2698SOL    HW219728   4.622   3.142   1.691 -2.1097 -0.5140  0.0567
 2699SOL     OW19729   2.299   3.042   9.307 -0.4075 -0.6404 -0.2616
 2699SOL    HW119730   2.276   2.950   9.318 -1.6976 -0.1669  1.0238
 2699SOL    HW219731   2.359   3.060   9.379 -0.9590 -0.2153  0.0961
 2700SOL     OW19732   0.680   4.189   5.993 -0.3301  0.7902  0.1526
 2700SOL    HW119733   0.635   4.106   6.009  0.0343  0.7351  0.9044
 2700SOL    HW219734   0.731   4.198   6.074  0.2701 -0.5327 -0.0931
 2701SOL     OW19735   4.235   4.239   8.222 -0.3232 -0.1892 -0.2813
 2701SOL    HW119736   4.203   4.282   8.143  0.5463 -0.8495 -0.9858
 2701SOL    HW219737   4.258   4.316   8.273  1.7703 -1.3016  0.4363
 2702SOL     OW19738   2.026   2.379   0.417  0.2964  0.2629 -0.7960
 2702SOL    HW119739   2.069   2.333   0.345  2.2674 -0.0840  0.5877
 2702SOL    HW219740   2.070   2.333   0.489  0.4337  0.7187 -0.5922
 2703SOL     OW19741   1.272   1.815   7.008  0.2003 -0.3401 -0.6509
 2703SOL    HW119742   1.204   1.748   7.014  1.8942 -2.0756 -0.9240
 2703SOL    HW219743   1.327   1.774   6.941  0.3189 -1.1805 -0.0231
 2704SOL     OW19744   3.195   0.440   5.927 -0.3189  0.4959 -0.1442
 2704SOL    HW119745   3.129   0.489   5.878 -0.6963  0.7615  0.6281
 2704SOL    HW219746   3.268   0.442   5.864 -1.3137 -0.2206 -1.3264
 2705SOL     OW19747   4.604   1.946   5.790  0.6306 -0.3660  0.1254
 2705SOL    HW119748   4.584   2.039   5.775  3.0667  0.3987  1.4168
 2705SOL    HW219749   4.700   1.949   5.792  0.6346  0.2148 -0.8616
 2706SOL     OW19750   0.705   3.148  17.360  0.2041  0.3674  0.2651
 2706SOL    HW119751   0.665   3.134  17.274 -0.5130  1.0066  0.4875
 2706SOL    HW219752   0.757   3.072  17.384  0.0855 -0.8356 -3.3759
 2707SOL     OW19753   3.388   0.267  12.774 -0.0076  0.0024 -0.4122
 2707SOL    HW119754   3.480   0.291  12.781 -0.6243  1.6722  1.8605
 2707SOL    HW219755   3.395   0.201  12.705 -0.1821 -0.1302 -0.3026
 2708SOL     OW19756   0.191   4.408   7.680  0.0855 -0.0061  0.4817
 2708SOL    HW119757   0.172   4.373   7.594  2.2515  2.0086 -0.8149
 2708SOL    HW219758   0.190   4.500   7.653  2.0251 -0.2784 -0.4740
 2709SOL     OW19759   1.493   4.142  10.937  0.0077 -0.4611  0.7296
 2709SOL    HW119760   1.417   4.162  10.882  0.1709 -0.1017  0.6345
 2709SOL    HW219761   1.556   4.174  10.872  0.8865 -1.0017  1.3093
 2710SOL     OW19762   0.907   0.174   1.610 -0.2976 -0.0217 -0.0265
 2710SOL    HW119763   0.894   0.084   1.637 -1.0889 -0.1625 -0.8956
 2710SOL    HW219764   0.969   0.205   1.676 -1.4933  0.2303  0.9620
 2711SOL     OW19765   3.136   2.574   6.793  0.3188 -0.1637 -0.2710
 2711SOL    HW119766   3.227   2.567   6.822  0.6968 -2.2189 -1.9271
 2711SOL    HW219767   3.144   2.645   6.729  1.4414 -0.5732 -0.5951
 2712SOL     OW19768   3.527   1.153   2.029  0.1166  0.4942  0.3771
 2712SOL    HW119769   3.489   1.192   2.108 -1.8916  0.4273 -0.5488
 2712SOL    HW219770   3.476   1.211   1.972  1.4584  0.3053 -1.0411
 2713SOL     OW19771   1.923   1.680   0.466  0.2801  0.0248 -0.5303
 2713SOL    HW119772   1.853   1.625   0.432  0.8088 -1.9275  1.4650
 2713SOL    HW219773   1.940   1.648   0.555  1.1957 -1.8185 -1.3542
 2714SOL     OW19774   2.827   0.821   3.909 -0.1841  0.6801  0.5043
 2714SOL    HW119775   2.871   0.896   3.868  1.0321  0.2581  1.0497
 2714SOL    HW219776   2.735   0.849   3.905 -0.7917 -1.3410  0.5507
 2715SOL     OW19777   0.712   4.678   6.879  0.0715  0.0117 -0.2926
 2715SOL    HW119778   0.693   4.604   6.821 -2.2022  0.5476 -0.2191
 2715SOL    HW219779   0.751   4.621   6.946 -1.2200 -0.1637  0.3024
 2716SOL     OW19780   3.020   2.354   4.778 -0.2764  0.0309 -0.1562
 2716SOL    HW119781   3.049   2.317   4.695 -1.7163  0.7485 -0.9635
 2716SOL    HW219782   3.084   2.426   4.781 -0.9528  0.6870 -1.6128
 2717SOL     OW19783   2.771   3.430  13.401  0.1137  0.3611 -0.4065
 2717SOL    HW119784   2.707   3.472  13.343 -0.8433 -1.4288 -0.6486
 2717SOL    HW219785   2.844   3.477  13.361 -0.0965  0.9637 -0.0855
 2718SOL     OW19786   1.000   4.109   8.094  0.1057 -0.0990 -0.4181
 2718SOL    HW119787   0.916   4.117   8.047 -2.8682  0.4497  4.9989
 2718SOL    HW219788   0.996   4.020   8.128 -0.3757 -0.0285 -0.2822
 2719SOL     OW19789   4.075   1.273   8.286  0.0181  0.6407 -0.1007
 2719SOL    HW119790   4.109   1.253   8.198 -0.0130 -0.0925  0.0563
 2719SOL    HW219791   4.144   1.243   8.345 -0.4470  0.3698  0.3054
 2720SOL     OW19792   1.148   4.729  14.264  0.6229 -0.6078  0.2409
 2720SOL    HW119793   1.077   4.724  14.329  0.3684  1.8538  0.1647
 2720SOL    HW219794   1.142   0.083  14.236 -1.1155 -0.7650  0.0750
 2721SOL     OW19795   2.158   3.297   6.657 -0.0914  0.2536 -0.6825
 2721SOL    HW119796   2.160   3.217   6.604 -0.6792 -0.2561  0.0545
 2721SOL    HW219797   2.241   3.335   6.630 -0.6002  1.3886 -0.6186
 2722SOL     OW19798   1.172   3.629   6.847 -0.7624  0.3143  0.1729
 2722SOL    HW119799   1.185   3.578   6.927 -2.1539 -1.9748 -1.0882
 2722SOL    HW219800   1.257   3.672   6.841 -1.5036  1.3618 -2.9408
 2723SOL     OW19801   0.180   3.561   4.378  0.5658 -0.4989  0.0033
 2723SOL    HW119802   0.172   3.653   4.401 -0.0503 -0.3778 -0.6966
 2723SOL    HW219803   0.156   3.553   4.286  2.4013  1.8403 -0.6916
 2724SOL     OW19804   0.274   4.517   5.699 -0.4127 -0.1818 -0.4409
 2724SOL    HW119805   0.183   4.525   5.727 -0.4555  2.0049 -1.2094
 2724SOL    HW219806   0.303   4.430   5.727 -0.1107 -0.2391 -0.9432
 2725SOL     OW19807   3.822   1.661  15.930 -0.2573  0.1878  0.0979
 2725SOL    HW119808   3.763   1.717  15.880 -0.7975  1.1204  1.7713
 2725SOL    HW219809   3.775   1.659  16.013 -1.7606  0.7533 -0.7568
 2726SOL     OW19810   2.209   2.812  13.581  0.7707  0.1098 -0.1927
 2726SOL    HW119811   2.169   2.843  13.662  1.4825  0.4716  0.0196
 2726SOL    HW219812   2.168   2.726  13.581  0.7070  0.1395 -1.0617
 2727SOL     OW19813   0.657   2.693   1.965 -0.2050  0.3004 -0.0216
 2727SOL    HW119814   0.641   2.734   2.049  0.1636 -1.4817  0.9140
 2727SOL    HW219815   0.707   2.614   1.984 -1.5140 -0.6296 -0.4403
 2728SOL     OW19816   3.653   0.176   8.533 -0.0952  0.1129  0.1991
 2728SOL    HW119817   3.677   0.085   8.520  0.8026  0.1008  1.9763
 2728SOL    HW219818   3.720   0.226   8.487 -1.3998 -0.6053 -2.4415
 2729SOL     OW19819   3.118   3.993  13.581 -0.2104  0.0518 -0.0821
 2729SOL    HW119820   3.117   4.040  13.664  0.6423 -0.7816  0.3963
 2729SOL    HW219821   3.201   4.020  13.543 -0.3121  1.5546  0.7606
 2730SOL     OW19822   3.818   1.528   5.327  0.3207  0.1431  0.1919
 2730SOL    HW119823   3.758   1.456   5.342 -2.4327  2.5277  0.7085
 2730SOL    HW219824   3.794   1.586   5.399 -2.7471 -0.7302 -0.1652
 2731SOL     OW19825   1.863   3.722   4.345 -1.0901 -0.2167  0.1681
 2731SOL    HW119826   1.805   3.747   4.417  0.2594 -1.3708  1.6555
 2731SOL    HW219827   1.820   3.646   4.307  0.9330 -0.4801 -1.5968
 2732SOL     OW19828   1.501   4.637   8.123 -0.3964  0.3295  0.1902
 2732SOL    HW119829   1.553   4.565   8.088 -0.0342  0.2714  0.8610
 2732SOL    HW219830   1.471   4.597   8.204  0.3634  0.7085  0.6577
 2733SOL     OW19831   2.010   0.971   4.216  0.2370 -0.0649 -0.0480
 2733SOL    HW119832   2.092   0.954   4.170 -0.2428  1.0779 -1.3291
 2733SOL    HW219833   1.997   0.902   4.281 -3.6220  1.4954  0.8407
 2734SOL     OW19834   1.505   4.149   1.158  0.8516  0.1265  0.4119
 2734SOL    HW119835   1.524   4.057   1.175  1.7293  0.1930 -0.2374
 2734SOL    HW219836   1.503   4.159   1.063 -1.2570 -0.5874  0.3782
 2735SOL     OW19837   0.615   2.494  12.967 -0.5436 -0.3555  0.2327
 2735SOL    HW119838   0.647   2.483  12.878  1.2152  0.7374  0.7170
 2735SOL    HW219839   0.532   2.541  12.958 -0.6886 -0.6683 -0.0295
 2736SOL     OW19840   1.903   0.379  12.873 -0.4899 -0.7819  0.1108
 2736SOL    HW119841   1.931   0.455  12.924 -0.5534 -0.3538 -0.4936
 2736SOL    HW219842   1.856   0.416  12.799 -0.4167  1.3299  1.1125
 2737SOL     OW19843   2.641   2.253   2.060 -0.3277  0.1823 -0.3110
 2737SOL    HW119844   2.654   2.245   2.155 -1.1086  2.1311 -0.0394
 2737SOL    HW219845   2.733   2.247   2.032 -1.3698  0.6835 -3.8071
 2738SOL     OW19846   0.805   3.904   4.518  0.0524 -0.0496  0.2622
 2738SOL    HW119847   0.850   3.845   4.578 -0.3806  0.1408  0.7798
 2738SOL    HW219848   0.733   3.920   4.580  0.5993  0.3801  0.7789
 2739SOL     OW19849   4.454   1.030   0.161  0.3255  0.0357  0.5683
 2739SOL    HW119850   4.473   1.030   0.254  0.0575 -0.2632  0.6213
 2739SOL    HW219851   4.359   1.022   0.154  0.3252 -0.1708  0.8404
 2740SOL     OW19852   1.686   1.939   7.737 -0.0209  0.1388  0.3896
 2740SOL    HW119853   1.637   1.860   7.713  1.1572 -0.9440  1.5802
 2740SOL    HW219854   1.741   1.949   7.659  1.1662 -3.8640  0.7473
 2741SOL     OW19855   3.460   0.532   3.197  0.0018 -0.9166 -0.2065
 2741SOL    HW119856   3.545   0.489   3.185  0.5525  0.4759 -1.2985
 2741SOL    HW219857   3.450   0.583   3.116 -0.0761 -0.0031  0.3806
 2742SOL     OW19858   4.691   0.679   5.975 -0.0501 -0.3340 -0.0556
 2742SOL    HW119859   0.038   0.689   6.019  0.5866 -0.4913 -1.2413
 2742SOL    HW219860   4.698   0.587   5.951  1.5110 -0.6375  1.5833
 2743SOL     OW19861   3.267   2.431   0.876  0.7574 -0.1677 -1.0560
 2743SOL    HW119862   3.199   2.462   0.936  1.2078  0.4266 -0.8559
 2743SOL    HW219863   3.217   2.432   0.794  2.5270  1.4431 -2.1163
 2744SOL     OW19864   0.044   4.062   9.770  0.3577  0.3166 -0.1164
 2744SOL    HW119865   4.728   4.056   9.849  0.4276  0.5739 -0.0522
 2744SOL    HW219866   0.052   3.973   9.734  1.0873  0.4949 -0.4021
 2745SOL     OW19867   0.319   4.299   1.230  0.1654  0.0543  0.2658
 2745SOL    HW119868   0.246   4.239   1.245  0.1808 -0.3641 -1.3374
 2745SOL    HW219869   0.394   4.245   1.254  0.7731 -0.2435 -2.3681
 2746SOL     OW19870   3.155   4.138  13.025  0.0927 -0.0538 -0.0365
 2746SOL    HW119871   3.131   4.201  12.957  1.0283  0.6178  0.2518
 2746SOL    HW219872   3.217   4.188  13.078  1.0255  0.3184 -1.4588
 2747SOL     OW19873   2.288   2.517   7.142  0.0676 -0.6990  0.8518
 2747SOL    HW119874   2.250   2.537   7.057 -1.8358 -2.4960  1.2858
 2747SOL    HW219875   2.221   2.549   7.203 -0.8507 -2.2989  0.6827
 2748SOL     OW19876   0.760   3.159  14.565  0.5476  0.0754  0.0587
 2748SOL    HW119877   0.751   3.079  14.512  0.2489  0.0156  0.1953
 2748SOL    HW219878   0.670   3.172  14.596 -0.1654  1.7127 -2.6863
 2749SOL     OW19879   4.634   3.171  10.858  0.2949  0.8961 -0.2062
 2749SOL    HW119880   4.725   3.159  10.886  0.0922 -1.9934 -0.7868
 2749SOL    HW219881   4.602   3.191  10.946  1.6246 -1.6998  0.8715
 2750SOL     OW19882   1.657   0.489  16.502 -0.1026 -0.5361  0.2062
 2750SOL    HW119883   1.677   0.431  16.576  0.4415 -0.0173  0.4644
 2750SOL    HW219884   1.746   0.501  16.469  0.4306  0.2707  1.9334
 2751SOL     OW19885   0.806   2.128   8.509  0.3688 -0.3050  0.5902
 2751SOL    HW119886   0.873   2.084   8.561 -0.0674  0.9870  2.2385
 2751SOL    HW219887   0.842   2.123   8.420 -0.1572 -1.1964  0.4278
 2752SOL     OW19888   3.176   4.673   9.800 -0.5417  0.1748  0.0513
 2752SOL    HW119889   3.207   4.700   9.714 -0.9243 -0.8427 -0.3979
 2752SOL    HW219890   3.185   4.578   9.794  0.9246  0.0385  4.3172
 2753SOL     OW19891   0.268   4.242   0.017  0.0344 -0.0214  0.2226
 2753SOL    HW119892   0.181   4.270  17.739  1.0585  2.5729 -0.4641
 2753SOL    HW219893   0.293   4.299   0.091  1.7714 -2.3369  1.4269
 2754SOL     OW19894   0.749   3.077   7.841  0.3022 -0.2161  0.1623
 2754SOL    HW119895   0.788   3.042   7.761  1.5115 -0.7172  0.9612
 2754SOL    HW219896   0.704   3.155   7.809 -4.0482 -3.3202 -1.2362
 2755SOL     OW19897   1.488   1.623   6.203 -0.6097  0.1504 -0.6769
 2755SOL    HW119898   1.447   1.648   6.121 -2.6000  0.9302  0.5656
 2755SOL    HW219899   1.559   1.687   6.208 -1.1413  0.5089  2.3879
 2756SOL     OW19900   1.606   0.795   4.801  0.1930  0.5753 -0.1090
 2756SOL    HW119901   1.604   0.890   4.812 -0.6361  0.4950  0.4981
 2756SOL    HW219902   1.515   0.774   4.782  0.5395  0.8270 -1.9909
 2757SOL     OW19903   3.155   1.589   6.982 -0.2667 -0.3234  0.0223
 2757SOL    HW119904   3.065   1.557   6.982 -0.0590 -0.8950 -0.5372
 2757SOL    HW219905   3.185   1.575   7.072 -2.6626  0.0146  0.8838
 2758SOL     OW19906   0.757   2.498   8.631  0.1154  0.0488 -0.2969
 2758SOL    HW119907   0.819   2.566   8.605  1.7309 -1.2762  0.1227
 2758SOL    HW219908   0.749   2.505   8.726  0.6377 -3.1535 -0.0126
 2759SOL     OW19909   4.422   2.684  16.743  0.2118 -0.2269 -0.3747
 2759SOL    HW119910   4.391   2.684  16.834  2.8607 -0.4721  0.5145
 2759SOL    HW219911   4.505   2.726  16.763  0.3460 -0.0639 -1.3028
 2760SOL     OW19912   0.691   4.368   1.402  0.0236  1.1280  0.0525
 2760SOL    HW119913   0.695   4.275   1.426 -1.3768  0.9638 -0.3462
 2760SOL    HW219914   0.597   4.383   1.395 -0.1609 -0.5991 -1.1885
 2761SOL     OW19915   4.510   2.545   6.920  1.0762 -0.1049 -0.2133
 2761SOL    HW119916   4.542   2.579   7.004  0.0009 -0.6437  0.4140
 2761SOL    HW219917   4.421   2.521   6.945  1.1980 -1.8996 -1.5414
 2762SOL     OW19918   4.377   0.437   8.476  0.1019  0.1494  0.1203
 2762SOL    HW119919   4.305   0.397   8.524  1.5971  0.0078  2.2967
 2762SOL    HW219920   4.348   0.527   8.462  2.0940  0.3521 -2.7375
 2763SOL     OW19921   0.436   1.684  15.117  0.1282  0.2646 -0.3735
 2763SOL    HW119922   0.344   1.671  15.096 -0.0957  1.5571 -0.2309
 2763SOL    HW219923   0.470   1.685  15.027  0.3896 -0.3249 -0.2791
 2764SOL     OW19924   3.324   3.415   6.714  0.1310 -0.1270  0.4485
 2764SOL    HW119925   3.336   3.320   6.710 -0.3711 -0.2477  1.6932
 2764SOL    HW219926   3.365   3.436   6.630 -0.8577  0.9338  0.2190
 2765SOL     OW19927   3.072   4.506   2.497  0.1020  0.3032 -0.6741
 2765SOL    HW119928   2.986   4.474   2.523  0.5248 -0.6762 -0.4667
 2765SOL    HW219929   3.090   4.558   2.575  0.9841 -0.0190 -0.6623
 2766SOL     OW19930   4.225   1.190   8.057  0.0352 -0.4695  0.2155
 2766SOL    HW119931   4.212   1.143   7.975 -1.1320  1.3740 -0.6304
 2766SOL    HW219932   4.307   1.153   8.090  0.5444  1.7186  1.3967
 2767SOL     OW19933   0.336   1.532   6.398 -0.1549 -0.0010 -0.8018
 2767SOL    HW119934   0.424   1.497   6.383 -0.1951 -1.1270  1.7382
 2767SOL    HW219935   0.334   1.532   6.493 -0.0432 -1.0861 -0.7940
 2768SOL     OW19936   3.297   1.603   0.868 -0.3374 -0.1928  0.1294
 2768SOL    HW119937   3.315   1.648   0.951 -3.5021  1.6344 -0.1686
 2768SOL    HW219938   3.259   1.523   0.905  2.6734 -1.1815  1.0719
 2769SOL     OW19939   1.032   4.621   7.881  0.3092  0.2365  0.6260
 2769SOL    HW119940   1.108   4.574   7.847 -0.1468  0.0329 -0.1332
 2769SOL    HW219941   0.974   4.600   7.807 -0.3857  1.1634  0.9045
 2770SOL     OW19942   1.133   3.437   6.463  0.0719 -0.4566 -0.2919
 2770SOL    HW119943   1.119   3.401   6.550  2.2105 -1.0563 -0.2001
 2770SOL    HW219944   1.228   3.423   6.456  0.5513  2.6264  0.0311
 2771SOL     OW19945   0.060   3.445   0.102 -0.2086 -0.8879  0.2215
 2771SOL    HW119946   0.144   3.426   0.144  0.3166 -0.1547 -0.4745
 2771SOL    HW219947   0.095   3.412   0.019 -1.5432 -0.2734 -0.5908
 2772SOL     OW19948   2.896   2.752   2.214 -0.1106  0.0134  0.0062
 2772SOL    HW119949   2.897   2.827   2.273  0.4077 -0.5049  0.6560
 2772SOL    HW219950   2.987   2.724   2.220  0.2955  1.0110 -1.4047
 2773SOL     OW19951   2.648   0.431   3.365 -0.0631 -0.3768  0.2146
 2773SOL    HW119952   2.635   0.337   3.362 -0.9783 -0.2273 -0.7308
 2773SOL    HW219953   2.704   0.442   3.441  1.3401 -0.8176 -0.7450
 2774SOL     OW19954   0.806   4.238   3.818  0.1333 -0.1342  0.5728
 2774SOL    HW119955   0.862   4.295   3.871 -1.1719 -0.7883  2.6156
 2774SOL    HW219956   0.770   4.178   3.883  1.5903 -2.1162 -0.4402
 2775SOL     OW19957   3.348   0.663   6.697  0.9671  0.2524  0.2412
 2775SOL    HW119958   3.296   0.598   6.745 -0.6524  0.2252 -1.5217
 2775SOL    HW219959   3.350   0.620   6.612 -1.7111 -2.9636  1.7738
 2776SOL     OW19960   0.575   4.476   8.565  0.4175 -0.2063 -0.2133
 2776SOL    HW119961   0.623   4.501   8.486 -0.2464 -0.7013 -0.7702
 2776SOL    HW219962   0.604   4.546   8.623  1.1100  1.0082 -2.0030
 2777SOL     OW19963   2.444   2.024   2.684  0.3620  0.7735  0.7786
 2777SOL    HW119964   2.408   1.966   2.751 -0.0901 -2.3177 -2.1363
 2777SOL    HW219965   2.375   2.090   2.676 -1.0280 -1.1907 -3.2152
 2778SOL     OW19966   3.470   3.687  14.545 -0.3110  0.2054  0.0098
 2778SOL    HW119967   3.523   3.756  14.586  1.4451 -1.1695  0.0504
 2778SOL    HW219968   3.497   3.609  14.594 -1.8609 -0.3022  0.0476
 2779SOL     OW19969   4.072   0.928   6.239  0.0637  0.6311 -0.6715
 2779SOL    HW119970   4.018   0.942   6.162  2.5735  1.3429 -2.2894
 2779SOL    HW219971   4.092   0.834   6.236 -0.5897  0.4892 -0.7441
 2780SOL     OW19972   2.420   1.158   4.221  0.0067  0.3546  0.0125
 2780SOL    HW119973   2.328   1.138   4.202 -0.3436  1.1523  0.8922
 2780SOL    HW219974   2.442   1.180   4.130  0.5513  2.4108  0.6445
 2781SOL     OW19975   4.301   1.984   7.995  0.5119  0.3509 -0.5103
 2781SOL    HW119976   4.283   1.974   7.902  0.6879 -0.2042 -0.4845
 2781SOL    HW219977   4.265   2.071   8.010 -0.5019  0.0305 -1.0905
 2782SOL     OW19978   0.253   3.602   4.088  0.4354 -0.2864 -0.2611
 2782SOL    HW119979   0.170   3.604   4.040 -0.9403 -1.4578  2.0415
 2782SOL    HW219980   0.318   3.579   4.022  0.9109 -1.5751  0.6677
 2783SOL     OW19981   4.289   4.315   8.548 -0.0354  0.2129 -0.6573
 2783SOL    HW119982   4.264   4.263   8.624  3.7736  1.0235  1.1243
 2783SOL    HW219983   4.215   4.375   8.537  0.4527  1.0192  0.4721
 2784SOL     OW19984   3.113   1.543   0.533  0.3625  0.0397  0.0373
 2784SOL    HW119985   3.191   1.598   0.531  0.8703 -0.6839 -0.0468
 2784SOL    HW219986   3.144   1.494   0.457  2.8056  0.6332  0.6616
 2785SOL     OW19987   3.496   3.887   1.655 -0.0303  0.2342  0.4911
 2785SOL    HW119988   3.515   3.812   1.712 -0.4023 -1.2329 -1.3084
 2785SOL    HW219989   3.428   3.848   1.599  1.0865 -0.7671 -0.1872
 2786SOL     OW19990   2.502   1.556   6.970  0.1144  0.1018  0.0110
 2786SOL    HW119991   2.417   1.572   7.012  0.3732 -0.5479  0.7764
 2786SOL    HW219992   2.547   1.639   6.988 -0.7384  0.5197  0.2200
 2787SOL     OW19993   3.323   4.176   8.158 -0.4199 -0.7836  0.8388
 2787SOL    HW119994   3.406   4.129   8.144  0.0055 -0.3387  1.8572
 2787SOL    HW219995   3.343   4.269   8.162  1.1755 -1.0031 -2.2878
 2788SOL     OW19996   2.507   3.325  15.369 -0.4919  0.1684  0.0762
 2788SOL    HW119997   2.462   3.345  15.287 -2.4102 -0.3272  1.0161
 2788SOL    HW219998   2.601   3.319  15.348 -0.7687 -0.4264 -0.9674
 2789SOL     OW19999   0.254   2.071  11.096 -0.2009 -0.2226  0.0865
 2789SOL    HW120000   0.198   2.074  11.174 -1.2765 -0.2141 -0.6768
 2789SOL    HW220001   0.246   2.160  11.061  0.1244 -0.0336  0.5041
 2790SOL     OW20002   2.837   3.386   6.482 -0.4932  0.2016  0.0106
 2790SOL    HW120003   2.779   3.310   6.492  0.1573  0.1600  3.1607
 2790SOL    HW220004   2.847   3.412   6.573  3.3716  4.1341 -1.5396
 2791SOL     OW20005   0.691   3.725  15.815  0.0225  0.3706 -0.5167
 2791SOL    HW120006   0.656   3.751  15.900 -1.1511 -0.9071 -0.6091
 2791SOL    HW220007   0.726   3.638  15.832 -1.1030 -0.4805 -2.4706
 2792SOL     OW20008   1.679   0.466   2.157 -0.0800  1.0660  0.2557
 2792SOL    HW120009   1.614   0.423   2.214 -0.7032 -1.1875 -2.1680
 2792SOL    HW220010   1.660   0.448   2.065  1.6960  0.1494  0.0815
 2793SOL     OW20011   1.494   0.164   2.049  0.0858 -0.4724  0.0216
 2793SOL    HW120012   1.449   0.247   2.042  0.8686 -0.0746 -0.3593
 2793SOL    HW220013   1.438   0.111   1.991  0.0062  0.5855 -0.8598
 2794SOL     OW20014   2.956   0.443   0.635 -0.4003 -0.1675  0.1930
 2794SOL    HW120015   2.934   0.532   0.661 -0.3419 -0.3429  0.8392
 2794SOL    HW220016   2.991   0.412   0.718 -0.0538 -0.1110  0.0693
 2795SOL     OW20017   3.906   1.133   5.440 -0.1902  0.0116 -0.0279
 2795SOL    HW120018   3.924   1.070   5.509  0.7426  2.3068  1.8329
 2795SOL    HW220019   3.812   1.131   5.422 -0.6893 -1.4474  2.8013
 2796SOL     OW20020   4.690   0.593  13.036 -0.1144 -0.2707  0.4074
 2796SOL    HW120021   4.630   0.639  13.095 -0.1919 -2.2192  1.8499
 2796SOL    HW220022   4.664   0.502  13.042 -0.7665 -0.2051 -1.6205
 2797SOL     OW20023   3.866   4.474  16.546  0.3984 -0.4505 -0.6460
 2797SOL    HW120024   3.851   4.549  16.488 -0.6458  0.4758  0.8322
 2797SOL    HW220025   3.812   4.407  16.503 -0.2799 -0.8091  0.7631
 2798SOL     OW20026   2.141   1.170  15.679  0.3484 -0.4400 -0.1583
 2798SOL    HW120027   2.131   1.221  15.759  0.0416 -0.0274 -0.4538
 2798SOL    HW220028   2.150   1.079  15.708  0.4846 -0.4847 -0.3404
 2799SOL     OW20029   0.195   2.808   3.204 -0.3685 -0.2621  0.4398
 2799SOL    HW120030   0.173   2.786   3.294 -2.1543  2.4733  0.6728
 2799SOL    HW220031   0.172   2.901   3.202  0.8715  0.0283 -0.5315
 2800SOL     OW20032   0.658   1.138   5.869  0.5078 -0.2953 -0.1605
 2800SOL    HW120033   0.647   1.090   5.787 -0.5684 -1.9561  0.9554
 2800SOL    HW220034   0.684   1.079   5.940 -0.6062 -1.4290 -0.7096
 2801SOL     OW20035   2.391   4.311   5.868 -0.0393  0.1163 -0.2607
 2801SOL    HW120036   2.415   4.261   5.946 -0.6232 -2.0509 -1.4625
 2801SOL    HW220037   2.414   4.401   5.890  1.8513 -0.4280 -0.0648
 2802SOL     OW20038   1.005   3.238  13.163 -0.2128 -0.4364 -0.6029
 2802SOL    HW120039   0.952   3.273  13.235  1.7854 -0.5620  0.9181
 2802SOL    HW220040   1.045   3.320  13.133 -1.1498 -0.0873 -0.9015
 2803SOL     OW20041   1.082   1.373  15.852  0.3879 -0.6636 -0.0113
 2803SOL    HW120042   0.993   1.400  15.872  1.2584  2.6882 -0.6983
 2803SOL    HW220043   1.066   1.296  15.797 -2.8958 -1.5199  2.1715
 2804SOL     OW20044   1.397   3.053  13.730 -0.0118  0.0225  0.1344
 2804SOL    HW120045   1.329   2.995  13.696  1.2138 -1.7384  0.6886
 2804SOL    HW220046   1.363   3.086  13.813  0.4916 -0.9345  0.7195
 2805SOL     OW20047   1.817   2.510   8.331  0.3427  0.3412 -0.0557
 2805SOL    HW120048   1.798   2.444   8.397  1.1553  1.2881  1.1256
 2805SOL    HW220049   1.785   2.592   8.368 -1.2186  0.3969 -1.5171
 2806SOL     OW20050   3.366   1.122  17.013 -0.2928  1.2416  0.2677
 2806SOL    HW120051   3.460   1.114  17.030  0.2075  3.4129 -1.3893
 2806SOL    HW220052   3.372   1.136  16.918 -1.1452  1.3534  0.2323
 2807SOL     OW20053   0.786   4.230   5.571  0.2257 -0.4936 -0.3515
 2807SOL    HW120054   0.768   4.163   5.637 -2.3723 -2.0892 -2.7151
 2807SOL    HW220055   0.718   4.296   5.582  2.6208  1.6320  1.7406
 2808SOL     OW20056   2.332   0.474   4.033 -0.2822  0.2026 -0.3436
 2808SOL    HW120057   2.413   0.435   4.063  0.0334  0.7735 -0.4622
 2808SOL    HW220058   2.287   0.482   4.117  0.4570  2.4642 -0.1853
 2809SOL     OW20059   0.333   0.293   4.419  0.2141  0.5707  0.2440
 2809SOL    HW120060   0.382   0.376   4.418 -1.0500  1.3113 -1.2561
 2809SOL    HW220061   0.244   0.316   4.445  0.0758  1.1929 -0.7687
 2810SOL     OW20062   3.311   3.688   5.274  0.1980 -0.4902  0.0203
 2810SOL    HW120063   3.319   3.666   5.182 -0.5107  1.1365 -0.4275
 2810SOL    HW220064   3.250   3.623   5.309 -1.2851  0.5551 -0.6233
 2811SOL     OW20065   3.620   3.058   2.513 -0.1590  0.2446  1.3528
 2811SOL    HW120066   3.642   3.065   2.606  1.5934  1.1234  0.8873
 2811SOL    HW220067   3.557   2.988   2.528 -0.6294  0.1651 -1.0201
 2812SOL     OW20068   2.135   3.158  13.529 -0.1829 -0.4233  0.1100
 2812SOL    HW120069   2.156   3.213  13.604  1.6494 -0.2105 -0.5513
 2812SOL    HW220070   2.046   3.129  13.550  0.2532  0.9300  3.7718
 2813SOL     OW20071   0.472   0.104   6.029 -0.1950  0.3663  0.0669
 2813SOL    HW120072   0.392   0.129   6.076 -1.5572 -1.6389 -1.2107
 2813SOL    HW220073   0.468   0.008   6.032  1.2366  0.3760  2.2972
 2814SOL     OW20074   0.988   1.375   3.728  0.1716 -0.5707  0.0043
 2814SOL    HW120075   1.031   1.289   3.724 -0.4622 -0.8131 -1.7218
 2814SOL    HW220076   1.059   1.437   3.713  1.4923 -1.7409  1.3654
 2815SOL     OW20077   2.396   1.666  10.654  0.6186 -0.1580  0.3720
 2815SOL    HW120078   2.441   1.648  10.572  3.6579  0.1017  1.9931
 2815SOL    HW220079   2.391   1.580  10.697 -0.2325 -1.3747 -2.1820
 2816SOL     OW20080   3.410   4.422   5.978 -0.0661  0.3225  0.5755
 2816SOL    HW120081   3.315   4.410   5.973 -0.4439  2.4700  2.6245
 2816SOL    HW220082   3.420   4.510   5.942  1.1175 -0.7038 -1.5700
 2817SOL     OW20083   2.500   1.890  16.351  0.5456  0.2109  0.5064
 2817SOL    HW120084   2.407   1.894  16.329  0.3784 -1.5060  0.8684
 2817SOL    HW220085   2.513   1.980  16.380  3.1544 -0.0203  0.0874
 2818SOL     OW20086   1.294   0.034  17.455  0.2544 -0.1619  0.8394
 2818SOL    HW120087   1.350   0.094  17.505 -0.4155  1.7655 -0.7668
 2818SOL    HW220088   1.346   4.697  17.425  1.6912  0.4273  1.8698
 2819SOL     OW20089   1.555   0.310  14.013  0.1135  0.0317  0.1518
 2819SOL    HW120090   1.560   0.352  13.927 -1.1932  1.2358  0.6518
 2819SOL    HW220091   1.594   0.226  13.990  0.2915 -0.6484  2.9627
 2820SOL     OW20092   3.690   2.225  10.612 -0.0978 -0.0220  0.5946
 2820SOL    HW120093   3.648   2.163  10.554  0.3990  0.8895 -0.7475
 2820SOL    HW220094   3.760   2.254  10.553 -0.3373 -2.0307 -0.6374
 2821SOL     OW20095   3.425   2.980  13.929  1.2586  0.1999  0.5593
 2821SOL    HW120096   3.450   2.907  13.985  0.7175 -0.5631 -0.1908
 2821SOL    HW220097   3.433   3.060  13.980 -1.5356  0.2026  1.0003
 2822SOL     OW20098   0.226   2.110   2.759  0.4917  0.0615  0.0061
 2822SOL    HW120099   0.183   2.043   2.812  0.1819 -1.0845 -1.7118
 2822SOL    HW220100   0.250   2.174   2.826  0.1346 -0.6814  0.8542
 2823SOL     OW20101   2.028   1.954   6.784 -0.8233  0.6258 -0.5745
 2823SOL    HW120102   2.011   1.863   6.760 -1.9562  1.2750 -2.2763
 2823SOL    HW220103   2.115   1.949   6.823 -0.7898  0.8657 -0.6162
 2824SOL     OW20104   4.581   3.519  16.122  0.1784 -0.4125 -0.3407
 2824SOL    HW120105   4.615   3.488  16.206  0.4938  0.0582 -0.2960
 2824SOL    HW220106   4.521   3.451  16.090 -0.0174 -1.2652  1.7864
 2825SOL     OW20107   2.377   2.917   6.265 -0.1719  0.3453  0.2817
 2825SOL    HW120108   2.463   2.943   6.297 -0.1998  0.1827  0.4959
 2825SOL    HW220109   2.364   2.845   6.327 -1.2481 -0.9228 -1.4151
 2826SOL     OW20110   2.922   3.681   2.683  0.2019 -0.0995 -0.0258
 2826SOL    HW120111   2.938   3.758   2.630  2.5278 -0.1701  0.5690
 2826SOL    HW220112   2.827   3.673   2.690  0.1697  0.6349  0.3951
 2827SOL     OW20113   2.771   4.295   0.565  0.0437 -0.3356  0.0181
 2827SOL    HW120114   2.828   4.340   0.628  0.6773 -0.9804 -0.0978
 2827SOL    HW220115   2.792   4.203   0.579  0.3547 -0.2515  0.0991
 2828SOL     OW20116   1.031   1.092   2.800  0.0277 -0.2585 -0.1767
 2828SOL    HW120117   1.005   1.140   2.722 -1.3519 -0.1578  0.3468
 2828SOL    HW220118   1.114   1.133   2.824  0.2143 -1.7408  1.7402
 2829SOL     OW20119   4.305   1.778   1.562  1.2460  0.7739  0.6554
 2829SOL    HW120120   4.238   1.833   1.603 -0.4145 -1.2128  0.6306
 2829SOL    HW220121   4.369   1.844   1.537  1.1012  0.5971 -0.1898
 2830SOL     OW20122   4.138   4.682   8.821  0.3164  0.1298  0.1786
 2830SOL    HW120123   4.166   0.011   8.757  0.2814 -1.8512 -1.8944
 2830SOL    HW220124   4.051   4.660   8.787 -0.9992  1.6527  2.5393
 2831SOL     OW20125   1.630   2.713  17.166 -0.5118  0.0057 -0.2271
 2831SOL    HW120126   1.635   2.797  17.213  0.8059  0.0486 -0.4369
 2831SOL    HW220127   1.548   2.733  17.121  0.0381  1.3551 -0.6364
 2832SOL     OW20128   1.540   1.081   3.977  0.1460 -0.0037 -0.3864
 2832SOL    HW120129   1.556   1.155   3.918  0.1118  0.1162 -0.2458
 2832SOL    HW220130   1.452   1.053   3.953 -0.1192  0.0607  0.5183
 2833SOL     OW20131   3.072   0.273  11.807 -0.0571  0.2533  0.1275
 2833SOL    HW120132   3.149   0.217  11.819 -0.1625  0.2583  0.8679
 2833SOL    HW220133   3.117   0.357  11.797  0.5353 -0.4328 -2.9043
 2834SOL     OW20134   1.492   1.102   8.741 -0.4717  0.2871  0.4234
 2834SOL    HW120135   1.522   1.082   8.830 -0.6658 -1.5763  0.0716
 2834SOL    HW220136   1.566   1.130   8.687 -0.5429 -1.6342 -0.6309
 2835SOL     OW20137   4.638   2.066   8.675  0.0347 -0.0643  0.0559
 2835SOL    HW120138   4.642   2.089   8.768  0.1256  1.7302 -0.3876
 2835SOL    HW220139   4.562   2.008   8.666  1.1210 -1.4059 -0.5040
 2836SOL     OW20140   4.399   2.386   2.830  0.1568 -0.2030  0.5250
 2836SOL    HW120141   4.479   2.436   2.849  0.0341 -0.0578  0.6649
 2836SOL    HW220142   4.436   2.329   2.763  1.9933  1.5444  0.0723
 2837SOL     OW20143   2.853   2.639   4.793 -0.4776  0.0331 -0.0243
 2837SOL    HW120144   2.933   2.686   4.769 -2.5612  2.2184 -2.5856
 2837SOL    HW220145   2.876   2.546   4.786  2.0583  0.8048 -2.1084
 2838SOL     OW20146   2.402   0.755  17.621 -0.1147 -0.1329 -0.4093
 2838SOL    HW120147   2.460   0.797  17.684 -1.4915 -0.7270  1.2645
 2838SOL    HW220148   2.329   0.816  17.613 -1.3840 -1.8576 -1.9779
 2839SOL     OW20149   3.876   2.285  10.418  0.4199  0.0969 -0.2130
 2839SOL    HW120150   3.956   2.299  10.367 -0.0834  1.1319 -0.7079
 2839SOL    HW220151   3.856   2.375  10.443 -0.4646 -0.7855  2.2868
 2840SOL     OW20152   3.395   3.956   5.237 -0.0470  0.1615  0.4114
 2840SOL    HW120153   3.382   3.862   5.243  3.3086 -0.1425  2.6829
 2840SOL    HW220154   3.371   3.974   5.146 -0.3386 -1.3254  0.1929
 2841SOL     OW20155   3.112   2.780   1.879 -0.2024 -0.1255 -0.0800
 2841SOL    HW120156   3.024   2.742   1.869  0.2934 -0.7359 -2.1713
 2841SOL    HW220157   3.171   2.714   1.916 -0.3199  0.6540  1.4982
 2842SOL     OW20158   1.126   0.564   8.860  0.2682 -0.0133 -0.1860
 2842SOL    HW120159   1.159   0.497   8.920  1.8465 -1.5339 -2.7673
 2842SOL    HW220160   1.178   0.638   8.890  1.6988 -0.9539 -0.3434
 2843SOL     OW20161   3.327   2.016   5.666 -0.0960  0.3441  0.0991
 2843SOL    HW120162   3.320   2.096   5.717 -0.3340 -0.6453  1.6096
 2843SOL    HW220163   3.381   1.955   5.716  0.8733  2.8685  2.0944
 2844SOL     OW20164   3.830   1.106   7.847  0.3529 -0.3853  0.1751
 2844SOL    HW120165   3.765   1.105   7.777  1.5408  0.4593 -0.9558
 2844SOL    HW220166   3.882   1.185   7.832  1.7768 -1.7052 -1.9412
 2845SOL     OW20167   3.384   1.355  16.539  0.0609  0.5662  0.4729
 2845SOL    HW120168   3.464   1.403  16.563  1.4012 -2.1139  1.3116
 2845SOL    HW220169   3.416   1.288  16.479  0.7949  1.3181  0.0132
 2846SOL     OW20170   4.059   1.952   2.448  0.2071 -0.2093  0.1594
 2846SOL    HW120171   4.112   1.873   2.445  2.6783  1.4315  0.2460
 2846SOL    HW220172   4.024   1.965   2.360  0.0122 -1.2932  0.0797
 2847SOL     OW20173   2.930   0.911   8.685  0.0275  0.2139  0.0048
 2847SOL    HW120174   2.954   1.000   8.712 -0.4409  0.6114 -0.8890
 2847SOL    HW220175   2.838   0.923   8.660 -0.0293 -1.2034 -0.4449
 2848SOL     OW20176   0.611   3.032   9.907 -0.2632 -0.5672  0.0631
 2848SOL    HW120177   0.586   2.942   9.927 -1.7689 -0.1542  0.0530
 2848SOL    HW220178   0.540   3.069   9.854 -0.7645  1.1517  1.9500
 2849SOL     OW20179   3.126   1.913   9.768  1.1789 -0.4231  0.3307
 2849SOL    HW120180   3.053   1.889   9.825  1.3502 -4.5615 -1.1643
 2849SOL    HW220181   3.175   1.977   9.820 -0.5592 -0.9213  2.6067
 2850SOL     OW20182   4.516   0.887  15.363 -0.3948  0.1131  0.5716
 2850SOL    HW120183   4.579   0.832  15.316 -1.4775 -2.8452  2.6085
 2850SOL    HW220184   4.448   0.821  15.374  1.2724 -1.9283 -1.4476
 2851SOL     OW20185   1.522   2.892   8.638 -0.0849 -0.0066  0.7407
 2851SOL    HW120186   1.498   2.802   8.659 -1.0782  0.3897  1.3163
 2851SOL    HW220187   1.443   2.920   8.591 -0.8109 -3.0351  0.1862
 2852SOL     OW20188   3.855   2.721  13.027  0.0305 -0.3462 -0.1271
 2852SOL    HW120189   3.774   2.732  13.076 -1.1960 -1.3258 -1.9171
 2852SOL    HW220190   3.916   2.715  13.100  0.2827  0.2736 -0.2901
 2853SOL     OW20191   0.201   1.895  16.351  0.2463  0.1894 -0.2157
 2853SOL    HW120192   0.247   1.886  16.268  1.2186  3.0534  0.0121
 2853SOL    HW220193   0.119   1.853  16.325 -0.1318  2.3159 -2.3815
 2854SOL     OW20194   0.910   0.792  16.325  0.1371 -0.4298  0.3471
 2854SOL    HW120195   0.824   0.832  16.321 -0.5309 -1.9455 -0.4414
 2854SOL    HW220196   0.934   0.779  16.234 -0.3583 -1.1342  0.3181
 2855SOL     OW20197   2.734   3.552   4.331  0.1541 -0.4953  0.0081
 2855SOL    HW120198   2.785   3.540   4.251  0.5881 -1.3937  0.4262
 2855SOL    HW220199   2.799   3.513   4.389  0.6207 -1.1005 -0.9206
 2856SOL     OW20200   1.012   3.392   0.969  0.0820  0.0052 -0.1672
 2856SOL    HW120201   0.929   3.352   0.943 -0.4868 -0.2633  2.0092
 2856SOL    HW220202   1.067   3.329   0.922 -0.0425 -0.4661  0.3052
 2857SOL     OW20203   3.634   1.974  14.700  0.3758  0.7919 -0.1301
 2857SOL    HW120204   3.611   1.881  14.691  1.0096  0.6075  0.2007
 2857SOL    HW220205   3.722   1.968  14.736  0.1634 -1.2875  0.0811
 2858SOL     OW20206   1.719   0.792   1.124 -0.0167  0.2949 -0.1110
 2858SOL    HW120207   1.785   0.768   1.189  0.4527  1.6565 -0.0846
 2858SOL    HW220208   1.648   0.824   1.180  1.1277 -0.3240  1.6838
 2859SOL     OW20209   1.059   2.491   4.464 -0.2147 -0.6216  0.0971
 2859SOL    HW120210   1.105   2.420   4.510  0.1475  0.3945  1.2968
 2859SOL    HW220211   1.030   2.454   4.381  1.1588 -0.9397 -0.2458
 2860SOL     OW20212   1.323   1.042   5.709 -0.0620  0.1726  0.0060
 2860SOL    HW120213   1.264   1.023   5.637 -0.9495  0.4172  0.6756
 2860SOL    HW220214   1.316   0.967   5.768  0.0643 -0.1062 -0.3276
 2861SOL     OW20215   0.102   0.292  11.035 -0.4162 -0.1262 -0.0562
 2861SOL    HW120216   0.181   0.301  11.090 -1.5526  0.8048  1.4240
 2861SOL    HW220217   0.046   0.229  11.079  0.8786 -1.1284  0.1811
 2862SOL     OW20218   1.709   3.737   7.065  0.0901 -0.0891 -0.3968
 2862SOL    HW120219   1.706   3.832   7.060  0.1263 -0.0849 -0.3419
 2862SOL    HW220220   1.691   3.728   6.972 -1.1883 -2.3804  0.0641
 2863SOL     OW20221   1.328   3.366   2.693 -0.5209 -0.0949  0.3792
 2863SOL    HW120222   1.317   3.349   2.599  1.1179  1.0176 -0.0230
 2863SOL    HW220223   1.303   3.280   2.724  0.8457  0.0850  1.9728
 2864SOL     OW20224   3.071   0.797   3.015  0.8858 -0.9016  0.4663
 2864SOL    HW120225   3.128   0.750   3.075  0.5153 -0.4849  1.1488
 2864SOL    HW220226   3.118   0.778   2.933 -1.1354 -1.9498 -0.4469
 2865SOL     OW20227   2.790   3.758  15.035 -0.1556  0.1025  0.1475
 2865SOL    HW120228   2.802   3.663  15.033  0.2325  0.1605 -0.2577
 2865SOL    HW220229   2.716   3.767  15.094 -0.1081  0.3115  0.1752
 2866SOL     OW20230   4.581   2.065  12.147 -0.1339 -0.1271 -0.0800
 2866SOL    HW120231   4.583   1.986  12.093  0.0392  0.4783 -0.9413
 2866SOL    HW220232   4.672   2.087  12.128  0.6553 -2.0741  1.3799
 2867SOL     OW20233   4.158   1.777  11.365 -0.1573  0.1805  0.1150
 2867SOL    HW120234   4.169   1.698  11.312  0.7388 -0.5312  1.3420
 2867SOL    HW220235   4.247   1.789  11.399 -0.4063 -0.7706  1.0988
 2868SOL     OW20236   0.924   0.523   6.774  0.6431  0.6233 -0.2831
 2868SOL    HW120237   0.969   0.581   6.712  0.5345  2.3428  1.2197
 2868SOL    HW220238   0.835   0.557   6.769  0.5333  0.2296 -0.9544
 2869SOL     OW20239   0.752   1.375   3.151 -0.4020 -0.3610  0.0574
 2869SOL    HW120240   0.807   1.436   3.100  0.0093  0.0779  1.0383
 2869SOL    HW220241   0.816   1.325   3.202  1.2815 -0.4217 -2.1014
 2870SOL     OW20242   3.744   3.418   2.463  0.1345  0.2206 -0.4340
 2870SOL    HW120243   3.810   3.357   2.497  0.6458  1.2528  0.4452
 2870SOL    HW220244   3.677   3.355   2.436  0.5569 -0.7909  0.8580
 2871SOL     OW20245   4.602   0.483   6.375 -0.0326  0.3126 -0.1710
 2871SOL    HW120246   4.626   0.575   6.367  1.2782 -0.1161 -1.1524
 2871SOL    HW220247   4.637   0.459   6.460 -0.1489  0.9131  0.0429
 2872SOL     OW20248   1.699   3.623   9.660  0.6781  0.0363 -0.2485
 2872SOL    HW120249   1.696   3.603   9.754 -1.8867 -2.3966 -0.8188
 2872SOL    HW220250   1.791   3.625   9.633  0.3022  1.7967 -1.3675
 2873SOL     OW20251   1.052   0.729   2.680  0.0509  0.0277 -0.3691
 2873SOL    HW120252   0.992   0.709   2.608  0.4623 -0.5386 -0.5548
 2873SOL    HW220253   1.101   0.801   2.641  2.0586 -1.0253  0.1685
 2874SOL     OW20254   0.683   3.688   8.842 -0.2239 -0.1593 -0.4140
 2874SOL    HW120255   0.717   3.762   8.791  1.5892 -1.3317 -0.9307
 2874SOL    HW220256   0.657   3.622   8.777  0.3272  0.4965 -1.3129
 2875SOL     OW20257   4.054   4.420   4.710  0.2022  0.4136 -0.5981
 2875SOL    HW120258   4.040   4.389   4.621 -1.1743 -1.2481  0.1858
 2875SOL    HW220259   4.066   4.514   4.704  1.1119  0.4875  2.1163
 2876SOL     OW20260   4.639   1.685   5.997  0.1215 -0.3227 -0.3770
 2876SOL    HW120261   4.607   1.699   6.086 -0.5355 -1.5202 -0.4334
 2876SOL    HW220262   4.729   1.661   6.021 -1.0912  0.7879  5.2969
 2877SOL     OW20263   2.555   2.665   3.567  0.7942  0.3475 -1.0186
 2877SOL    HW120264   2.579   2.584   3.521  2.5873 -0.0524  0.6011
 2877SOL    HW220265   2.593   2.732   3.510  1.9993 -0.3741 -1.0638
 2878SOL     OW20266   2.185   2.534  13.710 -0.0195 -0.1264 -0.0409
 2878SOL    HW120267   2.095   2.557  13.686 -0.0442  0.1252  0.2855
 2878SOL    HW220268   2.209   2.488  13.629 -1.4173 -0.4105 -0.2865
 2879SOL     OW20269   0.036   3.891  14.319  0.4698  0.4674 -0.2645
 2879SOL    HW120270   0.031   3.972  14.268  1.4449  1.1461  0.7055
 2879SOL    HW220271   0.097   3.851  14.257 -1.6555 -0.1456 -1.9348
 2880SOL     OW20272   4.065   4.010   3.926  0.1432  0.3035 -0.0823
 2880SOL    HW120273   4.158   4.001   3.949 -0.5473 -2.2141  1.7713
 2880SOL    HW220274   4.050   3.999   3.833 -0.4732  0.7583 -0.0347
 2881SOL     OW20275   2.177   1.484   7.848 -0.5261 -0.1190  0.3127
 2881SOL    HW120276   2.205   1.451   7.934  0.7146  0.6496  0.1988
 2881SOL    HW220277   2.236   1.560   7.855 -0.7098  0.2108 -1.7635
 2882SOL     OW20278   0.336   3.436   2.851  0.1473 -0.3756 -0.8417
 2882SOL    HW120279   0.304   3.447   2.762  0.9131 -1.6035 -1.2706
 2882SOL    HW220280   0.377   3.349   2.847  1.0856 -0.0301  1.0946
 2883SOL     OW20281   2.918   1.309  16.561  0.3536 -0.1505  0.2115
 2883SOL    HW120282   2.867   1.379  16.520  0.5369  0.9672  1.8621
 2883SOL    HW220283   2.995   1.354  16.595  1.2126 -1.6041  0.1946
 2884SOL     OW20284   2.696   1.495  13.057  0.5350 -0.0347 -0.1191
 2884SOL    HW120285   2.686   1.590  13.055  0.7901 -0.0025  0.1663
 2884SOL    HW220286   2.678   1.467  12.967  1.1394  0.1340 -0.2872
 2885SOL     OW20287   0.902   0.276   8.573 -0.4332  0.2273  0.5822
 2885SOL    HW120288   0.917   0.307   8.662  0.7490 -1.0783  0.8503
 2885SOL    HW220289   0.994   0.267   8.548  0.3115  1.0337  3.0281
 2886SOL     OW20290   3.190   3.186   7.484 -0.2415  0.7137 -0.3952
 2886SOL    HW120291   3.169   3.169   7.393 -0.0111  2.2200 -0.7272
 2886SOL    HW220292   3.285   3.199   7.475 -0.2844  0.4933 -1.1305
 2887SOL     OW20293   1.919   0.944  16.235 -0.0135  0.3853  0.4281
 2887SOL    HW120294   1.938   0.887  16.309  1.4249  0.2281 -0.0601
 2887SOL    HW220295   1.916   1.034  16.268 -0.9412  0.4672  0.1508
 2888SOL     OW20296   3.155   4.301   0.796 -0.2211  0.0570  0.3440
 2888SOL    HW120297   3.105   4.356   0.736 -0.5747 -0.3423  0.2701
 2888SOL    HW220298   3.227   4.269   0.742 -0.2183  1.0856 -0.2590
 2889SOL     OW20299   4.589   3.704   4.295 -0.4187  1.0644 -0.3419
 2889SOL    HW120300   4.541   3.621   4.298  0.4293  0.5706 -0.4865
 2889SOL    HW220301   4.617   3.722   4.385 -1.1432  2.1940 -0.3458
 2890SOL     OW20302   2.243   2.389   1.600  0.0868  0.0184  0.0741
 2890SOL    HW120303   2.223   2.380   1.693  0.0071  1.3088  0.1873
 2890SOL    HW220304   2.282   2.477   1.594 -1.0832  0.4210 -1.6469
 2891SOL     OW20305   1.035   0.445   5.482 -0.5713  0.4063 -0.0884
 2891SOL    HW120306   0.947   0.422   5.512 -0.4307  0.7564  0.5980
 2891SOL    HW220307   1.016   0.453   5.388 -0.0140  1.9315 -0.0764
 2892SOL     OW20308   4.264   4.730  17.030  0.0779  0.2154 -0.3692
 2892SOL    HW120309   4.319   4.655  17.004  1.5323  0.6296  1.5286
 2892SOL    HW220310   4.233   0.035  16.950  0.0823  0.2152 -0.3710
 2893SOL     OW20311   0.682   4.025   8.388 -0.1040  0.3771 -0.2567
 2893SOL    HW120312   0.620   3.992   8.453  1.4688 -2.4308 -0.1449
 2893SOL    HW220313   0.745   4.070   8.444  0.3954 -0.7856  0.1305
 2894SOL     OW20314   1.420   4.096   0.898  0.5614  0.2352  0.4375
 2894SOL    HW120315   1.441   4.099   0.804  0.6924  0.2962  0.4692
 2894SOL    HW220316   1.369   4.016   0.911 -0.1367  1.1957  3.5084
 2895SOL     OW20317   4.518   2.410   4.215 -0.4846 -0.4084 -0.0076
 2895SOL    HW120318   4.510   2.338   4.153  1.9241 -0.2630 -0.4708
 2895SOL    HW220319   4.497   2.374   4.301 -2.3273  1.1038  0.1853
 2896SOL     OW20320   3.823   1.878   1.695  0.0154 -0.4058  0.1788
 2896SOL    HW120321   3.887   1.949   1.691 -0.7318  0.0993 -2.5749
 2896SOL    HW220322   3.810   1.862   1.789 -0.1487  2.7127  0.6704
 2897SOL     OW20323   1.456   1.593   3.195  0.2920  0.0656 -0.0126
 2897SOL    HW120324   1.386   1.646   3.157  0.4511  1.6304  1.9187
 2897SOL    HW220325   1.409   1.542   3.261 -1.0903  0.5623 -0.6177
 2898SOL     OW20326   4.102   3.283   7.250 -0.5759  0.4131  0.2723
 2898SOL    HW120327   4.054   3.206   7.218 -0.2880 -0.8093  2.7275
 2898SOL    HW220328   4.177   3.282   7.190 -1.7754 -0.6822 -1.2126
 2899SOL     OW20329   3.307   2.201   2.362 -0.0024  0.6264  0.6604
 2899SOL    HW120330   3.251   2.234   2.292  0.3509 -1.9876 -0.8495
 2899SOL    HW220331   3.332   2.288   2.393 -0.3970  1.6264 -1.8558
 2900SOL     OW20332   0.785   2.557   0.166  0.0137 -0.1505  0.3211
 2900SOL    HW120333   0.845   2.483   0.167  0.8637  0.5607  1.9792
 2900SOL    HW220334   0.709   2.524   0.119 -0.5347  0.4459  0.7760
 2901SOL     OW20335   3.890   3.225   2.866  0.1252  0.0150 -0.2730
 2901SOL    HW120336   3.925   3.225   2.777 -1.8858 -0.4992 -1.0435
 2901SOL    HW220337   3.814   3.169   2.852 -0.1129  0.5373 -1.0817
 2902SOL     OW20338   1.148   0.621   7.451  0.3656 -0.0460 -0.1128
 2902SOL    HW120339   1.067   0.584   7.488  1.0692  0.0169  1.4669
 2902SOL    HW220340   1.182   0.549   7.397  0.4761 -1.1662  1.4477
 2903SOL     OW20341   1.783   0.546   4.266  0.5537  0.1238 -0.3461
 2903SOL    HW120342   1.842   0.493   4.319 -1.9939 -1.0191  1.3597
 2903SOL    HW220343   1.776   0.621   4.326 -0.5157 -0.2008 -0.0511
 2904SOL     OW20344   0.612   1.868   2.267  0.2589 -0.1821  0.5367
 2904SOL    HW120345   0.527   1.902   2.241 -0.0118 -1.4320 -0.2301
 2904SOL    HW220346   0.654   1.950   2.292  1.2438 -0.6822  0.5255
 2905SOL     OW20347   2.342   0.559   2.522 -0.0801  0.5090 -0.3476
 2905SOL    HW120348   2.294   0.626   2.570 -0.9263 -0.4294  0.1068
 2905SOL    HW220349   2.424   0.554   2.571  0.1533 -0.4887 -0.8269
 2906SOL     OW20350   3.583   4.341   6.468 -0.1239 -0.2671 -0.8051
 2906SOL    HW120351   3.577   4.396   6.390  0.7216 -2.4108 -2.3544
 2906SOL    HW220352   3.632   4.399   6.526  0.0252 -1.5850  0.3982
 2907SOL     OW20353   4.517   0.800   9.735 -0.3000 -0.2947 -0.1997
 2907SOL    HW120354   4.566   0.850   9.669  1.0734 -0.7790  0.4545
 2907SOL    HW220355   4.549   0.714   9.712 -1.3226  0.0831 -3.0534
 2908SOL     OW20356   1.367   4.400  13.220  0.0483 -0.7759 -0.8555
 2908SOL    HW120357   1.370   4.305  13.235 -1.6737 -0.6875  0.0948
 2908SOL    HW220358   1.437   4.402  13.155  1.0115  0.5365  0.2320
 2909SOL     OW20359   2.424   4.613  16.504  0.6454 -0.8168  0.1358
 2909SOL    HW120360   2.346   4.558  16.501  1.9087 -2.6292  0.6330
 2909SOL    HW220361   2.460   4.586  16.588  3.4155  0.7925 -0.5230
 2910SOL     OW20362   2.476   4.486   4.478  0.1174  0.0311 -0.0771
 2910SOL    HW120363   2.471   4.569   4.431 -1.3878 -0.0518 -0.0646
 2910SOL    HW220364   2.388   4.449   4.465  0.7134  0.0504 -4.2121
 2911SOL     OW20365   3.175   2.832   5.594 -0.0050  0.0389  0.0544
 2911SOL    HW120366   3.173   2.921   5.559  0.7570  0.2315  0.5101
 2911SOL    HW220367   3.085   2.819   5.624  1.1081 -1.9168  2.5705
 2912SOL     OW20368   3.867   4.555   3.303  0.5445  0.4361 -0.0564
 2912SOL    HW120369   3.835   4.570   3.214 -0.4050 -0.3419  0.1473
 2912SOL    HW220370   3.914   4.472   3.294 -0.2376 -0.2125  1.6220
 2913SOL     OW20371   1.307   1.276   5.162 -0.8893 -0.0805 -0.2838
 2913SOL    HW120372   1.223   1.251   5.123 -1.6594 -1.3968  2.1480
 2913SOL    HW220373   1.334   1.360   5.126 -1.1193  0.2303  0.2771
 2914SOL     OW20374   4.091   4.230   6.742  0.1614 -0.3094  0.0865
 2914SOL    HW120375   4.032   4.220   6.668 -0.7155 -1.2553  0.9122
 2914SOL    HW220376   4.138   4.311   6.722  0.5113 -1.3409 -3.1741
 2915SOL     OW20377   2.707   2.955   2.020 -0.3826 -0.0436  0.3411
 2915SOL    HW120378   2.612   2.955   2.030 -0.2896  0.1395  1.2853
 2915SOL    HW220379   2.741   2.901   2.093 -0.3458 -0.5032 -0.0153
 2916SOL     OW20380   0.863   3.793  15.259  0.1988  0.2598 -0.4281
 2916SOL    HW120381   0.850   3.797  15.354  1.9217 -0.1729 -0.1894
 2916SOL    HW220382   0.816   3.711  15.240 -0.6846  1.0557 -1.7089
 2917SOL     OW20383   4.305   4.625  17.290  0.5993 -0.2607  0.4363
 2917SOL    HW120384   4.285   4.683  17.216  0.7741  2.2735  2.3683
 2917SOL    HW220385   4.226   4.654  17.336 -0.9315 -2.7762 -0.6122
 2918SOL     OW20386   1.693   4.602   8.657 -0.0749 -0.3035  0.1898
 2918SOL    HW120387   1.615   4.601   8.713 -1.2794 -1.0880 -1.4838
 2918SOL    HW220388   1.735   4.679   8.695 -0.2529 -0.0308 -0.1687
 2919SOL     OW20389   1.604   0.619  13.248  0.0554  0.0232  0.0968
 2919SOL    HW120390   1.550   0.577  13.315  0.7867  1.7541  1.7737
 2919SOL    HW220391   1.570   0.575  13.170  0.5788  0.6019 -0.4615
 2920SOL     OW20392   2.840   3.959   6.680  0.1554 -0.4767  0.4247
 2920SOL    HW120393   2.797   3.949   6.765  0.1427 -0.8466  0.3746
 2920SOL    HW220394   2.914   4.016   6.702 -0.2299  0.5084 -0.8230
 2921SOL     OW20395   0.491   4.130  17.320 -0.4414 -0.2178  0.2015
 2921SOL    HW120396   0.419   4.072  17.345 -0.6455  0.6984  1.7693
 2921SOL    HW220397   0.479   4.210  17.372 -0.6243 -0.3662  0.3901
 2922SOL     OW20398   3.786   1.672   8.054  0.2178 -0.2417  0.1034
 2922SOL    HW120399   3.857   1.632   8.105  0.5871 -1.0583 -1.0354
 2922SOL    HW220400   3.758   1.593   8.007  0.1499 -1.4777  2.2034
 2923SOL     OW20401   0.692   4.432   7.037 -0.5380  0.3007  0.4506
 2923SOL    HW120402   0.633   4.458   7.107  0.4674 -1.3787  1.9169
 2923SOL    HW220403   0.688   4.337   7.047  1.4897  0.6117  4.0632
 2924SOL     OW20404   4.235   3.266   3.136  0.0219 -0.0883  0.0535
 2924SOL    HW120405   4.289   3.187   3.135  0.7724  0.3927  1.5125
 2924SOL    HW220406   4.163   3.233   3.190 -0.5692 -0.4648 -0.9761
 2925SOL     OW20407   2.527   1.058   8.254 -0.3823 -0.3703  0.3663
 2925SOL    HW120408   2.470   1.083   8.181 -1.3304 -2.0018  0.5353
 2925SOL    HW220409   2.602   1.111   8.230 -1.4821  0.4341 -1.3009
 2926SOL     OW20410   1.164   1.205   1.760 -0.4879  0.3186 -0.5226
 2926SOL    HW120411   1.201   1.248   1.837  0.9694 -1.3989 -0.2510
 2926SOL    HW220412   1.123   1.272   1.706 -0.1101  0.6733 -0.3722
 2927SOL     OW20413   0.501   1.872   7.987  0.0172 -0.4621  0.2765
 2927SOL    HW120414   0.429   1.885   8.048  0.0283 -1.2588  0.4523
 2927SOL    HW220415   0.529   1.963   7.976  1.3330 -1.2406 -2.9205
 2928SOL     OW20416   3.208   2.994   0.075 -0.4714 -0.4814  0.2532
 2928SOL    HW120417   3.115   2.985   0.055 -0.2513 -0.4891 -0.7668
 2928SOL    HW220418   3.206   3.019   0.168 -0.9407  1.8835 -0.4125
 2929SOL     OW20419   0.431   4.495   0.159 -0.1769 -0.7750  0.3063
 2929SOL    HW120420   0.505   4.516   0.102 -0.9565  0.6844 -0.1776
 2929SOL    HW220421   0.366   4.542   0.106  2.1532 -0.0503 -1.9447
 2930SOL     OW20422   3.829   4.347  10.439  0.1547 -0.0206 -0.4146
 2930SOL    HW120423   3.881   4.267  10.434  0.8244  0.5510 -2.6918
 2930SOL    HW220424   3.791   4.354  10.351  4.2713  0.1981 -2.1892
 2931SOL     OW20425   3.500   2.213   1.738 -0.3615 -0.6031 -0.4296
 2931SOL    HW120426   3.412   2.232   1.770  0.8139 -1.4677  3.2645
 2931SOL    HW220427   3.537   2.302   1.734  1.8991 -1.4324  1.8905
 2932SOL     OW20428   2.030   2.802   7.703 -0.1483  0.1395  0.2512
 2932SOL    HW120429   2.107   2.790   7.648  0.9401  0.9163  1.6091
 2932SOL    HW220430   1.962   2.772   7.642  1.5516 -1.9049 -0.6511
 2933SOL     OW20431   3.591   0.373   7.855 -0.0594 -0.4558  0.6685
 2933SOL    HW120432   3.523   0.409   7.911 -0.4788  1.2539 -0.9697
 2933SOL    HW220433   3.565   0.389   7.764 -1.8202  2.2308  1.6596
 2934SOL     OW20434   2.393   3.302  17.673 -0.2769 -0.0113  0.2949
 2934SOL    HW120435   2.364   3.393  17.684 -0.7786  0.0146 -1.2726
 2934SOL    HW220436   2.331   3.271  17.608  1.5222 -1.6437 -0.6014
 2935SOL     OW20437   1.014   3.128   0.623  0.3717  0.6716 -0.1371
 2935SOL    HW120438   1.080   3.071   0.583 -1.1647  0.4919 -2.4275
 2935SOL    HW220439   0.976   3.170   0.546 -0.3547 -0.1397 -0.2154
 2936SOL     OW20440   2.386   0.138  15.780 -0.4488 -0.4095  0.1252
 2936SOL    HW120441   2.342   0.223  15.779 -2.2502 -1.3430 -2.0319
 2936SOL    HW220442   2.320   0.092  15.728  1.1440 -0.9727 -1.3856
 2937SOL     OW20443   0.227   3.099   1.946  0.2951  0.6681  0.1728
 2937SOL    HW120444   0.239   3.011   1.911 -0.5921 -1.0909  4.2554
 2937SOL    HW220445   0.145   3.128   1.906  1.5844  0.3194 -2.7178
 2938SOL     OW20446   0.270   3.387   4.891 -0.4251  0.1478 -0.3463
 2938SOL    HW120447   0.189   3.395   4.840 -0.2857 -0.4933 -0.6695
 2938SOL    HW220448   0.337   3.391   4.823 -0.2701  0.2212 -0.1896
 2939SOL     OW20449   4.605   1.922  10.479  0.3054  0.1370  0.6158
 2939SOL    HW120450   4.538   1.854  10.472  0.3379  0.1161  0.5053
 2939SOL    HW220451   4.556   1.988  10.527 -1.4922 -1.9934  1.7355
 2940SOL     OW20452   0.939   1.150   5.835 -0.1040 -0.5632  0.4866
 2940SOL    HW120453   0.951   1.068   5.787  0.2171 -0.0104 -0.3823
 2940SOL    HW220454   0.845   1.164   5.827 -0.1915 -1.8589 -0.8297
 2941SOL     OW20455   4.365   2.076   4.120  0.7813 -0.3941 -0.0903
 2941SOL    HW120456   4.370   2.028   4.203  2.5252  0.4013  0.2706
 2941SOL    HW220457   4.454   2.110   4.113  0.3949  0.3312 -1.4014
 2942SOL     OW20458   0.658   3.044  14.810 -0.5533 -0.6629 -0.3324
 2942SOL    HW120459   0.573   3.045  14.767 -1.0590 -3.4071  0.5946
 2942SOL    HW220460   0.711   3.000  14.743 -1.0696  1.4368 -2.1081
 2943SOL     OW20461   0.878   2.923   6.395 -0.2946  0.3822  0.4685
 2943SOL    HW120462   0.924   2.884   6.469  0.1967 -1.7435 -0.9712
 2943SOL    HW220463   0.789   2.893   6.414 -0.0048  0.5641  2.0579
 2944SOL     OW20464   1.314   0.687   6.823 -0.0283  0.1268  0.0094
 2944SOL    HW120465   1.338   0.739   6.746  0.3360 -0.7489 -0.4676
 2944SOL    HW220466   1.301   0.601   6.784  0.4200 -0.3648  0.9643
 2945SOL     OW20467   4.411   0.186   7.092  0.2555 -0.3822 -0.1337
 2945SOL    HW120468   4.374   0.108   7.134  0.1888  0.2125  0.9117
 2945SOL    HW220469   4.405   0.172   6.997  0.3984  1.1460 -0.3555
 2946SOL     OW20470   3.879   2.285   7.730 -0.1930 -0.3160  0.3109
 2946SOL    HW120471   3.841   2.363   7.770 -0.4081 -0.3078  0.0912
 2946SOL    HW220472   3.948   2.276   7.795  1.0127 -0.6711 -1.0059
 2947SOL     OW20473   2.301   3.705   6.106  0.3532 -0.1424 -0.3542
 2947SOL    HW120474   2.280   3.617   6.137  1.2247 -1.0893 -2.4498
 2947SOL    HW220475   2.354   3.740   6.177  1.3312  0.0056 -1.1539
 2948SOL     OW20476   2.677   2.992   5.689 -0.4300  0.4862  0.1424
 2948SOL    HW120477   2.714   2.923   5.634 -1.7864  0.6154 -0.9206
 2948SOL    HW220478   2.762   3.017   5.726 -0.7833 -0.5693  1.6639
 2949SOL     OW20479   2.861   1.640   1.274  0.1552 -0.1693  0.2826
 2949SOL    HW120480   2.820   1.714   1.321 -0.0446  0.4238 -0.8325
 2949SOL    HW220481   2.861   1.674   1.185  1.2964  0.8816  0.6822
 2950SOL     OW20482   0.610   4.658   2.209 -0.3557 -0.2938  0.5351
 2950SOL    HW120483   0.680   4.593   2.213 -2.3774 -2.5754 -0.8583
 2950SOL    HW220484   0.557   4.632   2.284 -0.8507 -0.1310  0.2473
 2951SOL     OW20485   0.368   1.222   8.165  0.9131  0.1867 -0.5691
 2951SOL    HW120486   0.292   1.202   8.219  0.1235  2.4578 -0.8074
 2951SOL    HW220487   0.382   1.137   8.123 -0.0014 -0.3511  0.2075
 2952SOL     OW20488   1.546   0.745   3.654  0.4044 -0.3113  0.2085
 2952SOL    HW120489   1.493   0.725   3.577  2.9558 -2.4073 -0.9751
 2952SOL    HW220490   1.523   0.838   3.662  1.6723  0.0674 -0.5371
 2953SOL     OW20491   2.661   2.818  14.739 -0.1757 -0.2992 -0.0572
 2953SOL    HW120492   2.751   2.843  14.719 -1.6651  1.8047 -4.1664
 2953SOL    HW220493   2.626   2.774  14.662  2.1942 -2.1759 -0.0675
 2954SOL     OW20494   1.981   2.154   9.627  0.1069  0.5391 -0.4416
 2954SOL    HW120495   1.916   2.202   9.577  1.1176  0.9006 -1.4094
 2954SOL    HW220496   1.921   2.132   9.698  1.1880 -0.5143  0.1573
 2955SOL     OW20497   1.351   1.368  15.862 -0.2849 -0.7015  0.0420
 2955SOL    HW120498   1.388   1.417  15.788 -0.6754 -0.9108 -0.2952
 2955SOL    HW220499   1.261   1.402  15.862 -0.6558 -1.7202  2.4143
 2956SOL     OW20500   1.115   2.422   5.552 -0.3242  0.1616  0.5339
 2956SOL    HW120501   1.075   2.448   5.635 -1.8751  3.5485 -1.2777
 2956SOL    HW220502   1.207   2.421   5.578 -0.1850  0.7065  0.0523
 2957SOL     OW20503   2.494   2.491  12.788 -0.0163 -0.0448  0.1912
 2957SOL    HW120504   2.588   2.475  12.776 -0.4729 -1.7973 -0.9078
 2957SOL    HW220505   2.494   2.586  12.775  2.3046 -0.2096 -0.9517
 2958SOL     OW20506   4.354   1.162   1.688  0.6491  0.1787 -0.3849
 2958SOL    HW120507   4.411   1.091   1.657  0.6274  1.0828 -2.4979
 2958SOL    HW220508   4.303   1.191   1.612  0.6860  0.0060 -0.4759
 2959SOL     OW20509   0.604   1.282   7.933 -0.5005  0.1020 -0.3168
 2959SOL    HW120510   0.626   1.325   8.016 -1.5192  0.6744 -0.3461
 2959SOL    HW220511   0.608   1.188   7.949  0.0236  0.2825  0.5935
 2960SOL     OW20512   0.466   2.901  15.840  0.0439 -0.3521 -0.4336
 2960SOL    HW120513   0.490   2.850  15.917 -0.2778 -1.1674 -0.8735
 2960SOL    HW220514   0.372   2.891  15.829  0.1463 -1.1471 -0.5635
 2961SOL     OW20515   1.784   3.004   5.505  0.4701 -0.0413 -0.0016
 2961SOL    HW120516   1.857   3.064   5.518  1.8527 -1.6462 -0.4809
 2961SOL    HW220517   1.745   3.044   5.428  1.1985 -0.6518 -0.6770
 2962SOL     OW20518   1.983   1.292  15.482 -0.1938  0.0131  0.0221
 2962SOL    HW120519   1.910   1.230  15.480 -1.7180  1.6911  2.8556
 2962SOL    HW220520   2.042   1.261  15.551 -2.8600  0.3849  2.4488
 2963SOL     OW20521   4.210   2.680   7.649 -0.2745  0.1387 -0.4426
 2963SOL    HW120522   4.117   2.699   7.662 -0.1206  0.0634  0.8143
 2963SOL    HW220523   4.212   2.687   7.554  1.1069  0.4109 -0.3904
 2964SOL     OW20524   3.589   1.925   2.229 -0.1120  0.1652  0.1051
 2964SOL    HW120525   3.635   1.994   2.182 -0.6252  0.4056 -0.0404
 2964SOL    HW220526   3.497   1.935   2.205 -0.2869  0.8861  1.0712
 2965SOL     OW20527   3.340   2.452  15.964 -0.3313 -0.2518 -0.0666
 2965SOL    HW120528   3.425   2.412  15.985 -0.8196 -1.2793 -0.0610
 2965SOL    HW220529   3.281   2.384  15.995 -1.4879  0.1144 -1.4546
 2966SOL     OW20530   4.696   2.832  12.271 -0.0331 -0.3388  0.7010
 2966SOL    HW120531   0.031   2.869  12.320  0.9140  1.8866 -2.3832
 2966SOL    HW220532   4.686   2.747  12.314  1.9241 -0.3983  1.0325
 2967SOL     OW20533   2.534   1.294   6.885  0.2470 -0.2079 -0.1800
 2967SOL    HW120534   2.531   1.386   6.912 -0.6018  0.1436 -1.4527
 2967SOL    HW220535   2.448   1.264   6.912 -0.1675 -0.8177 -2.1358
 2968SOL     OW20536   0.811   4.373  11.777  0.2195  0.0042  0.0416
 2968SOL    HW120537   0.881   4.436  11.790 -1.0325  1.2113  0.9408
 2968SOL    HW220538   0.736   4.412  11.821  0.6386  0.1546  0.6176
 2969SOL     OW20539   1.319   0.831   0.912 -0.4658 -0.2858  0.2692
 2969SOL    HW120540   1.316   0.830   0.816  0.5312 -1.0053  0.2496
 2969SOL    HW220541   1.309   0.922   0.940 -0.3861  0.5822 -2.5464
 2970SOL     OW20542   0.704   1.054   2.161  0.1452  0.0248  0.2906
 2970SOL    HW120543   0.691   0.972   2.113  0.2119  0.9284 -1.3075
 2970SOL    HW220544   0.631   1.108   2.131  0.1787  0.8448  1.7086
 2971SOL     OW20545   0.911   0.370  13.724 -0.2714  0.0383  0.2041
 2971SOL    HW120546   0.851   0.427  13.772 -0.4181  1.0866 -1.2413
 2971SOL    HW220547   0.901   0.398  13.633  1.0298  2.6095  0.8668
 2972SOL     OW20548   1.161   3.091  15.273  0.2841  0.0895  0.7565
 2972SOL    HW120549   1.079   3.084  15.223  0.1013  0.9316  0.9390
 2972SOL    HW220550   1.194   3.170  15.230  0.5062 -0.5551 -0.2370
 2973SOL     OW20551   2.791   4.434  12.048 -0.0736  0.0014  0.4429
 2973SOL    HW120552   2.820   4.401  11.963 -1.6651 -0.1427 -0.0519
 2973SOL    HW220553   2.869   4.478  12.080  1.0158 -0.1110 -2.0873
 2974SOL     OW20554   1.653   3.760  14.371  0.5003  1.1315 -0.2057
 2974SOL    HW120555   1.681   3.789  14.458  2.3818 -1.2365 -0.0026
 2974SOL    HW220556   1.739   3.770  14.331  1.2030 -0.8544  0.8203
 2975SOL     OW20557   0.493   0.796   2.975 -0.3232 -0.2161 -0.0511
 2975SOL    HW120558   0.573   0.777   2.926 -0.7629  1.1275 -1.2658
 2975SOL    HW220559   0.530   0.816   3.061 -0.1657 -1.3826  0.1535
 2976SOL     OW20560   0.140   2.203   6.882  0.1749 -0.0457  0.4767
 2976SOL    HW120561   0.140   2.283   6.934  0.6042 -2.4152  4.1066
 2976SOL    HW220562   0.047   2.203   6.856 -0.7193  1.8353  3.7386
 2977SOL     OW20563   4.031   4.402   9.578  0.0870 -1.0542 -0.0978
 2977SOL    HW120564   3.974   4.330   9.605 -1.3763 -0.1561 -0.8123
 2977SOL    HW220565   4.040   4.403   9.483 -0.8144 -1.9268 -0.1892
 2978SOL     OW20566   4.026   4.532   7.221 -0.2006  0.1722  0.4171
 2978SOL    HW120567   3.931   4.544   7.226 -0.1567  1.2182 -1.5098
 2978SOL    HW220568   4.036   4.489   7.306  1.1631 -0.0177  0.1554
 2979SOL     OW20569   1.351   3.430  16.071  0.3775 -0.2502 -0.2799
 2979SOL    HW120570   1.347   3.446  15.977 -1.5943  0.4745 -0.0762
 2979SOL    HW220571   1.267   3.386  16.086  0.3938  0.2642  1.4026
 2980SOL     OW20572   1.950   4.040   8.872 -0.7079  0.2503  0.6302
 2980SOL    HW120573   1.967   4.042   8.778  0.1808  0.0970  0.7857
 2980SOL    HW220574   1.973   4.128   8.901 -0.9532  0.9257 -1.2714
 2981SOL     OW20575   2.287   3.055   3.559  0.4038  0.2111 -0.1177
 2981SOL    HW120576   2.245   3.090   3.638 -1.7062 -2.0603 -0.2203
 2981SOL    HW220577   2.250   2.967   3.545 -0.4846  0.8374 -1.7505
 2982SOL     OW20578   0.869   3.947   6.127 -0.3103  0.0123  0.6164
 2982SOL    HW120579   0.791   3.958   6.073  1.7796  0.1477 -2.3584
 2982SOL    HW220580   0.846   3.858   6.154  0.3284 -0.1252  0.7030
 2983SOL     OW20581   0.098   4.448   3.984 -0.5366  0.1835 -0.3922
 2983SOL    HW120582   0.067   4.361   3.961 -1.6797 -0.3272  3.0246
 2983SOL    HW220583   0.039   4.501   3.930  0.5624 -1.2087 -2.9419
 2984SOL     OW20584   1.687   3.289   8.842  0.0174 -0.2520 -0.4808
 2984SOL    HW120585   1.629   3.357   8.877  0.2247 -0.6663  0.6794
 2984SOL    HW220586   1.729   3.256   8.922  3.5756  0.6861 -1.9748
 2985SOL     OW20587   1.776   4.362   5.915  0.4645 -0.2148  0.4316
 2985SOL    HW120588   1.729   4.336   5.994 -0.3113 -0.1986 -0.0307
 2985SOL    HW220589   1.744   4.451   5.901  0.3373 -0.3699 -0.2570
 2986SOL     OW20590   0.974   0.328   4.477  0.3991  0.2782 -0.0629
 2986SOL    HW120591   0.956   0.304   4.386  1.5637  1.6222 -0.6481
 2986SOL    HW220592   0.889   0.343   4.520  0.4268 -0.7860  0.3645
 2987SOL     OW20593   0.537   1.352  13.277 -0.3732 -0.5076 -0.5855
 2987SOL    HW120594   0.490   1.435  13.270  2.9054  1.5529  1.9780
 2987SOL    HW220595   0.598   1.369  13.349  0.8124  1.5500 -2.0811
 2988SOL     OW20596   1.811   1.206   5.162 -0.2003 -0.1015  0.0460
 2988SOL    HW120597   1.896   1.169   5.185  0.9600  0.9370 -2.5346
 2988SOL    HW220598   1.767   1.205   5.247  0.9030 -0.9072  0.6037
 2989SOL     OW20599   3.581   1.841   9.371  0.1335  0.0152  0.3049
 2989SOL    HW120600   3.533   1.922   9.388 -2.4724 -0.6625 -3.7245
 2989SOL    HW220601   3.509   1.779   9.357 -0.1546  0.1709  1.1226
 2990SOL     OW20602   2.151   3.980  16.366  0.1622  0.6194 -0.5628
 2990SOL    HW120603   2.081   3.996  16.429 -0.7124 -0.6728 -1.2179
 2990SOL    HW220604   2.215   3.930  16.416 -0.1356  1.4581  0.6490
 2991SOL     OW20605   3.427   0.634   0.764  0.0617 -0.2950 -0.1204
 2991SOL    HW120606   3.395   0.557   0.812  0.2230  0.8833  1.8773
 2991SOL    HW220607   3.399   0.610   0.675 -0.9177 -2.0079  0.6361
 2992SOL     OW20608   0.816   0.968   8.305  0.4912 -0.1016  0.5375
 2992SOL    HW120609   0.786   0.989   8.216 -1.7851 -1.9906  0.8574
 2992SOL    HW220610   0.910   0.962   8.288  0.6084  1.9363  0.5218
 2993SOL     OW20611   1.759   1.223   4.452  0.2989  0.8873  0.4464
 2993SOL    HW120612   1.701   1.186   4.385  0.6142 -0.6010  0.9735
 2993SOL    HW220613   1.718   1.307   4.469 -2.0932  0.0093 -1.0020
 2994SOL     OW20614   4.635   1.987   2.249 -0.3023 -0.2458  0.0012
 2994SOL    HW120615   4.719   2.020   2.217 -1.1381 -0.4779 -2.4231
 2994SOL    HW220616   4.586   2.003   2.168  0.4521 -0.4292 -0.4892
 2995SOL     OW20617   0.031   2.256  16.500 -0.1687  0.2334 -0.0815
 2995SOL    HW120618   4.705   2.189  16.474 -0.0251  0.2083 -0.3674
 2995SOL    HW220619   0.112   2.230  16.456 -0.1978  0.3759 -0.2178
 2996SOL     OW20620   1.133   4.669   4.112 -0.2609  0.1454  0.5606
 2996SOL    HW120621   1.193   4.635   4.045 -0.0481 -3.3078  2.5251
 2996SOL    HW220622   1.159   4.617   4.188  1.3292  2.0137  1.2988
 2997SOL     OW20623   0.134   4.679   5.015 -0.2258  0.1933  0.0499
 2997SOL    HW120624   0.178   4.675   5.100 -3.8536 -0.9966  1.8365
 2997SOL    HW220625   0.120   4.585   5.011 -1.1457  0.3075  0.7671
 2998SOL     OW20626   2.933   4.449   8.308 -0.2869  0.1651 -0.1147
 2998SOL    HW120627   2.881   4.523   8.339 -0.3965 -0.1611  0.4822
 2998SOL    HW220628   3.018   4.474   8.345 -1.1841  0.7891  1.5194
 2999SOL     OW20629   2.962   1.134  17.608 -0.3271  0.4967  0.0530
 2999SOL    HW120630   2.916   1.152  17.526 -1.3275  0.1836  0.5555
 2999SOL    HW220631   2.897   1.085  17.658  0.2124 -2.8821 -2.5084
 3000SOL     OW20632   0.143   3.692   8.840 -0.3977  0.0125  0.1765
 3000SOL    HW120633   0.118   3.779   8.873 -0.6545  1.6011 -4.2227
 3000SOL    HW220634   0.088   3.678   8.764  3.0032  1.6036 -2.5871
 3001SOL     OW20635   1.249   4.554   4.338  0.0538  0.5714  0.4187
 3001SOL    HW120636   1.229   4.565   4.431  0.8643  0.8319  0.5706
 3001SOL    HW220637   1.345   4.564   4.336  0.0145  0.6209 -0.6965
 3002SOL     OW20638   3.510   2.139  14.989 -0.2962 -1.0430 -0.1842
 3002SOL    HW120639   3.572   2.171  15.054 -0.6623  0.0352 -0.3765
 3002SOL    HW220640   3.465   2.075  15.045  1.2110 -1.3382  0.6980
 3003SOL     OW20641   2.341   1.814   9.791 -0.1517  0.0226 -0.2897
 3003SOL    HW120642   2.355   1.737   9.847 -0.1956 -0.3978 -0.8581
 3003SOL    HW220643   2.425   1.861   9.792  0.1155 -0.4367 -0.7319
 3004SOL     OW20644   2.582   0.228   8.468 -0.1057  0.5393 -0.1484
 3004SOL    HW120645   2.490   0.252   8.469 -0.6013 -1.4030  0.0906
 3004SOL    HW220646   2.614   0.317   8.484 -0.7036  0.7812 -0.3077
 3005SOL     OW20647   2.388   2.689   2.713  0.3996  0.2502  0.2037
 3005SOL    HW120648   2.308   2.710   2.760  0.4694 -1.1091  0.9442
 3005SOL    HW220649   2.379   2.595   2.697 -2.1146  0.7949 -1.6203
 3006SOL     OW20650   1.139   1.528   5.840  0.2695  0.0340 -0.4698
 3006SOL    HW120651   1.202   1.552   5.772 -1.6561 -1.3749 -2.7482
 3006SOL    HW220652   1.128   1.436   5.817 -0.4222 -0.7388  2.9273
 3007SOL     OW20653   3.162   2.754   6.558 -0.0336 -0.9924 -0.2059
 3007SOL    HW120654   3.121   2.763   6.472 -1.4845  0.4159  0.6186
 3007SOL    HW220655   3.126   2.820   6.617 -0.3772 -1.3086 -0.0556
 3008SOL     OW20656   2.887   4.149  16.269  0.4252  1.0486  0.5798
 3008SOL    HW120657   2.964   4.182  16.223 -0.7072  0.6032 -1.6245
 3008SOL    HW220658   2.902   4.199  16.349  0.7659  0.7868  0.6796
 3009SOL     OW20659   0.027   1.388  12.915  0.8978  0.6466  0.0131
 3009SOL    HW120660   0.087   1.372  12.987 -0.3502 -2.1906  0.4523
 3009SOL    HW220661   0.019   1.483  12.911  0.8486  0.6510  0.1971
 3010SOL     OW20662   3.903   4.551   8.728 -0.3941 -0.2348 -0.1669
 3010SOL    HW120663   3.883   4.461   8.700  0.8556 -0.1001 -1.4831
 3010SOL    HW220664   3.838   4.558   8.798  0.4961  0.4247  0.5905
 3011SOL     OW20665   0.520   0.232  17.175 -0.1919  0.4308 -0.6504
 3011SOL    HW120666   0.460   0.193  17.112 -1.0371  0.2150  0.2955
 3011SOL    HW220667   0.546   0.311  17.127 -0.0188  0.1432 -1.0260
 3012SOL     OW20668   2.985   0.773   9.116 -0.5092  0.0150  0.7140
 3012SOL    HW120669   3.002   0.779   9.022  1.7080 -1.7072  1.0158
 3012SOL    HW220670   2.950   0.684   9.115 -0.6480  0.1333 -3.7767
 3013SOL     OW20671   1.035   1.785   5.890 -0.1533 -0.1741  0.1160
 3013SOL    HW120672   0.945   1.761   5.868 -0.5102  2.6250 -1.5855
 3013SOL    HW220673   1.077   1.704   5.916  0.2317  0.1837  0.6111
 3014SOL     OW20674   0.553   2.408   3.479 -0.4155  0.1610 -0.4084
 3014SOL    HW120675   0.467   2.384   3.444  0.0452 -1.7707 -0.2033
 3014SOL    HW220676   0.597   2.324   3.466 -0.6652  0.0612 -0.5985
 3015SOL     OW20677   2.994   1.924   6.827  0.2021 -0.3092 -0.0805
 3015SOL    HW120678   3.002   2.010   6.868 -0.2791  0.0152 -0.6563
 3015SOL    HW220679   3.080   1.886   6.845  0.6598  1.3858  1.3238
 3016SOL     OW20680   2.197   1.239  11.682 -0.1849 -0.3935  0.5289
 3016SOL    HW120681   2.268   1.174  11.684 -0.2303 -0.4212  1.0533
 3016SOL    HW220682   2.254   1.308  11.647  1.1994 -1.0195  1.5742
 3017SOL     OW20683   0.192   4.109   8.144  0.7565  0.1683  0.2832
 3017SOL    HW120684   0.128   4.037   8.151  0.4368  0.5542  1.3317
 3017SOL    HW220685   0.166   4.150   8.227 -0.8793  1.1070 -0.6916
 3018SOL     OW20686   3.590   4.284  12.524 -0.5951 -0.8680 -0.0354
 3018SOL    HW120687   3.536   4.268  12.600 -0.4542 -1.3403 -0.0323
 3018SOL    HW220688   3.646   4.206  12.523  2.5759  1.3749 -0.0750
 3019SOL     OW20689   3.797   2.683  11.560 -0.6575 -1.0457 -0.2268
 3019SOL    HW120690   3.807   2.758  11.619  0.3324  0.1726 -1.9453
 3019SOL    HW220691   3.855   2.626  11.610  1.8885 -0.4467 -2.4787
 3020SOL     OW20692   0.690   4.665  11.997  0.3248  0.4391  0.1740
 3020SOL    HW120693   0.758   4.661  11.930  0.1286  0.1340 -0.0066
 3020SOL    HW220694   0.626   4.602  11.963  0.4305 -0.6714  2.0388
 3021SOL     OW20695   1.036   1.485   0.119  0.0262  0.0056 -0.2189
 3021SOL    HW120696   1.016   1.545   0.047  1.5851  3.3902  2.2099
 3021SOL    HW220697   0.951   1.439   0.119 -1.3418  2.5249 -1.7838
 3022SOL     OW20698   0.845   3.511   3.888 -0.1190  0.2374 -0.7393
 3022SOL    HW120699   0.761   3.489   3.847 -0.9438 -0.9900  1.5934
 3022SOL    HW220700   0.827   3.581   3.951  1.4970  0.7133 -0.7964
 3023SOL     OW20701   1.557   1.799   2.712 -0.1247  0.1545 -0.8938
 3023SOL    HW120702   1.605   1.827   2.790  0.7061 -0.1086 -1.2993
 3023SOL    HW220703   1.488   1.743   2.747  0.3692 -0.2337 -0.5413
 3024SOL     OW20704   3.629   1.167   6.785 -0.5370 -0.1615  0.1390
 3024SOL    HW120705   3.621   1.075   6.760 -2.0047 -0.2799  1.0177
 3024SOL    HW220706   3.653   1.165   6.878 -1.0615  1.3113  0.3099
 3025SOL     OW20707   2.626   2.479   5.439  0.1414 -0.2908  0.2391
 3025SOL    HW120708   2.654   2.413   5.503 -0.4176 -0.8496 -0.0892
 3025SOL    HW220709   2.579   2.413   5.388  1.2654  0.1073 -1.2993
 3026SOL     OW20710   4.164   3.510   4.338  0.1772  0.4608  0.3144
 3026SOL    HW120711   4.157   3.497   4.244  0.1975  3.1351 -0.0734
 3026SOL    HW220712   4.073   3.531   4.359  0.3492  2.7535 -1.2241
 3027SOL     OW20713   0.118   4.519   0.932 -0.2171  0.4363 -0.1316
 3027SOL    HW120714   0.190   4.515   0.868 -0.2011  0.1706 -0.0967
 3027SOL    HW220715   0.106   4.425   0.943 -1.0931  0.3868 -1.5414
 3028SOL     OW20716   3.798   3.550   0.934  0.4349 -0.8473 -0.1019
 3028SOL    HW120717   3.808   3.628   0.879 -0.7086  0.1898  1.1956
 3028SOL    HW220718   3.704   3.531   0.934  0.3822 -0.5836  1.5551
 3029SOL     OW20719   2.773   3.793   9.071 -0.2263  0.1609 -0.0644
 3029SOL    HW120720   2.737   3.777   8.985  1.5693  2.2527 -1.2205
 3029SOL    HW220721   2.854   3.744   9.061 -0.2012 -0.0794  1.2834
 3030SOL     OW20722   2.971   3.485  11.634  0.1200 -0.2974  0.0771
 3030SOL    HW120723   2.909   3.436  11.687 -1.0435  0.0659 -0.9497
 3030SOL    HW220724   3.044   3.462  11.692  0.2863 -0.8510 -0.3524
 3031SOL     OW20725   0.231   3.464   3.789 -0.5925 -0.3215  0.0269
 3031SOL    HW120726   0.163   3.398   3.799 -0.0099 -0.7986  0.8348
 3031SOL    HW220727   0.294   3.417   3.843  0.2324  1.0632  0.2935
 3032SOL     OW20728   0.519   1.637  16.293 -0.6720 -0.4601 -0.0557
 3032SOL    HW120729   0.433   1.613  16.328 -0.9034  1.0196  0.3922
 3032SOL    HW220730   0.528   1.729  16.316 -1.2790 -0.3230 -0.3820
 3033SOL     OW20731   4.159   4.233   6.080  0.2037 -0.1513  0.1867
 3033SOL    HW120732   4.136   4.286   6.156  1.7627 -0.6985  1.0458
 3033SOL    HW220733   4.197   4.301   6.024  0.0914  0.1340  0.4551
 3034SOL     OW20734   0.961   0.483   5.216  0.1451  0.1118 -0.2499
 3034SOL    HW120735   0.904   0.517   5.147 -1.7529 -0.3195  1.1106
 3034SOL    HW220736   0.951   0.390   5.201 -2.2606  0.3864 -0.2749
 3035SOL     OW20737   1.352   1.233   6.468  0.2088  0.0671  0.0683
 3035SOL    HW120738   1.298   1.247   6.546  0.1435  1.6597 -0.2469
 3035SOL    HW220739   1.432   1.270   6.506  1.2522 -1.2664 -0.8428
 3036SOL     OW20740   0.749   1.571  12.058  0.1942 -0.2292  0.0127
 3036SOL    HW120741   0.768   1.588  12.150 -0.2760 -0.8072  0.2153
 3036SOL    HW220742   0.825   1.614  12.018  1.5585 -2.2368  0.4724
 3037SOL     OW20743   3.680   1.582  10.853  0.0901  0.1732  0.1267
 3037SOL    HW120744   3.652   1.669  10.883  0.3053  0.4768 -0.5545
 3037SOL    HW220745   3.649   1.579  10.762  1.2493 -0.2332 -0.2559
 3038SOL     OW20746   1.763   3.465   2.505  0.3313 -0.0035  0.0520
 3038SOL    HW120747   1.842   3.456   2.559  1.9410 -2.6026 -2.7240
 3038SOL    HW220748   1.797   3.463   2.415 -2.0640  0.0006 -0.8465
 3039SOL     OW20749   4.184   2.057   7.758  0.3319 -0.2827  0.4829
 3039SOL    HW120750   4.151   2.147   7.749 -0.1546 -0.6224 -1.0907
 3039SOL    HW220751   4.259   2.064   7.699  0.0672  1.0686  0.2888
 3040SOL     OW20752   3.958   1.861   5.791  0.4792  0.3214  0.2828
 3040SOL    HW120753   3.997   1.786   5.746  2.7956  1.6432  0.1184
 3040SOL    HW220754   3.921   1.823   5.871 -0.3220  1.0860  0.2844
 3041SOL     OW20755   1.527   1.200   5.592 -0.0159 -0.1227  0.2288
 3041SOL    HW120756   1.445   1.156   5.614 -1.0642  0.7277 -1.9434
 3041SOL    HW220757   1.549   1.250   5.671 -1.5805 -1.4472  1.4981
 3042SOL     OW20758   0.482   1.744  13.400  0.0692 -0.0309  0.7377
 3042SOL    HW120759   0.487   1.757  13.495  1.1169  0.5130  0.6136
 3042SOL    HW220760   0.556   1.685  13.381 -0.1537 -0.4379  1.1397
 3043SOL     OW20761   4.084   3.958   8.995  0.0342  0.5409 -0.3733
 3043SOL    HW120762   4.096   3.912   9.078  0.1078  0.8940 -0.1842
 3043SOL    HW220763   4.028   3.891   8.956  0.0884  1.5277 -2.1625
 3044SOL     OW20764   3.353   4.313   6.819 -0.3704  0.6291 -0.0893
 3044SOL    HW120765   3.292   4.319   6.893  1.1840 -0.0451  1.2350
 3044SOL    HW220766   3.386   4.402   6.805 -1.0928  0.9492  0.2731
 3045SOL     OW20767   1.069   1.843   4.608 -0.4400  0.7099 -0.2850
 3045SOL    HW120768   1.006   1.780   4.573 -0.0580 -0.8122  1.7687
 3045SOL    HW220769   1.121   1.861   4.530  1.9616  0.0918  1.1681
 3046SOL     OW20770   2.968   2.439   2.577 -0.4063 -0.0373 -0.3906
 3046SOL    HW120771   3.024   2.490   2.636  0.9815  0.7750 -2.4020
 3046SOL    HW220772   2.888   2.483   2.607 -0.6157 -1.4574  1.1657
 3047SOL     OW20773   3.570   4.267  13.229  0.1285 -0.5748  0.8329
 3047SOL    HW120774   3.559   4.179  13.193 -2.6672 -1.2056  3.2373
 3047SOL    HW220775   3.589   4.255  13.322 -0.8375 -1.6582  0.8851
 3048SOL     OW20776   3.807   2.127   9.808 -0.2695 -0.6385 -0.0875
 3048SOL    HW120777   3.837   2.172   9.729 -0.0001  1.0078  0.9452
 3048SOL    HW220778   3.732   2.183   9.831  0.2735  1.5257 -3.6507
 3049SOL     OW20779   2.502   1.096  13.618 -0.4246 -0.4458 -0.1748
 3049SOL    HW120780   2.526   1.127  13.530 -1.0400  0.9013  0.1227
 3049SOL    HW220781   2.583   1.119  13.662  0.5288  0.2007 -2.2433
 3050SOL     OW20782   3.717   1.405   9.422 -0.3487 -0.3903 -0.7564
 3050SOL    HW120783   3.785   1.385   9.486 -1.4434  0.1894  0.6167
 3050SOL    HW220784   3.636   1.414   9.473 -0.7604 -1.6610 -1.1809
 3051SOL     OW20785   4.313   2.667   7.923 -0.1604 -0.0559  0.3009
 3051SOL    HW120786   4.278   2.635   7.840  1.7453  1.8627 -1.2496
 3051SOL    HW220787   4.236   2.718   7.947 -2.0472 -2.5121 -0.4508
 3052SOL     OW20788   2.132   4.585  13.001 -0.4028  0.2066 -0.3784
 3052SOL    HW120789   2.037   4.575  12.994 -0.5089  0.9656  0.0210
 3052SOL    HW220790   2.166   4.502  13.034  0.4328 -0.4394 -2.8929
 3053SOL     OW20791   1.360   1.765   3.774  0.3594 -0.0965  0.1962
 3053SOL    HW120792   1.323   1.801   3.854 -0.8763  2.1853 -1.4170
 3053SOL    HW220793   1.352   1.839   3.715 -2.1485 -0.6571 -0.1674
 3054SOL     OW20794   3.030   4.491   8.996 -0.5438  0.3296 -0.0432
 3054SOL    HW120795   3.121   4.466   8.978 -0.9624 -0.5200 -0.9270
 3054SOL    HW220796   3.031   4.488   9.092  1.9086 -0.5767 -0.0841
 3055SOL     OW20797   3.256   1.165   4.063  0.1150  0.1420 -0.2618
 3055SOL    HW120798   3.289   1.120   4.141 -0.0454  0.5539  0.0512
 3055SOL    HW220799   3.260   1.102   3.992 -1.9384  0.5553 -0.7287
 3056SOL     OW20800   0.291   2.786   5.601 -0.3935  0.8338  0.4973
 3056SOL    HW120801   0.374   2.738   5.593 -0.0969  1.1510  1.6691
 3056SOL    HW220802   0.227   2.733   5.554 -0.9924  0.9312  1.2101
 3057SOL     OW20803   0.012   3.745  15.715  0.5067  0.2996 -0.6898
 3057SOL    HW120804   4.708   3.762  15.799 -0.5074 -0.9730 -0.9337
 3057SOL    HW220805   0.096   3.701  15.730  0.4810  0.2537 -0.6822
 3058SOL     OW20806   2.710   0.195   7.135 -0.0224 -0.4686 -0.3904
 3058SOL    HW120807   2.654   0.167   7.208 -1.0024  1.0159 -0.5571
 3058SOL    HW220808   2.649   0.250   7.086 -0.0780  1.3914  1.7689
 3059SOL     OW20809   3.061   2.411   8.681  0.0358 -0.6467  0.5571
 3059SOL    HW120810   3.075   2.503   8.662 -0.3434 -0.8762 -0.8142
 3059SOL    HW220811   3.138   2.367   8.646 -0.3304 -0.8261 -0.0338
 3060SOL     OW20812   2.923   2.474   7.432 -0.4487 -0.3003  0.0530
 3060SOL    HW120813   2.911   2.440   7.521 -1.4013  2.4976  1.0086
 3060SOL    HW220814   2.834   2.500   7.409 -0.2999 -0.8542 -1.1131
 3061SOL     OW20815   3.921   0.883   2.566 -0.3678  0.0387  0.5632
 3061SOL    HW120816   3.987   0.815   2.550 -2.3161 -2.4219  3.0002
 3061SOL    HW220817   3.934   0.931   2.484  0.6892 -0.1751  0.5997
 3062SOL     OW20818   3.123   1.810  15.354  0.1194  0.1557 -0.0534
 3062SOL    HW120819   3.074   1.736  15.389  1.2538  0.3904  2.0032
 3062SOL    HW220820   3.212   1.783  15.376  1.0373  1.9501 -1.5315
 3063SOL     OW20821   4.368   3.195   1.516 -0.1665  0.0223 -0.1039
 3063SOL    HW120822   4.275   3.172   1.524  0.4684 -2.6202 -0.3062
 3063SOL    HW220823   4.379   3.174   1.423 -0.2106 -2.4221  0.4368
 3064SOL     OW20824   3.551   0.301   0.941  0.1049 -0.4376 -0.0657
 3064SOL    HW120825   3.550   0.230   1.005  1.7530  1.7274  2.3612
 3064SOL    HW220826   3.505   0.380   0.970  2.3932  1.0377 -0.4723
 3065SOL     OW20827   0.967   0.722   3.990  0.1179  0.0928  0.7108
 3065SOL    HW120828   0.979   0.725   3.895 -3.9298 -3.1494  0.0781
 3065SOL    HW220829   0.906   0.794   4.009 -1.4502 -1.0358 -0.0617
 3066SOL     OW20830   4.120   4.403  13.929 -0.4274 -0.3191 -0.0406
 3066SOL    HW120831   4.173   4.432  14.003 -1.1216 -0.7366  0.6091
 3066SOL    HW220832   4.030   4.400  13.960 -0.8588  2.8941 -1.0149
 3067SOL     OW20833   1.194   1.127   0.715  0.0429 -0.0611 -0.0482
 3067SOL    HW120834   1.233   1.154   0.799  0.5126  1.8783 -0.8781
 3067SOL    HW220835   1.232   1.042   0.692 -0.0152  0.4067 -1.8887
 3068SOL     OW20836   2.746   4.432   4.392 -0.7969 -0.0664 -0.6906
 3068SOL    HW120837   2.753   4.347   4.435 -0.0926  0.6520  0.6086
 3068SOL    HW220838   2.654   4.444   4.418 -0.9518 -2.6382  0.0063
 3069SOL     OW20839   0.432   4.249   5.288 -0.1957  0.1844 -0.4271
 3069SOL    HW120840   0.406   4.331   5.329  2.9798  0.1376  1.6990
 3069SOL    HW220841   0.527   4.264   5.282 -0.3324  0.5169 -1.7723
 3070SOL     OW20842   0.247   3.375  15.612  0.0357  0.0326 -0.0996
 3070SOL    HW120843   0.207   3.443  15.665  1.6724  1.3042 -0.4963
 3070SOL    HW220844   0.237   3.411  15.524  0.1212 -4.1661 -1.8528
 3071SOL     OW20845   0.162   0.148  10.023  0.4579  0.7352 -0.2240
 3071SOL    HW120846   0.178   0.189   9.938  0.4466 -2.2840 -1.6684
 3071SOL    HW220847   0.068   0.164  10.031  0.4068  0.3612 -0.0998
 3072SOL     OW20848   2.903   2.695   5.786  0.4809 -0.1804  0.0455
 3072SOL    HW120849   2.985   2.689   5.835  1.0162  1.3593 -0.6465
 3072SOL    HW220850   2.849   2.713   5.863  0.7772  3.5908 -0.6092
 3073SOL     OW20851   3.632   4.243   4.936 -0.2697 -0.8305 -0.0881
 3073SOL    HW120852   3.584   4.316   4.898  0.4163 -0.6587 -0.6243
 3073SOL    HW220853   3.713   4.294   4.940  1.1900 -3.4099  3.1808
 3074SOL     OW20854   3.200   2.218   3.639  0.0838 -0.0949  0.2821
 3074SOL    HW120855   3.122   2.272   3.651 -0.6869 -1.2675  0.5628
 3074SOL    HW220856   3.261   2.262   3.698 -0.3887 -0.7566  1.2716
 3075SOL     OW20857   0.559   1.579   0.358  0.9615  0.2387 -0.8568
 3075SOL    HW120858   0.536   1.671   0.349 -0.2559 -0.1453 -1.7110
 3075SOL    HW220859   0.533   1.536   0.276 -0.6390 -0.4727  0.0288
 3076SOL     OW20860   3.990   1.158   3.090  0.3446 -0.7391 -0.0397
 3076SOL    HW120861   4.073   1.183   3.131  0.1826  1.7873 -1.2782
 3076SOL    HW220862   4.008   1.187   3.001 -1.1116 -0.2056 -0.1566
 3077SOL     OW20863   4.084   2.473   5.398  0.2580 -0.6027 -0.2708
 3077SOL    HW120864   4.104   2.390   5.355  0.0847  0.8634 -3.1658
 3077SOL    HW220865   4.005   2.446   5.445  1.8958 -2.5266  1.3699
 3078SOL     OW20866   4.392   4.014  13.397 -0.1411  0.2026 -0.1923
 3078SOL    HW120867   4.426   4.031  13.309 -0.7266  0.1249 -0.4321
 3078SOL    HW220868   4.439   4.081  13.447 -1.1484 -0.2816  1.3880
 3079SOL     OW20869   1.282   4.324  17.620 -0.0477 -0.1088  0.0802
 3079SOL    HW120870   1.192   4.301  17.642  0.5632 -0.2357  2.3893
 3079SOL    HW220871   1.328   4.245  17.648  1.5355  0.7821  0.0490
 3080SOL     OW20872   2.952   0.603   5.501  0.4777 -0.2004  0.4244
 3080SOL    HW120873   2.890   0.674   5.513 -0.6135 -1.3390  1.6375
 3080SOL    HW220874   2.970   0.613   5.408  0.1294 -1.7708  0.1854
 3081SOL     OW20875   1.106   0.106   4.613 -0.2412 -0.1660  0.0503
 3081SOL    HW120876   1.059   0.190   4.612 -1.8423 -1.0846 -2.8735
 3081SOL    HW220877   1.154   0.109   4.530 -0.7653 -1.9705 -0.3191
 3082SOL     OW20878   3.445   0.635   7.005  0.2586  0.4671 -0.3667
 3082SOL    HW120879   3.378   0.592   6.951  0.8876 -0.0107 -0.7718
 3082SOL    HW220880   3.518   0.574   6.995  0.6655  1.0880 -1.1685
 3083SOL     OW20881   1.955   2.332   6.042  0.5395  0.6049 -0.7956
 3083SOL    HW120882   1.876   2.352   6.092 -0.5011 -1.3967 -1.6425
 3083SOL    HW220883   1.982   2.246   6.077 -0.6274  0.8575  0.7427
 3084SOL     OW20884   3.659   1.174   8.983  0.5332  0.1247 -0.0891
 3084SOL    HW120885   3.707   1.107   8.934  0.0409  0.3583 -0.8940
 3084SOL    HW220886   3.658   1.148   9.075  0.7759 -0.1604 -0.1671
 3085SOL     OW20887   4.285   2.158   4.592 -0.3645  0.0802 -0.4579
 3085SOL    HW120888   4.196   2.152   4.558 -1.3456 -3.2783  2.6469
 3085SOL    HW220889   4.320   2.221   4.529 -1.2530  2.0422  0.9778
 3086SOL     OW20890   3.895   3.649   3.614 -0.5333 -0.7262  0.5409
 3086SOL    HW120891   3.871   3.590   3.686 -1.4601  0.9329  1.6070
 3086SOL    HW220892   3.989   3.656   3.626 -0.6807 -0.5940  1.7334
 3087SOL     OW20893   2.246   3.922  15.891  0.6387 -0.1915  0.7156
 3087SOL    HW120894   2.280   3.896  15.976 -0.0916 -0.7157  0.8415
 3087SOL    HW220895   2.152   3.923  15.906  0.3344 -0.7618 -1.1157
 3088SOL     OW20896   4.323   4.567   8.991  0.4344  0.1954 -0.1008
 3088SOL    HW120897   4.388   4.633   8.966 -1.8143  2.1086 -0.9136
 3088SOL    HW220898   4.243   4.615   8.969  0.7919 -0.1402 -2.2027
 3089SOL     OW20899   3.430   2.850   5.700  0.6663  0.3480  0.3465
 3089SOL    HW120900   3.477   2.875   5.621  0.1792 -1.9633 -0.6634
 3089SOL    HW220901   3.339   2.846   5.670  0.5290 -0.3461  0.8515
 3090SOL     OW20902   3.873   0.158  14.077 -0.0629  0.2134  0.5588
 3090SOL    HW120903   3.926   0.087  14.113  0.7962  0.2618 -0.6142
 3090SOL    HW220904   3.897   0.168  13.985  2.0307  2.2466  1.3426
 3091SOL     OW20905   1.448   2.001  11.637 -0.2664  0.7265  0.1564
 3091SOL    HW120906   1.428   2.050  11.558 -2.6514 -0.7702 -0.1428
 3091SOL    HW220907   1.466   1.918  11.593  0.4862  0.7627  0.3891
 3092SOL     OW20908   4.126   0.561  11.604  0.3265 -0.0612 -0.0097
 3092SOL    HW120909   4.210   0.581  11.644 -0.4222 -0.3102  1.6654
 3092SOL    HW220910   4.145   0.542  11.512  1.1667 -1.1179  0.3816
 3093SOL     OW20911   3.382   3.372   2.673 -0.1594  0.2100  0.3143
 3093SOL    HW120912   3.407   3.331   2.590 -0.1014 -2.8097  1.8472
 3093SOL    HW220913   3.289   3.353   2.682 -0.6888  2.1467 -0.9602
 3094SOL     OW20914   2.812   1.084  12.454 -0.4181 -0.1035  0.2969
 3094SOL    HW120915   2.844   1.060  12.367 -0.1291  0.8869  0.1361
 3094SOL    HW220916   2.765   1.006  12.485 -0.6871 -0.0278  0.0809
 3095SOL     OW20917   1.997   4.322   6.406 -0.0248  0.1843 -0.3589
 3095SOL    HW120918   2.078   4.297   6.363 -1.2469  2.0981 -3.8417
 3095SOL    HW220919   1.990   4.415   6.385 -2.1306  0.1539  0.1397
 3096SOL     OW20920   3.195   1.322   6.088  0.1780 -0.4016 -0.1871
 3096SOL    HW120921   3.208   1.228   6.099  1.2716 -0.2951 -0.5963
 3096SOL    HW220922   3.239   1.346   6.169  0.0776 -2.7894  0.5851
 3097SOL     OW20923   3.421   1.166   5.122  0.5827  0.0610  0.3280
 3097SOL    HW120924   3.332   1.134   5.104 -0.9714  4.1227  0.7504
 3097SOL    HW220925   3.431   1.144   5.214  3.7878 -0.0125 -0.0339
 3098SOL     OW20926   0.286   0.221  12.579  0.1897  0.3380 -0.5611
 3098SOL    HW120927   0.366   0.266  12.605  1.7172 -2.2879 -0.7350
 3098SOL    HW220928   0.261   0.252  12.492  0.1363 -1.8753 -1.3282
 3099SOL     OW20929   2.084   3.353  16.848 -0.3215 -0.5519  0.2881
 3099SOL    HW120930   2.021   3.323  16.783 -1.4152 -0.8383  1.4687
 3099SOL    HW220931   2.041   3.433  16.880  1.2560  0.4952 -0.1993
 3100SOL     OW20932   2.241   3.658   9.585  0.2056 -0.4759  0.2354
 3100SOL    HW120933   2.271   3.743   9.554 -1.3387 -0.8125 -2.1661
 3100SOL    HW220934   2.246   3.659   9.681  1.6104 -0.1719  0.1553
 3101SOL     OW20935   3.684   3.344   7.436 -0.0886  0.2896  0.1613
 3101SOL    HW120936   3.684   3.259   7.393 -1.4058  0.4836 -0.2211
 3101SOL    HW220937   3.749   3.390   7.383 -1.1406  0.4913 -0.9672
 3102SOL     OW20938   1.094   3.768  12.126  0.5221 -0.1075 -0.1685
 3102SOL    HW120939   1.189   3.775  12.140  0.5981 -0.0887 -0.7021
 3102SOL    HW220940   1.103   3.747  12.033  1.5049  0.9612 -0.3219
 3103SOL     OW20941   3.997   0.756   3.743 -0.5743 -0.0126 -0.5203
 3103SOL    HW120942   4.072   0.721   3.695 -0.8650  2.2735 -2.6668
 3103SOL    HW220943   3.925   0.700   3.717 -0.5734 -0.7377  1.0781
 3104SOL     OW20944   2.539   0.319   9.922  0.1385  0.1644  0.3525
 3104SOL    HW120945   2.605   0.326   9.853 -0.3120 -0.6300 -0.1553
 3104SOL    HW220946   2.475   0.376   9.878 -2.6680 -1.6620  2.0450
 3105SOL     OW20947   1.573   1.410   8.384  0.1294  0.1791  0.1914
 3105SOL    HW120948   1.641   1.446   8.327 -1.0722  0.9766 -0.7223
 3105SOL    HW220949   1.509   1.387   8.317 -0.6777 -0.3777  1.1522
 3106SOL     OW20950   1.569   1.166   4.248 -0.2006  0.3592 -0.0331
 3106SOL    HW120951   1.596   1.084   4.290 -2.0177  0.0865  0.5832
 3106SOL    HW220952   1.563   1.149   4.154 -1.1177 -1.1411  0.2919
 3107SOL     OW20953   4.095   3.431  12.706  0.5921  0.2238  0.4129
 3107SOL    HW120954   4.098   3.424  12.610 -0.4791 -0.4172  0.4222
 3107SOL    HW220955   4.173   3.486  12.719  1.1009 -0.1983 -0.7992
 3108SOL     OW20956   3.799   2.716   4.519 -0.3564 -0.5093 -0.1828
 3108SOL    HW120957   3.854   2.640   4.536 -0.7076 -0.6795  0.1840
 3108SOL    HW220958   3.777   2.734   4.611  1.4464  0.9454 -0.0355
 3109SOL     OW20959   0.372   4.321   3.363 -0.0510 -0.3316 -0.0002
 3109SOL    HW120960   0.380   4.364   3.448  0.5112  1.0108 -0.7357
 3109SOL    HW220961   0.422   4.381   3.308 -2.0264  0.5212 -0.8597
 3110SOL     OW20962   3.330   1.983   5.368 -0.0302 -0.0946 -0.5763
 3110SOL    HW120963   3.359   1.972   5.459  0.3143 -0.7296 -0.7644
 3110SOL    HW220964   3.361   1.900   5.332 -0.0194 -0.3478  0.0099
 3111SOL     OW20965   4.031   4.423   5.511 -0.0886 -0.2539 -0.0195
 3111SOL    HW120966   3.958   4.391   5.565  0.0581 -1.3563 -0.4873
 3111SOL    HW220967   4.067   4.477   5.582 -0.7265 -0.4317  0.4383
 3112SOL     OW20968   4.342   3.417   7.067 -0.2812 -0.3675 -0.1683
 3112SOL    HW120969   4.361   3.496   7.017  0.7777 -0.2825  0.3580
 3112SOL    HW220970   4.294   3.355   7.012  1.9044 -1.1398 -1.1643
 3113SOL     OW20971   3.185   0.493   7.629 -0.2973  0.0491 -0.0373
 3113SOL    HW120972   3.277   0.514   7.647 -0.8462  0.8752  1.8102
 3113SOL    HW220973   3.148   0.509   7.716 -0.4592  1.5662 -0.3812
 3114SOL     OW20974   1.627   0.122  10.037  0.4748  0.3220  0.3759
 3114SOL    HW120975   1.571   0.195  10.011 -2.4699 -1.5046  1.5296
 3114SOL    HW220976   1.566   0.051  10.059 -1.6671  1.2497 -2.5254
 3115SOL     OW20977   0.097   0.970   9.939 -0.3768 -0.3069 -0.3327
 3115SOL    HW120978   0.120   0.894   9.885  2.7925 -1.7680  3.0685
 3115SOL    HW220979   0.002   0.969   9.938 -0.3331 -3.0933  0.9736
 3116SOL     OW20980   1.128   2.374  11.285  0.2376  0.1015  0.5084
 3116SOL    HW120981   1.132   2.297  11.228 -2.4694  0.0492  0.3968
 3116SOL    HW220982   1.212   2.366  11.331  0.7402 -3.5990 -1.0306
 3117SOL     OW20983   2.473   1.037   4.472 -0.8940  0.0790  0.3347
 3117SOL    HW120984   2.453   1.048   4.379 -1.0351 -2.1951  0.1027
 3117SOL    HW220985   2.387   1.025   4.512 -1.7073  0.7878 -1.1786
 3118SOL     OW20986   0.196   1.683   6.812  0.1905  0.0776  0.1617
 3118SOL    HW120987   0.210   1.754   6.874  2.4283  0.3033 -0.5901
 3118SOL    HW220988   0.142   1.722   6.743  1.5648  1.7653  0.0313
 3119SOL     OW20989   0.259   0.621   5.752 -0.3599  0.6723 -0.7591
 3119SOL    HW120990   0.283   0.575   5.672 -0.2035 -0.4327 -0.0663
 3119SOL    HW220991   0.248   0.554   5.819  0.1742  0.6239 -0.7224
 3120SOL     OW20992   1.278   1.186   0.968 -0.2325 -1.3034  0.1212
 3120SOL    HW120993   1.360   1.137   0.965  0.2278 -0.3941 -1.9003
 3120SOL    HW220994   1.311   1.259   1.021 -0.7220  0.8216 -2.5154
 3121SOL     OW20995   1.946   2.480   5.386  0.2925 -0.4177 -0.3071
 3121SOL    HW120996   2.012   2.543   5.357 -1.5853  0.5553 -2.5401
 3121SOL    HW220997   1.990   2.438   5.460 -1.9218 -2.1971  0.0173
 3122SOL     OW20998   3.839   3.963  12.910  0.2676 -0.1962 -0.2812
 3122SOL    HW120999   3.918   3.945  12.858 -0.8697 -2.2087 -1.3232
 3122SOL    HW221000   3.822   4.045  12.865 -0.6021  0.1605  0.6953
 3123SOL     OW21001   2.940   4.111  11.343  0.2066  0.2148 -0.0285
 3123SOL    HW121002   2.990   4.108  11.425  1.9684 -0.5747 -1.1094
 3123SOL    HW221003   2.987   4.183  11.301  1.4611 -0.6445 -0.0906
 3124SOL     OW21004   4.699   2.439   8.765 -0.4579 -0.1928 -0.1750
 3124SOL    HW121005   0.004   2.518   8.798  2.3425 -1.3264 -1.0576
 3124SOL    HW221006   0.005   2.371   8.816 -0.1011 -2.1650 -3.0829
 3125SOL     OW21007   1.343   0.065   2.450  0.3130  0.5985 -0.0671
 3125SOL    HW121008   1.258   0.049   2.410  1.1783 -0.9172 -1.3033
 3125SOL    HW221009   1.325   0.032   2.538 -1.3613 -0.1310 -0.6789
 3126SOL     OW21010   1.496   1.409   4.735 -0.1889 -0.5927 -0.1243
 3126SOL    HW121011   1.412   1.439   4.701 -0.1640  1.8509  1.9707
 3126SOL    HW221012   1.469   1.393   4.826 -0.9393 -1.3456 -0.4787
 3127SOL     OW21013   2.094   2.151  14.695 -0.0399  0.1231  0.3570
 3127SOL    HW121014   2.071   2.244  14.703 -1.1420 -0.0641 -0.5914
 3127SOL    HW221015   2.129   2.138  14.783 -0.3008 -1.9042  0.1540
 3128SOL     OW21016   3.410   3.974   2.545  0.0829  0.0779  0.7863
 3128SOL    HW121017   3.475   4.014   2.602  0.4026 -1.1321  1.2734
 3128SOL    HW221018   3.344   4.042   2.545  0.5136  0.4920 -0.3118
 3129SOL     OW21019   1.772   2.274   0.235  0.0643  0.2771 -0.2261
 3129SOL    HW121020   1.696   2.230   0.272  0.5106 -1.4352 -1.3378
 3129SOL    HW221021   1.821   2.322   0.302  0.4481 -1.0666  0.4640
 3130SOL     OW21022   3.151   2.099   7.831 -0.0194 -0.7009 -0.1593
 3130SOL    HW121023   3.160   2.009   7.863 -0.5200 -0.0347  1.8466
 3130SOL    HW221024   3.178   2.136   7.916 -0.3525 -0.4301 -0.1735
 3131SOL     OW21025   4.447   2.629  16.121  0.6399  0.0965  0.3239
 3131SOL    HW121026   4.497   2.699  16.162 -1.1093  2.0028 -0.7641
 3131SOL    HW221027   4.388   2.687  16.072  0.3968  3.2622  4.4233
 3132SOL     OW21028   4.478   2.118  15.117 -0.1695 -0.2659  0.1131
 3132SOL    HW121029   4.493   2.094  15.026 -3.6296 -1.1435 -0.2366
 3132SOL    HW221030   4.492   2.211  15.104 -0.0868 -0.4070 -0.8052
 3133SOL     OW21031   3.200   4.302   2.906  0.5114 -0.2387  0.6766
 3133SOL    HW121032   3.283   4.273   2.869  2.0639  2.7349  1.7955
 3133SOL    HW221033   3.226   4.391   2.930  0.3885  0.4167 -1.6770
 3134SOL     OW21034   1.746   4.423  15.295 -0.5015  0.1593 -0.3401
 3134SOL    HW121035   1.683   4.490  15.268 -2.1391 -1.5424 -0.7569
 3134SOL    HW221036   1.824   4.479  15.302  0.5854 -1.1378 -1.9237
 3135SOL     OW21037   3.735   0.438  11.408 -0.4725 -0.4263  0.1305
 3135SOL    HW121038   3.815   0.386  11.401  1.0852  1.8080  1.3659
 3135SOL    HW221039   3.770   0.527  11.416  0.0168 -0.6662  0.6719
 3136SOL     OW21040   3.551   2.987   6.298 -1.1299 -0.6705 -0.1053
 3136SOL    HW121041   3.621   2.978   6.363 -2.9659  2.4403  2.3109
 3136SOL    HW221042   3.584   2.949   6.216  0.8532 -0.1597  0.4751
 3137SOL     OW21043   3.708   3.696  16.680 -0.2163 -0.5898  0.0187
 3137SOL    HW121044   3.763   3.719  16.605 -2.8558 -1.6711 -2.2058
 3137SOL    HW221045   3.667   3.779  16.703 -1.1017 -0.8668 -0.5573
 3138SOL     OW21046   0.828   2.698   1.689  0.1438  0.2511 -0.0090
 3138SOL    HW121047   0.838   2.765   1.621 -3.1206  0.6886 -0.0814
 3138SOL    HW221048   0.770   2.629   1.657  0.9410 -1.1540  1.5799
 3139SOL     OW21049   2.684   2.824   4.851  0.5392  0.5121  0.0736
 3139SOL    HW121050   2.700   2.854   4.940  0.9767  0.3720  0.0440
 3139SOL    HW221051   2.753   2.758   4.840 -1.2320 -1.5665  1.6686
 3140SOL     OW21052   4.473   1.128   7.202 -0.2834  0.1353 -0.0502
 3140SOL    HW121053   4.525   1.193   7.250  1.0389 -0.3552 -0.8284
 3140SOL    HW221054   4.530   1.052   7.191  0.5408  0.9003 -1.0460
 3141SOL     OW21055   2.894   4.343  12.471  0.3202 -0.8422  0.4130
 3141SOL    HW121056   2.819   4.302  12.429 -0.0013  1.0086 -0.7892
 3141SOL    HW221057   2.953   4.293  12.414  0.1925  0.7482 -1.1058
 3142SOL     OW21058   2.826   1.688   7.768 -0.3992  0.1169  0.0888
 3142SOL    HW121059   2.809   1.743   7.692 -0.2204  0.4196  0.2641
 3142SOL    HW221060   2.902   1.634   7.748 -1.7013 -0.7104 -2.5567
 3143SOL     OW21061   1.548   1.530   7.779  0.3247  0.2823 -0.6700
 3143SOL    HW121062   1.550   1.534   7.875  1.8715 -1.6217 -0.6148
 3143SOL    HW221063   1.471   1.473   7.774  0.9904 -0.7667  0.8252
 3144SOL     OW21064   3.487   1.901  12.252 -0.9048  0.1722  0.6805
 3144SOL    HW121065   3.421   1.889  12.321 -1.2614 -1.2559  0.1059
 3144SOL    HW221066   3.544   1.826  12.272  0.0618  1.3649  2.3459
 3145SOL     OW21067   0.249   3.154  10.626 -0.3315  0.0339  0.6474
 3145SOL    HW121068   0.302   3.231  10.605 -3.4701  1.3709 -2.3841
 3145SOL    HW221069   0.311   3.126  10.694 -0.7905  1.4678  1.6566
 3146SOL     OW21070   2.132   0.713   2.979  0.2386  0.4566  0.1673
 3146SOL    HW121071   2.038   0.691   2.979  0.8426 -2.0971 -0.4305
 3146SOL    HW221072   2.150   0.746   3.067  0.7302  0.5545  0.0288
 3147SOL     OW21073   1.098   0.899   4.907 -0.2792  0.1591 -0.3587
 3147SOL    HW121074   1.035   0.837   4.942 -1.8483  0.8508 -1.9753
 3147SOL    HW221075   1.095   0.878   4.814 -1.8080 -2.9112  0.4066
 3148SOL     OW21076   0.206   0.283   8.729 -0.7577 -0.5806 -0.9462
 3148SOL    HW121077   0.167   0.231   8.658 -2.8965  1.9156 -1.5776
 3148SOL    HW221078   0.296   0.254   8.713 -0.3562 -0.0667  0.3580
 3149SOL     OW21079   2.414   1.293   4.647  0.1986 -0.1735 -0.4524
 3149SOL    HW121080   2.389   1.210   4.605  1.1420 -0.6547 -0.0598
 3149SOL    HW221081   2.337   1.303   4.704 -0.4073  0.1669 -1.3220
 3150SOL     OW21082   1.190   2.541   3.739 -0.7098 -0.3774  0.4234
 3150SOL    HW121083   1.156   2.609   3.797  1.2106  1.1242 -0.1610
 3150SOL    HW221084   1.115   2.482   3.735  1.1531 -2.6435 -1.3795
 3151SOL     OW21085   3.622   4.385   8.594 -0.0142  0.5481  0.2285
 3151SOL    HW121086   3.582   4.317   8.540 -0.2290  0.2059  0.8117
 3151SOL    HW221087   3.695   4.332   8.625  0.0398  0.6086  0.2037
 3152SOL     OW21088   0.484   1.502   2.151  0.4230 -0.2501 -0.0459
 3152SOL    HW121089   0.510   1.411   2.158  0.4176 -0.0460  3.0121
 3152SOL    HW221090   0.400   1.488   2.108  0.2195  0.9108 -0.0433
 3153SOL     OW21091   0.178   1.526   0.770  0.0356  0.6219  0.3525
 3153SOL    HW121092   0.220   1.610   0.787  0.3085  0.6665 -0.5406
 3153SOL    HW221093   0.194   1.512   0.677 -0.2919  0.9601  0.2497
 3154SOL     OW21094   1.727   0.824  12.563 -0.4384 -0.0537 -1.1823
 3154SOL    HW121095   1.698   0.733  12.559  0.0884 -0.2977  0.7982
 3154SOL    HW221096   1.792   0.834  12.493  0.1033  0.8807 -0.5597
 3155SOL     OW21097   0.606   1.913   0.928 -0.2949  0.0907  0.1432
 3155SOL    HW121098   0.692   1.872   0.933 -0.0271  0.7379  0.8314
 3155SOL    HW221099   0.635   2.004   0.931 -0.1978  0.0710 -0.2407
 3156SOL     OW21100   2.780   3.622  11.389 -0.1246 -0.2630  0.5651
 3156SOL    HW121101   2.765   3.622  11.294  1.7832 -0.9093  0.2579
 3156SOL    HW221102   2.833   3.702  11.392  2.5856 -2.0586  1.1313
 3157SOL     OW21103   2.263   3.153   3.858 -0.0821  0.2624 -0.3678
 3157SOL    HW121104   2.358   3.163   3.860 -0.1374  0.7183  0.1663
 3157SOL    HW221105   2.237   3.211   3.930 -0.1105  0.6889 -0.7217
 3158SOL     OW21106   0.967   3.064   1.713 -0.4833  0.2521 -0.0747
 3158SOL    HW121107   0.918   3.143   1.688  1.2809  1.7540  1.1896
 3158SOL    HW221108   0.914   3.010   1.655  0.0476 -3.5740  3.0177
 3159SOL     OW21109   2.167   3.699   5.268  0.0572 -0.0244 -0.1336
 3159SOL    HW121110   2.258   3.690   5.297 -0.2927 -0.3084  0.8832
 3159SOL    HW221111   2.127   3.747   5.341 -1.3660  1.0191 -1.6119
 3160SOL     OW21112   1.155   2.224   2.458 -0.6857  0.1482 -0.3495
 3160SOL    HW121113   1.130   2.164   2.528  0.1251 -1.5223 -1.5050
 3160SOL    HW221114   1.232   2.184   2.417  0.5782  1.8888  0.3477
 3161SOL     OW21115   3.843   3.479   6.712  0.0525 -0.1744 -0.1249
 3161SOL    HW121116   3.865   3.557   6.764  0.2326 -0.7916  0.7188
 3161SOL    HW221117   3.840   3.405   6.771 -0.6297  1.1256  1.4502
 3162SOL     OW21118   0.141   0.938   3.884  0.2121 -0.2874 -0.0757
 3162SOL    HW121119   0.087   0.988   3.822  0.8867 -0.8826 -1.1443
 3162SOL    HW221120   0.226   0.937   3.840  0.8155  1.7325  1.0630
 3163SOL     OW21121   0.525   1.988   4.898 -0.0376  0.3903 -0.5602
 3163SOL    HW121122   0.581   1.942   4.961 -2.3556  0.4335  1.5709
 3163SOL    HW221123   0.452   1.927   4.886  0.9591 -0.8063 -0.5136
 3164SOL     OW21124   3.473   2.603   0.893  0.5432  0.1724  0.3104
 3164SOL    HW121125   3.503   2.590   0.983  0.1764  1.1793  0.5740
 3164SOL    HW221126   3.402   2.541   0.879  0.7706 -0.1048  0.3553
 3165SOL     OW21127   0.296   4.282  15.486 -0.3984 -0.3550  0.3580
 3165SOL    HW121128   0.274   4.213  15.548 -1.6156  1.1527  1.6135
 3165SOL    HW221129   0.348   4.230  15.425 -0.0551  0.2005  0.1739
 3166SOL     OW21130   4.668   3.596   1.738 -0.0496 -0.1541  0.8445
 3166SOL    HW121131   4.697   3.658   1.671 -0.5640 -0.3761  0.4063
 3166SOL    HW221132   4.594   3.553   1.694  0.0879  1.1187 -0.6357
 3167SOL     OW21133   4.423   3.808   9.294 -0.4520 -0.3349  0.0996
 3167SOL    HW121134   4.474   3.761   9.360 -1.0152 -0.4356  0.4681
 3167SOL    HW221135   4.353   3.744   9.281  0.2046 -0.9353 -0.4412
 3168SOL     OW21136   3.256   3.636   9.186 -0.0979 -0.0127 -0.4206
 3168SOL    HW121137   3.242   3.559   9.241 -1.5091 -0.2532 -1.1190
 3168SOL    HW221138   3.338   3.605   9.148 -1.0608 -3.1752  0.0914
 3169SOL     OW21139   3.066   2.376   6.970 -0.0226 -0.2353 -0.1277
 3169SOL    HW121140   3.078   2.443   6.903  0.3272  1.3504  1.5405
 3169SOL    HW221141   3.118   2.414   7.040  0.1065  1.0134 -0.8948
 3170SOL     OW21142   1.407   2.245   2.123  0.1248  0.5973 -0.0091
 3170SOL    HW121143   1.327   2.287   2.155  0.1220 -0.2393  1.0769
 3170SOL    HW221144   1.440   2.198   2.200 -0.0860  1.0327  0.3485
 3171SOL     OW21145   1.983   0.967   9.387 -0.5126  0.2289  0.6136
 3171SOL    HW121146   1.904   1.019   9.406  0.2348  1.5413  0.1680
 3171SOL    HW221147   1.987   0.994   9.295  0.4631 -1.7140  0.0866
 3172SOL     OW21148   2.613   2.481   4.627 -0.0590 -0.4132 -0.0344
 3172SOL    HW121149   2.643   2.567   4.658 -1.1883 -0.5986  1.5936
 3172SOL    HW221150   2.551   2.460   4.697  1.4842  2.3737  2.2054
 3173SOL     OW21151   1.225   3.346   3.642  0.3223  0.3418  0.3977
 3173SOL    HW121152   1.226   3.440   3.624 -1.3315  0.1898 -0.3728
 3173SOL    HW221153   1.161   3.308   3.582  1.3622  0.7753 -0.9897
 3174SOL     OW21154   2.598   1.747   2.191  0.1636  0.0739  0.0482
 3174SOL    HW121155   2.673   1.703   2.151 -0.1212 -2.7733  2.6726
 3174SOL    HW221156   2.624   1.838   2.176  3.6553 -0.7566  1.0774
 3175SOL     OW21157   0.969   1.606  13.085  0.3498  0.1267 -0.0867
 3175SOL    HW121158   0.959   1.546  13.159 -1.1122 -2.6150 -2.5198
 3175SOL    HW221159   1.062   1.628  13.084  0.6002 -1.0083 -1.1930
 3176SOL     OW21160   0.749   1.951   8.878  0.0853 -0.2582  0.2726
 3176SOL    HW121161   0.813   1.893   8.920 -0.7143  0.2518  2.1406
 3176SOL    HW221162   0.801   2.031   8.869  1.2908 -1.1726 -1.0266
 3177SOL     OW21163   0.190   4.536  10.689  0.3825  0.3779 -0.1121
 3177SOL    HW121164   0.168   4.629  10.693  1.9531  0.7997 -1.4887
 3177SOL    HW221165   0.286   4.541  10.691  0.5738 -3.6775  1.6743
 3178SOL     OW21166   2.957   1.234  13.462  0.3527  0.0852  0.4286
 3178SOL    HW121167   2.985   1.324  13.478  0.2942  0.1671  0.0544
 3178SOL    HW221168   2.901   1.251  13.387 -1.5516  0.4313  1.9394
 3179SOL     OW21169   3.289   3.739   4.177  0.1676  0.8526 -0.0515
 3179SOL    HW121170   3.234   3.738   4.255  1.5597 -2.3153  0.9138
 3179SOL    HW221171   3.253   3.814   4.132 -1.0699  0.3855  0.1673
 3180SOL     OW21172   4.443   1.646   4.047 -0.6096 -0.6500 -0.1335
 3180SOL    HW121173   4.391   1.708   3.996  0.0710  0.8535  0.9946
 3180SOL    HW221174   4.426   1.573   3.988 -2.3703 -0.6633  0.3667
 3181SOL     OW21175   0.621   1.780   8.669  0.1513  0.3565 -0.5677
 3181SOL    HW121176   0.535   1.818   8.650  0.1417 -0.2732 -1.7968
 3181SOL    HW221177   0.663   1.847   8.722  0.7177  0.1978 -0.8087
 3182SOL     OW21178   1.073   3.575   6.218  0.2628  0.2822 -0.0163
 3182SOL    HW121179   1.059   3.537   6.304  0.6637  2.3641  0.9716
 3182SOL    HW221180   1.123   3.655   6.235  0.5076 -0.1783  1.3838
 3183SOL     OW21181   2.655   3.457   0.845  0.5692 -0.1149 -0.1676
 3183SOL    HW121182   2.577   3.506   0.868  0.1636 -1.1504  0.6382
 3183SOL    HW221183   2.693   3.430   0.928  0.8740  0.3530 -0.1542
 3184SOL     OW21184   2.574   4.153  16.703 -0.9097 -0.1702  0.5659
 3184SOL    HW121185   2.635   4.218  16.738 -3.9109  2.0908  1.5861
 3184SOL    HW221186   2.510   4.214  16.665 -1.1633 -1.0475 -0.4115
 3185SOL     OW21187   3.781   4.198   8.364 -0.1960  0.2978 -0.0549
 3185SOL    HW121188   3.806   4.290   8.362  0.6851  0.0337 -1.6041
 3185SOL    HW221189   3.842   4.163   8.429 -0.3153 -1.1067 -0.7009
 3186SOL     OW21190   4.630   1.076  12.093  0.0917  1.2258 -0.0679
 3186SOL    HW121191   4.704   1.055  12.150 -0.4690  0.1523  0.2469
 3186SOL    HW221192   4.585   1.140  12.148 -0.8878  0.8448 -0.4401
 3187SOL     OW21193   2.017   3.609   9.378 -0.3795  0.7573  0.4064
 3187SOL    HW121194   2.082   3.678   9.384  2.8954 -2.1768 -1.0050
 3187SOL    HW221195   1.966   3.642   9.304 -0.9271 -1.2332 -0.1282
 3188SOL     OW21196   1.265   0.008   8.127  0.1407 -0.5277  0.3245
 3188SOL    HW121197   1.212   4.670   8.150  0.3432 -0.6482  0.3928
 3188SOL    HW221198   1.351   4.712   8.101 -0.4787 -3.4417  2.0462
 3189SOL     OW21199   1.923   1.269   8.652 -0.4995 -0.6504  0.0579
 3189SOL    HW121200   1.960   1.326   8.720 -1.3004 -0.7269  0.5568
 3189SOL    HW221201   1.991   1.219   8.608 -0.8330  0.4280 -1.6577
 3190SOL     OW21202   4.576   1.567   2.106  0.4174  0.2744 -0.0344
 3190SOL    HW121203   4.622   1.512   2.043 -0.2341 -1.5360  1.0731
 3190SOL    HW221204   4.630   1.646   2.098 -0.2764  0.6596 -0.9364
 3191SOL     OW21205   4.493   0.205   2.414 -0.2724  0.0618  0.1542
 3191SOL    HW121206   4.444   0.144   2.359  0.5456 -0.5181  0.0726
 3191SOL    HW221207   4.556   0.234   2.348 -0.4158  1.0734  0.4653
 3192SOL     OW21208   2.764   4.483   5.223  0.1014  0.0469  0.0481
 3192SOL    HW121209   2.776   4.567   5.178  1.2723  0.5508  1.2526
 3192SOL    HW221210   2.732   4.434   5.148 -1.5316 -0.3967  1.0394
 3193SOL     OW21211   3.648   1.674   9.627  0.1752  0.0501  0.5737
 3193SOL    HW121212   3.565   1.701   9.666  0.5462  0.4855  1.0552
 3193SOL    HW221213   3.640   1.704   9.537 -0.3736 -2.9962 -0.4017
 3194SOL     OW21214   3.677   0.832  15.954  0.3861 -0.3993  0.2995
 3194SOL    HW121215   3.766   0.812  15.926  0.1587 -1.0078  0.0204
 3194SOL    HW221216   3.633   0.747  15.955 -0.4347  0.0089 -0.8570
 3195SOL     OW21217   0.331   4.646   7.941 -0.5080  0.7268  0.5455
 3195SOL    HW121218   0.333   4.561   7.987  1.4004  0.8977  0.7908
 3195SOL    HW221219   0.418   4.682   7.957  0.9817 -1.7968 -2.0140
 3196SOL     OW21220   3.852   2.242   5.043 -0.3971  0.4039 -0.9758
 3196SOL    HW121221   3.860   2.219   5.136  0.9911  1.3847 -0.8468
 3196SOL    HW221222   3.924   2.197   5.000 -0.0706 -0.1885  0.1800
 3197SOL     OW21223   2.705   3.678   7.387 -0.1409  0.2032  0.0909
 3197SOL    HW121224   2.678   3.626   7.464 -1.7249 -0.6475 -1.0367
 3197SOL    HW221225   2.761   3.614   7.343 -0.7038  1.0750 -1.8906
 3198SOL     OW21226   3.103   1.105  16.559  0.0907 -0.5239 -0.2176
 3198SOL    HW121227   3.025   1.155  16.535  1.0529  0.2930 -1.6668
 3198SOL    HW221228   3.122   1.062  16.475  2.2925 -1.3494  0.7201
 3199SOL     OW21229   2.375   3.860   0.428  0.1003  0.9140 -0.0136
 3199SOL    HW121230   2.355   3.914   0.352 -1.9228 -2.5094 -1.9049
 3199SOL    HW221231   2.397   3.911   0.506 -2.6890  2.5451 -0.2667
 3200SOL     OW21232   0.570   3.336   3.039  0.7394  0.1707  0.1322
 3200SOL    HW121233   0.573   3.251   2.995 -0.6170 -0.0556  0.4787
 3200SOL    HW221234   0.636   3.317   3.105  0.6094 -0.7423  0.0014
 3201SOL     OW21235   2.099   3.196  11.752  0.0641  0.3923  0.6161
 3201SOL    HW121236   2.187   3.203  11.788 -0.3783  2.0751  1.3844
 3201SOL    HW221237   2.069   3.287  11.755 -1.2731 -0.0024 -0.4907
 3202SOL     OW21238   0.813   0.773   7.708 -0.3791 -0.3062  0.7279
 3202SOL    HW121239   0.834   0.696   7.655 -1.6608 -0.4466  0.4342
 3202SOL    HW221240   0.797   0.734   7.794 -2.0564 -1.2200 -0.0047
 3203SOL     OW21241   3.613   0.436   6.925 -0.2700  0.6273  0.2202
 3203SOL    HW121242   3.649   0.423   6.837 -0.2224  0.1109  0.3156
 3203SOL    HW221243   3.573   0.352   6.948 -3.2277  1.9552 -0.1459
 3204SOL     OW21244   1.030   2.697   3.119  0.0742  0.0686  0.6529
 3204SOL    HW121245   1.019   2.783   3.158 -0.5877  0.5640 -0.6424
 3204SOL    HW221246   0.955   2.700   3.060 -0.2247 -0.2757  1.0122
 3205SOL     OW21247   3.022   0.535  15.351 -0.9779 -0.1379 -0.2499
 3205SOL    HW121248   3.112   0.553  15.324 -0.4762  1.4804  2.4764
 3205SOL    HW221249   3.036   0.485  15.432  1.3293  0.7721 -0.0809
 3206SOL     OW21250   1.047   0.309   2.800  0.2212 -0.6780  0.0193
 3206SOL    HW121251   1.051   0.396   2.840  1.9111 -1.0839  0.7206
 3206SOL    HW221252   1.075   0.338   2.713 -0.2236  0.9329  0.4034
 3207SOL     OW21253   3.515   4.044   4.814 -0.4585  0.3774 -0.5425
 3207SOL    HW121254   3.586   3.992   4.776  3.0246  3.8928  1.0182
 3207SOL    HW221255   3.573   4.107   4.858 -1.2775  1.5429 -1.1169
 3208SOL     OW21256   0.241   4.472   8.321 -0.1104  0.2250 -0.0025
 3208SOL    HW121257   0.158   4.518   8.334  0.4810  0.9266  1.2734
 3208SOL    HW221258   0.247   4.441   8.411  1.6492  2.1139  0.5461
 3209SOL     OW21259   4.120   0.751   0.837 -0.2688 -0.1725 -0.1408
 3209SOL    HW121260   4.067   0.828   0.817 -2.3464 -2.0054 -1.6202
 3209SOL    HW221261   4.085   0.694   0.769 -1.4063 -1.4514  1.5176
 3210SOL     OW21262   1.201   0.767   5.131 -0.4093 -0.4806 -0.0173
 3210SOL    HW121263   1.245   0.787   5.048  1.8414  0.4224  1.3833
 3210SOL    HW221264   1.144   0.694   5.107  2.5701 -3.0968  0.9070
 3211SOL     OW21265   3.524   4.591   1.758 -0.4149  0.1040 -0.8305
 3211SOL    HW121266   3.474   4.511   1.743  0.5756 -0.3069 -1.9432
 3211SOL    HW221267   3.612   4.560   1.777 -0.2285  1.4877  0.5990
 3212SOL     OW21268   1.989   0.553  12.611 -0.1932 -0.4216  0.7473
 3212SOL    HW121269   2.032   0.603  12.681 -0.1997  1.3237 -0.4923
 3212SOL    HW221270   2.053   0.538  12.542 -0.2041 -0.8682  0.8335
 3213SOL     OW21271   2.647   2.973  13.791  0.0148 -0.4116  0.1066
 3213SOL    HW121272   2.595   3.048  13.821  1.5617  0.9093 -0.5528
 3213SOL    HW221273   2.613   2.903  13.848  0.8450 -0.4850  0.5059
 3214SOL     OW21274   2.529   1.837   0.568  0.8114  0.4708  0.1465
 3214SOL    HW121275   2.589   1.835   0.642  2.6066 -0.8110 -1.3565
 3214SOL    HW221276   2.583   1.803   0.497 -0.4070  2.4119 -1.7443
 3215SOL     OW21277   0.116   0.739   6.203  0.1555  0.0620 -0.5559
 3215SOL    HW121278   0.122   0.671   6.270  0.1775 -0.0258 -0.6455
 3215SOL    HW221279   0.020   0.739   6.195 -0.0007  2.2160  1.4855
 3216SOL     OW21280   4.381   3.398   2.142  0.0759  0.0392 -0.2376
 3216SOL    HW121281   4.292   3.418   2.172 -0.8582 -1.2047 -2.1440
 3216SOL    HW221282   4.432   3.450   2.203  0.8455 -2.9656  1.6720
 3217SOL     OW21283   1.881   4.562   6.410  0.5917  0.3467  0.2085
 3217SOL    HW121284   1.871   4.600   6.323 -1.1955  0.9304  0.6593
 3217SOL    HW221285   1.820   4.613   6.463  0.6353  2.9293 -2.2486
 3218SOL     OW21286   2.515   3.243   3.106 -0.3081 -0.1618 -0.5778
 3218SOL    HW121287   2.450   3.313   3.117  0.2036  0.1458  0.5795
 3218SOL    HW221288   2.509   3.213   3.016 -0.9348 -0.9582 -0.2682
 3219SOL     OW21289   1.072   2.943  16.998 -0.4232 -0.2205 -0.3308
 3219SOL    HW121290   1.002   2.906  17.052 -0.0648  0.0765  0.3262
 3219SOL    HW221291   1.017   2.987  16.933  0.3272  3.4197  1.4863
 3220SOL     OW21292   2.276   1.098   7.608  0.0896 -1.2081  0.9048
 3220SOL    HW121293   2.319   1.184   7.608  1.3610 -1.8536  1.8118
 3220SOL    HW221294   2.242   1.093   7.697 -0.2296  3.2477  1.0616
 3221SOL     OW21295   2.229   2.663  13.950  0.1416 -0.4758 -0.4237
 3221SOL    HW121296   2.211   2.618  13.867  0.0886 -0.8839 -0.1927
 3221SOL    HW221297   2.273   2.592  13.996  1.1829 -1.2480 -2.6038
 3222SOL     OW21298   2.047   2.055   2.457 -0.0437  0.7911  0.4000
 3222SOL    HW121299   2.109   2.008   2.402 -3.4587 -3.3743  0.1435
 3222SOL    HW221300   1.963   2.018   2.431  0.0145  1.9784 -1.5004
 3223SOL     OW21301   1.600   3.084   6.389  0.3001  0.1860 -0.4602
 3223SOL    HW121302   1.549   3.091   6.308 -0.0455  0.0559 -0.2579
 3223SOL    HW221303   1.529   3.077   6.454 -0.4227 -1.3225 -1.3881
 3224SOL     OW21304   1.962   0.254   5.821  0.0223  0.0289  0.0644
 3224SOL    HW121305   1.894   0.273   5.757 -1.6536 -0.1242  1.8021
 3224SOL    HW221306   1.945   0.163   5.844 -0.7203  0.5339  1.5248
 3225SOL     OW21307   0.979   4.384  14.809  0.1251  0.8850 -0.2351
 3225SOL    HW121308   1.004   4.432  14.730  1.4233  0.4125 -0.0984
 3225SOL    HW221309   0.991   4.298  14.770  0.2701  0.1519  1.4362
 3226SOL     OW21310   3.486   2.087  16.353  0.2854  0.0338  0.4710
 3226SOL    HW121311   3.452   2.170  16.388 -1.5251  0.3922 -2.1478
 3226SOL    HW221312   3.541   2.066  16.428 -1.1195 -0.9795  1.2200
 3227SOL     OW21313   1.150   2.067   1.687 -0.1976  0.8183  0.6827
 3227SOL    HW121314   1.214   2.078   1.757  0.0510  2.5255  0.1796
 3227SOL    HW221315   1.134   1.972   1.689 -0.2459  0.8596  1.9311
 3228SOL     OW21316   0.812   4.471   2.218  0.1329 -0.7058 -1.2216
 3228SOL    HW121317   0.755   4.396   2.237  0.8750 -0.5138  1.7186
 3228SOL    HW221318   0.899   4.455   2.254 -0.6716 -0.0116  0.9923
 3229SOL     OW21319   3.201   4.564   8.054 -0.1222  0.1908 -0.4752
 3229SOL    HW121320   3.168   4.619   8.125 -0.1585 -0.5315  0.0661
 3229SOL    HW221321   3.287   4.541   8.089 -0.2546  0.2002 -0.1420
 3230SOL     OW21322   3.949   0.820   7.945  0.3458 -0.6651 -0.0212
 3230SOL    HW121323   3.953   0.861   7.858  2.2259 -0.9784 -0.0955
 3230SOL    HW221324   3.963   0.895   8.003 -0.9235 -0.2895 -0.2034
 3231SOL     OW21325   2.081   2.610   1.777 -0.2528 -1.0697  0.4852
 3231SOL    HW121326   2.150   2.642   1.720 -2.3699 -0.3730 -1.6664
 3231SOL    HW221327   2.137   2.580   1.849  1.8177  1.9439  0.1233
 3232SOL     OW21328   1.776   0.824   4.369  0.0531 -0.3688  0.1248
 3232SOL    HW121329   1.768   0.855   4.279  0.0454  0.4719  0.4098
 3232SOL    HW221330   1.684   0.814   4.391 -0.2302  0.2505 -0.7915
 3233SOL     OW21331   2.143   0.628   5.576  0.0873 -0.0646 -0.3144
 3233SOL    HW121332   2.076   0.563   5.556  1.3425 -0.6730 -2.5128
 3233SOL    HW221333   2.138   0.616   5.671  0.0377 -0.3051 -0.3485
 3234SOL     OW21334   1.080   1.638   8.848 -0.3094 -0.2991  0.1732
 3234SOL    HW121335   1.107   1.549   8.825 -1.8921 -0.2438 -1.9122
 3234SOL    HW221336   1.089   1.686   8.766 -1.7802  0.5385  0.4871
 3235SOL     OW21337   4.332   0.839   7.776 -0.2738 -0.4489 -0.3299
 3235SOL    HW121338   4.293   0.927   7.778 -0.7699 -0.7239  1.5194
 3235SOL    HW221339   4.268   0.783   7.820  2.1984 -2.3351  0.8691
 3236SOL     OW21340   3.950   1.551   7.584 -0.0503  0.5577 -0.0308
 3236SOL    HW121341   3.954   1.629   7.529 -1.4146  0.3271 -0.4633
 3236SOL    HW221342   3.905   1.490   7.525 -1.0540  0.8119  0.4604
 3237SOL     OW21343   0.198   3.391   6.884 -0.1841  0.1949  0.2726
 3237SOL    HW121344   0.129   3.373   6.948  1.2254 -2.3732  1.0708
 3237SOL    HW221345   0.199   3.487   6.883 -0.8192  0.1993  0.2614
 3238SOL     OW21346   4.085   2.057   3.778 -0.2686  0.1507  0.1206
 3238SOL    HW121347   3.991   2.043   3.783 -0.4689  0.6010 -2.5165
 3238SOL    HW221348   4.102   2.053   3.684  2.3941  0.9216  0.5533
 3239SOL     OW21349   1.799   4.358   8.813 -0.0395 -0.1569 -0.1456
 3239SOL    HW121350   1.759   4.439   8.780  0.9611  0.4203  0.0576
 3239SOL    HW221351   1.852   4.395   8.884  1.2997 -2.7201  0.1931
 3240SOL     OW21352   0.640   1.395  17.373  0.0937  0.3514 -0.1444
 3240SOL    HW121353   0.603   1.483  17.376 -0.4691  0.1350 -0.5701
 3240SOL    HW221354   0.614   1.381  17.282 -1.2991  1.3209  0.1015
 3241SOL     OW21355   4.238   4.233   0.654 -0.0340 -0.1508  0.2943
 3241SOL    HW121356   4.184   4.187   0.590  0.9278 -1.7158  0.6281
 3241SOL    HW221357   4.298   4.276   0.593 -1.9185 -0.4540 -1.7605
 3242SOL     OW21358   3.049   4.711   3.458  0.7696  0.2049 -0.0686
 3242SOL    HW121359   3.046   4.623   3.494  1.9130  0.1950 -0.0023
 3242SOL    HW221360   3.121   4.711   3.394 -0.9261  1.7957 -1.9795
 3243SOL     OW21361   3.888   0.727   6.531 -0.1797 -0.1382 -0.2135
 3243SOL    HW121362   3.801   0.689   6.514 -0.4434  0.1195  0.5597
 3243SOL    HW221363   3.876   0.821   6.523 -0.0171 -0.1698 -0.8486
 3244SOL     OW21364   3.715   0.135   6.139 -0.0505  0.1926 -0.7695
 3244SOL    HW121365   3.742   0.197   6.071 -1.3691  1.0474 -0.5041
 3244SOL    HW221366   3.653   0.195   6.180  2.3259  1.4060  1.0662
 3245SOL     OW21367   2.042   4.467   1.172 -0.9592 -0.5400 -0.7286
 3245SOL    HW121368   2.003   4.432   1.092  0.5919 -1.4149 -1.0921
 3245SOL    HW221369   2.135   4.445   1.165  0.1324  3.3916  1.2257
 3246SOL     OW21370   0.319   1.098   6.096  0.1627  0.5620 -0.4001
 3246SOL    HW121371   0.250   1.163   6.088  0.7401  1.0983 -0.9721
 3246SOL    HW221372   0.319   1.066   6.006 -0.8962 -1.8702  0.4643
 3247SOL     OW21373   0.877   3.732   5.530  0.1665 -0.0478  0.0051
 3247SOL    HW121374   0.820   3.659   5.509  0.9745  0.1137 -2.8089
 3247SOL    HW221375   0.823   3.809   5.546  1.9383  1.2529 -0.2817
 3248SOL     OW21376   2.783   2.975   6.105 -0.1948 -0.0138  0.0763
 3248SOL    HW121377   2.723   2.913   6.063  0.4213  0.8495 -2.0576
 3248SOL    HW221378   2.717   3.033   6.142  0.2025 -1.1604  2.5842
 3249SOL     OW21379   1.276   2.701   2.052 -0.0608  0.1329  0.5723
 3249SOL    HW121380   1.189   2.730   2.025 -0.3294 -0.9938  0.2456
 3249SOL    HW221381   1.253   2.624   2.105  2.3533 -0.6254  0.4975
 3250SOL     OW21382   2.398   1.524   4.336  0.0012  0.0765 -0.2047
 3250SOL    HW121383   2.365   1.569   4.414 -0.5357  0.5167 -0.6878
 3250SOL    HW221384   2.311   1.512   4.297 -0.1951  0.2353  0.1783
 3251SOL     OW21385   1.802   0.433   3.520 -0.2081  0.5008  0.9274
 3251SOL    HW121386   1.863   0.373   3.476 -0.2161  0.7040  0.6353
 3251SOL    HW221387   1.855   0.513   3.521  0.3689  0.1812 -1.8192
 3252SOL     OW21388   0.263   3.156  15.784 -0.5965 -0.5521 -0.0215
 3252SOL    HW121389   0.179   3.146  15.830 -0.4155  0.4399  0.5205
 3252SOL    HW221390   0.254   3.224  15.718  1.6360 -0.2814 -0.0561
 3253SOL     OW21391   3.647   2.035   3.038  0.1701  0.3422 -0.0981
 3253SOL    HW121392   3.632   1.983   2.959 -1.1537 -0.4559  0.6833
 3253SOL    HW221393   3.574   2.000   3.088 -0.4110 -0.1967 -1.3160
 3254SOL     OW21394   4.393   0.971   8.649 -0.3068 -0.0018  0.3539
 3254SOL    HW121395   4.322   1.026   8.680  0.5074  0.1092  2.0207
 3254SOL    HW221396   4.461   0.982   8.715 -1.2682  1.7292  1.0468
 3255SOL     OW21397   0.023   3.083   8.204 -0.0279 -0.2571  0.3884
 3255SOL    HW121398   4.694   3.066   8.138  1.8968  1.3141 -1.9580
 3255SOL    HW221399   4.730   3.153   8.261 -0.9534 -1.8848  1.8956
 3256SOL     OW21400   4.445   3.659   6.891 -0.0670 -0.2349  0.1779
 3256SOL    HW121401   4.401   3.738   6.923 -2.9683 -2.4698  1.6254
 3256SOL    HW221402   4.458   3.669   6.797 -2.7316 -0.7614 -0.2347
 3257SOL     OW21403   0.785   3.497   7.909  0.0110  0.1976  0.2093
 3257SOL    HW121404   0.799   3.468   7.999  2.4618 -0.1639 -0.3058
 3257SOL    HW221405   0.870   3.520   7.871 -0.9988  1.7183 -1.1336
 3258SOL     OW21406   0.465   4.564   5.024  0.5703  0.7368 -0.0260
 3258SOL    HW121407   0.412   4.579   4.946 -1.0891  1.2801  1.2050
 3258SOL    HW221408   0.518   4.488   5.000 -2.1090 -1.5087  1.1642
 3259SOL     OW21409   3.945   1.204   6.711 -0.2366  0.2883  0.1077
 3259SOL    HW121410   3.852   1.196   6.734  0.0256 -0.8304  0.8416
 3259SOL    HW221411   3.977   1.132   6.767 -2.4880 -0.7689  0.0238
 3260SOL     OW21412   2.359   3.765   5.600 -0.2625  0.3094 -0.9215
 3260SOL    HW121413   2.334   3.762   5.693 -3.4744 -2.0056 -1.8932
 3260SOL    HW221414   2.277   3.796   5.564 -0.0336  0.2372 -1.4988
 3261SOL     OW21415   3.820   3.768  14.854  0.0501 -0.0548  0.9133
 3261SOL    HW121416   3.894   3.814  14.813  0.2540 -1.3583 -0.2033
 3261SOL    HW221417   3.867   3.705  14.908  0.6671  0.5708  1.1118
 3262SOL     OW21418   2.347   4.664   2.222  0.2360 -0.5991 -0.1693
 3262SOL    HW121419   2.423   4.707   2.184 -1.0457  0.5617 -1.4255
 3262SOL    HW221420   2.279   4.713   2.175  0.3399 -0.1581  0.1472
 3263SOL     OW21421   0.483   4.064   1.272  0.6964 -0.3635 -0.4077
 3263SOL    HW121422   0.394   4.042   1.301  0.2023  2.0957 -0.1132
 3263SOL    HW221423   0.493   3.989   1.213  0.6496 -0.1935 -0.6268
 3264SOL     OW21424   2.014   0.053   2.837  0.2721  0.1258 -0.2804
 3264SOL    HW121425   2.088   0.008   2.795 -1.4393 -1.4111 -1.6142
 3264SOL    HW221426   2.000   4.727   2.907  1.5732 -0.8354 -0.8843
 3265SOL     OW21427   4.737   2.599   1.855 -0.1259 -0.2438 -0.4143
 3265SOL    HW121428   4.703   2.518   1.893 -1.3773  1.7480  2.7590
 3265SOL    HW221429   0.026   2.567   1.768  2.5992  2.0210 -0.4261
 3266SOL     OW21430   4.587   0.064   9.197  0.2950  0.1449 -0.2536
 3266SOL    HW121431   4.535   0.023   9.266 -0.1173 -1.9689 -1.8232
 3266SOL    HW221432   4.513   0.105   9.151 -0.8027 -0.0465  1.3381
 3267SOL     OW21433   3.198   0.124   4.590 -0.3075  0.5924 -0.3476
 3267SOL    HW121434   3.144   0.081   4.657  1.7205  0.6326  1.2988
 3267SOL    HW221435   3.270   0.061   4.585 -0.5747  0.1715  1.1465
 3268SOL     OW21436   1.626   3.136   2.499 -0.3643  0.6960  0.0205
 3268SOL    HW121437   1.702   3.181   2.462  1.0599 -1.6868  0.0318
 3268SOL    HW221438   1.573   3.133   2.420  2.9947 -0.1565 -2.2052
 3269SOL     OW21439   1.232   4.461   0.341 -0.1731 -0.3913 -0.1682
 3269SOL    HW121440   1.185   4.527   0.392  1.1422  0.9105 -0.6188
 3269SOL    HW221441   1.262   4.503   0.260 -0.6768  3.1244  1.4670
 3270SOL     OW21442   3.333   3.200  13.492  0.3301  0.0565  0.4444
 3270SOL    HW121443   3.392   3.273  13.511  0.3640  0.3422 -0.7739
 3270SOL    HW221444   3.344   3.155  13.576  0.1342  2.3149  1.6988
 3271SOL     OW21445   3.981   1.693   7.353 -0.6124 -0.0572 -0.1965
 3271SOL    HW121446   3.997   1.779   7.392  1.4876 -0.0947 -0.9478
 3271SOL    HW221447   3.964   1.721   7.263 -0.9686  2.4055  0.6553
 3272SOL     OW21448   1.081   3.362   9.493 -0.2121  0.1419  0.5382
 3272SOL    HW121449   0.986   3.352   9.506 -0.1977 -0.2435  0.3531
 3272SOL    HW221450   1.080   3.450   9.455  0.5998  1.1842  2.9361
 3273SOL     OW21451   0.763   1.641   6.356 -0.3125  0.2881 -0.1850
 3273SOL    HW121452   0.767   1.609   6.266  0.5486 -2.7019  0.9473
 3273SOL    HW221453   0.834   1.586   6.388 -0.1921  0.5695  0.0319
 3274SOL     OW21454   3.482   2.351  11.842  0.6098  0.1557 -0.7790
 3274SOL    HW121455   3.460   2.265  11.806  2.3677 -1.6476  2.4410
 3274SOL    HW221456   3.432   2.358  11.923  0.1116 -2.6675 -0.8509
 3275SOL     OW21457   3.010   1.483   8.621 -0.1935  0.1275  0.1484
 3275SOL    HW121458   3.092   1.435   8.612 -0.0845  0.1762  0.9194
 3275SOL    HW221459   2.957   1.439   8.554 -1.5014  0.5366  0.9172
 3276SOL     OW21460   0.743   0.396  17.459  0.0468  0.3057  0.0448
 3276SOL    HW121461   0.654   0.429  17.474  0.0530  1.0719 -1.6042
 3276SOL    HW221462   0.743   0.307  17.492 -1.1513  1.1819  2.3940
 3277SOL     OW21463   0.651   4.264   2.275  0.1608  0.9584  0.5312
 3277SOL    HW121464   0.601   4.189   2.305  0.3453  1.6617  2.5938
 3277SOL    HW221465   0.632   4.271   2.181 -2.0423 -0.2786  0.9139
 3278SOL     OW21466   1.831   1.822   5.147  0.5015  0.4568 -0.0518
 3278SOL    HW121467   1.782   1.805   5.067 -3.7368  0.2414  2.5880
 3278SOL    HW221468   1.800   1.906   5.179  0.7129  0.7669 -0.6687
 3279SOL     OW21469   4.184   3.733  16.965  0.0699  0.1252 -0.2326
 3279SOL    HW121470   4.246   3.805  16.982 -0.2688  0.5191 -0.6690
 3279SOL    HW221471   4.129   3.742  17.043  2.9626  0.0203  1.8272
 3280SOL     OW21472   0.994   2.730   0.251 -0.0646  0.0814 -0.1983
 3280SOL    HW121473   1.020   2.732   0.159  0.2828  0.2328 -0.0960
 3280SOL    HW221474   0.906   2.694   0.239 -1.4916  2.7368  2.3298
 3281SOL     OW21475   4.438   1.058   4.360  0.0832  0.3279 -0.2427
 3281SOL    HW121476   4.447   1.153   4.356 -2.0559  0.5736  0.4442
 3281SOL    HW221477   4.453   1.043   4.267 -1.3646 -3.5445  0.1637
 3282SOL     OW21478   0.820   1.029   8.934  0.4176 -0.0423 -0.1716
 3282SOL    HW121479   0.915   1.018   8.944  0.3174  0.7425  1.6773
 3282SOL    HW221480   0.804   1.091   8.863  0.0303 -1.3639 -1.2185
 3283SOL     OW21481   4.251   2.934   6.936 -0.1464 -0.2415 -0.2784
 3283SOL    HW121482   4.319   2.926   6.869 -0.1356  0.6882 -0.3785
 3283SOL    HW221483   4.187   2.871   6.903 -0.3503  1.0513 -2.3780
 3284SOL     OW21484   2.212   0.645   1.689 -0.0364  0.7316  0.4239
 3284SOL    HW121485   2.176   0.573   1.636 -1.9523  1.7088  0.3905
 3284SOL    HW221486   2.130   0.688   1.714 -0.9641 -0.8128  0.0071
 3285SOL     OW21487   3.607   3.421   9.329  0.3333 -0.4995  0.4839
 3285SOL    HW121488   3.615   3.501   9.277 -0.3253  0.5508  2.0082
 3285SOL    HW221489   3.631   3.458   9.414 -1.1248  1.4829  0.0120
 3286SOL     OW21490   0.432   0.189   3.663 -0.2652 -0.4634 -0.0325
 3286SOL    HW121491   0.492   0.168   3.735  0.3920 -2.1121 -1.0465
 3286SOL    HW221492   0.443   0.116   3.602 -1.4469 -1.8088  1.3907
 3287SOL     OW21493   3.788   0.389   2.128  0.2293  0.0203  0.1165
 3287SOL    HW121494   3.720   0.322   2.117 -0.5418  0.8362 -0.0645
 3287SOL    HW221495   3.866   0.336   2.147 -0.5374 -0.8496  0.8608
 3288SOL     OW21496   0.025   3.922   6.948  0.0725  0.4280 -0.2241
 3288SOL    HW121497   4.694   3.970   6.995 -0.6645  0.1812 -1.0627
 3288SOL    HW221498   0.013   3.828   6.963  1.1391 -0.1210 -2.8365
 3289SOL     OW21499   3.411   1.704   6.659 -0.0103  0.4791  0.1549
 3289SOL    HW121500   3.397   1.622   6.706 -2.4860 -0.3527 -2.0238
 3289SOL    HW221501   3.501   1.729   6.677  0.3332  0.0345 -0.9438
 3290SOL     OW21502   3.288   2.845  11.918  0.1119  0.2667 -0.1058
 3290SOL    HW121503   3.314   2.767  11.869  1.4351  0.1163  0.8456
 3290SOL    HW221504   3.224   2.869  11.851  2.9188  0.4094 -2.7010
 3291SOL     OW21505   4.324   4.596   9.619  0.4629 -0.0304 -0.1809
 3291SOL    HW121506   4.363   4.524   9.570  0.0535  0.1672 -0.7974
 3291SOL    HW221507   4.294   4.549   9.697  1.1380 -1.6775 -0.9170
 3292SOL     OW21508   1.652   2.375  14.704 -0.4242 -0.7532 -0.3004
 3292SOL    HW121509   1.728   2.317  14.697  1.0215  0.9564  1.3623
 3292SOL    HW221510   1.664   2.418  14.788 -1.6325 -1.7487  0.3813
 3293SOL     OW21511   1.825   2.539   2.405 -0.1080  0.0573 -0.2870
 3293SOL    HW121512   1.752   2.500   2.454 -0.4386 -1.9217 -2.3554
 3293SOL    HW221513   1.897   2.477   2.420  0.6350  0.8887 -0.4378
 3294SOL     OW21514   0.970   4.543   4.339  0.3204 -0.0918  0.5116
 3294SOL    HW121515   1.062   4.569   4.332 -0.3829  2.1611 -0.5990
 3294SOL    HW221516   0.922   4.625   4.330  2.0199  0.7199 -1.3776
 3295SOL     OW21517   2.643   1.501  12.798  0.2530 -0.1939  0.4197
 3295SOL    HW121518   2.709   1.570  12.784  1.2633 -1.1175  0.5723
 3295SOL    HW221519   2.652   1.450  12.717 -0.1980 -1.7194  1.3348
 3296SOL     OW21520   0.267   0.846  14.870 -0.6769  0.0600 -0.0146
 3296SOL    HW121521   0.331   0.884  14.808 -0.7567  1.1829  0.5897
 3296SOL    HW221522   0.204   0.918  14.869  1.3344  1.8224 -0.3653
 3297SOL     OW21523   3.437   2.506   6.462  0.1522 -0.2903 -0.1318
 3297SOL    HW121524   3.504   2.514   6.530 -1.3217  1.2203  1.1322
 3297SOL    HW221525   3.470   2.567   6.396  3.2292 -1.2703  0.4744
 3298SOL     OW21526   4.311   1.710   4.923  0.1980 -0.3614 -0.4539
 3298SOL    HW121527   4.323   1.652   4.997  2.5618 -0.6184 -1.0288
 3298SOL    HW221528   4.370   1.671   4.858 -0.1897  0.4699 -1.3076
 3299SOL     OW21529   1.690   4.729   6.534  0.0865 -0.1703 -0.1611
 3299SOL    HW121530   1.617   0.054   6.531  0.5315  0.4670  2.6087
 3299SOL    HW221531   1.639   4.648   6.542  0.3611 -0.4969 -1.7929
 3300SOL     OW21532   4.617   0.150   3.070 -0.0663 -0.1222 -0.5310
 3300SOL    HW121533   4.709   0.179   3.064 -0.2075  0.2277 -0.9812
 3300SOL    HW221534   4.620   0.057   3.047  0.4616 -0.7233  1.9406
 3301SOL     OW21535   1.316   1.945   4.163 -0.5750  0.1443  0.6134
 3301SOL    HW121536   1.313   1.977   4.253 -0.5793 -0.1355  0.7139
 3301SOL    HW221537   1.399   1.986   4.138  0.4049 -2.0267  0.3254
 3302SOL     OW21538   4.174   0.034   6.350 -0.1208  0.0475  0.2822
 3302SOL    HW121539   4.096   0.073   6.388 -1.4025 -1.1640 -1.1476
 3302SOL    HW221540   4.240   0.096   6.383 -0.6291  1.2538 -0.9968
 3303SOL     OW21541   2.709   0.892  11.395  0.1631  0.3945  0.2546
 3303SOL    HW121542   2.661   0.879  11.313  0.0095 -0.9309  0.5487
 3303SOL    HW221543   2.750   0.973  11.365  1.6486 -0.3899  0.1859
 3304SOL     OW21544   3.480   0.578   7.978 -0.6242 -0.1614 -1.0639
 3304SOL    HW121545   3.467   0.667   7.948  1.0968  0.8757  1.2648
 3304SOL    HW221546   3.549   0.594   8.043 -1.2699 -2.7126  0.2598
 3305SOL     OW21547   1.680   3.030   9.342  0.5985  0.5699  0.4825
 3305SOL    HW121548   1.770   3.016   9.313  1.4775  2.5365  2.1756
 3305SOL    HW221549   1.662   3.101   9.280 -0.9032 -0.2482 -0.0249
 3306SOL     OW21550   1.902   0.399   1.251  0.4910 -0.2016  0.6624
 3306SOL    HW121551   1.873   0.480   1.210 -3.1532 -1.3924  0.8972
 3306SOL    HW221552   1.984   0.380   1.205  0.4225  0.2990  0.3371
 3307SOL     OW21553   3.789   4.550   5.831 -0.0105  0.2139 -0.1322
 3307SOL    HW121554   3.824   4.627   5.786  2.2417 -0.7205 -0.0031
 3307SOL    HW221555   3.790   4.488   5.759 -1.5536  0.3930 -0.3059
 3308SOL     OW21556   3.076   0.116   8.624  0.1325  1.0036  0.4816
 3308SOL    HW121557   3.088   0.196   8.573  0.2911  2.1744  2.3344
 3308SOL    HW221558   2.981   0.107   8.618  0.2206 -0.0957  0.7272
 3309SOL     OW21559   3.722   3.222   6.026  0.1478  0.0606  0.4002
 3309SOL    HW121560   3.729   3.252   5.935 -2.1485  0.2996  0.2896
 3309SOL    HW221561   3.805   3.180   6.047  0.2129 -1.6931 -3.3851
 3310SOL     OW21562   3.661   3.054  11.559 -0.2552 -0.7582  0.2379
 3310SOL    HW121563   3.581   3.005  11.539 -0.1974 -0.9402  0.4522
 3310SOL    HW221564   3.651   3.034  11.652 -0.8978  0.8537  0.5252
 3311SOL     OW21565   1.799   2.135   4.284 -0.1021 -0.0897  0.0396
 3311SOL    HW121566   1.883   2.095   4.261 -1.0178 -2.3415  0.5423
 3311SOL    HW221567   1.751   2.092   4.214  1.3699 -0.7869 -0.5481
 3312SOL     OW21568   2.275   3.051  12.065 -0.4634  0.0800 -0.5820
 3312SOL    HW121569   2.344   2.989  12.087 -1.6426 -0.6839  0.9669
 3312SOL    HW221570   2.294   3.070  11.973 -0.7979  2.1145 -0.2303
 3313SOL     OW21571   4.083   4.567   4.364 -0.5305 -0.0485 -0.1679
 3313SOL    HW121572   3.991   4.589   4.349 -0.2815  1.0072 -0.1277
 3313SOL    HW221573   4.094   4.475   4.339  1.0446  0.9742 -3.2184
 3314SOL     OW21574   3.164   1.923   3.496 -0.5041  0.0168 -0.3352
 3314SOL    HW121575   3.123   1.899   3.579 -0.6835  0.3842 -0.3200
 3314SOL    HW221576   3.256   1.936   3.520 -0.6930  1.7035 -0.5637
 3315SOL     OW21577   1.969   3.538   7.362 -0.4755  0.4516  0.4995
 3315SOL    HW121578   2.063   3.529   7.345 -0.3020  0.6254  1.3943
 3315SOL    HW221579   1.930   3.527   7.275  2.0333 -1.6934 -0.3551
 3316SOL     OW21580   4.053   3.210   1.766 -0.4147  0.0314 -0.1961
 3316SOL    HW121581   4.072   3.175   1.679  2.3903 -0.6920  0.6962
 3316SOL    HW221582   4.046   3.303   1.744  0.2560  0.0752 -0.2354
 3317SOL     OW21583   4.564   0.355   8.658  0.3009 -0.0763  0.2171
 3317SOL    HW121584   4.496   0.413   8.622  0.3561 -0.2375 -0.1459
 3317SOL    HW221585   4.633   0.407   8.618  0.3408 -0.1405  0.2033
 3318SOL     OW21586   3.821   3.355   5.092 -0.4539 -0.2103 -0.2294
 3318SOL    HW121587   3.817   3.381   5.000  0.8163  1.0023  0.0528
 3318SOL    HW221588   3.889   3.415   5.121 -2.4966  0.9641  2.1906
 3319SOL     OW21589   4.112   2.163   9.226 -0.0957  0.3013  0.1707
 3319SOL    HW121590   4.190   2.127   9.183 -2.2476 -2.1368 -1.7203
 3319SOL    HW221591   4.149   2.236   9.276  1.8385  0.3134 -1.2970
 3320SOL     OW21592   1.618   2.531   5.897 -0.0250  0.4814 -0.4351
 3320SOL    HW121593   1.596   2.447   5.858 -0.6209 -0.5738  2.1254
 3320SOL    HW221594   1.674   2.509   5.971  1.3999  0.6619 -1.4691
 3321SOL     OW21595   4.185   0.231   5.412 -0.1692  0.0075  0.4926
 3321SOL    HW121596   4.187   0.165   5.342  2.8784  1.3513 -0.6491
 3321SOL    HW221597   4.277   0.236   5.435  0.1512  1.7228 -1.2152
 3322SOL     OW21598   1.885   3.602   0.205 -0.2355 -0.5365 -0.6040
 3322SOL    HW121599   1.827   3.587   0.131 -0.1747 -0.9949 -0.5592
 3322SOL    HW221600   1.894   3.510   0.231 -1.1167 -0.1047  1.2384
 3323SOL     OW21601   1.053   3.713   4.226 -0.6756  0.1470 -0.4892
 3323SOL    HW121602   1.012   3.684   4.308  0.2874  0.7886  0.2059
 3323SOL    HW221603   1.003   3.790   4.201  2.2459  2.0248 -0.4763
 3324SOL     OW21604   3.084   3.889   0.459 -0.5869  0.2542  0.2692
 3324SOL    HW121605   3.033   3.904   0.538 -1.6051  1.9376 -0.7149
 3324SOL    HW221606   3.092   3.981   0.436  0.7696  0.0006 -0.2926
 3325SOL     OW21607   0.257   3.372   0.643 -0.2694  0.7121  0.0673
 3325SOL    HW121608   0.289   3.298   0.591 -0.3313  1.2966 -0.8200
 3325SOL    HW221609   0.224   3.431   0.575  0.1180 -0.7452 -1.3853
 3326SOL     OW21610   3.497   1.417  12.455  0.2058 -0.5284 -0.2342
 3326SOL    HW121611   3.405   1.423  12.481  0.3590  1.4524 -0.1354
 3326SOL    HW221612   3.521   1.331  12.489  0.3140 -0.5440 -0.3518
 3327SOL     OW21613   4.023   0.790  12.182 -0.3438 -0.7199  0.4265
 3327SOL    HW121614   3.958   0.828  12.123  0.6699 -1.4011 -1.1256
 3327SOL    HW221615   3.979   0.710  12.210 -1.9144  0.3028  0.8964
 3328SOL     OW21616   0.557   0.689   3.494  0.1209 -0.3692 -0.2199
 3328SOL    HW121617   0.472   0.732   3.492 -0.8236 -2.3376 -1.8864
 3328SOL    HW221618   0.590   0.714   3.581 -2.9736  2.0056  0.2653
 3329SOL     OW21619   1.406   1.314   1.160 -0.6136 -0.6276 -0.1319
 3329SOL    HW121620   1.451   1.240   1.200 -0.0649 -0.2954 -0.1371
 3329SOL    HW221621   1.486   1.365   1.148 -1.1356  0.0712 -0.6393
 3330SOL     OW21622   4.087   2.613   9.322 -0.1272  0.4125 -0.2930
 3330SOL    HW121623   4.180   2.618   9.345  0.0095  1.2437 -0.9969
 3330SOL    HW221624   4.055   2.654   9.403 -0.7324  0.6598 -0.6614
 3331SOL     OW21625   1.800   2.982   1.762  0.2218 -0.5828  0.2571
 3331SOL    HW121626   1.861   2.926   1.714  1.4527 -0.1338  1.2809
 3331SOL    HW221627   1.713   2.969   1.724  1.0759 -0.2107 -1.8463
 3332SOL     OW21628   2.174   4.568   9.012 -0.1373  0.1797 -0.2638
 3332SOL    HW121629   2.183   4.662   9.002 -1.3724  0.4895  1.5258
 3332SOL    HW221630   2.253   4.542   9.059 -0.2913 -1.4105 -0.8587
 3333SOL     OW21631   4.687   4.333   8.489  0.3101 -0.0364  0.1842
 3333SOL    HW121632   4.644   4.399   8.435 -2.4309 -1.5591  0.5146
 3333SOL    HW221633   4.712   4.384   8.567 -0.5759 -0.0142  0.4526
 3334SOL     OW21634   0.606   0.873  17.368  0.3510  0.2972  0.2787
 3334SOL    HW121635   0.681   0.836  17.321  0.4885  0.9706 -0.0319
 3334SOL    HW221636   0.589   0.807  17.434 -2.4132  0.9615  0.2368
 3335SOL     OW21637   4.012   1.890  10.196 -0.6175 -0.4435  0.1141
 3335SOL    HW121638   3.965   1.940  10.263 -2.2929 -1.2624 -0.4558
 3335SOL    HW221639   4.093   1.895  10.247 -2.1190 -0.7321  2.5572
 3336SOL     OW21640   3.060   1.229   4.533 -0.0487 -0.2511  0.2698
 3336SOL    HW121641   2.965   1.237   4.537  0.0688  1.3420 -0.2422
 3336SOL    HW221642   3.075   1.253   4.441 -1.9855  1.7483  0.4732
 3337SOL     OW21643   0.839   0.483   3.812  0.5144  0.5583  0.3560
 3337SOL    HW121644   0.862   0.443   3.896 -1.8535 -2.6759 -0.5241
 3337SOL    HW221645   0.754   0.441   3.799  0.6537  0.1989  0.6036
 3338SOL     OW21646   4.353   2.369   5.092 -0.3189 -0.3758  0.9386
 3338SOL    HW121647   4.398   2.288   5.113  2.8731  0.8085 -1.1002
 3338SOL    HW221648   4.352   2.414   5.176  1.9166  1.8437 -0.1912
 3339SOL     OW21649   0.367   1.910   6.195  0.7052 -0.3688 -0.6405
 3339SOL    HW121650   0.310   1.948   6.130 -1.4222 -1.8254  0.3753
 3339SOL    HW221651   0.354   1.969   6.269  2.1553 -2.2176  1.1074
 3340SOL     OW21652   3.628   3.980   2.359  0.1809 -0.2109  0.0097
 3340SOL    HW121653   3.548   3.988   2.410  0.5923  1.2192  0.4330
 3340SOL    HW221654   3.694   3.987   2.427  0.1946 -0.7455  0.0506
 3341SOL     OW21655   1.148   0.010   5.833 -0.1495 -0.3059 -0.0521
 3341SOL    HW121656   1.190   4.691   5.768 -2.4046 -2.0419 -0.0241
 3341SOL    HW221657   1.063   0.013   5.788  0.3403  0.4762 -0.9124
 3342SOL     OW21658   3.455   2.000   7.251 -0.2278 -0.8493  0.6125
 3342SOL    HW121659   3.439   2.072   7.312 -0.3928 -0.8741  0.5992
 3342SOL    HW221660   3.406   2.040   7.179  1.1825 -1.0161 -0.4306
 3343SOL     OW21661   1.591   3.909   5.465  0.1171  0.0041  0.6294
 3343SOL    HW121662   1.674   3.864   5.483  0.4873  0.1453 -0.7019
 3343SOL    HW221663   1.571   3.936   5.554  1.4189  0.1506  0.8777
 3344SOL     OW21664   1.539   2.010   8.192 -0.1061  0.0024  0.4715
 3344SOL    HW121665   1.571   2.093   8.228  0.6255 -0.8974  1.9009
 3344SOL    HW221666   1.458   2.035   8.149 -0.1465 -0.9038  0.0216
 3345SOL     OW21667   2.928   0.613   7.849 -0.3803 -0.2564  0.1745
 3345SOL    HW121668   3.021   0.630   7.833 -0.7676 -1.6121 -3.4584
 3345SOL    HW221669   2.924   0.550   7.921  3.0308  0.5468  1.0544
 3346SOL     OW21670   3.841   0.824  10.291  0.3301  0.2992 -0.2998
 3346SOL    HW121671   3.885   0.750  10.248  0.3865  0.7432 -0.9991
 3346SOL    HW221672   3.751   0.793  10.303  2.0120 -3.6106  2.3447
 3347SOL     OW21673   4.640   1.949   9.133  0.3971  0.7662 -0.2569
 3347SOL    HW121674   4.618   1.868   9.086  0.9701  0.0368  0.7109
 3347SOL    HW221675   4.728   1.923   9.158  0.3328  0.2126 -0.6040
 3348SOL     OW21676   2.451   0.737   2.790 -0.2292 -0.8539 -0.2763
 3348SOL    HW121677   2.361   0.738   2.757 -0.1884  1.7675 -0.2916
 3348SOL    HW221678   2.460   0.820   2.836  0.4862 -2.2718  2.1370
 3349SOL     OW21679   1.269   0.623  16.098 -0.7160 -0.0919  0.5502
 3349SOL    HW121680   1.292   0.602  16.188 -1.2245 -2.0182  0.2229
 3349SOL    HW221681   1.179   0.592  16.088 -0.0296 -1.6495 -0.7792
 3350SOL     OW21682   0.098   2.056   4.428  0.2839 -0.2205  0.3374
 3350SOL    HW121683   0.096   2.152   4.423 -0.9160 -0.2342  0.4735
 3350SOL    HW221684   0.037   2.047   4.501  0.6939  0.5579  0.7671
 3351SOL     OW21685   1.910   1.629   9.208 -0.6254 -0.3900  0.5140
 3351SOL    HW121686   1.964   1.582   9.273  1.4327  2.1555  0.6423
 3351SOL    HW221687   1.825   1.603   9.242 -2.1620  1.0100 -2.3051
 3352SOL     OW21688   1.433   4.037   3.140  0.1795  0.0979 -0.3086
 3352SOL    HW121689   1.449   3.988   3.221  0.1156 -0.0107 -0.3611
 3352SOL    HW221690   1.416   4.124   3.176 -3.4751 -1.1464  0.9248
 3353SOL     OW21691   1.808   3.263   5.264  0.1932  0.5507  0.1346
 3353SOL    HW121692   1.761   3.255   5.347  1.0405 -1.6079  0.4151
 3353SOL    HW221693   1.754   3.334   5.228 -0.2521  0.7285  1.1561
 3354SOL     OW21694   3.866   4.366   4.894 -0.4106 -0.3806 -0.1568
 3354SOL    HW121695   3.911   4.425   4.956 -2.1307 -1.3869  2.0608
 3354SOL    HW221696   3.925   4.360   4.819  0.4492  0.9056  0.4193
 3355SOL     OW21697   0.734   1.431   5.809  0.0329 -0.2805  0.2993
 3355SOL    HW121698   0.715   1.521   5.835 -1.0300  0.2141 -2.1703
 3355SOL    HW221699   0.654   1.383   5.831 -0.6959  0.9107  0.2106
 3356SOL     OW21700   2.488   1.318   2.681  0.7969 -0.3957 -0.4377
 3356SOL    HW121701   2.444   1.234   2.664  1.3617 -0.8072  0.1393
 3356SOL    HW221702   2.453   1.372   2.610  0.5580 -1.1534 -0.8973
 3357SOL     OW21703   3.788   4.343   5.653  0.3766  0.0544 -0.3140
 3357SOL    HW121704   3.735   4.314   5.579  1.3991 -2.1728 -0.1908
 3357SOL    HW221705   3.742   4.293   5.720 -0.6809  0.5006 -0.7093
 3358SOL     OW21706   1.830   3.181   2.258  0.2957  0.2043  0.1757
 3358SOL    HW121707   1.861   3.133   2.182 -0.2696 -0.4491  0.3609
 3358SOL    HW221708   1.844   3.110   2.320 -0.3214 -1.3856 -1.5294
 3359SOL     OW21709   0.274   4.390   8.074  0.3878  0.2702  0.0471
 3359SOL    HW121710   0.275   4.425   8.163  1.3462 -0.5347  0.3527
 3359SOL    HW221711   0.288   4.297   8.092 -1.6408 -0.1460 -0.4813
 3360SOL     OW21712   0.572   2.603   5.131 -0.2119  0.7912 -0.1522
 3360SOL    HW121713   0.632   2.596   5.056  0.5297 -1.3628  0.6484
 3360SOL    HW221714   0.624   2.619   5.209 -0.7156  1.1990  0.0961
 3361SOL     OW21715   3.020   4.482   7.541 -0.1403  0.5002 -0.3038
 3361SOL    HW121716   2.931   4.488   7.575 -0.4198 -1.8248 -0.6145
 3361SOL    HW221717   3.069   4.510   7.618 -0.6101 -0.8178  0.4836
 3362SOL     OW21718   3.024   0.264   6.117 -0.5410  0.1276  0.6082
 3362SOL    HW121719   3.070   0.344   6.091 -0.7990 -0.5639 -1.8838
 3362SOL    HW221720   2.942   0.268   6.069 -0.1749  3.7784  0.2892
 3363SOL     OW21721   2.015   1.615  13.070 -0.2815  0.3479  0.6866
 3363SOL    HW121722   2.080   1.557  13.031 -0.6517  0.3160  0.1243
 3363SOL    HW221723   2.034   1.596  13.162 -1.4504 -1.2454  0.5982
 3364SOL     OW21724   4.646   3.174   2.502 -0.0572 -1.0685 -0.2062
 3364SOL    HW121725   0.003   3.175   2.491 -0.1859  1.0836 -1.0291
 3364SOL    HW221726   4.616   3.206   2.417  1.6385  0.2440 -0.3003
 3365SOL     OW21727   0.980   2.128   4.683 -0.6252 -0.1958  0.3715
 3365SOL    HW121728   1.028   2.051   4.652  1.5593  0.2893  2.4894
 3365SOL    HW221729   0.907   2.133   4.622  1.8721  0.6388 -2.5868
 3366SOL     OW21730   2.784   0.311   3.877  0.5002  0.3337 -0.2729
 3366SOL    HW121731   2.731   0.237   3.848  0.2449  1.1483 -1.9020
 3366SOL    HW221732   2.868   0.268   3.896 -1.0557 -2.1434  0.9433
 3367SOL     OW21733   2.378   2.152   1.955  0.0393 -0.3002  0.0596
 3367SOL    HW121734   2.449   2.197   2.003  0.9513  1.4000 -2.8709
 3367SOL    HW221735   2.315   2.142   2.026  0.8213 -1.2091  0.6204
 3368SOL     OW21736   2.114   3.586   4.145 -0.4673 -0.0430  0.0783
 3368SOL    HW121737   2.091   3.515   4.205 -2.7173 -0.1940 -0.9698
 3368SOL    HW221738   2.085   3.556   4.058 -2.7640  0.5359  0.6426
 3369SOL     OW21739   0.464   4.603   8.242  0.2534 -0.0229  0.4520
 3369SOL    HW121740   0.391   4.560   8.287 -1.6734  3.9631  1.1720
 3369SOL    HW221741   0.430   4.690   8.263  0.3327  0.2048 -0.3504
 3370SOL     OW21742   2.122   4.246  13.617  0.8836  0.2652 -0.0741
 3370SOL    HW121743   2.152   4.156  13.601  3.4201  0.8990  1.1845
 3370SOL    HW221744   2.141   4.241  13.711 -1.9008  1.2936  0.5559
 3371SOL     OW21745   0.434   3.877   2.802  0.1417  0.3694  0.1219
 3371SOL    HW121746   0.478   3.889   2.886 -0.6429 -0.9809  0.7301
 3371SOL    HW221747   0.495   3.822   2.753 -0.7435  0.1757 -0.7656
 3372SOL     OW21748   1.477   0.266   4.037  0.5874 -0.5857  0.0399
 3372SOL    HW121749   1.532   0.308   4.103  0.7028  0.1525 -0.5250
 3372SOL    HW221750   1.488   0.338   3.975  2.6924 -1.6557 -0.8277
 3373SOL     OW21751   2.253   2.821   9.775 -0.1190 -0.6543 -0.2454
 3373SOL    HW121752   2.213   2.735   9.787  1.4289 -1.2387  0.6850
 3373SOL    HW221753   2.181   2.871   9.736  0.5755  1.7625  1.5846
 3374SOL     OW21754   2.366   4.499   7.507  0.8096 -0.1560 -0.2010
 3374SOL    HW121755   2.378   4.421   7.453  0.4155 -1.2512  1.2970
 3374SOL    HW221756   2.438   4.557   7.483  1.1902  0.3212  2.0402
 3375SOL     OW21757   0.508   0.267   4.643 -0.5301 -0.3383  0.3680
 3375SOL    HW121758   0.476   0.193   4.695  0.6062 -0.0333  1.4850
 3375SOL    HW221759   0.432   0.279   4.585  0.2023 -0.6223 -0.6527
 3376SOL     OW21760   1.194   0.845  10.746 -0.1775 -0.7529  0.2617
 3376SOL    HW121761   1.163   0.934  10.730  0.2346 -0.5300  0.6904
 3376SOL    HW221762   1.130   0.812  10.809 -0.2391  1.0380  1.1523
 3377SOL     OW21763   3.972   2.117   1.772 -0.5099 -0.3337 -0.5903
 3377SOL    HW121764   4.042   2.109   1.838  0.9505  1.4156 -1.8979
 3377SOL    HW221765   3.915   2.184   1.811  0.4578  2.0467 -3.1940
 3378SOL     OW21766   0.786   3.894  14.816 -0.4940 -0.1665 -0.2250
 3378SOL    HW121767   0.701   3.859  14.841 -0.7818 -0.0222 -0.9903
 3378SOL    HW221768   0.788   3.930  14.727 -3.2336  1.7239  0.4691
 3379SOL     OW21769   1.122   1.643  13.474 -0.2916 -0.0020  0.1812
 3379SOL    HW121770   1.110   1.718  13.533 -2.0933 -0.2229  0.0836
 3379SOL    HW221771   1.158   1.679  13.392 -1.1790  0.6127  0.0581
 3380SOL     OW21772   2.747   2.946  10.121 -0.3473  0.3207  0.0589
 3380SOL    HW121773   2.803   2.893  10.064 -0.6148  0.6271 -0.4925
 3380SOL    HW221774   2.671   2.889  10.115  0.5350 -0.6848 -1.7961
 3381SOL     OW21775   3.859   1.466   3.043  0.1854  0.1863 -0.7434
 3381SOL    HW121776   3.839   1.440   2.953 -1.3842 -0.8419 -0.0914
 3381SOL    HW221777   3.807   1.545   3.056 -0.9670 -0.9150  1.3130
 3382SOL     OW21778   3.379   3.242   9.104  0.3557  0.3344  0.0360
 3382SOL    HW121779   3.388   3.252   9.199 -1.5459 -0.5245  0.3122
 3382SOL    HW221780   3.320   3.167   9.095 -2.2217  2.2545  1.1473
 3383SOL     OW21781   3.148   2.774   3.648  0.2385 -0.0691 -0.2216
 3383SOL    HW121782   3.243   2.778   3.645  0.0670  3.2649 -0.7320
 3383SOL    HW221783   3.120   2.732   3.566  1.4693 -0.9823 -0.1668
 3384SOL     OW21784   2.235   0.470   5.300 -0.2067  0.1442 -0.1028
 3384SOL    HW121785   2.203   0.492   5.387 -2.4194 -0.9677 -0.6327
 3384SOL    HW221786   2.302   0.403   5.307 -0.3657 -0.0759 -0.6291
 3385SOL     OW21787   3.010   4.103   2.840  0.4329 -0.2128  0.1542
 3385SOL    HW121788   3.089   4.157   2.839  0.2053  0.1059 -1.0280
 3385SOL    HW221789   2.967   4.146   2.766 -1.3511  0.2176  1.4250
 3386SOL     OW21790   1.075   3.916   5.453 -0.3519 -0.2431 -0.0676
 3386SOL    HW121791   1.098   3.918   5.360 -1.1736 -1.7821 -0.3203
 3386SOL    HW221792   1.001   3.856   5.462  1.3812 -1.9374  2.9211
 3387SOL     OW21793   1.020   4.129   4.595  0.1847 -0.2011  0.1036
 3387SOL    HW121794   1.001   4.073   4.520 -1.1980 -1.3395  1.3026
 3387SOL    HW221795   0.974   4.097   4.673 -3.3177 -0.2746 -1.9552
 3388SOL     OW21796   2.629   4.510   2.290 -0.7635 -0.2799 -0.0441
 3388SOL    HW121797   2.700   4.563   2.326 -0.6000 -1.2249  1.0209
 3388SOL    HW221798   2.597   4.562   2.215 -1.1471 -0.6028 -0.1053
 3389SOL     OW21799   1.628   2.946  15.910 -0.2193 -0.0778  0.1978
 3389SOL    HW121800   1.679   2.877  15.866 -1.6904 -1.9634  1.4609
 3389SOL    HW221801   1.684   2.943  15.987  0.7246  1.8964 -0.3994
 3390SOL     OW21802   3.136   0.998   7.221  0.0605 -0.4295 -0.2679
 3390SOL    HW121803   3.131   0.946   7.301  2.0281 -2.0374 -1.1796
 3390SOL    HW221804   3.049   0.976   7.189 -0.6194  0.6966  0.8229
 3391SOL     OW21805   4.054   1.913   4.639 -0.6251 -0.5906  0.3767
 3391SOL    HW121806   4.031   1.980   4.703 -2.1889 -0.9553  0.2124
 3391SOL    HW221807   4.134   1.950   4.602 -0.3722 -0.6754  0.8511
 3392SOL     OW21808   1.203   4.345   5.104 -0.1639  0.2397 -0.1932
 3392SOL    HW121809   1.255   4.273   5.139  0.5381  0.2790 -1.1535
 3392SOL    HW221810   1.228   4.347   5.012  1.8983  1.5242  0.4082
 3393SOL     OW21811   0.071   3.222  12.380  0.2414 -0.2854 -0.0674
 3393SOL    HW121812   0.114   3.136  12.383  0.6192 -0.2303 -4.7141
 3393SOL    HW221813   4.729   3.200  12.428 -0.2355  1.0611 -0.2488
 3394SOL     OW21814   2.684   3.575   6.296  0.1639 -0.2314 -0.3070
 3394SOL    HW121815   2.716   3.496   6.340 -1.0156 -0.5790 -0.0973
 3394SOL    HW221816   2.702   3.635   6.368 -0.2261 -2.3360  1.5459
 3395SOL     OW21817   2.101   2.712  11.142 -0.2886 -0.6832 -0.0492
 3395SOL    HW121818   2.168   2.722  11.074  0.4670 -0.7354  0.6785
 3395SOL    HW221819   2.132   2.757  11.220 -0.1018  1.4656 -1.3555
 3396SOL     OW21820   0.114   2.750   5.870  0.7437  0.1932  0.2744
 3396SOL    HW121821   0.119   2.836   5.829 -0.1244  0.0705 -0.0875
 3396SOL    HW221822   0.097   2.774   5.961  0.6836  0.3854  0.2125
 3397SOL     OW21823   4.494   4.136   8.433  0.3863 -0.6850  0.2106
 3397SOL    HW121824   4.565   4.193   8.463  1.0187 -2.0233  1.2419
 3397SOL    HW221825   4.415   4.189   8.440  0.2290 -0.9624  0.5349
 3398SOL     OW21826   0.710   0.486   2.646 -0.1116 -0.2039 -0.3725
 3398SOL    HW121827   0.751   0.441   2.572  1.0195  0.2712 -0.0348
 3398SOL    HW221828   0.623   0.506   2.610  0.3710 -1.1342 -2.0841
 3399SOL     OW21829   3.328   3.275   3.382  0.6352 -0.6125  0.0406
 3399SOL    HW121830   3.242   3.305   3.412  0.7238  0.5545 -0.8687
 3399SOL    HW221831   3.321   3.244   3.292  0.0004 -2.2675  0.6613
 3400SOL     OW21832   1.197   1.365  17.107 -0.1460 -0.1568 -0.2274
 3400SOL    HW121833   1.252   1.426  17.057  0.7721 -0.7769  0.0145
 3400SOL    HW221834   1.254   1.362  17.184 -1.8425 -1.6259  0.9750
 3401SOL     OW21835   1.178   3.063   7.738 -0.3377 -0.4928  0.1009
 3401SOL    HW121836   1.186   3.026   7.650  1.4755  0.5167 -0.1631
 3401SOL    HW221837   1.089   3.038   7.764 -0.7588  0.4803 -0.3891
 3402SOL     OW21838   0.951   4.247   2.315 -0.5972 -0.0794  0.0284
 3402SOL    HW121839   1.032   4.245   2.264 -1.5168 -1.4295 -1.3798
 3402SOL    HW221840   0.884   4.219   2.253 -1.0361  3.0217 -0.8870
 3403SOL     OW21841   2.386   1.653  15.142 -0.2411 -0.6912  0.5772
 3403SOL    HW121842   2.355   1.581  15.197  1.3136 -0.3259  1.9168
 3403SOL    HW221843   2.431   1.705  15.209 -2.2745  1.2594  0.4159
 3404SOL     OW21844   3.506   1.807   2.817  0.2867  0.1661 -0.0839
 3404SOL    HW121845   3.583   1.765   2.779  0.2633  1.0860 -1.1490
 3404SOL    HW221846   3.449   1.731   2.826  0.4826  0.1306  0.8357
 3405SOL     OW21847   1.996   2.188   7.197 -0.8050  0.0229  0.3191
 3405SOL    HW121848   1.982   2.203   7.104  3.1686 -0.9678 -0.4089
 3405SOL    HW221849   2.087   2.160   7.205 -0.8599 -0.3395 -0.3153
 3406SOL     OW21850   3.026   1.036   1.981 -0.0121  0.0065  0.5620
 3406SOL    HW121851   2.973   1.115   1.972  0.1814 -0.4230 -4.2277
 3406SOL    HW221852   3.085   1.060   2.053  0.1228 -0.5730  0.6452
 3407SOL     OW21853   3.928   1.066   9.545 -0.6598  0.1367 -0.4299
 3407SOL    HW121854   3.866   1.012   9.594  0.2690  0.2632  0.8637
 3407SOL    HW221855   3.898   1.151   9.579 -3.9284 -1.4313  0.6556
 3408SOL     OW21856   0.440   2.497   3.709  0.4397  0.2244 -1.0560
 3408SOL    HW121857   0.484   2.483   3.625  0.1438 -1.9306 -0.8556
 3408SOL    HW221858   0.512   2.468   3.765 -2.0327  2.5968  3.3679
 3409SOL     OW21859   4.384   0.428   6.194 -0.3326 -0.7648  0.5593
 3409SOL    HW121860   4.422   0.428   6.282 -0.5402 -0.0514  0.6439
 3409SOL    HW221861   4.367   0.336   6.175  1.3155 -1.0736  0.5706
 3410SOL     OW21862   2.217   1.945   3.202 -0.2449  0.0051  0.2822
 3410SOL    HW121863   2.293   1.983   3.158  1.0081 -3.9202 -0.9438
 3410SOL    HW221864   2.222   1.854   3.171  0.8422 -0.2122  1.1114
 3411SOL     OW21865   3.707   0.649   0.747 -0.0885 -0.6368 -0.8411
 3411SOL    HW121866   3.719   0.744   0.754  0.3638 -0.9845  2.8429
 3411SOL    HW221867   3.615   0.656   0.719 -1.0720  0.0786  2.5380
 3412SOL     OW21868   2.330   1.442   6.051  0.1912  0.4461 -1.0677
 3412SOL    HW121869   2.320   1.392   6.131  2.1847  0.7094 -0.6550
 3412SOL    HW221870   2.336   1.369   5.989 -0.6977  0.0298 -0.6583
 3413SOL     OW21871   1.249   4.715  16.040 -0.5647 -0.4485 -0.0087
 3413SOL    HW121872   1.256   4.716  15.944  0.4371  2.4144  0.0802
 3413SOL    HW221873   1.299   4.636  16.059 -1.1582 -0.3887  1.7310
 3414SOL     OW21874   0.871   3.630   6.485  0.0519  0.2063  0.4195
 3414SOL    HW121875   0.930   3.555   6.485 -1.8732 -1.3160 -0.5975
 3414SOL    HW221876   0.836   3.615   6.573  2.1234  0.5326  1.2993
 3415SOL     OW21877   4.509   4.483   8.061 -0.2527 -0.2673 -0.2554
 3415SOL    HW121878   4.572   4.484   7.989 -0.5015 -1.0307 -0.4776
 3415SOL    HW221879   4.429   4.442   8.029 -0.4370  0.5283 -0.8092
 3416SOL     OW21880   4.138   3.692  13.297  0.6488 -0.5018 -0.6266
 3416SOL    HW121881   4.130   3.778  13.256  0.2170 -0.8484 -1.2788
 3416SOL    HW221882   4.214   3.689  13.356 -0.5567  3.9073  1.1821
 3417SOL     OW21883   2.163   4.181   8.648 -0.2896  0.1189  0.3449
 3417SOL    HW121884   2.191   4.267   8.618 -0.5337  0.2594  0.5229
 3417SOL    HW221885   2.242   4.130   8.666 -0.5351 -0.9545 -1.6009
 3418SOL     OW21886   0.889   2.375   1.740  0.3454 -0.0537 -0.0567
 3418SOL    HW121887   0.954   2.362   1.672 -2.3989 -1.6643 -2.3668
 3418SOL    HW221888   0.884   2.282   1.762 -0.1260 -0.2631 -1.0788
 3419SOL     OW21889   1.132   1.212   9.635  0.4593 -0.1826  0.1578
 3419SOL    HW121890   1.121   1.123   9.604  0.1073 -0.4036  0.9122
 3419SOL    HW221891   1.205   1.207   9.696  1.0371  0.4652 -0.4794
 3420SOL     OW21892   2.126   3.835   3.873  0.1308 -0.5735 -0.6211
 3420SOL    HW121893   2.123   3.754   3.822  1.2451 -0.0310 -1.5626
 3420SOL    HW221894   2.108   3.905   3.811  0.5897 -1.2879 -1.5596
 3421SOL     OW21895   3.704   1.974  16.162  0.1054 -0.2859 -0.1313
 3421SOL    HW121896   3.660   2.058  16.157 -0.3490 -0.4660  0.9185
 3421SOL    HW221897   3.757   1.996  16.239  1.0471 -2.8106 -0.0623
 3422SOL     OW21898   2.094   1.040   5.564 -0.3832  0.0073  0.1649
 3422SOL    HW121899   2.024   0.975   5.570 -0.2089 -0.0733  1.3983
 3422SOL    HW221900   2.126   1.049   5.654 -0.7021  1.2332  0.1481
 3423SOL     OW21901   2.466   3.028  12.537 -0.0543 -0.3750 -0.1473
 3423SOL    HW121902   2.466   3.092  12.608 -1.3490  0.0910 -0.5724
 3423SOL    HW221903   2.388   2.978  12.561 -0.4712 -0.2795 -1.3211
 3424SOL     OW21904   3.758   2.350   1.480 -0.2554  1.0233  0.1624
 3424SOL    HW121905   3.722   2.370   1.566  1.1744  0.9114  0.7815
 3424SOL    HW221906   3.848   2.321   1.495 -0.8491 -0.6874  0.4457
 3425SOL     OW21907   2.709   3.834   4.953  0.0337 -0.3135 -0.5519
 3425SOL    HW121908   2.748   3.898   5.013 -2.9232  1.8516 -0.9341
 3425SOL    HW221909   2.768   3.761   4.970  1.3525  1.2458  1.6884
 3426SOL     OW21910   0.297   1.695   1.849 -0.0063  0.5211 -0.0269
 3426SOL    HW121911   0.287   1.634   1.922 -0.0371 -0.3452 -0.7483
 3426SOL    HW221912   0.385   1.723   1.874 -0.5412  1.0060  1.2914
 3427SOL     OW21913   3.231   1.509   8.863  0.0743 -0.0985  0.7931
 3427SOL    HW121914   3.165   1.536   8.799  1.4909 -3.4672 -2.1347
 3427SOL    HW221915   3.281   1.586   8.890 -0.6564  0.3689  0.8069
 3428SOL     OW21916   1.168   3.436   1.906  0.3142  0.6371 -0.0845
 3428SOL    HW121917   1.163   3.457   1.813 -0.9312  1.4246  0.1547
 3428SOL    HW221918   1.203   3.521   1.934 -1.5328  0.9591  1.2606
 3429SOL     OW21919   2.585   0.847   2.357 -0.2395 -0.5397  0.5232
 3429SOL    HW121920   2.648   0.883   2.419  3.2388 -1.9436 -2.2306
 3429SOL    HW221921   2.620   0.867   2.270 -0.5725 -0.3247  0.4367
 3430SOL     OW21922   1.429   0.093   6.571 -0.1091  0.1381 -0.0515
 3430SOL    HW121923   1.385   0.009   6.557  2.7558 -1.1356 -1.2427
 3430SOL    HW221924   1.361   0.151   6.606  2.0875  1.2519  2.3712
 3431SOL     OW21925   0.550   3.906   7.565  0.0412  0.1212  0.4457
 3431SOL    HW121926   0.478   3.952   7.521 -0.0938 -1.9528 -1.5220
 3431SOL    HW221927   0.584   3.843   7.501 -2.0693  0.1215 -0.6880
 3432SOL     OW21928   1.163   4.073  14.855 -0.5310  0.0006  0.3081
 3432SOL    HW121929   1.090   4.102  14.800 -0.2673 -1.0088 -0.5771
 3432SOL    HW221930   1.162   3.980  14.833 -1.5168 -0.2966  1.6594
 3433SOL     OW21931   4.225   2.072   3.533  0.1920 -0.2990 -0.2746
 3433SOL    HW121932   4.295   2.125   3.571 -1.5815  1.3567  0.7172
 3433SOL    HW221933   4.178   2.133   3.477 -2.1983 -0.9461  1.0338
 3434SOL     OW21934   0.003   2.286   6.105  0.2966  0.3794  0.3309
 3434SOL    HW121935   4.677   2.301   6.175  0.6560  1.3333  0.4472
 3434SOL    HW221936   4.735   2.373   6.065  3.0913  0.4650  0.1835
 3435SOL     OW21937   1.505   2.616   3.485  0.2923 -0.3388 -0.6722
 3435SOL    HW121938   1.454   2.554   3.433  0.0264 -1.5958  1.0875
 3435SOL    HW221939   1.498   2.583   3.574  0.7878  1.3520 -0.0033
 3436SOL     OW21940   2.286   4.399   1.147  0.3195 -0.3942  0.4758
 3436SOL    HW121941   2.312   4.478   1.098 -2.0431  1.1028  1.6804
 3436SOL    HW221942   2.378   4.381   1.168  0.4325  2.0986  2.1446
 3437SOL     OW21943   2.107   3.205   8.322  0.5080  0.1969  0.0353
 3437SOL    HW121944   2.067   3.158   8.395 -0.1000  2.2146  0.9963
 3437SOL    HW221945   2.129   3.285   8.370  1.9470 -0.9547  1.2862
 3438SOL     OW21946   1.362   0.753   9.170  0.4195  0.2437 -0.0757
 3438SOL    HW121947   1.315   0.680   9.210  0.7827 -0.5369 -1.0946
 3438SOL    HW221948   1.453   0.722   9.171  0.4131  0.2259 -0.0513
 3439SOL     OW21949   2.731   2.400  10.631 -0.1775 -0.8381  0.4351
 3439SOL    HW121950   2.803   2.463  10.626 -0.5587 -0.4673 -0.4022
 3439SOL    HW221951   2.719   2.408  10.726  2.8246  1.6794  0.5904
 3440SOL     OW21952   3.393   2.042   3.197  0.3441 -0.5256  0.6974
 3440SOL    HW121953   3.334   1.981   3.152  1.2226 -0.3378 -0.6985
 3440SOL    HW221954   3.399   2.009   3.287 -2.3578  0.4376  1.2189
 3441SOL     OW21955   2.635   0.737   4.945  0.5360 -1.0960  0.5811
 3441SOL    HW121956   2.545   0.729   4.978  0.7284  0.7258  1.6148
 3441SOL    HW221957   2.613   0.764   4.856  1.2341 -0.7988  0.5003
 3442SOL     OW21958   2.806   0.870   3.527  0.1914 -0.4744  0.3023
 3442SOL    HW121959   2.900   0.853   3.528 -0.1246 -2.2711 -0.8139
 3442SOL    HW221960   2.800   0.934   3.456  0.0998  0.7904  1.4439
 3443SOL     OW21961   0.558   1.084  13.395 -0.0603 -0.3518 -0.1586
 3443SOL    HW121962   0.556   1.143  13.471 -2.1655  1.6998 -1.8277
 3443SOL    HW221963   0.529   1.006  13.442  1.7579 -1.1687 -0.4113
 3444SOL     OW21964   3.041   1.723   9.598 -0.2181 -0.1984 -0.4766
 3444SOL    HW121965   3.089   1.737   9.517 -0.4335 -2.6665 -1.0475
 3444SOL    HW221966   3.092   1.783   9.651 -1.3626  0.9449 -0.6797
 3445SOL     OW21967   2.950   1.033   3.074  0.4362 -0.4418 -0.6314
 3445SOL    HW121968   3.029   1.072   3.112  0.7132 -2.1644  0.5759
 3445SOL    HW221969   2.977   0.948   3.039 -0.6562 -1.4285  0.9118
 3446SOL     OW21970   1.003   3.151   6.508  0.2053  0.1419  0.4281
 3446SOL    HW121971   0.975   3.234   6.469 -0.6701 -0.5189 -0.3247
 3446SOL    HW221972   0.965   3.082   6.453  0.3151 -0.6225  1.3183
 3447SOL     OW21973   4.133   3.408   8.728  0.4678 -0.1933 -0.1997
 3447SOL    HW121974   4.108   3.472   8.662 -1.6183 -1.6312 -0.7828
 3447SOL    HW221975   4.223   3.388   8.700  0.7681 -0.2885  0.8506
 3448SOL     OW21976   0.466   2.377  10.750 -0.2843  0.1260  0.8573
 3448SOL    HW121977   0.407   2.356  10.822 -1.3742 -2.2529 -0.7352
 3448SOL    HW221978   0.489   2.467  10.774  0.6065 -0.2310  1.3404
 3449SOL     OW21979   0.858   0.545  12.927  0.0976 -0.1790  0.0355
 3449SOL    HW121980   0.836   0.621  12.873 -1.8330 -1.4370 -0.9706
 3449SOL    HW221981   0.949   0.560  12.952 -0.6411  1.2499  1.8636
 3450SOL     OW21982   0.086   0.033  16.150 -0.1085  0.3194  0.4078
 3450SOL    HW121983   0.141   4.697  16.176  0.0571  0.0814 -0.6059
 3450SOL    HW221984   0.150   0.103  16.163 -2.0039  2.0221  0.4336
 3451SOL     OW21985   2.971   0.032  13.532  0.0725  0.5074 -0.2070
 3451SOL    HW121986   3.023   0.106  13.563  2.1011 -0.6012 -0.9830
 3451SOL    HW221987   3.029   4.698  13.507 -0.5737  0.7638 -2.4326
 3452SOL     OW21988   1.782   4.595   4.836 -0.2480  0.3988 -0.0866
 3452SOL    HW121989   1.794   4.612   4.743 -0.2548 -0.5122 -0.2561
 3452SOL    HW221990   1.718   4.524   4.838  0.2095 -0.0689 -2.1208
 3453SOL     OW21991   0.342   0.680   8.554 -0.2134 -0.1011  0.5298
 3453SOL    HW121992   0.420   0.711   8.508 -0.1264 -1.2090 -0.0671
 3453SOL    HW221993   0.375   0.655   8.640 -3.0894 -1.5953  1.1944
 3454SOL     OW21994   4.532   2.839   4.758 -0.1284  0.2022  0.0284
 3454SOL    HW121995   4.501   2.754   4.788  2.0277 -0.8239 -0.6599
 3454SOL    HW221996   4.628   2.832   4.759 -0.4018 -3.5393 -2.1595
 3455SOL     OW21997   3.429   2.551   3.533 -0.2487  0.0900  0.1858
 3455SOL    HW121998   3.366   2.508   3.475 -1.3932  2.1572 -0.1063
 3455SOL    HW221999   3.496   2.560   3.466 -0.8080 -1.8667 -0.6337
 3456SOL     OW22000   2.385   1.046   7.354 -0.1029  0.1385  0.1980
 3456SOL    HW122001   2.335   1.058   7.435  2.0278  0.2304  1.4783
 3456SOL    HW222002   2.465   1.008   7.389 -0.8007 -0.3740  1.2201
 3457SOL     OW22003   1.718   0.041   5.359 -0.1788  0.7309 -0.3081
 3457SOL    HW122004   1.779   0.102   5.318  0.6369 -1.0153 -1.6915
 3457SOL    HW222005   1.695   4.734   5.277  1.5909  0.2413 -0.5472
 3458SOL     OW22006   3.414   4.077  15.276  0.0510  0.2371 -0.1019
 3458SOL    HW122007   3.482   4.098  15.340  1.3707 -1.0357 -1.1137
 3458SOL    HW222008   3.456   4.027  15.206 -1.6000  0.7921 -1.4900
 3459SOL     OW22009   3.269   2.438   8.956  0.2120  0.0900 -0.3988
 3459SOL    HW122010   3.304   2.484   8.879  3.3310 -0.2960  0.7747
 3459SOL    HW222011   3.302   2.496   9.025  0.5453  0.6347 -1.0009
 3460SOL     OW22012   3.164   0.645  10.887  0.2290 -0.7902  0.2657
 3460SOL    HW122013   3.120   0.627  10.970 -0.5774 -0.5606 -0.1105
 3460SOL    HW222014   3.170   0.740  10.902  0.1221 -0.8976  1.0108
 3461SOL     OW22015   1.417   2.075   6.799  0.3766  0.4138 -0.2754
 3461SOL    HW122016   1.365   2.154   6.789 -0.0027  0.2648  0.5216
 3461SOL    HW222017   1.367   2.015   6.744 -1.3589  0.2062  1.5115
 3462SOL     OW22018   3.744   2.954   8.773 -0.1539  0.0022  0.1857
 3462SOL    HW122019   3.736   2.950   8.677 -1.9150 -0.6013  0.3651
 3462SOL    HW222020   3.786   2.868   8.777  0.8250  0.5443  1.4220
 3463SOL     OW22021   1.807   4.075   6.495  0.4036 -0.4913  0.0882
 3463SOL    HW122022   1.889   4.086   6.544 -2.0622  0.8063  3.8582
 3463SOL    HW222023   1.758   4.030   6.564 -0.7960  0.0297 -0.4255
 3464SOL     OW22024   2.981   0.354   0.901  0.2911  0.2303  0.6179
 3464SOL    HW122025   2.971   0.419   0.970  0.4895 -0.5775  1.4049
 3464SOL    HW222026   2.942   0.279   0.945 -1.3807  1.5348  1.3371
 3465SOL     OW22027   0.551   1.082   9.504  0.7736 -0.7762  0.0494
 3465SOL    HW122028   0.569   1.053   9.593  2.6249  0.4497  0.0939
 3465SOL    HW222029   0.585   1.171   9.516 -3.1094  0.3905  2.1765
 3466SOL     OW22030   4.650   0.898  16.454  0.1298 -0.4504 -0.2807
 3466SOL    HW122031   4.641   0.824  16.514  1.1957 -2.7637 -2.9367
 3466SOL    HW222032   4.713   0.861  16.392 -2.5689 -2.7601 -1.6317
 3467SOL     OW22033   2.555   4.023   3.317 -0.4991  0.0755  0.1094
 3467SOL    HW122034   2.619   4.073   3.266  0.5455  0.0887  1.4406
 3467SOL    HW222035   2.512   3.967   3.251  0.4589 -2.9391  2.0263
 3468SOL     OW22036   3.450   0.744   2.687 -0.3510 -0.6371 -0.9197
 3468SOL    HW122037   3.491   0.658   2.676 -0.7609 -1.0476  0.5918
 3468SOL    HW222038   3.514   0.812   2.669 -1.2691  1.8426  4.9222
 3469SOL     OW22039   1.836   3.551   0.482  0.2805 -0.2983 -0.1081
 3469SOL    HW122040   1.859   3.584   0.395  1.1352 -1.1061 -0.1834
 3469SOL    HW222041   1.747   3.586   0.476 -0.3119 -1.5773  1.2479
 3470SOL     OW22042   0.068   4.528  16.712  0.1476 -0.8629 -0.3626
 3470SOL    HW122043   0.071   4.494  16.802 -1.2663 -1.7806 -0.6802
 3470SOL    HW222044   0.143   4.486  16.671  1.3475  1.4639 -0.5872
 3471SOL     OW22045   3.107   1.930   1.646 -0.1446 -0.1075  0.7037
 3471SOL    HW122046   3.143   2.012   1.611  2.8190 -1.0922  1.4949
 3471SOL    HW222047   3.169   1.873   1.601  1.6090  2.9326 -0.7723
 3472SOL     OW22048   1.898   0.177   1.390 -0.3101 -0.4122 -0.6085
 3472SOL    HW122049   1.886   0.247   1.326  0.3833  0.0170 -0.2646
 3472SOL    HW222050   1.862   0.111   1.330  1.0477 -0.8228 -0.9567
 3473SOL     OW22051   1.796   3.488   7.138  0.3305 -0.1540  0.3233
 3473SOL    HW122052   1.769   3.578   7.120 -1.4683 -0.5061  1.2626
 3473SOL    HW222053   1.789   3.449   7.051  2.9599 -0.7813  0.3986
 3474SOL     OW22054   2.255   2.208  12.892  0.1360 -0.1676  0.2422
 3474SOL    HW122055   2.225   2.294  12.861  1.3764  0.3937  0.6164
 3474SOL    HW222056   2.292   2.162  12.817  0.4842  0.1846  0.1958
 3475SOL     OW22057   0.538   0.818   5.325 -0.0327 -0.4401 -0.2524
 3475SOL    HW122058   0.483   0.877   5.376 -0.7650  0.3913 -2.0277
 3475SOL    HW222059   0.572   0.767   5.399 -1.8013 -0.7139  0.3704
 3476SOL     OW22060   3.461   0.725  12.432 -0.2457 -0.1573 -0.8064
 3476SOL    HW122061   3.460   0.643  12.481  2.8574  0.2427 -0.0689
 3476SOL    HW222062   3.392   0.784  12.461  1.3765  0.6574  1.4043
 3477SOL     OW22063   3.017   0.107  11.591 -0.5783 -0.1658 -0.4757
 3477SOL    HW122064   2.970   0.189  11.572  1.5078  1.6141  2.0486
 3477SOL    HW222065   3.020   0.111  11.686 -0.6535  0.7321 -0.5104
 3478SOL     OW22066   4.252   4.208   2.610  0.1276  0.0843 -0.2042
 3478SOL    HW122067   4.268   4.299   2.584  0.7831 -0.2418 -0.9519
 3478SOL    HW222068   4.257   4.212   2.705  1.6708 -0.9453 -0.2483
 3479SOL     OW22069   0.967   3.518   3.625 -0.4981 -0.4965 -0.4424
 3479SOL    HW122070   0.898   3.470   3.670 -1.0719 -0.4081 -1.2328
 3479SOL    HW222071   0.915   3.561   3.558  1.6573 -1.2348 -2.6192
 3480SOL     OW22072   3.070   3.798   7.242  0.2260  0.1762 -0.5647
 3480SOL    HW122073   2.978   3.773   7.248  0.1669  0.5923  0.2937
 3480SOL    HW222074   3.096   3.780   7.332  1.3945 -1.1122 -1.1627
 3481SOL     OW22075   0.316   1.390  15.428 -0.5709  0.2400  0.3273
 3481SOL    HW122076   0.306   1.296  15.413 -1.2502  0.7795 -2.7047
 3481SOL    HW222077   0.397   1.416  15.385 -1.4746  0.1859 -1.4639
 3482SOL     OW22078   3.060   2.894  11.338  0.2710  0.0093  0.3557
 3482SOL    HW122079   3.148   2.925  11.357  0.8565 -1.4695  0.1107
 3482SOL    HW222080   3.011   2.975  11.326 -3.0307 -2.5653 -3.5661
 3483SOL     OW22081   1.387   1.038   7.769  0.2073  0.2772  0.1900
 3483SOL    HW122082   1.367   1.081   7.686  0.3871 -2.0526 -1.0341
 3483SOL    HW222083   1.451   0.972   7.743  0.5311  0.5290  0.3457
 3484SOL     OW22084   0.768   4.426   7.954 -0.0935  0.0224 -0.0541
 3484SOL    HW122085   0.800   4.427   8.044  0.5671  0.0025 -0.2926
 3484SOL    HW222086   0.684   4.384   7.975  0.7537 -1.6441 -0.0102
 3485SOL     OW22087   3.786   1.701   0.580 -0.3194  0.1617  0.0717
 3485SOL    HW122088   3.808   1.778   0.632  1.2549 -0.2923  0.0792
 3485SOL    HW222089   3.873   1.679   0.547 -0.5874 -0.9365  0.0756
 3486SOL     OW22090   2.006   1.919   0.581  0.0518 -0.1772  0.2314
 3486SOL    HW122091   2.081   1.864   0.602  0.9494  1.0266  0.1794
 3486SOL    HW222092   1.956   1.858   0.527  0.1860 -0.2084  0.1435
 3487SOL     OW22093   3.649   4.103   5.191 -0.2417  0.4632 -0.0199
 3487SOL    HW122094   3.614   4.141   5.110  0.3114  2.1041  0.4976
 3487SOL    HW222095   3.568   4.059   5.215 -1.0517  0.0767 -3.4832
 3488SOL     OW22096   2.809   0.118   8.591 -0.2619 -0.5891 -0.2975
 3488SOL    HW122097   2.732   0.156   8.549 -0.1389  1.2445  1.1542
 3488SOL    HW222098   2.784   0.105   8.682 -4.3113 -1.4815 -1.5218
 3489SOL     OW22099   0.212   1.581   8.690 -0.5317  0.4032  0.4621
 3489SOL    HW122100   0.201   1.545   8.779  0.4781 -0.0644  0.3970
 3489SOL    HW222101   0.149   1.653   8.681 -0.8515 -0.0519 -0.8556
 3490SOL     OW22102   2.853   1.765   7.515  0.4474 -0.0203  0.0760
 3490SOL    HW122103   2.874   1.729   7.429  0.3816  0.5570 -0.1769
 3490SOL    HW222104   2.852   1.858   7.496 -0.6664  0.1747  1.0489
 3491SOL     OW22105   3.100   3.739  11.630 -0.0204 -0.5028 -0.3306
 3491SOL    HW122106   3.111   3.770  11.540 -0.2667 -0.8892 -0.4891
 3491SOL    HW222107   3.047   3.660  11.620  0.6406 -1.0338  0.3477
 3492SOL     OW22108   2.499   3.805   8.628 -0.5137  0.7137 -0.2022
 3492SOL    HW122109   2.457   3.772   8.707  0.9234 -1.3117 -0.2829
 3492SOL    HW222110   2.560   3.735   8.606 -3.2706 -2.0978  1.1715
 3493SOL     OW22111   0.771   1.585   8.833  0.4137  0.6345 -0.0182
 3493SOL    HW122112   0.855   1.609   8.794 -0.7304  1.3021 -2.0786
 3493SOL    HW222113   0.709   1.635   8.781  0.4155 -0.0848 -0.7146
 3494SOL     OW22114   0.811   1.564  12.340  0.5116  1.4834 -0.2816
 3494SOL    HW122115   0.787   1.572  12.432  0.1232 -1.7783 -0.1110
 3494SOL    HW222116   0.851   1.477  12.337 -2.9390 -0.1680  2.4472
 3495SOL     OW22117   2.751   2.962   8.204  0.0651 -0.2751  0.8965
 3495SOL    HW122118   2.671   2.961   8.151  0.2541 -0.8670  0.6173
 3495SOL    HW222119   2.725   3.004   8.286 -0.8067  1.6548 -0.3756
 3496SOL     OW22120   2.910   2.305   0.715 -0.5803 -0.1200 -0.2671
 3496SOL    HW122121   2.826   2.318   0.672 -0.9168 -2.0572 -0.1948
 3496SOL    HW222122   2.887   2.298   0.808  0.7518  0.3937  0.1095
 3497SOL     OW22123   3.251   3.549   1.873 -0.3438  0.4747 -0.2407
 3497SOL    HW122124   3.304   3.628   1.871  0.0982  0.2050  0.7902
 3497SOL    HW222125   3.284   3.500   1.949 -1.9422  1.0205  0.8094
 3498SOL     OW22126   3.054   2.719  14.580  0.6117 -0.3185 -0.8011
 3498SOL    HW122127   3.003   2.796  14.606 -2.9833 -2.9317 -0.1506
 3498SOL    HW222128   3.128   2.705  14.639  0.3136  0.0329 -0.3468
 3499SOL     OW22129   0.071   4.196   7.218  0.2405 -0.3320  0.1965
 3499SOL    HW122130   4.729   4.147   7.195 -0.1736 -0.5832  2.1890
 3499SOL    HW222131   0.133   4.123   7.223  0.7525  0.1201  0.4290
 3500SOL     OW22132   3.360   0.086   6.193 -0.4000 -0.6924  0.0991
 3500SOL    HW122133   3.351   0.051   6.281  0.1717  0.8574  0.7576
 3500SOL    HW222134   3.419   0.161   6.199 -0.2643 -0.9488  1.8838
 3501SOL     OW22135   2.194   0.834   4.744  0.4799  0.8933  0.4451
 3501SOL    HW122136   2.231   0.870   4.824 -1.0422 -0.7060  1.8783
 3501SOL    HW222137   2.173   0.744   4.770 -0.5087  0.2426 -2.5902
 3502SOL     OW22138   2.804   4.020   0.912  0.2250 -0.4277  0.4089
 3502SOL    HW122139   2.779   3.929   0.926  0.2184 -0.2871  1.3038
 3502SOL    HW222140   2.840   4.018   0.823 -0.0208 -2.6363  0.3693
 3503SOL     OW22141   3.918   1.921  14.788 -0.1905  0.0403  0.1850
 3503SOL    HW122142   4.011   1.944  14.788 -0.2063  0.1065  1.3752
 3503SOL    HW222143   3.928   1.827  14.799 -1.7978 -0.6506 -4.0168
 3504SOL     OW22144   1.311   4.289   8.653  0.0429 -0.3232  0.1435
 3504SOL    HW122145   1.248   4.361   8.651 -0.9693 -1.2000  0.9733
 3504SOL    HW222146   1.326   4.287   8.748 -0.2634  0.8742  0.2237
 3505SOL     OW22147   3.535   3.383   3.804 -0.0464  0.1921  0.0551
 3505SOL    HW122148   3.500   3.422   3.724 -0.1310 -1.8508 -0.9071
 3505SOL    HW222149   3.479   3.426   3.869 -1.1927 -3.3498  1.4050
 3506SOL     OW22150   1.321   2.887  15.369 -0.1866 -0.7150 -0.0413
 3506SOL    HW122151   1.269   2.944  15.312  1.0891  0.7018  0.2158
 3506SOL    HW222152   1.269   2.873  15.449  0.3444 -1.2643  0.2040
 3507SOL     OW22153   1.247   4.705   9.013 -0.4363  0.1400 -0.3659
 3507SOL    HW122154   1.165   4.734   9.052  0.6888  2.8588 -0.0021
 3507SOL    HW222155   1.293   4.678   9.093  1.0078  1.7278 -0.6642
 3508SOL     OW22156   2.399   2.949  12.993  0.6983 -0.4714 -0.0535
 3508SOL    HW122157   2.391   3.003  13.072  2.7512  1.0872 -0.9165
 3508SOL    HW222158   2.340   2.875  13.009  0.4529  0.1358  1.9144
 3509SOL     OW22159   0.514   0.423  10.910 -0.3695  0.1783 -0.9979
 3509SOL    HW122160   0.562   0.345  10.884 -1.8069  0.1529 -3.5602
 3509SOL    HW222161   0.425   0.396  10.891 -0.6600  0.3846  0.0810
 3510SOL     OW22162   2.906   3.578   1.677  0.0238 -0.2544  0.2238
 3510SOL    HW122163   2.925   3.639   1.604  1.6378 -0.2395  0.6572
 3510SOL    HW222164   2.861   3.634   1.740 -1.6924 -0.6431 -0.6622
 3511SOL     OW22165   1.331   3.941   7.171 -0.0484 -0.4745  0.3634
 3511SOL    HW122166   1.333   3.955   7.076  1.6081  0.3155  0.4981
 3511SOL    HW222167   1.340   3.847   7.185 -3.0572 -0.8738 -0.5574
 3512SOL     OW22168   0.792   1.600   1.344 -0.2011 -0.3314 -0.5650
 3512SOL    HW122169   0.746   1.626   1.264 -0.0485 -0.6289 -0.7485
 3512SOL    HW222170   0.718   1.551   1.380  0.2114 -0.7322 -0.2708
 3513SOL     OW22171   0.374   3.717   5.406  0.1379  0.2969 -0.2497
 3513SOL    HW122172   0.427   3.755   5.335  1.2229 -1.0332 -0.1431
 3513SOL    HW222173   0.313   3.785   5.434  0.2391 -0.0514  0.8215
 3514SOL     OW22174   4.299   0.397   6.650 -0.1161  0.1755  0.0037
 3514SOL    HW122175   4.215   0.351   6.648  0.4227 -0.7376 -1.1396
 3514SOL    HW222176   4.278   0.474   6.598 -1.8045 -0.8937 -0.8980
 3515SOL     OW22177   3.243   4.194   3.889 -0.2977 -0.8125 -0.0737
 3515SOL    HW122178   3.235   4.244   3.807 -0.3504 -1.9125 -0.7367
 3515SOL    HW222179   3.318   4.137   3.871  1.2492  0.6051  1.9141
 3516SOL     OW22180   1.310   1.625   5.650 -0.1458  0.5907 -0.5043
 3516SOL    HW122181   1.376   1.567   5.612  0.2698 -0.2052  1.4719
 3516SOL    HW222182   1.331   1.709   5.608  0.2032  0.3002 -0.9088
 3517SOL     OW22183   3.581   2.813   4.032 -0.1123 -0.5411 -0.2734
 3517SOL    HW122184   3.609   2.829   4.123  2.1884  0.9957 -1.2717
 3517SOL    HW222185   3.625   2.729   4.017  1.0293  0.0814 -0.4266
 3518SOL     OW22186   0.360   2.779   6.601 -0.6042  0.2133  0.0065
 3518SOL    HW122187   0.446   2.761   6.639 -0.0891 -2.0444 -2.2430
 3518SOL    HW222188   0.375   2.870   6.578  0.7053 -0.1837 -0.6724
 3519SOL     OW22189   1.495   1.220   2.732 -0.8149  0.3659  0.1098
 3519SOL    HW122190   1.475   1.298   2.680 -2.4038  0.0512  0.2611
 3519SOL    HW222191   1.533   1.156   2.672  1.4607  0.4907  1.4090
 3520SOL     OW22192   1.569   2.138   6.527 -0.2191  0.5040 -0.3151
 3520SOL    HW122193   1.624   2.076   6.576  1.5569  1.4312 -1.1367
 3520SOL    HW222194   1.639   2.153   6.463  0.9410 -0.6335  0.6689
 3521SOL     OW22195   0.106   1.881   8.045  0.0710 -0.4537 -0.3839
 3521SOL    HW122196   0.014   1.904   8.030  0.4449  0.2129 -1.7568
 3521SOL    HW222197   0.104   1.786   8.049  0.6999 -0.5058 -1.2389
 3522SOL     OW22198   4.276   3.135   8.001  0.0071 -0.3252  0.3041
 3522SOL    HW122199   4.366   3.108   7.988 -0.4541 -0.9292 -1.6353
 3522SOL    HW222200   4.261   3.188   7.922 -0.2410 -2.3157 -0.9822
 3523SOL     OW22201   4.357   4.475   3.295  0.5519 -0.0463  0.0849
 3523SOL    HW122202   4.342   4.542   3.362  2.6435  1.1577 -0.6471
 3523SOL    HW222203   4.306   4.514   3.224  1.2913 -0.4681 -0.6759
 3524SOL     OW22204   2.322   2.363   3.864  0.5454  0.0875  0.3984
 3524SOL    HW122205   2.326   2.414   3.945  0.9523  0.4659  0.1427
 3524SOL    HW222206   2.343   2.426   3.795  3.9487 -0.5958  0.8218
 3525SOL     OW22207   1.706   0.334   7.543 -0.2404 -1.1285 -0.5881
 3525SOL    HW122208   1.718   0.372   7.630 -0.9259 -2.9161  0.2904
 3525SOL    HW222209   1.611   0.345   7.535  0.0572  0.3636 -2.0275
 3526SOL     OW22210   3.327   4.298   0.571 -0.5823 -0.3671 -0.4146
 3526SOL    HW122211   3.326   4.370   0.508 -1.2802 -0.7262 -0.8162
 3526SOL    HW222212   3.418   4.281   0.593 -1.1396 -1.2260  1.2982
 3527SOL     OW22213   2.377   4.247  14.853 -0.9802  0.0709  0.2771
 3527SOL    HW122214   2.346   4.335  14.832 -1.3610 -0.2209 -0.4069
 3527SOL    HW222215   2.318   4.212  14.920 -1.0029  0.1312  0.2882
 3528SOL     OW22216   1.327   3.663   9.845 -0.2514 -0.6553 -0.1355
 3528SOL    HW122217   1.351   3.580   9.886 -0.5458 -0.5849  0.1807
 3528SOL    HW222218   1.389   3.724   9.885  0.3698 -1.3888  0.0082
 3529SOL     OW22219   2.943   3.573   9.109 -0.1662 -0.2831 -0.1800
 3529SOL    HW122220   3.032   3.562   9.141 -0.1675 -0.0438 -0.0877
 3529SOL    HW222221   2.897   3.514   9.169  1.2049 -0.2362  0.9143
 3530SOL     OW22222   2.004   3.662   4.618 -0.1531 -0.1824  0.1009
 3530SOL    HW122223   2.044   3.743   4.650 -2.2644  0.9892 -0.1582
 3530SOL    HW222224   2.013   3.668   4.523 -1.0058  1.6886  0.1220
 3531SOL     OW22225   2.485   0.161   3.832  0.1816 -0.2348 -0.3143
 3531SOL    HW122226   2.432   0.208   3.767  1.3941  1.9723  0.2724
 3531SOL    HW222227   2.562   0.130   3.784 -0.9256 -2.3762 -0.6789
 3532SOL     OW22228   0.348   3.313  15.332 -0.2222  0.0537  0.1214
 3532SOL    HW122229   0.264   3.298  15.374 -0.4178  0.5489 -0.0974
 3532SOL    HW222230   0.414   3.305  15.401 -0.9350 -1.6666  0.5832
 3533SOL     OW22231   0.638   2.483   3.896 -0.0540  0.2271  0.6038
 3533SOL    HW122232   0.645   2.577   3.883  1.1308  0.1234  0.5399
 3533SOL    HW222233   0.606   2.477   3.986 -3.0162 -0.0346 -0.4643
 3534SOL     OW22234   1.679   0.558  12.512 -0.3068 -0.7261  0.6952
 3534SOL    HW122235   1.657   0.468  12.535 -0.3339 -1.1949 -1.1372
 3534SOL    HW222236   1.774   0.564  12.524 -0.3102  2.2005 -0.7198
 3535SOL     OW22237   1.099   4.531  12.290  0.6267  0.2767  1.0592
 3535SOL    HW122238   1.075   4.579  12.211  0.7499  0.0952  0.9125
 3535SOL    HW222239   1.028   4.562  12.346  0.1114 -0.6764  0.9264
 3536SOL     OW22240   0.982   3.559   9.056  0.1018 -0.0473 -0.4813
 3536SOL    HW122241   0.912   3.610   9.097 -2.3944 -4.1807  0.3268
 3536SOL    HW222242   1.050   3.626   9.070  0.8831 -0.8975 -0.1942
 3537SOL     OW22243   0.424   3.177   2.786  0.6160 -0.3884  0.3082
 3537SOL    HW122244   0.346   3.146   2.739 -1.9794  1.8730  3.0819
 3537SOL    HW222245   0.482   3.106   2.760 -1.5747 -1.9963 -0.1833
 3538SOL     OW22246   2.468   2.796  13.939 -0.4471 -0.1111 -0.3287
 3538SOL    HW122247   2.430   2.859  14.000  1.5075 -1.8525  2.6586
 3538SOL    HW222248   2.398   2.731  13.941 -0.0182 -0.6968 -3.6395
 3539SOL     OW22249   3.864   2.071   8.318 -0.0704  0.4909  0.3871
 3539SOL    HW122250   3.846   2.073   8.224  0.9929 -1.3642  0.1425
 3539SOL    HW222251   3.869   1.977   8.332  1.0094  0.5407  0.3543
 3540SOL     OW22252   0.683   3.794   2.317  0.3308  0.2265 -0.3689
 3540SOL    HW122253   0.741   3.819   2.245  1.8968 -1.9434  0.1549
 3540SOL    HW222254   0.729   3.824   2.396  0.5856 -2.1801  0.3904
 3541SOL     OW22255   0.243   0.278  14.965 -0.0502 -0.7543  0.2930
 3541SOL    HW122256   0.199   0.324  15.036 -1.2188 -0.0523 -0.8750
 3541SOL    HW222257   0.216   0.188  14.984  1.4189 -1.8621 -2.9706
 3542SOL     OW22258   1.002   4.024  10.461 -0.5143 -0.0829 -0.1774
 3542SOL    HW122259   0.914   3.997  10.485 -0.3046  0.7476  1.4781
 3542SOL    HW222260   0.993   4.059  10.372  0.9643 -1.9538 -1.0695
 3543SOL     OW22261   1.989   2.712   3.303  0.5013 -0.5984 -0.0260
 3543SOL    HW122262   1.905   2.666   3.304 -0.5712  1.3391  0.2317
 3543SOL    HW222263   2.030   2.695   3.387 -3.9754 -0.0057  2.2990
 3544SOL     OW22264   3.556   2.034   2.672  0.1103  0.0854 -0.4043
 3544SOL    HW122265   3.511   2.114   2.699  0.6216  0.6079 -1.0934
 3544SOL    HW222266   3.511   1.964   2.720  0.8820 -0.2569 -0.1887
 3545SOL     OW22267   3.039   3.300  13.480  0.2241 -0.4265  0.2293
 3545SOL    HW122268   3.017   3.300  13.387  0.5660 -0.4721  0.1512
 3545SOL    HW222269   3.133   3.313  13.486  0.1079  0.0228  1.1018
 3546SOL     OW22270   3.988   3.945   0.954  0.4774 -0.3050  0.3891
 3546SOL    HW122271   3.908   3.893   0.952  0.5242 -0.3107 -1.3045
 3546SOL    HW222272   3.962   4.036   0.939  0.1212 -0.5473 -0.4605
 3547SOL     OW22273   1.282   1.145  12.332 -0.8299 -0.2936 -0.6095
 3547SOL    HW122274   1.295   1.180  12.420 -1.6276 -1.3091 -0.0791
 3547SOL    HW222275   1.307   1.054  12.346 -0.3148 -0.1325 -0.4759
 3548SOL     OW22276   4.220   0.768   2.276  0.1312 -0.7262 -0.5474
 3548SOL    HW122277   4.267   0.805   2.201  0.9281 -0.8675 -0.1170
 3548SOL    HW222278   4.234   0.832   2.347 -2.4490  0.3791 -1.0381
 3549SOL     OW22279   0.964   3.625  10.553  0.1294  0.2673 -0.2403
 3549SOL    HW122280   0.933   3.548  10.600  0.6580 -0.2628 -0.7657
 3549SOL    HW222281   0.926   3.612  10.466  0.8175 -2.3825 -0.1518
 3550SOL     OW22282   3.741   1.944   1.334 -0.1311  0.9535 -0.0654
 3550SOL    HW122283   3.701   2.029   1.318 -0.8172  0.3831 -1.4196
 3550SOL    HW222284   3.746   1.905   1.246 -0.4792 -0.1941  0.4295
 3551SOL     OW22285   2.212   4.434   4.479 -0.0846  0.1411  0.2993
 3551SOL    HW122286   2.137   4.400   4.430  0.4369  1.5334 -1.4478
 3551SOL    HW222287   2.175   4.420   4.566  0.7754  1.0723  0.8156
 3552SOL     OW22288   2.779   0.262   1.136 -0.0947 -0.3687 -0.5190
 3552SOL    HW122289   2.742   0.341   1.098 -0.6544 -0.7529 -0.7768
 3552SOL    HW222290   2.708   0.217   1.181  1.1129  2.2975  4.0381
 3553SOL     OW22291   3.388   2.684  10.513 -0.7640  0.2748  0.0266
 3553SOL    HW122292   3.472   2.645  10.539 -0.7789 -0.2594 -0.7078
 3553SOL    HW222293   3.385   2.769  10.557 -2.1288  2.2005 -3.7553
 3554SOL     OW22294   3.717   1.399   0.760 -0.0697  0.4857 -0.2305
 3554SOL    HW122295   3.709   1.329   0.824 -1.2171  1.1018  0.2993
 3554SOL    HW222296   3.800   1.439   0.787  2.0558 -1.9092 -3.2558
 3555SOL     OW22297   0.367   1.771   5.610  0.2209 -0.2044  0.3237
 3555SOL    HW122298   0.336   1.836   5.672  0.7724  0.0632  0.3219
 3555SOL    HW222299   0.380   1.700   5.673  0.0719  1.5967  2.3662
 3556SOL     OW22300   0.525   2.267   1.804 -0.2650 -0.1623  0.0321
 3556SOL    HW122301   0.548   2.326   1.876 -0.6425 -1.5037  1.2436
 3556SOL    HW222302   0.430   2.268   1.794 -0.2993 -2.9969  0.1335
 3557SOL     OW22303   4.271   1.435  15.762  0.3843 -0.2124 -0.0048
 3557SOL    HW122304   4.253   1.511  15.817 -2.4376 -0.2124 -0.9258
 3557SOL    HW222305   4.273   1.471  15.673 -2.1391 -1.3749 -0.5355
 3558SOL     OW22306   0.112   1.066  14.885 -0.2974 -0.0620 -0.3894
 3558SOL    HW122307   0.044   1.077  14.818 -0.0854  0.0203 -0.5921
 3558SOL    HW222308   0.084   1.133  14.948 -2.7673 -0.4513 -1.0669
 3559SOL     OW22309   1.522   1.894  13.754  0.4548 -0.5461  0.2191
 3559SOL    HW122310   1.429   1.870  13.751  0.6203 -1.1512 -0.0471
 3559SOL    HW222311   1.515   1.973  13.700  3.5019 -0.3339  0.1808
 3560SOL     OW22312   0.226   4.581   1.209  0.4875 -0.5411  0.0422
 3560SOL    HW122313   0.170   4.607   1.136 -0.4807 -1.5524  0.4223
 3560SOL    HW222314   0.271   4.506   1.171 -0.5276 -0.8508 -0.5673
 3561SOL     OW22315   1.970   0.158   6.442  0.1165 -0.1626 -0.0832
 3561SOL    HW122316   2.014   0.147   6.358  1.0959  0.5213  0.3452
 3561SOL    HW222317   1.904   0.222   6.415  1.0472  0.4997 -0.7860
 3562SOL     OW22318   1.087   1.510   7.399  0.2188  0.2841 -0.7607
 3562SOL    HW122319   1.017   1.567   7.369  1.0160  2.3795  1.4491
 3562SOL    HW222320   1.031   1.464   7.461 -1.6749  1.5879 -1.5154
 3563SOL     OW22321   3.705   1.023   4.427  0.2399  0.0858 -0.3280
 3563SOL    HW122322   3.794   1.049   4.400  0.3740  1.7853  1.7662
 3563SOL    HW222323   3.676   1.102   4.472 -0.1881 -0.3525  0.1664
 3564SOL     OW22324   0.420   3.190   1.458  0.2190  0.3120  0.0412
 3564SOL    HW122325   0.496   3.170   1.514 -1.0401 -1.6017  1.0696
 3564SOL    HW222326   0.385   3.101   1.449  1.0641 -0.0111 -0.0808
 3565SOL     OW22327   2.856   0.802   5.697 -0.2996 -0.7294 -0.0170
 3565SOL    HW122328   2.875   0.847   5.614  0.1494 -0.2127  0.3687
 3565SOL    HW222329   2.848   0.867   5.766 -0.9685 -0.4939 -0.3188
 3566SOL     OW22330   1.154   3.325   5.145 -0.4045 -0.0543  0.6851
 3566SOL    HW122331   1.249   3.336   5.154 -0.3784  0.7200 -0.4998
 3566SOL    HW222332   1.132   3.395   5.083  1.6000 -1.5785 -1.7249
 3567SOL     OW22333   2.180   2.303   8.480  0.3292  0.3398 -0.4260
 3567SOL    HW122334   2.147   2.214   8.492 -2.5283  1.1482 -2.2368
 3567SOL    HW222335   2.100   2.352   8.501  0.9900  1.0050  0.5232
 3568SOL     OW22336   3.595   4.394   3.344  0.7283 -0.0481 -0.0379
 3568SOL    HW122337   3.678   4.437   3.369 -0.0292  0.9727  0.7202
 3568SOL    HW222338   3.547   4.441   3.412 -2.5795 -2.1428 -0.9756
 3569SOL     OW22339   0.344   4.451   4.069  0.1324  0.1609 -0.0828
 3569SOL    HW122340   0.256   4.462   4.033 -1.0706  1.4228  3.2200
 3569SOL    HW222341   0.400   4.394   4.016  1.7230  1.4296  0.2278
 3570SOL     OW22342   1.121   3.123   6.767  0.6859  0.7559  0.9972
 3570SOL    HW122343   1.088   3.213   6.768  0.0668  0.5174  2.9627
 3570SOL    HW222344   1.094   3.115   6.676  3.3180  1.9276  0.1303
 3571SOL     OW22345   2.674   1.784   9.226 -0.4222 -0.0685  0.7485
 3571SOL    HW122346   2.606   1.837   9.185 -1.1815 -0.3823  1.6226
 3571SOL    HW222347   2.740   1.853   9.230 -1.2354  0.6303  2.0213
 3572SOL     OW22348   1.344   2.407   4.311 -0.1673 -0.2223  0.2690
 3572SOL    HW122349   1.390   2.345   4.368  1.2213 -1.2523 -1.9765
 3572SOL    HW222350   1.270   2.354   4.283 -0.1503 -0.5583  0.8750
 3573SOL     OW22351   2.621   4.534   5.543  0.3287  0.5707  0.1762
 3573SOL    HW122352   2.526   4.549   5.545  0.1290 -0.6750 -0.0332
 3573SOL    HW222353   2.625   4.441   5.521 -2.7292  0.1293  1.4274
 3574SOL     OW22354   1.241   0.770   3.824 -0.0846 -0.0885  0.0107
 3574SOL    HW122355   1.208   0.771   3.734 -0.2637 -0.7958  0.0643
 3574SOL    HW222356   1.265   0.862   3.829  1.5573 -0.4966 -0.4430
 3575SOL     OW22357   0.618   0.311   2.855 -0.4807 -0.0125  0.4565
 3575SOL    HW122358   0.659   0.354   2.780 -1.3722  1.4876  0.8188
 3575SOL    HW222359   0.681   0.336   2.922  0.6525  0.6284 -0.8600
 3576SOL     OW22360   0.292   0.430  13.009  0.3801  0.3830  0.1031
 3576SOL    HW122361   0.383   0.457  12.996  1.3632 -0.7147  4.6466
 3576SOL    HW222362   0.250   0.447  12.925  1.0090  1.3291 -0.0191
 3577SOL     OW22363   3.403   4.496   3.690  0.4844  0.0442 -0.0449
 3577SOL    HW122364   3.341   4.569   3.687 -1.6342 -1.7670 -0.2338
 3577SOL    HW222365   3.476   4.526   3.636  0.5830  0.5741  0.3811
 3578SOL     OW22366   2.180   3.425   5.674 -0.1405  0.3914 -0.4091
 3578SOL    HW122367   2.156   3.335   5.694 -0.4612  0.3435 -1.0099
 3578SOL    HW222368   2.275   3.424   5.683 -0.4079  0.2076  2.6684
 3579SOL     OW22369   1.704   2.185   0.893  0.0949 -0.0550 -0.5337
 3579SOL    HW122370   1.730   2.267   0.935 -1.3842  0.3678 -0.4388
 3579SOL    HW222371   1.751   2.183   0.810 -0.2624 -0.0609 -0.7362
 3580SOL     OW22372   2.674   2.231   2.335 -0.2769 -0.2090  0.4502
 3580SOL    HW122373   2.631   2.148   2.356 -0.9524  0.5791  2.2268
 3580SOL    HW222374   2.749   2.222   2.394  1.0121  1.6940 -0.8804
 3581SOL     OW22375   1.001   3.998   3.476 -0.0740 -0.6758  0.2442
 3581SOL    HW122376   1.032   4.018   3.564  0.2862 -1.6423  0.3409
 3581SOL    HW222377   1.065   3.931   3.453 -0.3262 -0.4603 -1.0897
 3582SOL     OW22378   4.640   1.710  15.377  0.3569 -0.5168  0.2399
 3582SOL    HW122379   4.581   1.747  15.310 -1.8163 -2.5667  1.0268
 3582SOL    HW222380   4.582   1.645  15.417 -0.1059 -1.4583 -1.9509
 3583SOL     OW22381   4.194   2.190   9.600  0.6846  0.0960  0.4954
 3583SOL    HW122382   4.150   2.115   9.560  2.0995  1.7032 -4.0522
 3583SOL    HW222383   4.180   2.167   9.692  0.4957  0.0305  0.4514
 3584SOL     OW22384   2.232   2.095   1.107  0.2673  0.1877 -0.6482
 3584SOL    HW122385   2.204   2.025   1.049  1.1523  0.3899 -1.3199
 3584SOL    HW222386   2.154   2.119   1.157 -0.1752 -3.5512  0.4262
 3585SOL     OW22387   1.534   1.782   5.308 -0.6914  0.2703  0.3351
 3585SOL    HW122388   1.517   1.693   5.277 -3.0928  1.3191 -1.3812
 3585SOL    HW222389   1.468   1.788   5.378  0.4625  1.7195  1.2850
 3586SOL     OW22390   2.052   3.291   6.905 -0.2323 -1.0688  0.1537
 3586SOL    HW122391   2.090   3.307   6.819  0.4065 -1.7249  0.3189
 3586SOL    HW222392   1.959   3.298   6.882  0.2861  2.4032 -0.8749
 3587SOL     OW22393   3.496   2.902  15.970 -0.0342 -0.6246 -0.5505
 3587SOL    HW122394   3.443   2.864  15.901  1.0295 -0.7008 -1.3195
 3587SOL    HW222395   3.528   2.976  15.918  1.0534 -0.6638  0.0482
 3588SOL     OW22396   2.994   1.641   4.691 -1.0351  0.5513  0.0299
 3588SOL    HW122397   2.923   1.692   4.729 -0.9014  1.8271 -1.4570
 3588SOL    HW222398   2.979   1.555   4.732 -0.0312 -0.0925 -0.9467
 3589SOL     OW22399   2.839   3.978   8.803 -0.0063 -0.5338  0.2678
 3589SOL    HW122400   2.783   3.901   8.811 -2.2821  1.1713  0.3870
 3589SOL    HW222401   2.910   3.942   8.749  1.3029  0.1388  1.5392
 3590SOL     OW22402   4.057   1.771   2.770  0.2495 -0.1608  0.3885
 3590SOL    HW122403   4.106   1.787   2.689  1.7479 -2.4781  0.8530
 3590SOL    HW222404   4.103   1.822   2.837  2.2508 -2.1115  0.4914
 3591SOL     OW22405   4.489   4.390   2.053  0.6729  0.2838 -0.0860
 3591SOL    HW122406   4.542   4.321   2.012 -0.8938  0.7473 -2.8871
 3591SOL    HW222407   4.506   4.460   1.990  0.1415  2.2238  1.9312
 3592SOL     OW22408   3.051   1.507   7.765 -0.0163  0.0370 -0.7744
 3592SOL    HW122409   3.011   1.424   7.741  0.5986  0.0342 -1.7844
 3592SOL    HW222410   3.033   1.507   7.859 -2.6930 -0.8401 -1.2876
 3593SOL     OW22411   2.584   1.553   9.695 -0.6439 -0.4650 -0.3062
 3593SOL    HW122412   2.642   1.629   9.695 -1.1908 -0.0447  0.3508
 3593SOL    HW222413   2.602   1.510   9.778  0.2761 -1.0177 -0.8049
 3594SOL     OW22414   0.422   1.646   1.412  0.1601 -0.0755  0.1702
 3594SOL    HW122415   0.350   1.701   1.379  0.9587  0.2033 -1.1004
 3594SOL    HW222416   0.488   1.705   1.448  0.2281 -0.0343 -0.0224
 3595SOL     OW22417   0.216   0.343   1.930  0.2297 -0.6164 -0.0673
 3595SOL    HW122418   0.126   0.373   1.916  0.3994  0.2720  0.7530
 3595SOL    HW222419   0.193   0.251   1.918  0.5480 -0.7878  0.6716
 3596SOL     OW22420   1.648   0.983   2.310 -0.5356  0.2501 -0.6758
 3596SOL    HW122421   1.693   1.025   2.383 -1.1956 -0.6409  0.2466
 3596SOL    HW222422   1.654   1.043   2.236 -0.5852 -1.7133 -2.2853
 3597SOL     OW22423   2.563   0.110  16.691  0.4433  0.9189  0.3316
 3597SOL    HW122424   2.645   0.101  16.642  1.6474  0.5179  2.3990
 3597SOL    HW222425   2.513   0.175  16.642 -3.2353 -2.6590 -0.6298
 3598SOL     OW22426   1.584   1.388   6.263 -0.2088  0.0574  0.2055
 3598SOL    HW122427   1.518   1.443   6.221 -1.4558 -1.5152  0.1100
 3598SOL    HW222428   1.630   1.449   6.321 -1.3662 -0.3231  1.5267
 3599SOL     OW22429   2.192   0.308   7.881 -0.1213 -0.0512 -0.5882
 3599SOL    HW122430   2.139   0.274   7.953 -1.0800  1.8552 -0.3845
 3599SOL    HW222431   2.134   0.294   7.806 -1.1010  0.5245  0.0631
 3600SOL     OW22432   4.361   2.277   8.915  0.2776  0.3644  0.2281
 3600SOL    HW122433   4.280   2.228   8.901  1.8968 -2.6465  1.4307
 3600SOL    HW222434   4.375   2.238   9.001  0.8848 -0.3892 -0.2179
 3601SOL     OW22435   3.275   1.148   3.473 -0.1191 -0.3040 -0.3257
 3601SOL    HW122436   3.221   1.101   3.536 -0.2143 -2.5124 -2.0514
 3601SOL    HW222437   3.218   1.224   3.467  1.0160  0.7003  1.6929
 3602SOL     OW22438   3.575   4.596  12.485 -0.1719  0.4494  0.4514
 3602SOL    HW122439   3.666   4.608  12.458 -0.5738 -0.2352 -1.1828
 3602SOL    HW222440   3.574   4.501  12.496 -0.8595  0.5421  1.1812
 3603SOL     OW22441   3.694   0.809   3.467  0.2083  0.3402 -0.3316
 3603SOL    HW122442   3.738   0.893   3.455  1.4788  0.2054  3.4067
 3603SOL    HW222443   3.748   0.746   3.419  0.8399  0.1197  0.6693
 3604SOL     OW22444   4.320   2.335   0.380 -0.0698  0.0101 -0.4674
 3604SOL    HW122445   4.267   2.389   0.438  2.1678 -0.6153  2.2001
 3604SOL    HW222446   4.384   2.387   0.331 -1.9211  2.6874  0.0004
 3605SOL     OW22447   2.864   1.769   1.045 -0.8100 -0.2860 -0.4582
 3605SOL    HW122448   2.951   1.775   1.005 -0.1244 -0.6717  0.9867
 3605SOL    HW222449   2.836   1.861   1.039 -2.2544 -0.6591  0.8306
 3606SOL     OW22450   3.084   3.994   4.808  0.2230 -0.3112  0.3303
 3606SOL    HW122451   3.070   3.934   4.735 -0.2155  1.3423 -0.9570
 3606SOL    HW222452   2.999   4.038   4.817  0.1496 -0.7965  2.0050
 3607SOL     OW22453   0.167   2.676   8.764 -0.0684  0.2356 -0.2269
 3607SOL    HW122454   0.223   2.747   8.796 -1.8542  0.6002  2.0867
 3607SOL    HW222455   0.188   2.677   8.671 -0.9819 -0.1298 -0.4363
 3608SOL     OW22456   2.235   1.276   1.966  0.7055 -0.2564 -0.4336
 3608SOL    HW122457   2.243   1.184   1.939 -0.3958  0.7522 -4.1682
 3608SOL    HW222458   2.328   1.297   1.978  0.3814  1.1054 -0.3340
 3609SOL     OW22459   2.990   3.472   5.579 -0.3333  0.0926  0.6627
 3609SOL    HW122460   2.946   3.391   5.556 -0.0055  0.0110  0.3199
 3609SOL    HW222461   3.046   3.450   5.653  1.9142 -0.3997 -1.1985
 3610SOL     OW22462   2.421   2.628   3.189  0.4247  0.2738  0.9790
 3610SOL    HW122463   2.460   2.540   3.182  0.3956  0.3251  0.1950
 3610SOL    HW222464   2.331   2.601   3.202 -0.3095  3.0375  1.5834
 3611SOL     OW22465   0.090   3.282   5.625 -0.1786 -0.2406 -0.2119
 3611SOL    HW122466   0.117   3.353   5.683 -0.2309  0.4134 -0.9981
 3611SOL    HW222467   0.095   3.201   5.676  0.6118  1.3146  2.1802
 3612SOL     OW22468   2.999   0.578  15.760 -0.3791  0.0086  0.5160
 3612SOL    HW122469   3.025   0.485  15.755 -1.4169 -0.3142  1.3239
 3612SOL    HW222470   2.906   0.566  15.774 -0.4242 -0.2113  0.0470
 3613SOL     OW22471   3.680   1.793  15.727 -0.4392  0.2956 -0.0471
 3613SOL    HW122472   3.601   1.834  15.763 -0.3064  0.7489 -0.2685
 3613SOL    HW222473   3.693   1.838  15.643 -2.3201  0.4133 -0.2859
 3614SOL     OW22474   1.979   3.583   8.074  0.6147  0.3531 -0.0605
 3614SOL    HW122475   2.066   3.545   8.061  0.6716  0.0614  1.1596
 3614SOL    HW222476   1.981   3.606   8.167 -0.8359  0.3941 -0.0421
 3615SOL     OW22477   3.212   1.636  15.993 -0.0190  0.5210  0.0210
 3615SOL    HW122478   3.127   1.676  16.008 -0.9145 -2.1158  1.9351
 3615SOL    HW222479   3.196   1.547  16.025 -1.2989  0.1398 -1.6897
 3616SOL     OW22480   2.876   1.130   9.756 -0.0516  0.1564 -0.1376
 3616SOL    HW122481   2.876   1.174   9.841 -0.9558  0.8073 -0.4874
 3616SOL    HW222482   2.825   1.052   9.776  0.1779  0.3492  1.1893
 3617SOL     OW22483   2.370   0.172   4.979  0.6025  0.5786  0.1665
 3617SOL    HW122484   2.302   0.158   5.045  3.1662 -3.3331  2.0131
 3617SOL    HW222485   2.448   0.150   5.029  0.0590  0.7512  1.0857
 3618SOL     OW22486   3.992   1.275  11.037 -0.2814 -0.5049 -0.2987
 3618SOL    HW122487   3.997   1.326  10.956 -0.3616 -1.0225 -0.6260
 3618SOL    HW222488   3.936   1.202  11.011  0.4071 -1.3954  0.7232
 3619SOL     OW22489   0.999   3.806  10.141 -0.2486 -0.0022  0.0794
 3619SOL    HW122490   0.932   3.756  10.188 -1.8090  1.5508 -0.5098
 3619SOL    HW222491   0.992   3.889  10.186  0.2654  0.1121 -0.0534
 3620SOL     OW22492   1.829   4.125   5.499 -0.3192  0.4484  0.0790
 3620SOL    HW122493   1.821   4.048   5.443 -1.4020 -1.0399  2.2793
 3620SOL    HW222494   1.923   4.143   5.499 -0.2378  0.0034 -3.0731
 3621SOL     OW22495   4.228   4.647   3.083  0.0712  0.1991 -0.7381
 3621SOL    HW122496   4.183   4.732   3.083  0.8517  0.6149 -0.5255
 3621SOL    HW222497   4.286   4.672   3.011  1.0374 -1.3890 -0.5020
 3622SOL     OW22498   1.796   4.441   3.093  0.7104 -0.7840  0.1578
 3622SOL    HW122499   1.777   4.454   3.185 -2.5823 -0.2896 -0.6163
 3622SOL    HW222500   1.704   4.433   3.069  0.2444  2.3785  0.9031
 3623SOL     OW22501   4.046   1.227   3.526  0.3554 -0.4197  0.0539
 3623SOL    HW122502   4.101   1.297   3.491  1.2671 -1.7604 -1.2128
 3623SOL    HW222503   4.005   1.259   3.607  0.7500 -0.4880  0.2806
 3624SOL     OW22504   4.397   2.712  12.043 -0.4576 -0.3181 -0.1570
 3624SOL    HW122505   4.392   2.620  12.015  0.0485 -0.3376 -0.1711
 3624SOL    HW222506   4.343   2.760  11.980  1.1740  0.5963 -0.8638
 3625SOL     OW22507   3.268   1.625   2.758  0.4161 -0.4607  0.2313
 3625SOL    HW122508   3.186   1.576   2.760 -0.3288  0.8530  1.1378
 3625SOL    HW222509   3.310   1.594   2.839 -0.8191  0.1993  1.1215
 3626SOL     OW22510   3.048   0.154   1.515 -0.2323 -0.1402 -0.6057
 3626SOL    HW122511   2.955   0.147   1.495 -0.2352  0.2536 -0.7231
 3626SOL    HW222512   3.071   0.239   1.479  0.7563 -0.4181 -0.6398
 3627SOL     OW22513   3.618   2.506  11.446 -0.1533 -0.4556  0.5000
 3627SOL    HW122514   3.689   2.563  11.477  0.4061 -1.2467  0.6671
 3627SOL    HW222515   3.648   2.482  11.359 -3.4304 -0.4442 -0.6207
 3628SOL     OW22516   0.354   3.149   3.065 -0.1956 -0.1403  0.2310
 3628SOL    HW122517   0.297   3.146   2.988  1.0522 -2.2093 -0.6232
 3628SOL    HW222518   0.304   3.094   3.126  1.1725 -0.7859  0.7554
 3629SOL     OW22519   2.078   0.450   8.756  0.3332 -0.0539 -0.1681
 3629SOL    HW122520   2.141   0.452   8.684  1.1626 -2.3152  0.5172
 3629SOL    HW222521   2.068   0.357   8.777 -1.3924  0.2192  0.1798
 3630SOL     OW22522   0.563   4.118   0.437  0.0803  0.7360  0.0518
 3630SOL    HW122523   0.630   4.127   0.504 -0.8001  0.5036  0.9701
 3630SOL    HW222524   0.511   4.196   0.454 -1.8720 -0.1485 -1.8120
 3631SOL     OW22525   0.638   2.229   3.770  0.0337 -0.3359  0.2455
 3631SOL    HW122526   0.544   2.209   3.773  0.3881 -2.2601 -1.7897
 3631SOL    HW222527   0.642   2.315   3.812 -1.7633  0.4242 -1.1386
 3632SOL     OW22528   1.325   1.962   8.466  0.6665  0.2647 -0.5806
 3632SOL    HW122529   1.393   1.896   8.474  0.7286  0.3085 -0.7711
 3632SOL    HW222530   1.361   2.019   8.535  1.1277 -0.7123 -0.0169
 3633SOL     OW22531   1.360   1.273   3.514  0.0978  0.7036  0.3475
 3633SOL    HW122532   1.363   1.182   3.486 -2.8288  0.2954  1.3523
 3633SOL    HW222533   1.307   1.318   3.448 -1.1006  1.5735  1.9008
 3634SOL     OW22534   1.550   0.002   2.281 -0.0801 -0.6819 -0.0566
 3634SOL    HW122535   1.524   0.034   2.194 -0.7619 -0.1257  0.3447
 3634SOL    HW222536   1.481   0.048   2.329  1.0743  0.8062  0.1983
 3635SOL     OW22537   1.534   4.727   3.724  0.2638  0.0528  0.7816
 3635SOL    HW122538   1.457   0.046   3.718 -0.9325 -1.4775  1.4122
 3635SOL    HW222539   1.609   0.041   3.696 -0.1471  0.5354  0.5773
 3636SOL     OW22540   4.158   1.200  11.295  0.2529 -0.1941 -0.4246
 3636SOL    HW122541   4.075   1.219  11.251  0.3566  0.6662 -0.2454
 3636SOL    HW222542   4.189   1.128  11.241 -0.7999 -1.2401  0.3556
 3637SOL     OW22543   0.937   3.238  13.469 -0.3070  0.2876  0.3958
 3637SOL    HW122544   0.873   3.169  13.486 -1.3713  0.6845 -1.9145
 3637SOL    HW222545   0.890   3.312  13.431 -0.4552  0.2156  0.4414
 3638SOL     OW22546   0.311   3.039   6.176  0.3041 -0.5408  0.7196
 3638SOL    HW122547   0.243   3.004   6.234 -0.9330  1.8667  0.7301
 3638SOL    HW222548   0.365   2.963   6.158  1.6195  1.0445 -2.0655
 3639SOL     OW22549   3.013   0.407   3.371  0.0488 -0.2581  0.3353
 3639SOL    HW122550   2.933   0.406   3.422  0.8574 -3.7616  1.4910
 3639SOL    HW222551   3.058   0.328   3.402 -2.4255 -1.0207  1.9387
 3640SOL     OW22552   2.546   0.084   7.301  0.1686 -0.0096  0.1144
 3640SOL    HW122553   2.456   0.057   7.283  0.4688 -0.3344 -0.9089
 3640SOL    HW222554   2.527   0.098   7.393 -1.3025  1.5283 -0.4286
 3641SOL     OW22555   1.863   3.521   6.635  0.3410 -0.2057  0.0512
 3641SOL    HW122556   1.858   3.442   6.580  0.1998 -0.4250  0.3793
 3641SOL    HW222557   1.941   3.570   6.610 -0.7009  1.5313  0.2124
 3642SOL     OW22558   2.499   3.225   6.831  0.1969  0.2458  0.1931
 3642SOL    HW122559   2.476   3.134   6.815  1.7610 -0.1941  0.4799
 3642SOL    HW222560   2.461   3.271   6.756 -3.3753 -0.5620  1.5013
 3643SOL     OW22561   0.473   3.964  15.518  0.7100  0.0017  0.3353
 3643SOL    HW122562   0.463   4.036  15.581  2.5623  1.8986 -1.5473
 3643SOL    HW222563   0.564   3.933  15.527  0.9003 -0.3232 -2.7033
 3644SOL     OW22564   4.317   4.615  10.988  0.0981 -0.1331  0.0301
 3644SOL    HW122565   4.377   4.551  10.950 -0.2349 -0.1709 -0.4232
 3644SOL    HW222566   4.298   4.661  10.907  2.3050  3.0700  1.3048
 3645SOL     OW22567   4.730   4.735  17.477  0.0947  0.2709 -0.0362
 3645SOL    HW122568   0.032   0.083  17.496  0.7475  0.1983 -1.0832
 3645SOL    HW222569   4.638   0.008  17.501  0.5034  0.4835  1.4298
 3646SOL     OW22570   4.409   0.026   8.778  0.1696  0.4430 -0.4822
 3646SOL    HW122571   4.406   4.684   8.726  2.2540  2.3458 -3.5151
 3646SOL    HW222572   4.333   0.073   8.746 -0.8806 -0.2830  0.9604
 3647SOL     OW22573   1.865   4.395   4.501 -0.3403 -0.1572  0.6646
 3647SOL    HW122574   1.772   4.376   4.487 -0.5327  0.0322  1.7071
 3647SOL    HW222575   1.876   4.336   4.575  0.4966 -1.1342 -0.2345
 3648SOL     OW22576   3.099   1.484   7.469 -0.3615 -0.6075 -0.2606
 3648SOL    HW122577   3.018   1.490   7.519 -1.1393 -0.8809 -1.4814
 3648SOL    HW222578   3.108   1.393   7.440  0.4303 -0.5166 -0.3126
 3649SOL     OW22579   0.222   0.511   3.346  0.0920 -0.1942 -0.9039
 3649SOL    HW122580   0.264   0.472   3.423 -2.8893  0.8930  1.2436
 3649SOL    HW222581   0.135   0.471   3.342  0.3131 -0.9552  2.1383
 3650SOL     OW22582   1.234   1.119   8.713 -0.0314  0.4688  0.5692
 3650SOL    HW122583   1.202   1.138   8.625 -0.2588  2.4795  1.0889
 3650SOL    HW222584   1.328   1.106   8.706  0.0389  0.9086  0.7105
 3651SOL     OW22585   1.508   1.473   5.524 -0.5057  0.1793 -0.4054
 3651SOL    HW122586   1.593   1.517   5.530  0.4367 -1.8291  1.0077
 3651SOL    HW222587   1.519   1.397   5.581 -5.7864 -0.1170  0.1921
 3652SOL     OW22588   2.759   3.013  13.093 -0.0427  0.2138  0.4525
 3652SOL    HW122589   2.833   3.001  13.151  1.5552 -0.7967 -1.7749
 3652SOL    HW222590   2.691   2.989  13.157  0.6728  1.5216  1.6817
 3653SOL     OW22591   2.579   2.717  14.504  0.2709  0.0127 -0.1080
 3653SOL    HW122592   2.492   2.754  14.517 -0.2307 -0.9512 -0.7180
 3653SOL    HW222593   2.577   2.631  14.463  0.4090  0.2491 -0.6058
 3654SOL     OW22594   0.800   1.664   5.707  0.1581  0.4728  0.1690
 3654SOL    HW122595   0.791   1.570   5.726  0.2538  0.7252  1.4086
 3654SOL    HW222596   0.847   1.658   5.623 -0.1042 -1.5584  0.1611
 3655SOL     OW22597   4.681   2.821   2.027  0.5505 -0.1726  0.3701
 3655SOL    HW122598   4.603   2.835   1.974  1.7707  1.7759 -0.9223
 3655SOL    HW222599   4.727   2.761   1.969  2.0578  1.0618  0.2652
 3656SOL     OW22600   4.019   3.530  12.984  0.0270  0.8386 -0.0941
 3656SOL    HW122601   4.001   3.482  13.065  0.2164 -0.3975 -0.7772
 3656SOL    HW222602   4.081   3.597  13.011  0.9611 -0.3316  0.7062
 3657SOL     OW22603   0.452   0.898  15.518 -0.0599 -0.1816  0.1089
 3657SOL    HW122604   0.381   0.836  15.501  1.8985 -2.3938 -0.0453
 3657SOL    HW222605   0.430   0.937  15.602 -0.2276  1.4880 -0.7263
 3658SOL     OW22606   0.554   4.081  13.240  0.2672 -0.5685  0.2096
 3658SOL    HW122607   0.580   4.158  13.291  1.2060  0.1846 -1.3728
 3658SOL    HW222608   0.462   4.096  13.218  0.4277 -0.3251 -0.3057
 3659SOL     OW22609   2.170   3.043   6.918  0.6095  0.1742  0.2536
 3659SOL    HW122610   2.187   3.006   7.005 -0.1965 -1.7650 -0.3955
 3659SOL    HW222611   2.165   3.137   6.930 -1.1519  0.1560 -0.4332
 3660SOL     OW22612   4.451   1.565   5.160  0.3658  0.3194 -0.2832
 3660SOL    HW122613   4.485   1.583   5.248 -2.2814  0.4969  0.7087
 3660SOL    HW222614   4.367   1.523   5.181  1.4988 -2.6147 -1.4992
 3661SOL     OW22615   1.584   2.834   4.836  0.9326  0.4369  0.3850
 3661SOL    HW122616   1.583   2.841   4.740 -2.7595  0.2817  0.4320
 3661SOL    HW222617   1.678   2.847   4.852  1.1707  0.3144 -0.8539
 3662SOL     OW22618   3.367   0.997  16.471 -0.9998  0.2659  0.1249
 3662SOL    HW122619   3.411   1.062  16.417  0.0854  1.7761  2.8272
 3662SOL    HW222620   3.284   0.990  16.425 -0.2230 -2.5861 -0.8427
 3663SOL     OW22621   1.953   0.077  12.873 -0.5562 -0.2048 -0.3360
 3663SOL    HW122622   2.043   0.091  12.902 -0.8236  1.1778 -0.1891
 3663SOL    HW222623   1.929   0.169  12.864  1.1280  0.3589  0.8736
 3664SOL     OW22624   1.257   2.006   0.999  0.0215  0.1474 -0.5863
 3664SOL    HW122625   1.195   2.051   1.056 -0.7235 -0.9018 -0.5782
 3664SOL    HW222626   1.334   2.044   1.043  0.1684  0.8542 -1.4469
 3665SOL     OW22627   3.744   3.213   1.641  0.1628  0.0989  0.0506
 3665SOL    HW122628   3.670   3.240   1.588  1.7860 -0.8922 -2.6970
 3665SOL    HW222629   3.772   3.141   1.584 -1.2351 -1.4838  1.3700
 3666SOL     OW22630   1.730   0.177   8.716 -0.2351 -0.3587 -0.4422
 3666SOL    HW122631   1.640   0.193   8.689  0.4445  1.0665 -1.9137
 3666SOL    HW222632   1.724   0.221   8.801 -0.0199  1.8020 -1.5427
 3667SOL     OW22633   0.072   3.223   6.540 -0.1587 -0.0423 -0.0002
 3667SOL    HW122634   4.714   3.221   6.529 -0.1144 -2.4015 -0.0130
 3667SOL    HW222635   0.091   3.237   6.447 -3.1676  2.8219 -0.2048
 3668SOL     OW22636   3.222   0.000   3.690  0.3846  0.2509  0.2197
 3668SOL    HW122637   3.260   0.087   3.703 -1.3971  0.9465  0.7790
 3668SOL    HW222638   3.171   0.012   3.610  1.8539 -1.2393 -0.9402
 3669SOL     OW22639   0.574   0.389   3.906  0.1558  0.3191 -0.1834
 3669SOL    HW122640   0.566   0.392   4.001  0.5419  0.6809 -0.1610
 3669SOL    HW222641   0.597   0.297   3.891  0.4215  0.7641 -2.5861
 3670SOL     OW22642   2.489   2.252   5.349 -0.1389 -0.3543  0.1267
 3670SOL    HW122643   2.402   2.288   5.368 -0.0777 -0.3345  0.3643
 3670SOL    HW222644   2.460   2.183   5.289 -0.7994  0.7075 -0.7802
 3671SOL     OW22645   3.807   1.379  11.216 -0.0285  0.0940  0.6786
 3671SOL    HW122646   3.878   1.332  11.173  1.2154  2.1547  0.4663
 3671SOL    HW222647   3.731   1.322  11.224  1.8013 -2.0574  2.7553
 3672SOL     OW22648   1.803   0.371   8.110 -0.2928 -0.2041 -0.0487
 3672SOL    HW122649   1.890   0.339   8.086 -0.0877  1.6255 -1.7448
 3672SOL    HW222650   1.758   0.382   8.026 -0.8205 -1.3897  0.0778
 3673SOL     OW22651   0.925   2.840   4.667 -0.0270  0.3236  0.5529
 3673SOL    HW122652   0.901   2.748   4.676 -2.3790  0.5874 -2.9805
 3673SOL    HW222653   0.849   2.877   4.621  2.5685  2.6636 -1.8779
 3674SOL     OW22654   2.337   3.366  16.514 -0.6975 -0.4402 -0.1940
 3674SOL    HW122655   2.399   3.304  16.476  0.0133  0.4053 -0.3932
 3674SOL    HW222656   2.289   3.401  16.439 -1.0828  1.3432  0.8719
 3675SOL     OW22657   0.942   1.000   6.204  0.4628  0.8399 -0.3063
 3675SOL    HW122658   0.985   1.015   6.289 -0.2309  0.1817  0.1530
 3675SOL    HW222659   0.993   0.928   6.166 -0.0375  0.5180 -0.3658
 3676SOL     OW22660   1.707   1.406   7.593  0.5364  0.0500 -0.3334
 3676SOL    HW122661   1.651   1.347   7.541 -1.1584 -0.2933  1.9180
 3676SOL    HW222662   1.642   1.447   7.650 -1.7105 -0.9651 -2.1205
 3677SOL     OW22663   2.317   2.474   5.807  0.4089  0.5367  0.0080
 3677SOL    HW122664   2.341   2.455   5.898 -0.9275 -1.5527 -0.0740
 3677SOL    HW222665   2.225   2.498   5.820  0.2292  0.0035 -0.3241
 3678SOL     OW22666   2.230   0.831   9.933  0.2567 -0.2323 -0.1967
 3678SOL    HW122667   2.305   0.809   9.877 -1.0838  0.4522 -2.2841
 3678SOL    HW222668   2.206   0.750   9.979 -0.8125  0.5625  0.6237
 3679SOL     OW22669   0.003   4.477   5.488  0.6080 -0.0082  0.4914
 3679SOL    HW122670   0.028   4.535   5.417 -0.4578 -0.7035 -0.4579
 3679SOL    HW222671   4.688   4.421   5.430  0.6375  0.1678  0.2956
 3680SOL     OW22672   1.864   4.589  11.578  0.5490  0.8427 -0.3067
 3680SOL    HW122673   1.934   4.647  11.609  1.0458  0.4186 -0.6388
 3680SOL    HW222674   1.821   4.583  11.664  0.6827  4.3006 -0.0164
 3681SOL     OW22675   0.291   4.243   5.051  0.5804 -0.2077 -0.1413
 3681SOL    HW122676   0.240   4.162   5.055  0.4602 -0.0997  0.5261
 3681SOL    HW222677   0.322   4.243   5.141  1.0068 -0.5835 -0.2938
 3682SOL     OW22678   0.302   1.979   6.824 -0.5652  0.5548 -0.2172
 3682SOL    HW122679   0.269   2.069   6.828 -0.2690  0.6161  0.8254
 3682SOL    HW222680   0.393   1.990   6.798 -0.5576  0.1632 -0.3534
 3683SOL     OW22681   0.471   1.098   8.471  0.2710  0.0527 -0.7786
 3683SOL    HW122682   0.395   1.046   8.444 -0.5546  0.2406  1.1511
 3683SOL    HW222683   0.428   1.163   8.527  1.9295 -0.6007  1.2344
 3684SOL     OW22684   0.987   0.098  16.096  0.5378  0.1977  0.4962
 3684SOL    HW122685   1.011   0.191  16.095 -0.4394  0.4374 -1.0871
 3684SOL    HW222686   1.073   0.056  16.084  0.6651  0.9047 -1.1571
 3685SOL     OW22687   0.831   1.033  12.335 -0.3396  0.3399  0.1381
 3685SOL    HW122688   0.815   1.104  12.273  0.8038  1.0575  0.6628
 3685SOL    HW222689   0.817   0.955  12.281 -1.6421  0.4531  0.3092
 3686SOL     OW22690   4.219   1.399   5.149 -0.1266 -0.3613  0.0230
 3686SOL    HW122691   4.196   1.312   5.182 -0.4025 -0.0490  0.6656
 3686SOL    HW222692   4.207   1.380   5.056 -0.6542 -0.9963  0.2193
 3687SOL     OW22693   2.207   3.198   5.790  0.1396  0.0554 -1.2559
 3687SOL    HW122694   2.278   3.135   5.777  2.2181  1.9101  1.2569
 3687SOL    HW222695   2.134   3.137   5.800  0.9173 -0.0989  3.2938
 3688SOL     OW22696   0.666   2.864   4.599  0.0466 -0.2158 -0.2889
 3688SOL    HW122697   0.586   2.914   4.584  1.7334  2.6018  0.1280
 3688SOL    HW222698   0.629   2.780   4.625  1.1851 -0.7156 -0.2974
 3689SOL     OW22699   3.892   2.246  16.336  0.3741  0.0318  0.1850
 3689SOL    HW122700   3.922   2.159  16.310 -1.1158  0.0240 -1.4933
 3689SOL    HW222701   3.971   2.289  16.301  2.2646 -3.1639  0.5602
 3690SOL     OW22702   1.018   0.339   1.811 -0.3364 -0.1944 -0.4303
 3690SOL    HW122703   1.035   0.409   1.748 -1.5087  0.9656  0.5698
 3690SOL    HW222704   0.942   0.362   1.864 -0.1626 -1.4789  0.3865
 3691SOL     OW22705   3.576   3.897  15.894  0.0571 -0.5064  0.5577
 3691SOL    HW122706   3.503   3.845  15.926 -1.3249 -0.0276 -1.8171
 3691SOL    HW222707   3.534   3.966  15.842 -1.4468  0.2603  2.8022
 3692SOL     OW22708   1.861   4.410  12.315  0.5087  0.3511  0.3151
 3692SOL    HW122709   1.835   4.502  12.313 -1.3056 -0.1519  0.9535
 3692SOL    HW222710   1.850   4.386  12.407 -2.8257  1.2325  0.1427
 3693SOL     OW22711   3.037   0.040  11.289  0.7198 -0.1975  0.6686
 3693SOL    HW122712   3.026   0.037  11.384 -0.4361  0.3460  0.5449
 3693SOL    HW222713   3.091   0.119  11.282  2.1156 -1.4722 -3.0034
 3694SOL     OW22714   2.616   3.015   2.911 -0.8548 -0.1238  0.4264
 3694SOL    HW122715   2.559   2.993   2.984 -0.4110  1.5273  1.2656
 3694SOL    HW222716   2.553   3.058   2.854  0.6928  1.9516  0.2475
 3695SOL     OW22717   0.769   0.344   3.069  0.0203  0.2451 -0.4032
 3695SOL    HW122718   0.864   0.346   3.079 -0.5868  0.8884  4.9786
 3695SOL    HW222719   0.741   0.385   3.151 -1.5605  2.8693 -2.2339
 3696SOL     OW22720   2.547   0.945   3.876  0.2351 -0.4581 -0.0036
 3696SOL    HW122721   2.516   1.016   3.933  0.7219  1.2779 -1.8889
 3696SOL    HW222722   2.564   0.995   3.796  1.8060 -1.6035 -0.3974
 3697SOL     OW22723   2.092   2.399  15.563 -0.0851  0.4806 -0.6078
 3697SOL    HW122724   2.182   2.385  15.592  0.3589  1.9716 -1.3243
 3697SOL    HW222725   2.087   2.477  15.508 -0.5686 -0.3867 -1.7971
 3698SOL     OW22726   0.429   2.222   5.819  0.6911 -0.7772 -0.8689
 3698SOL    HW122727   0.411   2.263   5.734 -0.1467 -0.7849 -0.6970
 3698SOL    HW222728   0.515   2.185   5.800  0.9872 -1.5183  1.9530
 3699SOL     OW22729   1.967   4.343  11.588 -0.0880 -0.2664  0.1017
 3699SOL    HW122730   1.904   4.414  11.602  1.1788  0.8027  0.3653
 3699SOL    HW222731   1.921   4.259  11.584 -0.4518 -0.1021  0.8002
 3700SOL     OW22732   4.057   4.387   9.317  0.5745  0.1077 -0.5338
 3700SOL    HW122733   4.151   4.369   9.325  0.3601 -0.5619  0.5605
 3700SOL    HW222734   4.041   4.324   9.247 -2.7038  0.5228 -0.1793
 3701SOL     OW22735   2.186   2.949   2.202  0.1834 -0.5547  0.2453
 3701SOL    HW122736   2.120   2.921   2.266 -0.7924  0.1344 -0.4640
 3701SOL    HW222737   2.156   2.915   2.118 -1.5458  0.9660  0.2512
 3702SOL     OW22738   2.785   3.960   4.580 -0.0144 -0.2205  0.1511
 3702SOL    HW122739   2.820   3.933   4.495  2.2163 -0.0912  1.0236
 3702SOL    HW222740   2.740   3.886   4.621  1.0098  0.6816  2.9293
 3703SOL     OW22741   1.954   0.582  15.377  0.3431  0.2699  0.3062
 3703SOL    HW122742   1.986   0.494  15.397  1.7315  0.8475  0.6129
 3703SOL    HW222743   1.959   0.589  15.282 -0.8154 -0.0155  0.2219
 3704SOL     OW22744   0.840   2.592  13.312 -0.1673 -0.2998 -0.0385
 3704SOL    HW122745   0.791   2.543  13.246  0.1083  0.4159 -0.7772
 3704SOL    HW222746   0.900   2.638  13.253 -0.9883  0.1354 -0.5292
 3705SOL     OW22747   1.725   0.359   0.840  0.2431  0.3584  0.2787
 3705SOL    HW122748   1.735   0.442   0.887 -1.8798  0.5173  0.4316
 3705SOL    HW222749   1.755   0.392   0.756 -0.6225 -0.4909 -0.3666
 3706SOL     OW22750   0.604   1.746  15.307  0.1343  0.5170 -0.1440
 3706SOL    HW122751   0.682   1.695  15.286  1.6282  1.8295  2.1542
 3706SOL    HW222752   0.535   1.718  15.247 -0.1008  0.0911  0.3294
 3707SOL     OW22753   1.656   3.240   9.177  0.3891  0.4188  0.5162
 3707SOL    HW122754   1.615   3.295   9.109  0.3086 -1.1131 -0.6739
 3707SOL    HW222755   1.737   3.289   9.189 -0.7763  1.7867  2.7236
 3708SOL     OW22756   2.133   3.347   9.700  0.2033 -0.3545 -0.4059
 3708SOL    HW122757   2.207   3.350   9.761  0.2054  0.1501 -0.4273
 3708SOL    HW222758   2.094   3.432   9.719 -1.7447 -1.2424 -0.4615
 3709SOL     OW22759   4.363   0.503   7.517 -0.0465  0.3155  0.4074
 3709SOL    HW122760   4.375   0.410   7.535 -3.2261 -0.3464 -0.9325
 3709SOL    HW222761   4.433   0.524   7.455  1.3837  0.2481  1.9889
 3710SOL     OW22762   1.076   4.450   8.655 -0.3515  0.4222 -0.2735
 3710SOL    HW122763   1.056   4.492   8.738 -0.5466  1.8231 -1.0225
 3710SOL    HW222764   1.003   4.464   8.595  0.4844 -1.6177 -1.7790
 3711SOL     OW22765   4.051   1.623   5.697 -0.4827  0.6635 -0.1480
 3711SOL    HW122766   4.062   1.567   5.620  1.6515 -1.4200  1.6425
 3711SOL    HW222767   4.090   1.562   5.760 -1.0537 -0.5809 -1.0148
 3712SOL     OW22768   4.036   3.256  15.576 -0.3095 -0.3181  0.6068
 3712SOL    HW122769   4.044   3.173  15.624 -0.3646  0.1319  1.3968
 3712SOL    HW222770   4.129   3.274  15.593 -0.5586 -1.5064  3.2731
 3713SOL     OW22771   2.352   3.151   5.166  0.2783  0.4047 -0.9359
 3713SOL    HW122772   2.333   3.107   5.083  0.5886 -1.5151  0.0047
 3713SOL    HW222773   2.391   3.083   5.221 -0.9879  0.6400  0.2552
 3714SOL     OW22774   1.911   4.717   7.952  0.6548 -0.2469 -0.3827
 3714SOL    HW122775   1.926   4.687   7.863  0.5046 -0.1133 -0.4527
 3714SOL    HW222776   1.958   4.648   7.998  0.6103 -1.0522 -1.5456
 3715SOL     OW22777   3.342   0.616   4.814 -0.0596  0.4324 -0.0594
 3715SOL    HW122778   3.426   0.597   4.773 -0.6492  1.8190 -1.9107
 3715SOL    HW222779   3.306   0.528   4.820  0.7765  0.3825  4.3875
 3716SOL     OW22780   0.683   0.845   3.299  0.5635  0.4175  0.3350
 3716SOL    HW122781   0.750   0.783   3.271 -0.6817 -0.6020 -0.3707
 3716SOL    HW222782   0.633   0.790   3.359  1.0836  0.0978  0.4714
 3717SOL     OW22783   1.096   3.314   4.380 -0.3542  0.0904 -0.2694
 3717SOL    HW122784   1.163   3.381   4.366 -0.0816 -0.0311  0.4429
 3717SOL    HW222785   1.159   3.245   4.402 -0.6087 -1.5142 -4.5471
 3718SOL     OW22786   0.737   4.617   3.590  0.3942 -0.3516  0.2514
 3718SOL    HW122787   0.775   4.705   3.583 -0.1428 -0.2091 -0.9517
 3718SOL    HW222788   0.643   4.629   3.577  0.5030 -0.6612 -0.8098
 3719SOL     OW22789   2.280   1.914   6.871  0.1568 -0.4960  0.0441
 3719SOL    HW122790   2.321   1.842   6.824  0.6198  0.6825 -1.3939
 3719SOL    HW222791   2.350   1.976   6.894  0.1430  0.0357 -1.3477
 3720SOL     OW22792   2.474   3.288   9.245  0.0243  0.2973 -0.5846
 3720SOL    HW122793   2.435   3.303   9.331  0.4796 -0.7003 -0.2003
 3720SOL    HW222794   2.566   3.309   9.264 -0.4706  1.5758  0.4278
 3721SOL     OW22795   1.014   1.908  17.589 -0.1547  0.5819  0.2632
 3721SOL    HW122796   1.013   1.899  17.494 -0.5537  2.7468  0.0768
 3721SOL    HW222797   0.948   1.843  17.614  0.0976 -0.1451 -0.9913
 3722SOL     OW22798   2.153   1.153  11.386  0.0622 -0.2255  0.0157
 3722SOL    HW122799   2.114   1.240  11.387 -0.9625 -0.6641 -1.0345
 3722SOL    HW222800   2.080   1.101  11.422 -1.2143  1.2523 -0.4560
 3723SOL     OW22801   0.475   4.242   3.919 -0.0359 -0.1133 -0.1859
 3723SOL    HW122802   0.439   4.194   3.994  1.3778 -0.5830  0.1763
 3723SOL    HW222803   0.530   4.178   3.874  0.3834 -1.0777  1.6958
 3724SOL     OW22804   1.872   1.783   4.163 -0.4717  0.7656  0.2775
 3724SOL    HW122805   1.911   1.723   4.228  1.7419  1.3117 -0.5389
 3724SOL    HW222806   1.910   1.857   4.211 -2.7943  1.6000  0.7893
 3725SOL     OW22807   0.091   2.774   4.733  0.1682  0.4465 -0.0931
 3725SOL    HW122808   0.085   2.864   4.700  3.0694 -0.0013 -1.8575
 3725SOL    HW222809   0.166   2.766   4.792  0.7171 -0.2287 -0.8741
 3726SOL     OW22810   1.251   2.212   7.891  0.3051 -0.6928 -0.0677
 3726SOL    HW122811   1.158   2.195   7.908 -0.2568  1.2152 -1.2087
 3726SOL    HW222812   1.240   2.271   7.816  2.3237  0.3853  0.4990
 3727SOL     OW22813   0.531   4.033   6.336  0.0366 -0.1537 -0.1686
 3727SOL    HW122814   0.455   4.021   6.278  0.2181 -0.3725 -0.3636
 3727SOL    HW222815   0.594   3.973   6.294 -0.1743  0.1837 -0.9736
 3728SOL     OW22816   0.612   0.421   6.999  0.1612 -0.2476  0.5455
 3728SOL    HW122817   0.625   0.331   6.971 -1.5963 -0.0303 -0.9953
 3728SOL    HW222818   0.699   0.456   7.016 -0.5310  0.5424  2.4803
 3729SOL     OW22819   0.224   1.325   2.886 -0.7584 -0.1179 -0.0301
 3729SOL    HW122820   0.209   1.361   2.973 -1.0772 -2.3629  0.8333
 3729SOL    HW222821   0.135   1.329   2.851 -0.5325 -0.9381 -0.6940
 3730SOL     OW22822   0.227   3.785   7.657  0.2877  0.3009  0.3142
 3730SOL    HW122823   0.281   3.837   7.715  0.8848 -0.9122  0.8502
 3730SOL    HW222824   0.197   3.725   7.725  0.9691 -1.0915 -0.6024
 3731SOL     OW22825   0.969   4.165  14.678 -0.0382 -0.4646  0.0537
 3731SOL    HW122826   0.878   4.174  14.649  0.2515  0.4885 -0.5874
 3731SOL    HW222827   1.001   4.140  14.591  1.1616 -2.0609  0.9662
 3732SOL     OW22828   0.466   1.784  17.090 -0.1989  0.1931  0.3911
 3732SOL    HW122829   0.520   1.714  17.054  0.2228  0.4978  0.4328
 3732SOL    HW222830   0.388   1.784  17.034 -1.6356 -0.3567  2.3950
 3733SOL     OW22831   2.390   0.220  13.089  0.0566  0.6932 -0.2882
 3733SOL    HW122832   2.473   0.185  13.057 -0.5580  0.5017 -1.6583
 3733SOL    HW222833   2.328   0.164  13.043 -0.7606  0.9382  0.5104
 3734SOL     OW22834   2.486   1.682   8.941 -0.4158 -0.2511  0.2250
 3734SOL    HW122835   2.500   1.602   8.990  1.6885  1.6353  2.7340
 3734SOL    HW222836   2.407   1.699   8.991 -0.0951 -2.9935  1.6454
 3735SOL     OW22837   2.788   3.979   2.334  0.4672  0.0024 -0.0071
 3735SOL    HW122838   2.737   4.044   2.381 -1.7293 -0.7858 -1.3092
 3735SOL    HW222839   2.714   3.923   2.311  1.3696 -0.9513 -0.5821
 3736SOL     OW22840   4.592   1.644   3.088 -0.3885  0.2027  0.0919
 3736SOL    HW122841   4.513   1.628   3.141 -1.5657  1.4989 -1.2647
 3736SOL    HW222842   4.558   1.659   3.000 -0.7325  1.2856  0.3997
 3737SOL     OW22843   2.022   3.791   5.067  0.6625  0.4390 -0.4460
 3737SOL    HW122844   2.073   3.766   5.144  0.2604 -0.8111 -0.5923
 3737SOL    HW222845   2.028   3.714   5.010 -0.8228 -1.7759  2.4338
 3738SOL     OW22846   2.408   1.205   5.820  0.8668  0.7090 -0.5045
 3738SOL    HW122847   2.317   1.177   5.832  1.3915 -1.8993 -2.4735
 3738SOL    HW222848   2.442   1.137   5.761  0.0509 -1.0261  1.0164
 3739SOL     OW22849   2.723   4.712   6.893  0.0105 -0.0729 -0.0003
 3739SOL    HW122850   2.694   0.062   6.865 -3.5081 -1.7932 -1.6777
 3739SOL    HW222851   2.797   0.011   6.941 -1.5876  2.4682  0.5724
 3740SOL     OW22852   1.094   3.665   1.371  0.3249 -0.1886 -0.1201
 3740SOL    HW122853   1.084   3.713   1.453  0.5783  0.6366 -0.5744
 3740SOL    HW222854   1.159   3.727   1.339 -0.0826  0.2994 -0.0076
 3741SOL     OW22855   0.453   3.095  16.870  0.1703  0.0728 -0.2802
 3741SOL    HW122856   0.457   3.118  16.777 -2.2961  1.0288 -0.1620
 3741SOL    HW222857   0.507   3.018  16.881 -1.4487 -0.9123  0.7310
 3742SOL     OW22858   0.956   4.022   5.022  0.1514 -0.1309  0.2290
 3742SOL    HW122859   1.031   4.019   4.962  0.0843 -2.1311  0.2395
 3742SOL    HW222860   0.893   4.043   4.953 -0.7251  2.1440  1.7142
 3743SOL     OW22861   1.186   2.153  14.856  0.3132  1.0029  0.4461
 3743SOL    HW122862   1.257   2.168  14.794 -0.1586  0.2869 -0.2800
 3743SOL    HW222863   1.144   2.237  14.871  1.7520  1.5142  1.5285
 3744SOL     OW22864   4.386   4.081   1.916 -0.3837  0.4523 -0.2262
 3744SOL    HW122865   4.408   4.022   1.844  0.5437 -0.6482  0.9550
 3744SOL    HW222866   4.473   4.096   1.953 -0.5580  1.7005 -0.3078
 3745SOL     OW22867   2.386   1.920   1.729  0.1243  0.1866  0.3372
 3745SOL    HW122868   2.369   1.986   1.663  0.4718 -0.1675 -0.1109
 3745SOL    HW222869   2.304   1.932   1.776  0.2816 -0.6945  0.8478
 3746SOL     OW22870   2.513   0.035  14.173 -0.0439 -0.6788  0.2718
 3746SOL    HW122871   2.433   4.723  14.152  0.8421 -1.1049 -2.1385
 3746SOL    HW222872   2.519   0.084  14.091  5.3587 -0.4821  0.8243
 3747SOL     OW22873   2.652   1.908  11.919  0.0808  0.2494  0.1191
 3747SOL    HW122874   2.682   1.820  11.895 -2.0880 -1.2551  2.9761
 3747SOL    HW222875   2.558   1.896  11.906 -0.0659  1.0672  0.4627
 3748SOL     OW22876   4.676   3.982   1.765 -0.3556  0.2801  0.0020
 3748SOL    HW122877   4.643   4.031   1.690  0.9704  0.5809 -0.3933
 3748SOL    HW222878   0.019   3.945   1.729  1.3602  1.9654  2.0940
 3749SOL     OW22879   3.838   0.009   5.379  0.0529  0.1526 -0.6781
 3749SOL    HW122880   3.791   4.669   5.349 -0.6997  0.0443  0.7936
 3749SOL    HW222881   3.788   0.080   5.339 -1.9531 -1.5232 -1.1544
 3750SOL     OW22882   0.880   2.828   7.305 -0.5719  0.0744 -0.0383
 3750SOL    HW122883   0.929   2.802   7.383  2.6112  1.8291 -1.4464
 3750SOL    HW222884   0.801   2.861   7.347 -1.4503 -0.1553 -1.4920
 3751SOL     OW22885   4.226   3.809  11.503  0.1397  0.1762  0.0476
 3751SOL    HW122886   4.247   3.861  11.581 -3.1320  0.0951  0.9949
 3751SOL    HW222887   4.132   3.825  11.503  0.0529 -0.3364  0.1535
 3752SOL     OW22888   1.678   4.297   9.158  0.4500 -0.1701  0.3775
 3752SOL    HW122889   1.735   4.222   9.172  1.0650  0.3553  0.6742
 3752SOL    HW222890   1.746   4.353   9.119  0.5867 -0.0801  0.7457
 3753SOL     OW22891   2.946   1.023   3.764  0.1138  0.1416 -0.2131
 3753SOL    HW122892   2.953   0.969   3.685 -3.1905  2.3110 -2.0129
 3753SOL    HW222893   3.026   1.076   3.763 -0.7924  1.5139  0.3098
 3754SOL     OW22894   3.354   3.313   5.934 -0.3602 -0.3551 -0.2616
 3754SOL    HW122895   3.423   3.351   5.880  1.1501 -4.5428 -1.2423
 3754SOL    HW222896   3.390   3.228   5.959  1.9910  0.6050 -0.4082
 3755SOL     OW22897   1.925   3.234   6.329  0.8800  0.5475 -0.0765
 3755SOL    HW122898   1.875   3.244   6.410  0.3453  3.9017 -0.8307
 3755SOL    HW222899   1.904   3.323   6.302 -0.9562  0.3814  0.7913
 3756SOL     OW22900   1.962   1.390   7.537  0.9000  0.1443 -0.1323
 3756SOL    HW122901   1.969   1.296   7.555 -2.0015  0.0963  0.7166
 3756SOL    HW222902   1.872   1.403   7.566 -0.4281 -4.4342 -2.1200
 3757SOL     OW22903   4.225   2.114   2.620  0.5044 -0.5046 -0.0977
 3757SOL    HW122904   4.180   2.051   2.564  0.6330  0.3089 -1.1201
 3757SOL    HW222905   4.220   2.075   2.706 -0.8480  1.5959  0.7748
 3758SOL     OW22906   1.463   3.607   1.195 -0.1923  0.4923 -0.3031
 3758SOL    HW122907   1.513   3.532   1.226  0.6635  0.5870 -1.4568
 3758SOL    HW222908   1.377   3.568   1.179 -0.8269  1.2353  1.2891
 3759SOL     OW22909   3.874   3.187  11.729  0.2987 -0.2858  0.0635
 3759SOL    HW122910   3.853   3.280  11.716  0.3329 -0.2161  0.5229
 3759SOL    HW222911   3.821   3.148  11.659  0.9602 -0.7175 -0.1981
 3760SOL     OW22912   2.686   0.131   4.668  0.5517  0.5484 -0.1776
 3760SOL    HW122913   2.738   0.179   4.603  1.4740  0.4763  0.5027
 3760SOL    HW222914   2.608   0.187   4.670 -0.1242 -0.3688 -1.3443
 3761SOL     OW22915   4.366   0.959   2.011 -0.3509  0.0317  0.4053
 3761SOL    HW122916   4.420   0.994   1.940 -1.6104  1.3614  0.0859
 3761SOL    HW222917   4.281   0.970   1.968 -0.1349  1.0895  0.2313
 3762SOL     OW22918   4.675   4.154  13.430 -0.0429 -0.5763 -0.1416
 3762SOL    HW122919   4.610   4.186  13.492 -0.5604  0.4314 -1.1848
 3762SOL    HW222920   4.737   4.227  13.431  0.8071 -1.2893 -0.6980
 3763SOL     OW22921   3.393   0.743   1.417  0.1853 -0.7130 -0.0632
 3763SOL    HW122922   3.457   0.683   1.456  0.1529 -0.5073  0.3052
 3763SOL    HW222923   3.445   0.821   1.401 -1.5343  0.4894  0.2614
 3764SOL     OW22924   2.705   3.205   9.571 -0.3561  0.3242  0.4298
 3764SOL    HW122925   2.743   3.289   9.545  0.9489 -1.0265 -2.0299
 3764SOL    HW222926   2.699   3.216   9.665 -3.5693  1.0383  0.1686
 3765SOL     OW22927   0.042   3.737   3.147 -0.6268 -0.3584  0.6438
 3765SOL    HW122928   0.115   3.731   3.085 -0.1577 -0.6146  1.2180
 3765SOL    HW222929   0.017   3.645   3.148  0.0193 -0.5300  4.1167
 3766SOL     OW22930   3.871   0.094   2.989 -0.0570 -0.1842  0.2433
 3766SOL    HW122931   3.958   0.115   3.024  0.3203  1.0481 -1.4567
 3766SOL    HW222932   3.872   0.149   2.911  2.8102 -2.2224 -1.1530
 3767SOL     OW22933   1.384   4.357   9.164  0.4018  0.1522 -0.1745
 3767SOL    HW122934   1.370   4.437   9.214 -1.7566  2.0658 -3.8021
 3767SOL    HW222935   1.479   4.362   9.166  0.5327 -0.9823 -2.7647
 3768SOL     OW22936   1.143   0.935   2.551  0.3804 -0.3023 -0.3139
 3768SOL    HW122937   1.219   0.960   2.498 -0.0777  1.1928 -0.2774
 3768SOL    HW222938   1.137   1.016   2.601  0.0852 -0.7817  0.4256
 3769SOL     OW22939   1.717   2.576   1.904  0.5594  0.3471  0.3176
 3769SOL    HW122940   1.738   2.627   1.982 -1.8997 -0.7353  1.6790
 3769SOL    HW222941   1.702   2.493   1.948  3.4457 -0.2753  0.0860
 3770SOL     OW22942   0.601   4.728   5.213  0.0156 -0.4802  0.0947
 3770SOL    HW122943   0.546   4.673   5.158 -0.5729 -0.0920  0.2856
 3770SOL    HW222944   0.683   4.717   5.165 -1.1577  0.2139 -2.0900
 3771SOL     OW22945   1.762   2.169  10.705  0.1040 -0.0382 -0.6481
 3771SOL    HW122946   1.771   2.093  10.761  2.0531  0.3349 -0.4481
 3771SOL    HW222947   1.852   2.174  10.672  0.5176  0.3754  0.5508
 3772SOL     OW22948   3.745   0.901   5.212 -0.7699  0.6470 -0.7468
 3772SOL    HW122949   3.806   0.941   5.151  0.0553 -0.0124 -0.3653
 3772SOL    HW222950   3.710   0.972   5.266 -3.3757 -1.9054  0.9587
 3773SOL     OW22951   4.647   1.070   3.798 -0.1087 -0.7056 -0.4234
 3773SOL    HW122952   4.643   1.144   3.859  1.2578  0.3729 -1.6265
 3773SOL    HW222953   4.612   0.993   3.843  1.3815 -0.7704  0.6146
 3774SOL     OW22954   4.490   1.299  16.533  0.4309 -0.7189 -0.0748
 3774SOL    HW122955   4.510   1.392  16.526  1.8640 -0.9575  0.7590
 3774SOL    HW222956   4.479   1.268  16.443 -2.1594  1.4578 -0.4834
 3775SOL     OW22957   2.288   4.008   4.919 -0.1918  0.0710 -0.6230
 3775SOL    HW122958   2.370   4.057   4.924 -0.7588  0.9629 -0.0550
 3775SOL    HW222959   2.308   3.928   4.967  0.0445 -0.4178 -1.5387
 3776SOL     OW22960   3.655   3.376  13.130 -0.7805 -0.5147  0.2199
 3776SOL    HW122961   3.692   3.360  13.217  0.0002 -1.1482 -0.2253
 3776SOL    HW222962   3.591   3.445  13.142 -0.5136 -0.4300  1.1683
 3777SOL     OW22963   3.153   0.972  12.043 -0.7939 -0.3858  0.3804
 3777SOL    HW122964   3.216   0.900  12.038 -0.3954  0.0243 -0.3743
 3777SOL    HW222965   3.196   1.025  11.976 -2.1560 -0.3724 -0.4920
 3778SOL     OW22966   0.430   0.959  10.072  0.1039 -0.3284  0.2386
 3778SOL    HW122967   0.377   1.037  10.090 -1.7802 -1.4019 -0.6693
 3778SOL    HW222968   0.448   0.925  10.160  2.3486 -1.4138 -0.6395
 3779SOL     OW22969   2.631   4.566  11.867  0.0562 -0.3918  0.2508
 3779SOL    HW122970   2.683   4.537  11.941 -1.5043  2.3372  2.4040
 3779SOL    HW222971   2.543   4.567  11.905 -0.1351  0.8118 -0.2314
 3780SOL     OW22972   1.985   3.566   9.648 -0.0764 -0.0597  0.6776
 3780SOL    HW122973   2.005   3.560   9.555  0.5709 -0.8376  0.8641
 3780SOL    HW222974   2.033   3.648   9.660 -0.5818  0.1570  1.1945
 3781SOL     OW22975   2.092   1.165  11.924 -0.0379  0.3401 -0.5085
 3781SOL    HW122976   2.018   1.123  11.880 -0.2503  1.0900 -0.8536
 3781SOL    HW222977   2.128   1.204  11.845 -0.7998  0.6645 -0.6957
 3782SOL     OW22978   3.863   2.175   5.304  0.2956  0.3761  0.1920
 3782SOL    HW122979   3.781   2.126   5.307  0.4327  0.2332  1.7383
 3782SOL    HW222980   3.883   2.168   5.398 -0.6629 -2.2557  0.2131
 3783SOL     OW22981   1.387   1.850   1.474  0.7420 -0.3911 -0.0196
 3783SOL    HW122982   1.402   1.944   1.460  0.8825 -0.3619  0.3337
 3783SOL    HW222983   1.341   1.817   1.396 -0.0599 -0.8348  0.6495
 3784SOL     OW22984   0.374   1.032  12.118  0.3045 -0.3905  0.1637
 3784SOL    HW122985   0.306   0.965  12.109 -0.2835  0.0662  1.1947
 3784SOL    HW222986   0.391   1.062  12.029 -0.2574  1.1653  0.5779
 3785SOL     OW22987   2.824   2.395   7.673  0.1904 -0.4225  0.2020
 3785SOL    HW122988   2.729   2.391   7.689  0.2881  2.2019  1.5296
 3785SOL    HW222989   2.855   2.404   7.763  0.3933  0.0535  0.0817
 3786SOL     OW22990   3.741   2.804   6.768  0.0347 -0.0533 -0.0505
 3786SOL    HW122991   3.757   2.721   6.723 -1.2240 -0.2083 -0.2203
 3786SOL    HW222992   3.754   2.868   6.697 -1.7051  1.1907  0.7448
 3787SOL     OW22993   1.430   3.302   8.559 -0.2996 -0.0505  0.0066
 3787SOL    HW122994   1.361   3.244   8.529  0.4536 -1.7386  1.5571
 3787SOL    HW222995   1.500   3.238   8.572 -0.2332  0.4336  2.0693
 3788SOL     OW22996   2.026   3.994   8.490  0.3923 -0.2391 -0.1158
 3788SOL    HW122997   1.977   4.036   8.420 -1.7603  0.2681  1.6757
 3788SOL    HW222998   2.067   4.072   8.527 -0.9736 -0.2413  1.4157
 3789SOL     OW22999   0.575   4.318   5.761 -0.0624  0.3617 -0.5204
 3789SOL    HW123000   0.603   4.271   5.840 -0.5680  2.4503  0.9035
 3789SOL    HW223001   0.485   4.333   5.790  0.0334  3.4308 -1.8332
 3790SOL     OW23002   0.570   0.149   7.250 -0.4422  0.6217  0.1686
 3790SOL    HW123003   0.598   0.225   7.300  0.6998 -0.8293  1.7235
 3790SOL    HW223004   0.606   0.072   7.295 -2.8119 -1.5067 -1.5480
 3791SOL     OW23005   3.370   3.366  16.779  0.6157  0.1001 -0.3949
 3791SOL    HW123006   3.353   3.401  16.867 -1.6303 -1.1239 -0.3628
 3791SOL    HW223007   3.298   3.396  16.724 -1.0795 -1.7234  0.8540
 3792SOL     OW23008   2.427   0.578   4.460  0.1191  0.4597  0.1030
 3792SOL    HW123009   2.503   0.550   4.409  0.4243  0.5026  0.5361
 3792SOL    HW223010   2.442   0.672   4.448  0.0160  0.2694 -1.6211
 3793SOL     OW23011   0.212   3.920   5.917 -0.0975  0.1312  0.6000
 3793SOL    HW123012   0.129   3.902   5.872  0.1506 -1.2354  0.6986
 3793SOL    HW223013   0.275   3.938   5.847 -0.0506  1.0673  0.8820
 3794SOL     OW23014   3.196   1.855   9.049 -0.2355 -0.0491 -0.2593
 3794SOL    HW123015   3.137   1.881   8.978  1.2081 -3.6506 -2.7786
 3794SOL    HW223016   3.269   1.811   9.004  0.8471  1.3035  0.1890
 3795SOL     OW23017   0.911   1.090  17.237 -0.3863  0.3551  0.6136
 3795SOL    HW123018   0.928   0.998  17.217  1.6889  1.3366 -2.1308
 3795SOL    HW223019   0.962   1.128  17.165 -0.0198 -1.5768 -0.1424
 3796SOL     OW23020   0.637   3.354  14.744  0.0581  0.2330  0.1954
 3796SOL    HW123021   0.692   3.296  14.797 -2.2634 -0.9857  1.2526
 3796SOL    HW223022   0.589   3.398  14.815 -1.5911 -0.5876 -0.4056
 3797SOL     OW23023   4.270   4.198   2.885  0.1896 -0.0350 -0.2949
 3797SOL    HW123024   4.314   4.254   2.949  0.7104 -1.3458  0.4938
 3797SOL    HW223025   4.192   4.164   2.928 -1.4915  0.8408 -2.6660
 3798SOL     OW23026   4.572   3.151   7.282  0.4283 -0.4374 -0.2078
 3798SOL    HW123027   4.560   3.177   7.191  0.1585  2.6730  0.7231
 3798SOL    HW223028   4.555   3.235   7.325 -1.1336 -0.0332 -1.6159
 3799SOL     OW23029   1.038   2.044   2.081  0.6438  0.3026  0.2206
 3799SOL    HW123030   0.984   2.000   2.015  0.1295 -0.6764  1.2990
 3799SOL    HW223031   1.117   1.990   2.080 -0.6466 -1.6098  0.7995
 3800SOL     OW23032   0.394   0.442   7.160  0.0126 -0.0684  0.1651
 3800SOL    HW123033   0.465   0.430   7.097 -0.2204  0.7934 -0.2603
 3800SOL    HW223034   0.357   0.354   7.152 -0.2604  0.0735 -0.1213
 3801SOL     OW23035   2.149   1.353   4.234  0.4120 -0.1466 -0.3728
 3801SOL    HW123036   2.112   1.283   4.288  0.6805 -0.4574 -0.5979
 3801SOL    HW223037   2.134   1.315   4.148  0.5993 -1.4329  0.1552
 3802SOL     OW23038   1.005   3.105   5.093 -0.3166  0.2855 -0.5074
 3802SOL    HW123039   1.065   3.175   5.117  1.1333 -1.6027  1.4494
 3802SOL    HW223040   0.994   3.112   4.998  2.3043  0.5903 -0.7690
 3803SOL     OW23041   0.110   3.082   7.907  0.2047  0.4666  0.1215
 3803SOL    HW123042   0.190   3.043   7.942 -1.1666 -1.4204  1.1392
 3803SOL    HW223043   0.077   3.123   7.987  0.6937 -1.8559  1.5171
 3804SOL     OW23044   4.454   3.228   1.948  0.4058 -0.6092  0.2980
 3804SOL    HW123045   4.440   3.273   2.031 -0.3351  0.7105 -0.5605
 3804SOL    HW223046   4.370   3.185   1.932  0.1421  0.3641 -0.8836
 3805SOL     OW23047   0.869   1.739   2.264  0.6618  0.3311  0.1758
 3805SOL    HW123048   0.779   1.749   2.298 -0.2588 -2.0646 -1.5569
 3805SOL    HW223049   0.864   1.658   2.214 -1.9987  0.6706 -0.1414
 3806SOL     OW23050   3.001   2.387   3.697  0.2053  1.0020  0.8957
 3806SOL    HW123051   2.934   2.319   3.708  0.3707  0.7426  0.3109
 3806SOL    HW223052   2.948   2.460   3.665  0.0075 -0.1427 -1.4229
 3807SOL     OW23053   2.668   4.734   3.085  0.0636  0.6629  0.0826
 3807SOL    HW123054   2.718   4.734   3.003  1.3308  0.8986  0.8538
 3807SOL    HW223055   2.731   4.682   3.135 -0.4747 -0.5185 -0.4611
 3808SOL     OW23056   3.203   4.690   8.305  0.1376  0.3652 -0.2177
 3808SOL    HW123057   3.262   4.732   8.367 -0.8022  0.2065  0.7947
 3808SOL    HW223058   3.216   4.602   8.340  0.7483 -0.0805 -1.5603
 3809SOL     OW23059   4.054   1.962   9.795  0.5353  0.1094 -0.3321
 3809SOL    HW123060   3.999   1.902   9.745 -0.9838  0.4097  0.9572
 3809SOL    HW223061   3.986   2.022   9.825  0.0956 -0.7796  0.4829
 3810SOL     OW23062   3.468   4.048   8.748 -0.2109  0.2681  0.0347
 3810SOL    HW123063   3.446   4.108   8.676 -1.6089  1.0965  1.1611
 3810SOL    HW223064   3.386   4.029   8.793 -0.9120  0.5541 -1.1139
 3811SOL     OW23065   1.327   3.038   8.456  0.5363  0.5888 -0.6915
 3811SOL    HW123066   1.244   2.990   8.452  0.0609  1.4409 -0.9349
 3811SOL    HW223067   1.348   3.044   8.363  2.7891  0.5604 -0.1837
 3812SOL     OW23068   3.611   3.094   5.056  0.4635 -0.0956 -0.6842
 3812SOL    HW123069   3.519   3.109   5.079  0.3390  0.8996 -1.7803
 3812SOL    HW223070   3.652   3.163   5.109 -2.2446 -0.1689  1.5178
 3813SOL     OW23071   0.771   1.048   2.958  0.0579 -0.3775  0.5447
 3813SOL    HW123072   0.742   0.975   2.903  0.3433  1.5184 -2.1258
 3813SOL    HW223073   0.858   1.063   2.920 -0.1051  0.4626  0.5089
 3814SOL     OW23074   3.458   3.506   2.136  0.2638  0.4223  0.2564
 3814SOL    HW123075   3.532   3.446   2.129 -0.0216  0.2759 -1.3913
 3814SOL    HW223076   3.469   3.519   2.230 -0.5013  1.6542  0.1728
 3815SOL     OW23077   0.770   2.806   5.195 -0.0847 -0.0786 -0.4154
 3815SOL    HW123078   0.761   2.901   5.188  0.2247  0.1897  2.8100
 3815SOL    HW223079   0.785   2.782   5.104  1.1485 -1.4809  0.1613
 3816SOL     OW23080   1.599   4.077   2.736 -0.0847 -0.7339  0.4230
 3816SOL    HW123081   1.691   4.102   2.723  0.3388 -3.0079 -0.8900
 3816SOL    HW223082   1.609   4.045   2.825  0.7941 -2.2798 -0.2350
 3817SOL     OW23083   0.501   4.155   8.210  0.1332 -0.0354  0.5229
 3817SOL    HW123084   0.472   4.078   8.160 -1.0714 -2.1562  4.5325
 3817SOL    HW223085   0.548   4.113   8.282 -0.2315 -0.5359  0.4651
 3818SOL     OW23086   3.592   2.518   9.687  0.0596 -0.0915  0.4349
 3818SOL    HW123087   3.580   2.611   9.706 -1.5772 -0.4885  1.3271
 3818SOL    HW223088   3.685   2.509   9.663  0.3346 -2.0438  2.1792
 3819SOL     OW23089   3.052   3.867   3.878  0.0671  0.2127 -0.4591
 3819SOL    HW123090   3.071   3.804   3.809  0.3949 -0.3031  0.1003
 3819SOL    HW223091   3.009   3.939   3.832  1.2115  0.7148 -0.7562
 3820SOL     OW23092   2.435   2.741   9.513 -0.1459  0.4959  0.5591
 3820SOL    HW123093   2.402   2.823   9.551 -2.2527 -0.4501  0.7267
 3820SOL    HW223094   2.351   2.697   9.499  0.2008 -0.0583  0.2216
 3821SOL     OW23095   1.678   4.671   4.011 -0.4942 -0.1094 -0.0251
 3821SOL    HW123096   1.606   4.731   4.028  0.3962  1.8144 -3.1395
 3821SOL    HW223097   1.727   4.717   3.943 -1.7106 -1.7605 -2.0163
 3822SOL     OW23098   0.812   2.316  16.324  0.1945  0.4690 -0.7362
 3822SOL    HW123099   0.840   2.350  16.409  1.7604  1.3123 -1.5850
 3822SOL    HW223100   0.717   2.305  16.335  0.6724 -2.8338 -0.0278
 3823SOL     OW23101   4.366   4.566   4.411 -0.1815 -0.6952 -0.0667
 3823SOL    HW123102   4.376   4.602   4.499  2.0089 -1.7040  0.1117
 3823SOL    HW223103   4.272   4.571   4.395  0.0404 -0.7845 -1.4259
 3824SOL     OW23104   3.067   3.443   2.629 -0.6056 -0.2577  0.2392
 3824SOL    HW123105   2.982   3.472   2.663 -0.9613 -2.1008  0.9057
 3824SOL    HW223106   3.120   3.521   2.648  3.0876 -1.9392 -3.1931
 3825SOL     OW23107   0.731   3.334   8.511  0.5997 -0.2419  0.1144
 3825SOL    HW123108   0.705   3.247   8.541 -0.5433  0.2484  0.5269
 3825SOL    HW223109   0.826   3.331   8.525  0.5159  0.6808  0.8786
 3826SOL     OW23110   3.132   0.049   1.958  0.3769 -0.3366  0.7613
 3826SOL    HW123111   3.226   0.054   1.937  0.0403  0.3652 -0.5408
 3826SOL    HW223112   3.093   0.132   1.934 -0.8178 -1.3128 -0.6681
 3827SOL     OW23113   1.196   3.646  11.663  0.1094  0.1543 -0.1009
 3827SOL    HW123114   1.103   3.629  11.672 -0.3539  2.3853 -0.6814
 3827SOL    HW223115   1.241   3.579  11.714  0.6242 -0.2126 -1.0362
 3828SOL     OW23116   4.024   3.753  17.198  0.2200  0.2714 -0.0597
 3828SOL    HW123117   3.981   3.669  17.207 -0.7007  0.8848  1.3420
 3828SOL    HW223118   3.988   3.811  17.265 -1.7504 -0.9628 -0.0654
 3829SOL     OW23119   3.339   0.779  11.786  0.5028  0.6928 -0.1107
 3829SOL    HW123120   3.362   0.777  11.879 -0.1860  1.1390  0.0740
 3829SOL    HW223121   3.384   0.859  11.758  2.3494  0.3996  2.0139
 3830SOL     OW23122   4.112   4.157   3.405 -0.5983 -0.4504  0.1153
 3830SOL    HW123123   4.063   4.204   3.337 -0.1695 -0.1262  0.0342
 3830SOL    HW223124   4.197   4.142   3.364 -1.4486 -1.2347 -1.3763
 3831SOL     OW23125   1.262   1.042   3.847  0.3475 -0.2804  0.2045
 3831SOL    HW123126   1.241   1.112   3.908  0.0190  0.6975 -1.0252
 3831SOL    HW223127   1.177   1.030   3.805  1.3943 -1.5002 -1.5699
 3832SOL     OW23128   3.893   3.557   6.030 -0.5299 -0.2810  0.6396
 3832SOL    HW123129   3.831   3.610   5.980  1.4432  0.5492 -0.9438
 3832SOL    HW223130   3.839   3.499   6.084 -0.5020 -2.2885 -1.5090
 3833SOL     OW23131   0.285   4.669   9.030  0.1458 -0.2895  0.2949
 3833SOL    HW123132   0.190   4.675   9.016  0.0109 -2.3503  0.3605
 3833SOL    HW223133   0.314   4.650   8.941  1.6902 -0.2370  0.7863
 3834SOL     OW23134   1.662   0.799   5.756 -0.2051  0.1332 -0.6687
 3834SOL    HW123135   1.640   0.760   5.672 -0.6120  1.5025 -1.2020
 3834SOL    HW223136   1.697   0.718   5.791  2.0239  1.8103  1.0003
 3835SOL     OW23137   1.613   0.315   9.249  0.6414  0.1004 -0.5733
 3835SOL    HW123138   1.558   0.324   9.327  0.4979  2.1118 -0.8967
 3835SOL    HW223139   1.542   0.300   9.187  0.6377  2.3748 -1.1335
 3836SOL     OW23140   1.770   2.040   6.342  0.4515  0.7014 -0.4946
 3836SOL    HW123141   1.829   2.021   6.269  2.4884 -0.2869  1.3997
 3836SOL    HW223142   1.831   2.067   6.411  0.9934  3.4120 -2.0352
 3837SOL     OW23143   2.819   4.231   6.031 -0.1852  0.2896  0.1216
 3837SOL    HW123144   2.902   4.228   5.982 -0.1531  2.0347  0.0846
 3837SOL    HW223145   2.816   4.147   6.076  2.8480  0.8180  1.2981
 3838SOL     OW23146   0.512   2.818   1.321 -0.3784  0.4089 -0.0165
 3838SOL    HW123147   0.447   2.874   1.363  0.2888  0.1613  1.3331
 3838SOL    HW223148   0.575   2.888   1.307 -0.6601  0.7461  0.4230
 3839SOL     OW23149   0.721   3.409  17.414  0.0464 -0.5573 -0.3396
 3839SOL    HW123150   0.735   3.412  17.320 -1.1270  1.1181 -0.4756
 3839SOL    HW223151   0.693   3.318  17.417 -1.3126 -0.1107  1.0373
 3840SOL     OW23152   2.409   3.485  10.123 -0.0600 -0.8341  0.0705
 3840SOL    HW123153   2.421   3.509  10.031  0.3740 -1.1161  0.0526
 3840SOL    HW223154   2.354   3.407  10.122  2.3340 -2.5442  0.7832
 3841SOL     OW23155   3.815   3.683   8.166 -0.6237 -0.4244  0.2275
 3841SOL    HW123156   3.889   3.736   8.195 -0.6402 -0.6911  0.7360
 3841SOL    HW223157   3.751   3.686   8.236 -2.7683  1.1608 -1.7906
 3842SOL     OW23158   3.785   3.433  13.374 -0.4665  0.1008  0.0393
 3842SOL    HW123159   3.879   3.415  13.364 -0.5275 -0.8696  1.1376
 3842SOL    HW223160   3.793   3.527  13.389 -2.5861  0.3565 -0.5047
 3843SOL     OW23161   1.238   3.558   4.093  1.1503 -0.1350 -0.8253
 3843SOL    HW123162   1.184   3.498   4.043  0.2728  0.5990 -0.7450
 3843SOL    HW223163   1.173   3.623   4.120  0.6137 -0.6512 -0.8759
 3844SOL     OW23164   3.214   3.386   2.117  0.2046 -0.3053 -0.2469
 3844SOL    HW123165   3.289   3.442   2.137  0.5517 -1.6260  2.1489
 3844SOL    HW223166   3.180   3.369   2.205 -1.7692  1.4817 -0.6528
 3845SOL     OW23167   1.928   1.077   3.959  0.0322 -0.4568  0.6636
 3845SOL    HW123168   1.920   0.992   3.916 -0.3540  0.8638 -1.8898
 3845SOL    HW223169   1.937   1.059   4.052 -1.1769 -0.1048  0.8509
 3846SOL     OW23170   3.116   1.693  12.479 -0.1372 -0.4001  0.2456
 3846SOL    HW123171   3.022   1.706  12.493  0.0118  0.5057  0.3916
 3846SOL    HW223172   3.116   1.666  12.387  0.9422 -1.4126  0.5311
 3847SOL     OW23173   0.596   4.107   1.745  0.0625 -0.3116 -0.1398
 3847SOL    HW123174   0.552   4.168   1.804 -1.4305 -0.3380 -1.2142
 3847SOL    HW223175   0.566   4.029   1.791  2.6776 -0.1565  1.7724
 3848SOL     OW23176   2.914   1.426   8.859 -0.4045  0.2482 -0.9030
 3848SOL    HW123177   2.856   1.497   8.887  0.2997  0.1383  0.8560
 3848SOL    HW223178   2.946   1.457   8.774  1.0111  1.3524  0.0361
 3849SOL     OW23179   2.414   0.948  11.408  0.6284 -0.1200 -0.3317
 3849SOL    HW123180   2.456   0.924  11.325  2.5790  0.6095  0.4412
 3849SOL    HW223181   2.421   1.043  11.418 -0.8173 -0.0651  0.0873
 3850SOL     OW23182   0.825   1.049  10.686  0.0469  0.5582 -0.1444
 3850SOL    HW123183   0.875   1.113  10.635 -1.7483 -0.6484 -3.4723
 3850SOL    HW223184   0.860   1.057  10.774  0.3092  0.5410 -0.2489
 3851SOL     OW23185   2.262   1.674   2.077 -0.1183 -0.1361 -0.2503
 3851SOL    HW123186   2.339   1.730   2.084 -0.1204 -0.3265  1.3601
 3851SOL    HW223187   2.251   1.671   2.172  0.3452  0.3170 -0.1869
 3852SOL     OW23188   2.869   2.852   3.686  0.0859  0.3647  0.1129
 3852SOL    HW123189   2.954   2.816   3.709  0.2403 -0.0747 -1.1246
 3852SOL    HW223190   2.890   2.945   3.684  0.2281  0.3061 -1.5434
 3853SOL     OW23191   0.613   4.306  15.652  0.5134 -0.3877 -0.5826
 3853SOL    HW123192   0.687   4.351  15.611  1.4441  0.0393  1.5767
 3853SOL    HW223193   0.580   4.263  15.573  0.7485 -0.2894 -0.7339
 3854SOL     OW23194   3.518   2.887   1.833  0.0039 -0.1965  0.0912
 3854SOL    HW123195   3.428   2.917   1.816  0.2950 -0.3306 -1.7129
 3854SOL    HW223196   3.549   2.969   1.869  2.3991 -1.3988  0.7107
 3855SOL     OW23197   0.705   3.009  12.947  0.0144  0.3874  0.3817
 3855SOL    HW123198   0.775   3.073  12.958  1.6320 -1.7816  2.6541
 3855SOL    HW223199   0.710   2.988  12.854  1.5341 -1.0094  0.7766
 3856SOL     OW23200   4.462   4.563   6.602 -0.1066  0.0293 -0.0104
 3856SOL    HW123201   4.446   4.469   6.597  1.4094 -0.2342 -0.0025
 3856SOL    HW223202   4.392   4.597   6.658  0.7979 -0.6225  1.5213
 3857SOL     OW23203   0.080   1.343  16.415  0.3707 -0.1743 -0.1995
 3857SOL    HW123204   0.129   1.275  16.368 -2.1214 -1.7556 -0.5112
 3857SOL    HW223205   0.018   1.285  16.458 -1.0912  0.2345 -1.7232
 3858SOL     OW23206   2.451   2.145   1.309  0.4506  0.0261 -0.1889
 3858SOL    HW123207   2.414   2.126   1.222 -0.7367 -0.5518  0.4382
 3858SOL    HW223208   2.369   2.144   1.359  0.1816 -0.7637 -0.6356
 3859SOL     OW23209   2.694   2.809   9.585  0.0751 -0.1432 -0.4243
 3859SOL    HW123210   2.728   2.728   9.623  0.6294 -0.1265 -0.8789
 3859SOL    HW223211   2.606   2.784   9.558  0.1833 -1.7691  0.7275
 3860SOL     OW23212   3.403   3.325   7.342 -0.1268 -0.2371 -0.0306
 3860SOL    HW123213   3.473   3.329   7.407 -0.3375  0.6574  0.1407
 3860SOL    HW223214   3.393   3.411   7.302  1.5772  0.2277  0.5415
 3861SOL     OW23215   1.787   3.445   2.234 -0.5880  0.8030 -0.3839
 3861SOL    HW123216   1.698   3.468   2.206 -0.3485 -0.5190 -2.2186
 3861SOL    HW223217   1.784   3.349   2.242 -0.0866  0.9141  1.0681
 3862SOL     OW23218   0.902   2.099   6.488  0.2628  0.1158  0.4879
 3862SOL    HW123219   0.881   2.095   6.394 -3.1258  0.4701  1.2463
 3862SOL    HW223220   0.887   2.193   6.499 -1.3226 -0.0286 -0.5012
 3863SOL     OW23221   0.264   0.664   7.234  0.6551 -0.1249 -0.3093
 3863SOL    HW123222   0.324   0.604   7.189  1.9046  1.2275 -0.4126
 3863SOL    HW223223   0.197   0.599   7.255  0.4747  0.7382  1.8048
 3864SOL     OW23224   4.297   1.251   9.021  0.2537 -0.0050 -0.1481
 3864SOL    HW123225   4.254   1.168   9.040 -2.0758  0.6655 -2.4669
 3864SOL    HW223226   4.386   1.227   8.994  0.8715  2.3789 -0.2354
 3865SOL     OW23227   0.683   3.978   5.730  0.2076  0.0479  0.0126
 3865SOL    HW123228   0.598   4.014   5.755  1.0877  1.8353  0.4630
 3865SOL    HW223229   0.682   3.899   5.784 -2.0273 -0.2912 -0.5468
 3866SOL     OW23230   2.504   2.748   7.538 -0.2333 -0.2403 -0.4051
 3866SOL    HW123231   2.506   2.668   7.486 -1.2858 -0.5318  0.0074
 3866SOL    HW223232   2.592   2.742   7.575 -0.5159 -0.4801  0.2295
 3867SOL     OW23233   4.292   1.234  12.660  0.1503 -0.5317  0.2796
 3867SOL    HW123234   4.231   1.162  12.674 -0.5285  0.0107  0.1050
 3867SOL    HW223235   4.302   1.262  12.751  1.6135  0.3721 -0.1560
 3868SOL     OW23236   4.130   3.109  11.774 -0.5560  0.1090  0.6976
 3868SOL    HW123237   4.153   3.159  11.852  0.9936 -1.4187  1.2238
 3868SOL    HW223238   4.041   3.143  11.766  0.3097  2.5143  1.0150
 3869SOL     OW23239   1.540   2.413  13.404  0.0832  0.5697  0.2898
 3869SOL    HW123240   1.565   2.394  13.494 -0.7386  2.3504  0.8808
 3869SOL    HW223241   1.611   2.472  13.379 -1.9334  1.8278 -2.4189
 3870SOL     OW23242   3.021   0.086   7.362  0.4782 -0.1384 -0.2551
 3870SOL    HW123243   3.028   0.136   7.444  1.1143 -2.1793  0.9270
 3870SOL    HW223244   3.091   0.123   7.309  0.1452  1.2130  0.2357
 3871SOL     OW23245   0.683   0.961   5.638  0.1417  0.4784 -0.0748
 3871SOL    HW123246   0.777   0.946   5.653 -0.0318 -1.3609 -0.8468
 3871SOL    HW223247   0.644   0.876   5.658  1.3908  0.1057  0.7687
 3872SOL     OW23248   2.858   0.920   4.971  0.5752  0.0441  0.2880
 3872SOL    HW123249   2.925   0.872   4.923 -1.5374 -2.0128 -0.6152
 3872SOL    HW223250   2.796   0.849   4.990 -1.4508  1.9807  0.8585
 3873SOL     OW23251   3.706   1.553  13.641 -0.8047  0.3298 -0.6677
 3873SOL    HW123252   3.671   1.464  13.642 -1.7005  0.6804  1.5970
 3873SOL    HW223253   3.624   1.603  13.641 -1.5373 -0.8763 -3.4298
 3874SOL     OW23254   3.641   1.093  16.987 -0.7063 -0.3126 -0.1481
 3874SOL    HW123255   3.732   1.121  16.977 -0.5432 -0.5747  0.6231
 3874SOL    HW223256   3.633   1.001  17.012  0.2351 -0.6401 -1.0035
 3875SOL     OW23257   1.527   2.201  15.831 -0.5032 -0.1861 -0.5504
 3875SOL    HW123258   1.581   2.275  15.859  0.3705 -0.1332 -2.3575
 3875SOL    HW223259   1.501   2.167  15.916  1.6797  0.4049  0.3346
 3876SOL     OW23260   3.408   0.285  14.597 -0.4154  0.0671  0.6153
 3876SOL    HW123261   3.420   0.216  14.662  0.8516 -1.1528 -0.8943
 3876SOL    HW223262   3.414   0.358  14.658  3.9568  0.9394 -0.8630
 3877SOL     OW23263   4.507   1.251   0.397  0.0629 -0.2159 -0.5373
 3877SOL    HW123264   4.519   1.289   0.484  1.2001  0.2686 -0.9027
 3877SOL    HW223265   4.456   1.172   0.414  0.2161 -0.3143 -0.5318
 3878SOL     OW23266   3.815   1.339  16.248 -0.0042  0.6664 -0.1664
 3878SOL    HW123267   3.888   1.340  16.187 -0.0200  1.0772 -0.1812
 3878SOL    HW223268   3.748   1.401  16.217 -1.2786 -0.3469  0.5394
 3879SOL     OW23269   3.648   0.664  10.201  0.2895 -0.4585 -0.4907
 3879SOL    HW123270   3.677   0.574  10.220  0.0584 -0.1188  1.4604
 3879SOL    HW223271   3.562   0.657  10.241 -1.5665 -2.2367 -4.7124
 3880SOL     OW23272   2.387   2.013  11.038 -0.3085 -0.1742 -0.0661
 3880SOL    HW123273   2.439   2.084  11.002  0.4226 -1.7904 -2.2409
 3880SOL    HW223274   2.352   1.968  10.960  0.3945  2.1771 -1.7328
 3881SOL     OW23275   3.714   0.582   4.293 -0.4157 -0.0327 -0.1875
 3881SOL    HW123276   3.738   0.647   4.359 -2.8590  0.0713  0.5970
 3881SOL    HW223277   3.659   0.524   4.346 -1.6276  0.3457 -1.0319
 3882SOL     OW23278   1.381   4.137   2.577  0.2453  0.7865 -0.4002
 3882SOL    HW123279   1.450   4.145   2.511  0.7269  2.2737  0.2655
 3882SOL    HW223280   1.434   4.100   2.648  0.9184  0.9110 -0.8348
 3883SOL     OW23281   0.513   2.649   3.345  0.1881 -0.3094  0.2892
 3883SOL    HW123282   0.586   2.707   3.369  0.2563 -0.7455  1.1195
 3883SOL    HW223283   0.538   2.566   3.385  2.0957  0.4583  0.6972
 3884SOL     OW23284   0.846   3.710  12.279 -0.1542 -0.3416  0.6708
 3884SOL    HW123285   0.775   3.693  12.217  0.4892 -0.8261  0.0747
 3884SOL    HW223286   0.900   3.760  12.218  0.7322 -1.8236  0.2535
 3885SOL     OW23287   2.010   1.248   0.146  0.0714  0.3089  0.0867
 3885SOL    HW123288   2.050   1.213   0.067 -1.2802 -0.5354 -0.2331
 3885SOL    HW223289   2.009   1.342   0.124  1.4104  0.5315  1.0322
 3886SOL     OW23290   4.365   1.249  16.297 -0.6036  0.8232  0.3421
 3886SOL    HW123291   4.292   1.283  16.245  0.3638  0.1600 -1.4542
 3886SOL    HW223292   4.351   1.154  16.296  1.8049  0.4905 -0.8840
 3887SOL     OW23293   2.491   2.237   6.562 -0.0416 -0.2480 -0.1599
 3887SOL    HW123294   2.546   2.215   6.487 -4.0944  0.6911 -3.3754
 3887SOL    HW223295   2.456   2.317   6.523  0.2587 -0.1531 -0.2352
 3888SOL     OW23296   0.002   4.533   5.770 -0.2740 -0.6457 -0.1011
 3888SOL    HW123297   4.697   4.571   5.693 -0.4012 -0.7476 -0.0811
 3888SOL    HW223298   4.677   4.468   5.803 -1.0806 -0.0734 -0.4936
 3889SOL     OW23299   0.067   2.957   5.678 -0.5319  0.3647  0.3732
 3889SOL    HW123300   0.155   2.939   5.645 -0.8636  0.3937 -0.5235
 3889SOL    HW223301   0.011   2.955   5.600 -0.3739 -1.4779  0.2957
 3890SOL     OW23302   3.135   1.844   4.286 -0.4419  0.0683  0.3430
 3890SOL    HW123303   3.075   1.887   4.225  2.1670  1.5563 -1.1804
 3890SOL    HW223304   3.074   1.805   4.349 -0.7024  0.7104  0.4894
 3891SOL     OW23305   0.464   1.525   5.097  0.0404  0.2470  0.2556
 3891SOL    HW123306   0.405   1.600   5.095  0.9285  0.8582 -3.2611
 3891SOL    HW223307   0.413   1.475   5.160  0.2167 -0.1429  0.0878
 3892SOL     OW23308   2.090   2.415   1.155  0.2531  0.1928  0.7113
 3892SOL    HW123309   2.167   2.470   1.140  0.0775  0.0819 -0.5786
 3892SOL    HW223310   2.096   2.410   1.251 -0.9581  1.4644  0.8442
 3893SOL     OW23311   2.230   1.095   7.865 -0.4128 -0.0600 -0.6730
 3893SOL    HW123312   2.285   1.043   7.923 -1.7788 -2.3940 -1.5026
 3893SOL    HW223313   2.186   1.149   7.930 -0.0459 -2.2856  1.4307
 3894SOL     OW23314   4.233   3.156  10.007 -0.3903  0.5347 -0.2595
 3894SOL    HW123315   4.234   3.246  10.040 -0.7613  0.1379  0.8636
 3894SOL    HW223316   4.323   3.129  10.025 -0.6345 -1.1532 -1.6238
 3895SOL     OW23317   1.407   4.483   9.483 -0.4792  0.2326  0.0126
 3895SOL    HW123318   1.425   4.575   9.505 -0.4377  0.6375 -1.7269
 3895SOL    HW223319   1.313   4.474   9.494 -0.2772  0.0403  1.6472
 3896SOL     OW23320   2.015   1.410   1.718 -0.1065  0.1902 -0.0317
 3896SOL    HW123321   2.047   1.469   1.786  1.5803 -1.0805  0.2740
 3896SOL    HW223322   2.097   1.373   1.684  1.0815  0.9925  1.9604
 3897SOL     OW23323   0.615   0.015   1.778 -0.0069  0.1819 -0.1563
 3897SOL    HW123324   0.551   4.687   1.753  0.5831 -0.2677 -0.5002
 3897SOL    HW223325   0.571   0.099   1.765  1.3399  0.7411 -1.1725
 3898SOL     OW23326   0.647   1.620   6.008  0.5306 -0.3975 -0.1495
 3898SOL    HW123327   0.711   1.566   6.055 -1.5464 -1.5151  1.4098
 3898SOL    HW223328   0.581   1.637   6.076 -0.6446  0.2579 -1.4640
 3899SOL     OW23329   0.006   0.927   1.839 -0.0341  0.2102  0.4517
 3899SOL    HW123330   0.070   0.993   1.865 -0.0397 -0.0181  1.0398
 3899SOL    HW223331   0.004   0.938   1.744 -0.8600  2.7576  0.7582
 3900SOL     OW23332   2.788   1.188   9.251 -0.0102 -0.0384 -0.0520
 3900SOL    HW123333   2.861   1.238   9.289 -0.1640  0.8869 -0.9673
 3900SOL    HW223334   2.830   1.155   9.172  0.0928  1.3250 -0.5695
 3901SOL     OW23335   0.411   4.657   8.789 -0.0828 -0.2506 -0.4379
 3901SOL    HW123336   0.420   4.698   8.703 -1.1020 -2.8981 -1.8123
 3901SOL    HW223337   0.495   4.681   8.829 -0.7674 -0.6182  1.2214
 3902SOL     OW23338   0.641   2.249   4.926 -0.5125 -0.2976  0.0710
 3902SOL    HW123339   0.656   2.163   4.888 -1.6649  0.1254 -1.3333
 3902SOL    HW223340   0.559   2.220   4.966 -1.3363  0.9011 -0.7582
 3903SOL     OW23341   2.873   0.410   4.405  0.3090 -0.4631 -0.0053
 3903SOL    HW123342   2.900   0.320   4.423  0.1241 -0.2396  1.4155
 3903SOL    HW223343   2.806   0.416   4.473  1.9768  1.7117  1.4349
 3904SOL     OW23344   3.650   1.443   6.028 -0.0586 -0.0119  0.3414
 3904SOL    HW123345   3.664   1.405   6.115  0.1647 -1.4648 -0.3191
 3904SOL    HW223346   3.666   1.367   5.971  0.1454  0.4140 -0.1729
 3905SOL     OW23347   4.388   1.210   3.394  0.0863  0.0433 -0.4407
 3905SOL    HW123348   4.382   1.215   3.489 -0.8360  1.8203 -0.5858
 3905SOL    HW223349   4.480   1.216   3.369  0.2877  3.9391  1.2330
 3906SOL     OW23350   0.034   0.708  16.295  0.1821  0.0796  0.0332
 3906SOL    HW123351   0.004   0.674  16.210  1.1601  0.9416 -0.6434
 3906SOL    HW223352   0.046   0.625  16.342 -1.0185 -0.4076 -0.5126
 3907SOL     OW23353   0.415   3.291   3.937  0.2199 -0.3232 -0.1457
 3907SOL    HW123354   0.397   3.226   4.006  1.8935  0.1011  0.6771
 3907SOL    HW223355   0.507   3.273   3.922 -0.0931 -0.1704 -2.1537
 3908SOL     OW23356   4.176   4.714  11.185 -0.2717 -0.2210  0.6653
 3908SOL    HW123357   4.217   4.681  11.105  0.3369  1.3431  0.3296
 3908SOL    HW223358   4.084   4.705  11.159  0.4401 -1.9431 -1.2561
 3909SOL     OW23359   0.372   0.683  10.248 -0.0281  0.2246 -0.1147
 3909SOL    HW123360   0.361   0.758  10.307 -0.2140 -1.3608  1.8611
 3909SOL    HW223361   0.378   0.615  10.314  0.4411 -0.1951 -0.5868
 3910SOL     OW23362   3.573   1.561   0.606 -0.2355  0.2747  0.6125
 3910SOL    HW123363   3.602   1.481   0.650  1.4395  1.7330  2.1158
 3910SOL    HW223364   3.658   1.604   0.598 -0.0220 -0.3127 -0.3190
 3911SOL     OW23365   2.562   0.585   3.797  0.0787 -0.2031 -0.3870
 3911SOL    HW123366   2.575   0.674   3.764  2.7356  0.4882  2.4847
 3911SOL    HW223367   2.479   0.566   3.753  0.0816 -0.1952 -0.3959
 3912SOL     OW23368   0.061   2.157  16.997  0.2613  0.4565  0.0509
 3912SOL    HW123369   0.066   2.080  17.054  1.1176 -2.3239 -3.7835
 3912SOL    HW223370   0.146   2.148  16.955 -0.5134  0.2270 -1.4679
 3913SOL     OW23371   2.638   0.736   1.658  0.1357 -0.0511 -0.1976
 3913SOL    HW123372   2.678   0.661   1.702 -0.7998  0.7314  1.9355
 3913SOL    HW223373   2.651   0.704   1.568 -3.7032  0.7755 -1.0318
 3914SOL     OW23374   0.956   4.408   4.612 -0.2319  0.4673  0.5118
 3914SOL    HW123375   0.917   4.435   4.529  0.0056 -0.9750 -0.0679
 3914SOL    HW223376   0.965   4.313   4.598 -2.0980 -0.0452  2.7204
 3915SOL     OW23377   2.196   0.743   2.656 -0.0598 -0.2716  0.1249
 3915SOL    HW123378   2.122   0.684   2.670 -1.1317  1.3067  1.1873
 3915SOL    HW223379   2.176   0.824   2.704 -0.3839 -0.2523 -0.0450
 3916SOL     OW23380   1.619   0.276  16.262  0.0012  0.0855 -0.4311
 3916SOL    HW123381   1.670   0.357  16.271  0.9081 -0.5949  0.5894
 3916SOL    HW223382   1.645   0.223  16.337  0.2492  0.9905  0.1288
 3917SOL     OW23383   0.700   2.210   9.225 -0.3913  0.7709  0.3650
 3917SOL    HW123384   0.663   2.215   9.313 -1.3871 -0.5960  0.0287
 3917SOL    HW223385   0.699   2.116   9.209  0.1467  1.0575 -1.3591
 3918SOL     OW23386   2.902   4.563   3.755  0.4374  0.2625  0.5311
 3918SOL    HW123387   2.836   4.493   3.759  0.7559 -0.0122  0.9942
 3918SOL    HW223388   2.963   4.536   3.687 -0.3924 -1.9082  0.6447
 3919SOL     OW23389   3.646   2.829   1.589 -0.3276 -0.3191  0.1298
 3919SOL    HW123390   3.610   2.860   1.672  1.5769  2.2353 -0.0096
 3919SOL    HW223391   3.612   2.740   1.575  0.9085 -0.9221  0.9233
 3920SOL     OW23392   0.843   0.581   0.179 -0.0698  0.6867 -0.5620
 3920SOL    HW123393   0.811   0.671   0.185 -0.6799  0.5050 -1.0516
 3920SOL    HW223394   0.761   0.533   0.185 -0.3487  1.2393 -0.0759
 3921SOL     OW23395   2.403   2.107  10.474 -0.3198  0.0788 -0.7429
 3921SOL    HW123396   2.416   2.013  10.472  0.4384  0.1912 -1.4974
 3921SOL    HW223397   2.493   2.137  10.493 -0.0603 -1.2459  0.1014
 3922SOL     OW23398   1.474   1.056   0.824  0.8063 -0.1940  0.6463
 3922SOL    HW123399   1.468   1.045   0.729 -2.2291  3.3147  0.4484
 3922SOL    HW223400   1.542   0.995   0.851  1.9528 -0.2140 -2.3074
 3923SOL     OW23401   1.711   3.256  15.402 -0.1267  0.2029  0.3113
 3923SOL    HW123402   1.697   3.205  15.482  2.6436  0.3160  0.8949
 3923SOL    HW223403   1.764   3.330  15.433 -0.1770  0.3154  0.1291
 3924SOL     OW23404   4.087   0.706  11.261 -0.1780  0.6135 -0.3883
 3924SOL    HW123405   4.090   0.703  11.165  0.2985 -0.6941 -0.3262
 3924SOL    HW223406   4.160   0.652  11.292 -1.2188 -1.2635 -1.2223
 3925SOL     OW23407   2.729   1.715   3.208  0.3250  0.0341 -0.0063
 3925SOL    HW123408   2.701   1.774   3.138 -1.3387  0.4395  1.0135
 3925SOL    HW223409   2.674   1.639   3.190 -0.7536  0.7089  0.4751
 3926SOL     OW23410   2.020   3.987   5.750  0.2184 -0.0014  0.1444
 3926SOL    HW123411   2.056   4.064   5.706 -2.2630  1.4260  0.6216
 3926SOL    HW223412   2.064   3.996   5.835 -0.4019  0.6242  0.3962
 3927SOL     OW23413   2.711   1.784   9.989 -0.0525 -0.3673  0.1697
 3927SOL    HW123414   2.770   1.724   9.943  0.7392 -0.9657  1.9680
 3927SOL    HW223415   2.658   1.816   9.917  1.6845  0.2404 -0.8463
 3928SOL     OW23416   1.941   1.264  12.984 -1.2382 -0.4201  0.2390
 3928SOL    HW123417   1.915   1.304  12.901 -1.4764  0.5650  0.7858
 3928SOL    HW223418   2.031   1.288  13.006 -1.5823  0.7760  0.3476
 3929SOL     OW23419   1.778   2.567   8.030 -0.5610  0.6836 -0.5422
 3929SOL    HW123420   1.712   2.541   7.967  0.3431 -0.0960 -1.1712
 3929SOL    HW223421   1.842   2.496   8.021  1.2943  1.9318  2.7143
 3930SOL     OW23422   4.207   0.000   7.125 -0.5537 -0.2683 -0.4152
 3930SOL    HW123423   4.161   4.667   7.172  0.3284 -0.7056 -0.2046
 3930SOL    HW223424   4.168   4.732   7.038 -1.8810  0.7413  0.1086
 3931SOL     OW23425   1.880   2.743   9.897 -0.4269  0.4773 -0.4437
 3931SOL    HW123426   1.787   2.726   9.915 -0.2369  0.1539  0.2193
 3931SOL    HW223427   1.929   2.681   9.951  1.8009  2.1909 -0.5218
 3932SOL     OW23428   0.731   1.412   5.455  0.3318 -0.1706  0.1802
 3932SOL    HW123429   0.816   1.401   5.499  0.8045 -1.2753 -1.0279
 3932SOL    HW223430   0.721   1.504   5.480 -0.3558 -0.0049 -0.7093
 3933SOL     OW23431   2.125   1.105   8.549 -0.2940  0.9534 -0.4637
 3933SOL    HW123432   2.069   1.034   8.520  0.9963 -0.1158 -0.3171
 3933SOL    HW223433   2.190   1.116   8.479 -0.8107  0.1298 -1.0710
 3934SOL     OW23434   2.159   4.017  17.161 -0.8323  0.1827 -0.2954
 3934SOL    HW123435   2.222   3.967  17.109  0.9100  4.1523 -1.9896
 3934SOL    HW223436   2.189   4.002  17.251 -0.4536  0.0258 -0.4469
 3935SOL     OW23437   2.150   1.298   2.596  0.3800 -0.2674  0.1359
 3935SOL    HW123438   2.239   1.290   2.562  0.5732 -1.0008  0.8214
 3935SOL    HW223439   2.151   1.295   2.691 -0.1747  0.0054  0.1506
 3936SOL     OW23440   3.381   4.062   5.966  0.2346  0.3088 -0.0142
 3936SOL    HW123441   3.392   4.080   5.872  0.2062  0.5141  0.0218
 3936SOL    HW223442   3.323   3.986   5.965 -0.9370  1.2120 -0.7716
 3937SOL     OW23443   0.596   4.229  15.407  0.1854  0.3071  0.1227
 3937SOL    HW123444   0.683   4.257  15.380 -0.4364  0.3485 -1.8143
 3937SOL    HW223445   0.556   4.211  15.322 -1.0127  1.7301  0.3776
 3938SOL     OW23446   3.690   3.515   1.507 -0.2058 -0.3677  0.4778
 3938SOL    HW123447   3.782   3.497   1.484 -0.0271  1.4218 -0.1689
 3938SOL    HW223448   3.660   3.555   1.425  2.4729 -2.1681 -1.4167
 3939SOL     OW23449   0.172   0.538   4.335 -0.0174  0.0241  0.5251
 3939SOL    HW123450   0.171   0.460   4.280 -2.2576  0.8437 -0.5742
 3939SOL    HW223451   0.091   0.584   4.314 -1.2775 -1.6374  1.7572
 3940SOL     OW23452   1.565   2.942   5.665 -0.2248 -0.0968  0.1999
 3940SOL    HW123453   1.637   2.955   5.602 -1.5703  0.6888 -1.1808
 3940SOL    HW223454   1.503   3.011   5.642  1.4105  1.5370  0.6668
 3941SOL     OW23455   4.542   0.084   4.705  0.1509 -0.6656 -0.4805
 3941SOL    HW123456   4.488   0.005   4.711 -1.3421  0.3258 -0.6701
 3941SOL    HW223457   4.559   0.098   4.798  1.8131 -0.7335 -0.7776
 3942SOL     OW23458   1.762   0.122   4.234 -0.1637  0.1547 -0.2040
 3942SOL    HW123459   1.718   0.206   4.243  0.7823  0.5736  0.4607
 3942SOL    HW223460   1.736   0.084   4.318  0.3844 -2.6915 -1.2924
 3943SOL     OW23461   4.366   0.575  11.719 -0.5150  0.7696 -0.0486
 3943SOL    HW123462   4.438   0.586  11.657  0.3958 -0.5243  0.7797
 3943SOL    HW223463   4.418   0.555  11.796 -0.3831 -1.7067 -0.8014
 3944SOL     OW23464   0.940   3.157   4.177 -0.3139 -0.0666  0.0460
 3944SOL    HW123465   0.882   3.226   4.144  0.3992  0.9986  1.0178
 3944SOL    HW223466   0.949   3.185   4.268  3.0802 -2.6539  0.5008
 3945SOL     OW23467   0.638   3.028  10.810 -0.2661  0.1841 -0.4582
 3945SOL    HW123468   0.678   2.949  10.845 -1.8275 -0.0550  0.7562
 3945SOL    HW223469   0.690   3.099  10.848  0.0968  1.6249 -3.6516
 3946SOL     OW23470   0.060   2.294   9.175  0.4335  0.7269  0.6127
 3946SOL    HW123471   4.734   2.349   9.222  0.7715  0.4063  1.4445
 3946SOL    HW223472   0.114   2.261   9.247  0.1640 -1.4077 -0.1780
 3947SOL     OW23473   0.166   1.229   0.586  0.3071 -0.4201 -0.0678
 3947SOL    HW123474   0.259   1.245   0.568  0.6450 -2.4021 -0.0455
 3947SOL    HW223475   0.136   1.202   0.500 -0.4009  1.6879 -0.4919
 3948SOL     OW23476   4.358   2.585   5.281 -0.0449 -0.0956  0.2536
 3948SOL    HW123477   4.384   2.552   5.367 -3.5412  0.6649  1.6468
 3948SOL    HW223478   4.275   2.628   5.303 -1.2773 -1.8527 -0.9137
 3949SOL     OW23479   1.270   2.401   9.292  0.0085 -0.5712 -0.4986
 3949SOL    HW123480   1.189   2.352   9.308 -1.3584  2.4268  1.8516
 3949SOL    HW223481   1.270   2.373   9.200  0.3587  0.2222 -0.7412
 3950SOL     OW23482   1.466   2.002   3.612 -0.2697  0.0833 -0.3103
 3950SOL    HW123483   1.552   2.006   3.654 -0.4203 -1.8219  0.1940
 3950SOL    HW223484   1.430   2.084   3.646 -1.5491 -0.5713 -0.1050
 3951SOL     OW23485   0.793   0.818   1.446 -0.3715 -0.1895  0.0070
 3951SOL    HW123486   0.792   0.727   1.477  0.8843 -0.4208 -0.6346
 3951SOL    HW223487   0.781   0.862   1.530 -1.4004  1.4257 -0.9813
 3952SOL     OW23488   3.759   3.893   1.490 -0.6031  0.1467  0.3673
 3952SOL    HW123489   3.697   3.889   1.563  1.3608 -1.3904  1.9356
 3952SOL    HW223490   3.692   3.892   1.422  1.1120  0.2501 -1.3412
 3953SOL     OW23491   1.767   3.131   4.805  0.4147 -0.7923  0.0621
 3953SOL    HW123492   1.679   3.133   4.843  0.7947 -2.1079  0.9838
 3953SOL    HW223493   1.814   3.182   4.872 -0.1284  0.2757 -0.3710
 3954SOL     OW23494   4.200   2.131   1.963 -0.3974 -0.0780 -0.3225
 3954SOL    HW123495   4.190   2.126   2.058 -0.6670  1.1768 -0.2852
 3954SOL    HW223496   4.266   2.200   1.953 -0.3207  0.0064  0.8231
 3955SOL     OW23497   4.233   2.419  17.182  0.1691  0.2299 -0.3782
 3955SOL    HW123498   4.249   2.468  17.262 -1.5700 -0.8532  0.6403
 3955SOL    HW223499   4.323   2.393  17.164  0.0408 -0.4575  0.0012
 3956SOL     OW23500   1.636   1.210   1.638 -0.7316  0.4878  0.0845
 3956SOL    HW123501   1.618   1.220   1.731  0.1340  0.8957  0.2028
 3956SOL    HW223502   1.732   1.206   1.634 -0.7778  2.0841 -2.5300
 3957SOL     OW23503   1.707   0.651   0.326 -0.1795 -0.2914 -1.1625
 3957SOL    HW123504   1.682   0.576   0.272  2.6297 -2.8176  1.0216
 3957SOL    HW223505   1.771   0.694   0.269  0.2801  0.9370  0.2705
 3958SOL     OW23506   4.202   1.958   4.938  0.3007 -0.1122  0.5358
 3958SOL    HW123507   4.137   1.933   5.004  0.2704  0.6462  0.7829
 3958SOL    HW223508   4.252   1.876   4.932 -3.1914 -2.1248 -1.2664
 3959SOL     OW23509   0.187   1.351  13.158 -0.2815  0.0968  0.1634
 3959SOL    HW123510   0.216   1.427  13.209 -1.4397  2.0768 -2.1616
 3959SOL    HW223511   0.256   1.286  13.175 -0.4738  0.1019  0.9826
 3960SOL     OW23512   0.203   0.717   7.910 -0.1086  0.2386 -0.0439
 3960SOL    HW123513   0.223   0.628   7.883  1.3756  1.1148 -1.8327
 3960SOL    HW223514   0.186   0.761   7.826  0.9042  1.2894  0.3094
 3961SOL     OW23515   1.416   3.979   9.887 -0.0295  0.8145 -0.3066
 3961SOL    HW123516   1.482   3.999   9.953  0.9142 -2.7262 -0.1763
 3961SOL    HW223517   1.461   4.010   9.808  1.0632 -1.6516 -0.6571
 3962SOL     OW23518   3.325   1.892  12.469  0.0296  0.3121  0.5161
 3962SOL    HW123519   3.243   1.863  12.510  1.2308 -0.8693  2.0866
 3962SOL    HW223520   3.390   1.850  12.526 -2.2276 -0.8445  2.2385
 3963SOL     OW23521   4.631   2.087  14.862 -0.2691 -0.1681  0.0205
 3963SOL    HW123522   4.670   2.013  14.817  0.9517  1.3302 -1.3988
 3963SOL    HW223523   4.714   2.125  14.889 -1.1296  3.4420 -2.3124
 3964SOL     OW23524   4.544   1.162  12.500 -0.1570  0.3923 -0.6193
 3964SOL    HW123525   4.462   1.170  12.549 -1.1155 -1.5918 -1.9395
 3964SOL    HW223526   4.606   1.124  12.562 -0.2302 -0.9440 -1.3690
 3965SOL     OW23527   3.997   2.243   0.379  0.3862  0.9745 -0.3586
 3965SOL    HW123528   4.045   2.179   0.328  0.4559 -0.2231  1.2195
 3965SOL    HW223529   3.916   2.240   0.327 -1.0432 -0.5290  1.9597
 3966SOL     OW23530   2.167   0.077   8.211 -0.0268 -0.3159  0.1351
 3966SOL    HW123531   2.229   0.149   8.227 -1.7895  1.5620 -1.4017
 3966SOL    HW223532   2.227   0.003   8.206  1.1797  0.7927 -1.7613
 3967SOL     OW23533   4.592   4.543  12.024 -0.4774  0.0975 -0.3728
 3967SOL    HW123534   4.534   4.617  12.041  0.8566  1.0827 -0.0906
 3967SOL    HW223535   4.607   4.519  12.116 -0.1063 -2.7522 -1.1629
 3968SOL     OW23536   1.247   0.216   8.825  0.5106 -0.1740 -0.5656
 3968SOL    HW123537   1.256   0.291   8.883  0.3430 -1.0131  0.5425
 3968SOL    HW223538   1.264   0.139   8.879 -0.9318  1.0609  1.6374
 3969SOL     OW23539   3.867   2.314   3.667  0.1117  0.0115  0.0845
 3969SOL    HW123540   3.831   2.268   3.743  1.2838 -1.6492 -0.3548
 3969SOL    HW223541   3.912   2.387   3.708 -2.5952  1.3182  0.7027
 3970SOL     OW23542   1.011   2.718   3.864  0.2885  0.0318  0.0294
 3970SOL    HW123543   0.941   2.727   3.800 -1.0634 -0.6129  1.4162
 3970SOL    HW223544   1.031   2.810   3.876 -0.0244  0.2915 -1.4466
 3971SOL     OW23545   2.999   0.765   4.137  0.3557  0.0226 -0.2094
 3971SOL    HW123546   2.982   0.671   4.145 -0.5879  0.0175 -2.3999
 3971SOL    HW223547   2.938   0.772   4.064 -0.2993  2.3293  0.5556
 3972SOL     OW23548   3.193   2.756  13.463  0.2752 -0.3803 -0.1327
 3972SOL    HW123549   3.243   2.824  13.417 -1.9825  1.2303 -0.1921
 3972SOL    HW223550   3.104   2.789  13.467 -0.0313 -1.0740 -1.2399
 3973SOL     OW23551   1.642   1.013  11.521 -0.0019  0.4440 -0.4027
 3973SOL    HW123552   1.597   0.940  11.478  0.2046  1.5842 -2.5449
 3973SOL    HW223553   1.677   1.075  11.457 -2.1483  1.6856 -0.3468
 3974SOL     OW23554   0.443   2.211   3.169 -0.0358  0.0624  0.3618
 3974SOL    HW123555   0.365   2.258   3.137  0.6606  2.7755  2.6918
 3974SOL    HW223556   0.493   2.292   3.158 -0.3024  0.3890  1.5788
 3975SOL     OW23557   4.369   0.937   7.486 -0.2557  0.5091 -0.0465
 3975SOL    HW123558   4.364   0.930   7.581 -2.6459  1.1854 -0.0994
 3975SOL    HW223559   4.408   0.854   7.459 -3.7298 -1.7769  1.9155
 3976SOL     OW23560   3.174   3.991  15.353  0.0446  0.3530 -0.1925
 3976SOL    HW123561   3.260   4.019  15.322  1.1519 -0.9719  1.6795
 3976SOL    HW223562   3.194   3.968  15.444 -0.0216  0.1897 -0.2199
 3977SOL     OW23563   2.014   0.093   7.312  0.2255  0.8720  0.4953
 3977SOL    HW123564   1.961   0.020   7.279 -1.2256  2.5372 -0.8529
 3977SOL    HW223565   1.961   0.172   7.299  0.0159  0.6824  0.1969
 3978SOL     OW23566   2.478   1.413   8.293  0.2676  0.1016 -0.2764
 3978SOL    HW123567   2.506   1.498   8.328 -0.2649 -0.9826  2.7734
 3978SOL    HW223568   2.554   1.357   8.277 -0.4888 -0.3169 -2.4793
 3979SOL     OW23569   4.597   2.897   5.081  0.0630  0.1756  0.0506
 3979SOL    HW123570   4.607   2.850   5.163 -0.0269  1.7337  0.9503
 3979SOL    HW223571   4.568   2.823   5.027  0.6777  0.8977 -1.2738
 3980SOL     OW23572   3.827   4.529   2.462  0.1287  0.2044  0.0923
 3980SOL    HW123573   3.908   4.479   2.453 -0.7114 -1.2278  0.4377
 3980SOL    HW223574   3.844   4.590   2.534  1.8594  1.0761 -1.0792
 3981SOL     OW23575   2.742   2.739  10.536  0.2309 -0.2640 -0.6208
 3981SOL    HW123576   2.741   2.815  10.478  1.0350  0.8003  0.7531
 3981SOL    HW223577   2.651   2.715  10.522 -0.2904  1.9445 -1.0011
 3982SOL     OW23578   1.973   2.923   7.214 -0.3682 -0.2100 -0.4501
 3982SOL    HW123579   1.940   2.969   7.137 -0.6000 -0.0712 -0.2677
 3982SOL    HW223580   1.938   2.970   7.289  2.3824 -0.6401  1.1019
 3983SOL     OW23581   2.076   0.774   7.207 -0.3036 -0.2394  0.4736
 3983SOL    HW123582   2.070   0.693   7.157  3.7101  0.0973 -0.5454
 3983SOL    HW223583   2.129   0.761   7.285 -2.0124  0.2765  1.7066
 3984SOL     OW23584   0.529   4.042   0.171  0.8186  0.3246  0.2108
 3984SOL    HW123585   0.556   4.064   0.261  3.1561 -1.1909 -0.1107
 3984SOL    HW223586   0.564   4.117   0.122  2.2095  1.4119  2.7969
 3985SOL     OW23587   2.112   0.216   6.200 -0.2178 -0.1751  0.1350
 3985SOL    HW123588   2.173   0.169   6.257 -1.6573  0.5052  2.2713
 3985SOL    HW223589   2.101   0.153   6.129 -0.0435  2.9150 -2.6208
 3986SOL     OW23590   2.273   3.895   2.270  0.2996 -0.3724 -0.2671
 3986SOL    HW123591   2.195   3.896   2.214  0.5976 -2.9802 -0.7389
 3986SOL    HW223592   2.244   3.828   2.332  2.3516  0.8287  1.9591
 3987SOL     OW23593   2.425   1.272   5.506  0.5197  0.2326  0.2125
 3987SOL    HW123594   2.353   1.278   5.443  1.1053  1.2233 -0.3700
 3987SOL    HW223595   2.402   1.196   5.559  1.7949 -0.4861 -0.2663
 3988SOL     OW23596   2.603   0.991   1.569  0.7422  0.1098  0.0970
 3988SOL    HW123597   2.672   1.053   1.593  0.2415  0.7922 -0.2208
 3988SOL    HW223598   2.635   0.916   1.619  1.1968  0.7664  0.7864
 3989SOL     OW23599   2.301   0.896   3.654 -0.1889  0.0959 -0.3026
 3989SOL    HW123600   2.394   0.880   3.665 -0.5194 -1.0630  0.9204
 3989SOL    HW223601   2.287   0.915   3.747 -0.0328 -1.3652  0.0150
 3990SOL     OW23602   3.172   0.416   2.887 -0.4322 -0.7322 -1.3289
 3990SOL    HW123603   3.152   0.424   2.981 -0.7101 -0.7320 -1.3885
 3990SOL    HW223604   3.148   0.504   2.857  0.8637 -0.2170 -0.8472
 3991SOL     OW23605   1.414   0.670  10.869  0.0625 -0.3839 -0.0077
 3991SOL    HW123606   1.359   0.737  10.828 -1.8713 -0.5348  2.3964
 3991SOL    HW223607   1.422   0.708  10.957 -0.9623  0.4294 -0.2737
 3992SOL     OW23608   3.716   2.954  17.066 -0.1083  0.9068  0.3001
 3992SOL    HW123609   3.683   2.864  17.060 -0.4398  1.0524 -0.0883
 3992SOL    HW223610   3.637   3.008  17.061 -1.2176 -0.5380  2.5661
 3993SOL     OW23611   1.328   1.770   7.991 -0.2854  0.0662 -0.3702
 3993SOL    HW123612   1.289   1.687   8.019 -3.7082  1.3902 -1.2134
 3993SOL    HW223613   1.409   1.777   8.041  2.1397  2.1510 -4.6273
 3994SOL     OW23614   4.428   0.928  11.658 -0.1401  0.0498 -0.2846
 3994SOL    HW123615   4.513   0.890  11.637 -0.7499 -0.4434 -1.9488
 3994SOL    HW223616   4.444   1.022  11.660 -1.6296  0.3143 -0.6734
 3995SOL     OW23617   1.882   4.096   2.736  0.3344  0.7468 -0.3637
 3995SOL    HW123618   1.892   4.104   2.831 -2.7295  1.4771 -0.1111
 3995SOL    HW223619   1.931   4.170   2.699  0.2401 -0.1640 -2.2668
 3996SOL     OW23620   3.436   4.126   5.454  0.1170 -0.5189  0.2295
 3996SOL    HW123621   3.406   4.214   5.433 -2.7504 -1.7936 -1.0102
 3996SOL    HW223622   3.395   4.070   5.388  0.3573 -0.1218 -0.2580
 3997SOL     OW23623   0.319   1.094   3.085 -0.5043  0.0150  0.3999
 3997SOL    HW123624   0.327   1.015   3.031  1.6968 -0.2110  1.0595
 3997SOL    HW223625   0.399   1.139   3.058  0.3542 -1.2221  0.8631
 3998SOL     OW23626   2.887   3.425   3.254  0.2309  0.0595 -0.3918
 3998SOL    HW123627   2.978   3.454   3.244  0.3133  0.9158  2.6631
 3998SOL    HW223628   2.848   3.494   3.200  0.4872  1.9387  1.8103
 3999SOL     OW23629   2.080   4.192   7.743 -0.2607 -0.1786  0.1044
 3999SOL    HW123630   2.130   4.118   7.710 -0.1246  0.5958 -1.4002
 3999SOL    HW223631   2.124   4.266   7.702 -0.0408 -0.8189 -0.8094
 4000SOL     OW23632   2.128   2.147   7.662 -0.3575  0.2609 -0.0825
 4000SOL    HW123633   2.083   2.221   7.701  0.8118  0.9084  0.0426
 4000SOL    HW223634   2.067   2.118   7.594  2.4571 -0.1583 -2.4235
 4001SOL     OW23635   1.305   0.761  17.107  0.7419 -0.3986 -0.2740
 4001SOL    HW123636   1.232   0.742  17.167  2.1278  0.9138  1.7993
 4001SOL    HW223637   1.282   0.712  17.028  0.7886  0.3129 -0.7233
 4002SOL     OW23638   3.323   0.780  12.749 -0.1901  0.0540  0.1645
 4002SOL    HW123639   3.307   0.859  12.698 -0.7057  0.1749  0.5177
 4002SOL    HW223640   3.414   0.795  12.774  0.2654 -3.0054  0.3391
 4003SOL     OW23641   1.388   3.710   9.337 -0.0915  0.1020 -0.3116
 4003SOL    HW123642   1.444   3.785   9.316  0.8942 -0.2540  1.0095
 4003SOL    HW223643   1.334   3.753   9.404  0.0841  0.5683 -0.4684
 4004SOL     OW23644   3.373   2.293   6.245  0.6579  0.2749  0.1908
 4004SOL    HW123645   3.362   2.213   6.295 -0.4091  0.2136 -0.1575
 4004SOL    HW223646   3.407   2.340   6.322 -1.1936  1.2415  0.4235
 4005SOL     OW23647   3.825   3.718   6.841 -0.2796  0.0842  0.5184
 4005SOL    HW123648   3.769   3.742   6.915  0.4307 -2.2449  1.7926
 4005SOL    HW223649   3.857   3.807   6.827  2.3229 -0.7892  0.9579
 4006SOL     OW23650   1.166   1.877  13.610  0.2194  0.5559  0.0304
 4006SOL    HW123651   1.152   1.898  13.702 -4.2583  0.2900 -0.5734
 4006SOL    HW223652   1.145   1.964  13.577  2.4381  0.8023 -0.7235
 4007SOL     OW23653   0.440   4.691  14.206  0.0659  0.4700 -0.0618
 4007SOL    HW123654   0.404   4.630  14.270 -0.3539  0.7305 -0.0519
 4007SOL    HW223655   0.400   0.036  14.232 -0.3348 -0.0604  0.9926
 4008SOL     OW23656   0.144   0.860   4.772 -0.4081 -0.2705  0.2450
 4008SOL    HW123657   0.150   0.895   4.683 -1.5572  2.2568  1.1707
 4008SOL    HW223658   0.218   0.906   4.812 -0.9562  0.0310  0.8891
 4009SOL     OW23659   4.553   2.424  16.326 -0.1506  0.3636 -0.2524
 4009SOL    HW123660   4.482   2.460  16.273  1.9214 -0.5144 -3.5958
 4009SOL    HW223661   4.513   2.429  16.413  1.3371 -2.5705  0.5914
 4010SOL     OW23662   2.283   1.324   5.022 -0.2164  0.3508 -0.0441
 4010SOL    HW123663   2.244   1.269   4.954  0.7032  1.0650 -1.1522
 4010SOL    HW223664   2.327   1.253   5.068  0.1905  1.2546  0.9739
 4011SOL     OW23665   0.689   1.881   1.249  0.7474  0.5611 -0.1659
 4011SOL    HW123666   0.685   1.840   1.163 -0.8540  0.5169 -0.0701
 4011SOL    HW223667   0.594   1.881   1.264  0.8051  1.4740  0.2215
 4012SOL     OW23668   1.092   1.697  16.648 -0.2481 -0.0650  0.0829
 4012SOL    HW123669   1.137   1.771  16.690  0.9181 -1.6190  1.5832
 4012SOL    HW223670   1.167   1.638  16.655 -1.0355 -1.0249  0.6033
 4013SOL     OW23671   1.131   1.584   5.370 -0.0821  0.1522  0.3252
 4013SOL    HW123672   1.074   1.583   5.447 -1.4459 -0.8285 -0.6826
 4013SOL    HW223673   1.070   1.611   5.300 -0.1151 -0.6549  0.0466
 4014SOL     OW23674   4.412   2.893   3.738 -0.0536 -0.4271 -0.2740
 4014SOL    HW123675   4.319   2.912   3.727  0.5837  2.0630 -1.4893
 4014SOL    HW223676   4.426   2.930   3.825  0.9449  1.3065 -1.1589
 4015SOL     OW23677   0.714   4.156   9.354 -0.5281 -0.2839 -0.1805
 4015SOL    HW123678   0.663   4.112   9.286  2.5836 -1.4907 -1.7305
 4015SOL    HW223679   0.753   4.079   9.395  2.7868  1.6178  0.2254
 4016SOL     OW23680   0.064   2.529   6.403  0.5193  0.1041  0.4232
 4016SOL    HW123681   0.152   2.491   6.394  0.5846 -0.0366  1.6115
 4016SOL    HW223682   0.070   2.573   6.488 -0.1085 -0.9698  1.0261
 4017SOL     OW23683   1.357   1.966   6.135 -0.1662 -0.7568  0.2278
 4017SOL    HW123684   1.317   1.950   6.050 -1.2479  1.0619  0.4002
 4017SOL    HW223685   1.305   1.911   6.193 -0.3080 -2.8933 -1.9268
 4018SOL     OW23686   2.931   1.278   7.702  0.3990 -0.3601  0.1918
 4018SOL    HW123687   2.859   1.254   7.643 -0.8349 -0.1617  1.6058
 4018SOL    HW223688   2.887   1.265   7.786  1.5400 -1.7901  0.5447
 4019SOL     OW23689   0.801   2.330   5.940  0.3794  0.5352 -0.0150
 4019SOL    HW123690   0.781   2.281   5.860  0.8834  2.0022 -1.0265
 4019SOL    HW223691   0.740   2.275   5.991  1.5471 -2.2587 -1.6025
 4020SOL     OW23692   1.152   2.231   4.282 -0.0809 -0.2365  0.0474
 4020SOL    HW123693   1.197   2.162   4.331 -1.3957 -1.3721 -0.3467
 4020SOL    HW223694   1.074   2.185   4.250 -0.7135 -0.9877  2.6755
 4021SOL     OW23695   3.425   3.051   4.741 -0.3403  0.1092 -0.3029
 4021SOL    HW123696   3.338   3.072   4.709 -0.7147  0.9952  1.2913
 4021SOL    HW223697   3.440   3.126   4.800 -1.7233  0.4421 -0.3851
 4022SOL     OW23698   1.870   2.614   2.157  0.4093  0.0613 -0.0300
 4022SOL    HW123699   1.842   2.593   2.246 -0.2768  2.4038  0.3229
 4022SOL    HW223700   1.965   2.616   2.168  0.1216  0.0388  2.4378
 4023SOL     OW23701   2.195   1.998   8.830  0.6399 -0.4903 -0.2760
 4023SOL    HW123702   2.198   1.911   8.869 -0.3882 -1.2923 -1.9973
 4023SOL    HW223703   2.283   2.016   8.796 -0.1583 -0.5592 -2.3923
 4024SOL     OW23704   3.257   1.618   8.149  0.0764 -0.4282 -0.0291
 4024SOL    HW123705   3.334   1.578   8.110 -0.9769 -1.5832 -0.8974
 4024SOL    HW223706   3.302   1.669   8.216 -0.5536 -0.2909  0.2955
 4025SOL     OW23707   3.647   1.713  14.778 -0.0018  0.5062  0.1489
 4025SOL    HW123708   3.629   1.654  14.704  1.8603  0.7724 -0.5147
 4025SOL    HW223709   3.737   1.705  14.808  0.8171  1.6553 -1.9822
 4026SOL     OW23710   2.535   1.741   4.814 -0.3628  0.2766  0.1877
 4026SOL    HW123711   2.547   1.649   4.788  2.0366  1.0682 -1.5155
 4026SOL    HW223712   2.629   1.749   4.832 -0.0892 -0.4917 -0.8616
 4027SOL     OW23713   2.173   1.356   9.170 -0.4084 -0.3064  0.0253
 4027SOL    HW123714   2.219   1.415   9.230 -0.4794  0.0746 -0.2952
 4027SOL    HW223715   2.092   1.356   9.220 -0.9582  0.5734 -0.8608
 4028SOL     OW23716   3.843   3.367   5.808 -0.0119  0.3623 -0.0980
 4028SOL    HW123717   3.893   3.400   5.733  2.8008 -0.9768  1.1517
 4028SOL    HW223718   3.881   3.417   5.880 -1.1540  1.2573 -0.1199
 4029SOL     OW23719   4.111   4.320  15.091 -0.1443  0.2927 -0.4791
 4029SOL    HW123720   4.166   4.375  15.035  0.5166 -1.2215 -1.3138
 4029SOL    HW223721   4.118   4.230  15.059 -3.1371 -0.0298 -0.2801
 4030SOL     OW23722   2.265   3.891  14.024 -0.1256 -0.0334 -0.0013
 4030SOL    HW123723   2.330   3.892  13.954  0.7369  1.3890  0.8285
 4030SOL    HW223724   2.201   3.839  13.974 -0.2256 -1.9460  2.1108
 4031SOL     OW23725   3.448   0.683  13.410 -0.1902  0.4126  0.5080
 4031SOL    HW123726   3.395   0.676  13.490 -0.1675  0.1885  0.5034
 4031SOL    HW223727   3.385   0.636  13.356 -0.6469  0.4623  0.9966
 4032SOL     OW23728   0.568   4.573  16.478 -0.0651  0.0145  0.2445
 4032SOL    HW123729   0.622   4.641  16.438 -1.1481 -0.7368 -2.4613
 4032SOL    HW223730   0.636   4.508  16.496 -1.1485 -1.6874 -1.8180
 4033SOL     OW23731   1.958   1.444  16.151  0.1755 -0.1746  0.0166
 4033SOL    HW123732   1.999   1.376  16.097  0.3432 -0.8670  1.0206
 4033SOL    HW223733   1.865   1.425  16.151  0.1360 -0.0374 -1.4467
 4034SOL     OW23734   1.429   4.072   1.948  0.4604  0.1898 -0.6776
 4034SOL    HW123735   1.469   4.159   1.944 -0.6702  0.7336 -0.1560
 4034SOL    HW223736   1.501   4.009   1.940  1.3289  1.2704 -1.4680
 4035SOL     OW23737   1.895   3.052   2.020 -0.3667 -0.7023  0.2195
 4035SOL    HW123738   1.846   3.066   1.939  0.3899  2.5469  0.3115
 4035SOL    HW223739   1.956   2.985   1.989  0.3974  0.6607 -1.2342
 4036SOL     OW23740   3.628   1.557   4.611  0.2888  0.3923  0.9489
 4036SOL    HW123741   3.658   1.645   4.634  0.6097  1.0448 -1.8731
 4036SOL    HW223742   3.595   1.525   4.695  0.8179  1.2229  1.4692
 4037SOL     OW23743   2.340   2.669   1.674 -0.1286 -0.1850  0.3291
 4037SOL    HW123744   2.427   2.644   1.705 -0.4459 -2.3215 -0.4656
 4037SOL    HW223745   2.336   2.755   1.716 -0.4073 -0.6612  1.2786
 4038SOL     OW23746   2.467   0.844   3.195  0.3214  0.2050 -0.0157
 4038SOL    HW123747   2.502   0.891   3.271 -0.7350  0.6195  0.2220
 4038SOL    HW223748   2.537   0.780   3.181 -0.5102 -0.7029  0.0143
 4039SOL     OW23749   4.730   0.955   8.455  0.1143  0.1838  0.0536
 4039SOL    HW123750   4.683   0.897   8.514  1.4731 -0.5984  0.3693
 4039SOL    HW223751   0.070   0.901   8.443  1.6080  2.3781 -0.2622
 4040SOL     OW23752   2.251   1.980  14.493 -0.5648 -0.2869 -0.0286
 4040SOL    HW123753   2.172   2.005  14.540  0.5181 -0.6209  1.9554
 4040SOL    HW223754   2.238   1.885  14.490 -0.7666 -0.2746  0.6439
 4041SOL     OW23755   3.446   1.896  15.182  0.1315 -0.0648 -0.2932
 4041SOL    HW123756   3.436   1.844  15.101 -1.8156 -0.4944  0.2248
 4041SOL    HW223757   3.432   1.827  15.247  0.0564 -2.2348 -2.5797
 4042SOL     OW23758   0.748   3.076   4.440  0.1457 -0.2661 -0.0449
 4042SOL    HW123759   0.699   3.037   4.367 -1.5652  3.1382 -0.7161
 4042SOL    HW223760   0.740   3.007   4.506 -2.4956 -1.2001 -1.3114
 4043SOL     OW23761   1.394   3.847   5.091  0.5618  0.5159  0.1997
 4043SOL    HW123762   1.390   3.797   5.009  0.2310 -0.5718  0.8740
 4043SOL    HW223763   1.379   3.940   5.073 -2.1449 -0.0529 -0.4422
 4044SOL     OW23764   3.857   4.174  11.618  0.0685  0.0338 -0.3005
 4044SOL    HW123765   3.932   4.230  11.600  0.7711 -0.5012  0.9604
 4044SOL    HW223766   3.788   4.233  11.589 -0.9805 -1.2042 -0.3423
 4045SOL     OW23767   2.117   4.648   8.694 -0.3951  0.9306 -0.0331
 4045SOL    HW123768   2.076   4.609   8.617  2.7171  1.6302 -2.0354
 4045SOL    HW223769   2.080   4.736   8.689  0.7244  1.2991 -1.9097
 4046SOL     OW23770   3.593   1.656  12.325  0.7471 -0.0314 -0.2895
 4046SOL    HW123771   3.683   1.669  12.355  0.7444 -0.5157 -0.0734
 4046SOL    HW223772   3.578   1.569  12.362 -1.5516  0.8305  0.8306
 4047SOL     OW23773   0.389   3.020  15.495 -0.5680 -0.1443 -0.1999
 4047SOL    HW123774   0.329   3.048  15.564  1.0541  2.5494  0.1125
 4047SOL    HW223775   0.431   3.102  15.471  1.2470 -1.1387 -0.3863
 4048SOL     OW23776   2.149   2.649   2.484 -0.6309 -0.2807  0.2969
 4048SOL    HW123777   2.114   2.584   2.545 -0.4832 -1.0561 -0.4426
 4048SOL    HW223778   2.147   2.726   2.540  0.2153 -0.2917  0.3549
 4049SOL     OW23779   0.983   1.922   9.430 -0.1404 -0.0976  0.6108
 4049SOL    HW123780   0.889   1.909   9.423  0.0020 -1.3674  1.0524
 4049SOL    HW223781   1.007   1.834   9.461  4.0573  0.9111  0.1858
 4050SOL     OW23782   3.431   0.615   1.810  0.2549  0.4057  0.0030
 4050SOL    HW123783   3.487   0.657   1.745  2.6977 -3.4856 -0.4005
 4050SOL    HW223784   3.413   0.699   1.853 -3.2688 -0.3860  0.0845
 4051SOL     OW23785   1.045   1.535   4.808  0.2678  0.1212 -0.0550
 4051SOL    HW123786   1.079   1.460   4.759 -0.8936 -0.5319  0.1282
 4051SOL    HW223787   1.043   1.507   4.899  2.1723 -1.7581 -0.5915
 4052SOL     OW23788   0.573   2.135  10.695  0.0416  0.8541  0.3730
 4052SOL    HW123789   0.513   2.073  10.737  0.4139  0.3305  0.1305
 4052SOL    HW223790   0.526   2.217  10.713 -1.0746 -0.0463  1.5388
 4053SOL     OW23791   0.738   0.920   4.509  0.6997  0.3697  0.4486
 4053SOL    HW123792   0.823   0.891   4.543  1.8168 -0.1762 -2.8289
 4053SOL    HW223793   0.683   0.915   4.587 -0.2859 -1.4328 -0.3831
 4054SOL     OW23794   4.542   1.045   9.332 -0.0800 -0.1330  0.1688
 4054SOL    HW123795   4.614   1.086   9.284 -0.3421  0.6025  0.4102
 4054SOL    HW223796   4.562   1.059   9.425  1.4515 -0.7235 -0.0678
 4055SOL     OW23797   3.891   2.330   9.085 -0.7904  0.3831 -0.4865
 4055SOL    HW123798   3.975   2.324   9.039 -0.1882 -0.3310  0.7130
 4055SOL    HW223799   3.894   2.256   9.145  0.7307  0.3739 -0.5776
 4056SOL     OW23800   4.589   0.050   5.005  0.1271 -0.6756 -0.3392
 4056SOL    HW123801   4.674   0.021   4.972  0.4040 -0.5508  0.2695
 4056SOL    HW223802   4.618   0.140   5.021 -0.7870 -0.4509  0.0609
 4057SOL     OW23803   3.107   1.973   7.482 -0.5061  0.1425 -0.0336
 4057SOL    HW123804   3.077   1.907   7.546  1.2694 -0.1296  0.5038
 4057SOL    HW223805   3.059   2.048   7.516  0.2022  1.4975 -2.0469
 4058SOL     OW23806   3.228   3.862  12.938  0.2016 -0.3213  0.2025
 4058SOL    HW123807   3.291   3.882  12.869  0.0908  0.3344  0.2871
 4058SOL    HW223808   3.200   3.949  12.969  1.3260 -0.7106  2.3306
 4059SOL     OW23809   4.372   1.773   1.878  0.5253  0.4737  0.1695
 4059SOL    HW123810   4.449   1.727   1.846  0.0383 -0.4621  0.3318
 4059SOL    HW223811   4.311   1.744   1.810 -0.3851 -1.1482  1.6721
 4060SOL     OW23812   2.499   4.375   1.776 -0.0821  0.2532 -0.2001
 4060SOL    HW123813   2.483   4.311   1.706 -0.1175  1.6503 -1.4695
 4060SOL    HW223814   2.415   4.382   1.821 -0.2622 -0.3816 -0.4357
 4061SOL     OW23815   4.528   1.470  16.191 -0.0715 -0.2425  0.0484
 4061SOL    HW123816   4.569   1.386  16.169  2.7117  1.1249  0.0299
 4061SOL    HW223817   4.442   1.440  16.222 -0.2576 -0.6196 -0.8361
 4062SOL     OW23818   1.634   4.676   7.165 -0.3504 -0.4426 -0.0234
 4062SOL    HW123819   1.728   4.693   7.168 -0.6523  1.4540 -1.3396
 4062SOL    HW223820   1.599   4.735   7.232  0.2279 -0.9942  0.7596
 4063SOL     OW23821   3.929   3.903  17.745  0.3431  0.1614 -0.0233
 4063SOL    HW123822   3.986   3.978   0.016 -1.9967  1.0152  3.5949
 4063SOL    HW223823   3.905   3.860   0.079 -0.4478  1.1200  0.2431
 4064SOL     OW23824   1.807   4.220   7.638  0.9304 -0.6152 -0.2722
 4064SOL    HW123825   1.899   4.235   7.660  0.7427 -1.5881  1.1814
 4064SOL    HW223826   1.762   4.226   7.722  2.0635  0.8167  0.2401
 4065SOL     OW23827   3.716   2.281   8.660  0.4545 -0.5678 -0.0298
 4065SOL    HW123828   3.757   2.281   8.573 -0.8102 -0.4586 -0.6400
 4065SOL    HW223829   3.717   2.376   8.666  1.6237 -0.5351 -0.6616
 4066SOL     OW23830   4.344   1.925   4.342  0.2479 -0.1250 -0.4053
 4066SOL    HW123831   4.250   1.925   4.359  0.2087  0.2348 -0.6226
 4066SOL    HW223832   4.356   1.831   4.335  3.5600  0.2432  0.5586
 4067SOL     OW23833   1.621   3.987   8.380 -0.0259  0.2416 -0.2930
 4067SOL    HW123834   1.690   3.941   8.332  1.4473  2.8351 -0.6271
 4067SOL    HW223835   1.605   4.052   8.312  1.2333 -1.4201 -2.1686
 4068SOL     OW23836   4.025   1.370  12.718 -1.0553 -0.2687 -0.4063
 4068SOL    HW123837   4.053   1.456  12.687 -0.4222 -0.7491 -1.1541
 4068SOL    HW223838   4.014   1.386  12.812  0.0693  0.5473 -0.4146
 4069SOL     OW23839   3.899   4.040   2.481 -0.0398  0.8331  0.2173
 4069SOL    HW123840   3.970   4.001   2.533 -0.6816 -0.0275  0.4403
 4069SOL    HW223841   3.946   4.105   2.429  1.3270  0.0661  0.4816
 4070SOL     OW23842   3.144   0.514  11.387 -0.0411 -0.6551 -0.3993
 4070SOL    HW123843   3.093   0.547  11.461  0.7845 -0.2196 -0.0294
 4070SOL    HW223844   3.230   0.515  11.428  0.4797  1.0611 -1.5098
 4071SOL     OW23845   1.743   2.979   8.400  0.1100  0.5934 -0.2007
 4071SOL    HW123846   1.805   2.906   8.388  0.6716  0.8626  1.0837
 4071SOL    HW223847   1.806   3.043   8.434  0.2286 -0.8891  2.3913
 4072SOL     OW23848   4.168   0.709   8.882 -0.1661  0.2248  0.5166
 4072SOL    HW123849   4.217   0.780   8.923  1.9379 -2.2064  2.2521
 4072SOL    HW223850   4.078   0.723   8.912 -0.9119  0.3228 -1.7375
 4073SOL     OW23851   2.974   1.305   2.195  0.0820 -0.0145 -0.1123
 4073SOL    HW123852   2.895   1.290   2.247  0.6325  0.9989  1.0361
 4073SOL    HW223853   2.982   1.400   2.201 -1.5127  0.1681 -0.7492
 4074SOL     OW23854   3.889   4.592   1.479 -0.0249 -0.4659  0.0734
 4074SOL    HW123855   3.849   4.678   1.467  0.2926 -0.2447  0.5728
 4074SOL    HW223856   3.850   4.538   1.411  0.4437 -0.5388 -0.1365
 4075SOL     OW23857   3.619   3.034  10.880 -0.0443  0.4599  0.2942
 4075SOL    HW123858   3.587   3.124  10.892  0.8156  0.6757  0.9638
 4075SOL    HW223859   3.711   3.054  10.896 -0.5377  2.0578  1.1440
 4076SOL     OW23860   3.570   0.109  13.371  0.0266  0.0568 -0.2570
 4076SOL    HW123861   3.576   0.200  13.398 -1.6545  0.2125 -0.3985
 4076SOL    HW223862   3.640   0.074  13.426  0.0557  0.1799 -0.2158
 4077SOL     OW23863   1.892   3.848   4.034 -0.4032  0.2478  0.2047
 4077SOL    HW123864   1.964   3.841   3.970 -0.7436 -2.5940  0.1258
 4077SOL    HW223865   1.944   3.852   4.114 -0.6240 -1.1994  0.4235
 4078SOL     OW23866   4.376   3.378   4.869  0.2239  0.1547  0.8901
 4078SOL    HW123867   4.292   3.353   4.907  0.0584 -2.3439 -1.1039
 4078SOL    HW223868   4.429   3.305   4.899 -0.7022 -0.3910  1.1931
 4079SOL     OW23869   2.755   2.803   7.597  0.1732 -0.0865 -0.7464
 4079SOL    HW123870   2.731   2.798   7.690 -0.5140  4.1966 -0.7077
 4079SOL    HW223871   2.804   2.885   7.596 -1.0389  0.6645  0.6210
 4080SOL     OW23872   4.646   3.227   5.007  0.1766 -0.6370 -0.3485
 4080SOL    HW123873   4.622   3.152   5.061 -1.5528 -0.3976 -0.7695
 4080SOL    HW223874   4.676   3.293   5.070  1.3838 -0.4220 -1.1544
 4081SOL     OW23875   3.852   3.681  13.384  0.2606 -0.2459  0.3304
 4081SOL    HW123876   3.919   3.693  13.318  0.0684  0.4171  0.2544
 4081SOL    HW223877   3.864   3.754  13.446 -1.9256  1.2208 -0.9632
 4082SOL     OW23878   1.250   3.747   9.595  0.4507 -0.4904 -0.3627
 4082SOL    HW123879   1.170   3.793   9.619 -0.3908 -2.4232  0.4970
 4082SOL    HW223880   1.281   3.720   9.681  2.0263  0.5178 -0.6086
 4083SOL     OW23881   2.849   2.567  11.971  0.1095  0.0786 -0.1966
 4083SOL    HW123882   2.932   2.523  11.991 -0.6282 -0.4716  1.6598
 4083SOL    HW223883   2.822   2.505  11.904  0.8445  0.7450 -1.1083
 4084SOL     OW23884   2.862   3.753  13.061  0.5086  0.2217  0.2003
 4084SOL    HW123885   2.802   3.786  12.994 -1.2050 -0.7554  1.2812
 4084SOL    HW223886   2.906   3.832  13.093 -0.1659  1.3008 -1.5495
 4085SOL     OW23887   1.264   2.612  15.327 -0.3003 -0.3569  0.4375
 4085SOL    HW123888   1.281   2.705  15.308 -1.7336 -0.5917 -1.9933
 4085SOL    HW223889   1.318   2.594  15.404 -1.0825 -3.7036  0.1957
 4086SOL     OW23890   1.698   4.574   2.424  0.9547  0.8666  0.3168
 4086SOL    HW123891   1.648   4.633   2.368 -2.6189 -2.4369  0.0035
 4086SOL    HW223892   1.787   4.565   2.388  1.0251  0.8166  0.5028
 4087SOL     OW23893   4.553   3.246   7.036  0.6222  0.2055 -0.1537
 4087SOL    HW123894   4.605   3.260   6.957 -0.2510  1.4149 -0.5212
 4087SOL    HW223895   4.484   3.310   7.019  1.9006  1.8841  0.9996
 4088SOL     OW23896   3.052   3.126   8.461 -0.2169  0.1936  0.1278
 4088SOL    HW123897   3.011   3.045   8.489  0.3632  0.1625  0.8675
 4088SOL    HW223898   2.979   3.188   8.457 -1.2473 -1.0304  0.0351
 4089SOL     OW23899   4.126   3.483   2.172 -0.4562 -1.0848  0.7463
 4089SOL    HW123900   4.035   3.462   2.154 -0.0324 -0.6525 -1.8173
 4089SOL    HW223901   4.118   3.579   2.171 -2.2324 -1.2436  0.3469
 4090SOL     OW23902   0.829   4.205   6.217  0.7235 -0.2243 -0.5674
 4090SOL    HW123903   0.919   4.238   6.220  1.0418 -1.1109 -0.3159
 4090SOL    HW223904   0.853   4.113   6.215  0.3131 -0.3791  1.4909
 4091SOL     OW23905   3.779   2.336   4.601 -0.0993  0.4270 -0.0855
 4091SOL    HW123906   3.813   2.417   4.638 -0.1649  0.1629  0.5601
 4091SOL    HW223907   3.742   2.299   4.682 -0.1799 -0.9765 -0.7601
 4092SOL     OW23908   1.462   4.088  11.737 -0.4257  0.1807 -0.2606
 4092SOL    HW123909   1.405   4.011  11.732 -0.1275 -0.0187 -0.5869
 4092SOL    HW223910   1.462   4.106  11.643 -4.0771 -2.3922 -0.7671
 4093SOL     OW23911   2.899   0.511   9.107  0.5280  0.4140 -0.3732
 4093SOL    HW123912   2.943   0.456   9.172 -1.3922  0.9461  1.3765
 4093SOL    HW223913   2.863   0.436   9.061  0.0340  0.6873 -0.4259
 4094SOL     OW23914   0.802   1.312   7.052 -0.3314 -0.6471 -0.1831
 4094SOL    HW123915   0.771   1.259   7.125  2.1312  1.4073  2.3604
 4094SOL    HW223916   0.745   1.384   7.080  2.1419  1.7667 -1.2996
 4095SOL     OW23917   2.754   3.614   8.585 -0.2160 -0.0327 -0.8266
 4095SOL    HW123918   2.830   3.567   8.620 -0.7141 -0.0603  0.2327
 4095SOL    HW223919   2.794   3.671   8.519 -0.0086 -1.0485 -1.5843
 4096SOL     OW23920   1.403   0.891   8.187 -0.4648  0.5061  0.0237
 4096SOL    HW123921   1.485   0.842   8.191  1.1424  3.3532  1.8597
 4096SOL    HW223922   1.404   0.949   8.263  1.1109  0.0421  0.3636
 4097SOL     OW23923   1.081   3.423   3.922 -0.1330  0.0309 -0.1325
 4097SOL    HW123924   1.120   3.401   3.837  0.1644 -1.2026  0.3224
 4097SOL    HW223925   0.994   3.461   3.913 -0.6251 -0.7708  1.1728
 4098SOL     OW23926   3.881   2.338   1.914 -0.0846 -0.6495 -0.3323
 4098SOL    HW123927   3.886   2.302   2.003  2.5541 -0.5306 -0.4317
 4098SOL    HW223928   3.945   2.409   1.920 -0.4631 -0.4572  1.4296
 4099SOL     OW23929   4.074   4.362  16.373 -0.2524 -0.2131  0.3520
 4099SOL    HW123930   4.031   4.353  16.288  0.6792  2.3750 -0.3844
 4099SOL    HW223931   4.011   4.425  16.410 -0.3840 -0.4815  0.5925
 4100SOL     OW23932   1.637   1.959  14.807  0.3355 -0.7550  0.2969
 4100SOL    HW123933   1.724   1.931  14.780  0.5196 -0.2519  0.3737
 4100SOL    HW223934   1.614   1.900  14.879 -0.9835 -1.6885 -0.8909
 4101SOL     OW23935   4.610   1.176   5.313 -0.0672 -0.4186  0.0901
 4101SOL    HW123936   4.655   1.110   5.366  0.2296 -0.6266 -0.4223
 4101SOL    HW223937   4.685   1.228   5.284 -0.2327  0.8536  1.9585
 4102SOL     OW23938   4.671   4.368   1.747  0.5334 -0.0936  0.4367
 4102SOL    HW123939   4.578   4.357   1.727 -0.0756  0.8419  2.8196
 4102SOL    HW223940   4.679   4.460   1.772  2.4172 -0.2391  0.3275
 4103SOL     OW23941   4.165   4.634   5.660  0.6500 -0.4224  0.3227
 4103SOL    HW123942   4.128   4.721   5.674 -1.8605 -1.2549 -1.1098
 4103SOL    HW223943   4.227   4.647   5.588 -0.9084  0.8860 -0.7872
 4104SOL     OW23944   2.548   3.002   3.575 -0.5588 -0.4437  0.3953
 4104SOL    HW123945   2.454   3.020   3.577 -0.3160  0.7977  0.6237
 4104SOL    HW223946   2.563   3.020   3.482 -1.3795 -1.3677  0.0855
 4105SOL     OW23947   1.739   2.218   4.724  0.7466 -0.2714 -0.7575
 4105SOL    HW123948   1.817   2.232   4.670  1.0914 -0.7236 -0.3760
 4105SOL    HW223949   1.772   2.156   4.789 -0.1732  0.5362  0.4882
 4106SOL     OW23950   0.983   3.767   8.014 -0.0726  0.5642 -0.1692
 4106SOL    HW123951   1.033   3.845   8.039  1.3774 -0.5549  0.4033
 4106SOL    HW223952   0.947   3.734   8.096  1.2694  3.1238  1.4574
 4107SOL     OW23953   0.036   0.504   8.596 -0.1895  0.0208 -0.4732
 4107SOL    HW123954   0.106   0.502   8.531 -0.2039  0.2987 -0.4946
 4107SOL    HW223955   0.094   0.466   8.662  1.5593  1.7679 -1.0131
 4108SOL     OW23956   2.259   1.322   6.926  0.1940 -0.6021  0.2819
 4108SOL    HW123957   2.257   1.370   7.009  1.5995 -2.0802  1.1776
 4108SOL    HW223958   2.171   1.348   6.900  0.2640 -1.7739 -1.1172
 4109SOL     OW23959   2.823   2.079   4.388  0.1967 -0.4089 -0.3291
 4109SOL    HW123960   2.861   2.050   4.471  0.6100  1.0861  0.0092
 4109SOL    HW223961   2.838   2.005   4.329 -1.9937 -1.0276 -0.0757
 4110SOL     OW23962   0.111   3.078   3.166 -0.1759  0.2890 -0.2454
 4110SOL    HW123963   0.057   3.080   3.245  0.1826  0.4861 -0.0038
 4110SOL    HW223964   0.066   3.029   3.097  0.1327  0.1811 -0.3695
 4111SOL     OW23965   1.751   4.306  11.310 -0.0907 -0.2071  0.1868
 4111SOL    HW123966   1.774   4.240  11.374  1.7520 -0.4291 -0.7011
 4111SOL    HW223967   1.738   4.252  11.232  0.8974 -0.6486  0.3336
 4112SOL     OW23968   4.190   4.487   6.717 -0.5078 -0.4557  0.1185
 4112SOL    HW123969   4.199   4.486   6.812 -0.2155 -0.1131  0.0926
 4112SOL    HW223970   4.186   4.577   6.685  1.2540 -0.7399 -0.9466
 4113SOL     OW23971   3.647   4.159   7.365 -0.5246  0.5873 -0.0972
 4113SOL    HW123972   3.658   4.138   7.272 -2.1122 -1.1252  0.0901
 4113SOL    HW223973   3.562   4.121   7.386  1.0213 -1.8289  1.8948
 4114SOL     OW23974   4.197   2.327   4.206  0.4607  0.6543 -0.5305
 4114SOL    HW123975   4.236   2.240   4.221 -0.5432 -0.0179 -1.8047
 4114SOL    HW223976   4.127   2.304   4.145  1.4416 -0.1776 -1.3462
 4115SOL     OW23977   1.139   1.897   8.293  0.6041  0.1757 -0.3120
 4115SOL    HW123978   1.095   1.982   8.287  0.1925 -0.0567 -0.5156
 4115SOL    HW223979   1.215   1.909   8.350  0.9538 -0.5145 -0.6317
 4116SOL     OW23980   2.097   4.266  16.334 -0.2312  0.1498 -0.0325
 4116SOL    HW123981   2.075   4.244  16.244  0.2963 -1.3884  0.2205
 4116SOL    HW223982   2.116   4.175  16.358  2.0004  0.8293  0.8020
 4117SOL     OW23983   2.723   1.866   8.447 -0.0460  0.8171  0.2646
 4117SOL    HW123984   2.633   1.893   8.468 -0.2122 -0.2862  0.9722
 4117SOL    HW223985   2.756   1.843   8.534  1.2405  0.3257 -0.3472
 4118SOL     OW23986   1.506   1.132   1.421 -0.4431  0.4353 -0.2255
 4118SOL    HW123987   1.568   1.144   1.493 -0.9335 -1.4185  0.5094
 4118SOL    HW223988   1.540   1.051   1.383 -0.3085  1.1874 -1.6923
 4119SOL     OW23989   4.077   1.698   6.467 -0.7188  0.7150 -0.2640
 4119SOL    HW123990   4.144   1.634   6.491 -0.8196  0.2612 -1.1588
 4119SOL    HW223991   4.088   1.720   6.374 -1.0920  1.8793 -0.0342
 4120SOL     OW23992   4.636   3.048  12.539 -0.6533  0.2644 -0.0514
 4120SOL    HW123993   4.673   2.960  12.538 -0.6711  0.2568 -0.0244
 4120SOL    HW223994   4.568   3.045  12.606  0.0713  4.8799  0.9302
 4121SOL     OW23995   2.550   3.176  13.374 -0.6800  0.0535  0.1637
 4121SOL    HW123996   2.503   3.149  13.453  0.1393  1.2241  1.0453
 4121SOL    HW223997   2.606   3.249  13.400 -0.9154 -1.1881  4.1353
 4122SOL     OW23998   1.395   1.634   4.477  0.0055  0.3416 -0.4994
 4122SOL    HW123999   1.343   1.555   4.494  0.7069 -0.3916 -1.8327
 4122SOL    HW224000   1.342   1.660   4.402  0.5420  0.5073 -0.8143
 4123SOL     OW24001   2.693   2.936  14.982  0.2662  0.7022  0.3342
 4123SOL    HW124002   2.766   2.897  15.031  1.1336  1.3676 -0.4365
 4123SOL    HW224003   2.668   2.866  14.922 -2.4470 -0.5896  2.9760
 4124SOL     OW24004   2.994   0.132   5.702  0.0993  0.5913 -0.0302
 4124SOL    HW124005   3.061   0.105   5.765  2.1354 -0.2884 -2.5742
 4124SOL    HW224006   2.943   0.052   5.703 -0.6373  1.0662  1.7066
 4125SOL     OW24007   2.960   4.287   5.028  0.3132  0.1962 -0.5022
 4125SOL    HW124008   2.870   4.314   5.008  0.5824  1.3373 -0.1643
 4125SOL    HW224009   2.997   4.364   5.071  1.3775  0.7772 -2.4575
 4126SOL     OW24010   1.158   2.443   5.091 -0.0300  0.1566 -0.0225
 4126SOL    HW124011   1.204   2.520   5.058 -2.3854  1.9664  0.9888
 4126SOL    HW224012   1.108   2.409   5.016  1.3409 -0.3291 -0.7256
 4127SOL     OW24013   2.996   0.649   0.806 -0.4551  0.4611 -0.4471
 4127SOL    HW124014   3.065   0.711   0.830  0.6675 -0.8746 -0.2644
 4127SOL    HW224015   2.923   0.673   0.863 -1.0180  0.6240 -1.2322
 4128SOL     OW24016   1.333   1.229  14.671 -0.1263 -0.5859 -0.0503
 4128SOL    HW124017   1.347   1.142  14.632 -1.1758 -1.2001  0.9252
 4128SOL    HW224018   1.303   1.284  14.598  0.3676 -0.3290 -0.0582
 4129SOL     OW24019   3.866   1.351   7.422 -0.2440  0.2282  0.2174
 4129SOL    HW124020   3.847   1.259   7.440 -0.5223  0.1695 -0.3704
 4129SOL    HW224021   3.794   1.366   7.361  1.4920  0.1588 -1.8798
 4130SOL     OW24022   0.524   3.339  13.091  0.2180 -0.0149  0.1329
 4130SOL    HW124023   0.476   3.390  13.156  2.0197 -0.4808  1.8389
 4130SOL    HW224024   0.531   3.399  13.017 -0.8887 -1.6648 -1.3314
 4131SOL     OW24025   3.240   1.847  15.667  0.0949 -0.4237 -0.0000
 4131SOL    HW124026   3.312   1.838  15.729  0.8607 -3.3753 -1.3141
 4131SOL    HW224027   3.188   1.773  15.700 -0.9495 -0.2139 -1.1399
 4132SOL     OW24028   2.930   1.787   2.098  0.3185  0.8207  0.1856
 4132SOL    HW124029   2.889   1.854   2.042  0.1271  1.4202  1.0330
 4132SOL    HW224030   2.984   1.765   2.022  0.1597 -0.5786  0.4915
 4133SOL     OW24031   1.193   2.762  11.611 -0.3004 -0.2836 -0.2346
 4133SOL    HW124032   1.232   2.736  11.528  0.9509 -1.1649  0.6181
 4133SOL    HW224033   1.169   2.854  11.599  2.3466  0.0154 -3.3115
 4134SOL     OW24034   4.253   1.230   3.163 -0.1387 -0.3364 -0.3125
 4134SOL    HW124035   4.238   1.323   3.182  1.1150 -0.5493  1.7083
 4134SOL    HW224036   4.312   1.209   3.235  0.0780 -1.2617 -0.7538
 4135SOL     OW24037   1.057   0.499  15.181 -0.3068  0.7931 -0.3877
 4135SOL    HW124038   0.966   0.470  15.175 -0.0011  0.0903 -1.6663
 4135SOL    HW224039   1.089   0.434  15.243  0.1371  0.0783 -1.3668
 4136SOL     OW24040   4.086   0.222   7.330  0.6255  0.2737 -0.4625
 4136SOL    HW124041   4.114   0.236   7.239 -0.3642  0.3957 -0.7470
 4136SOL    HW224042   4.161   0.170   7.360  0.4616  1.0256  1.2700
 4137SOL     OW24043   3.325   2.795   2.870  0.4503  0.1337 -0.0809
 4137SOL    HW124044   3.233   2.819   2.863  0.5929  0.2061 -1.7633
 4137SOL    HW224045   3.352   2.842   2.949 -1.2660  0.0468  0.5505
 4138SOL     OW24046   4.730   0.798   3.418  0.2982 -0.4738 -0.2584
 4138SOL    HW124047   4.708   0.782   3.326  1.5466 -2.2030 -0.2614
 4138SOL    HW224048   4.683   0.877   3.443 -1.9342 -1.1872 -2.2029
 4139SOL     OW24049   2.216   0.706   9.234 -0.2903  0.1569 -0.1353
 4139SOL    HW124050   2.271   0.670   9.165 -0.1004 -0.2841  0.2417
 4139SOL    HW224051   2.269   0.783   9.254  1.6538 -1.5688  1.2993
 4140SOL     OW24052   4.347   1.150   2.918 -0.4707 -0.6140  0.1583
 4140SOL    HW124053   4.314   1.221   2.863  0.3061 -1.3092 -1.2061
 4140SOL    HW224054   4.320   1.177   3.006  0.2774 -1.2163  0.5755
 4141SOL     OW24055   4.164   3.357   7.811  0.1542 -0.2534  0.3858
 4141SOL    HW124056   4.163   3.272   7.766  0.4499  0.7049 -1.4236
 4141SOL    HW224057   4.084   3.402   7.781 -0.7024 -0.9123  1.6903
 4142SOL     OW24058   2.462   2.612   8.012  0.3385 -0.8218  0.4007
 4142SOL    HW124059   2.408   2.536   7.989  0.7853 -0.9163 -0.3520
 4142SOL    HW224060   2.406   2.669   8.066  1.1571  1.0116 -0.6811
 4143SOL     OW24061   2.584   4.030   8.400 -0.4296 -0.5839 -0.2805
 4143SOL    HW124062   2.613   4.121   8.404 -0.2608 -0.5800 -1.4291
 4143SOL    HW224063   2.616   3.995   8.483 -1.7071 -0.9378  0.0542
 4144SOL     OW24064   2.573   4.660   4.771 -0.2345 -0.1015 -0.1308
 4144SOL    HW124065   2.617   4.737   4.733 -0.8341 -1.5584 -3.7117
 4144SOL    HW224066   2.625   4.592   4.728 -2.0389 -0.9042 -1.0271
 4145SOL     OW24067   2.418   3.390   4.926 -0.2489  0.3576 -0.3555
 4145SOL    HW124068   2.469   3.440   4.990  1.4018 -1.8412  0.0527
 4145SOL    HW224069   2.457   3.303   4.925  1.7732  1.2386  0.5470
 4146SOL     OW24070   1.846   0.652   0.652 -0.3152  0.3831 -0.3326
 4146SOL    HW124071   1.930   0.626   0.691  0.5346  0.2544 -2.2149
 4146SOL    HW224072   1.873   0.729   0.601  0.6172  1.7765  2.2405
 4147SOL     OW24073   0.102   0.643  13.316  0.5240 -0.4579 -0.2396
 4147SOL    HW124074   0.077   0.681  13.232  0.2403  0.3865  0.2292
 4147SOL    HW224075   0.186   0.602  13.293  0.8873  0.5289 -0.6483
 4148SOL     OW24076   3.054   3.868   8.667  0.3018  0.3993  0.2445
 4148SOL    HW124077   3.107   3.888   8.590 -0.0641  2.7673  0.5928
 4148SOL    HW224078   3.089   3.784   8.696  0.0089  0.8442  1.8955
 4149SOL     OW24079   0.830   4.081  12.103  0.0176  0.3942 -0.1994
 4149SOL    HW124080   0.858   4.071  12.194 -2.4514 -3.1995  0.1926
 4149SOL    HW224081   0.898   4.132  12.059  0.7162 -0.8816 -0.6119
 4150SOL     OW24082   0.487   2.322   8.269  0.1166  0.9479  0.0813
 4150SOL    HW124083   0.565   2.344   8.321  0.6155  0.7086 -0.5708
 4150SOL    HW224084   0.423   2.371   8.321 -0.8402 -1.7542  1.4202
 4151SOL     OW24085   3.680   2.000  12.528 -0.0489 -0.2121  0.4677
 4151SOL    HW124086   3.678   1.993  12.432 -1.2419  3.7067  0.1738
 4151SOL    HW224087   3.658   1.910  12.551 -0.6865 -0.0628  0.4244
 4152SOL     OW24088   4.666   2.970   5.411  0.0731  0.1976 -0.0105
 4152SOL    HW124089   4.734   3.002   5.351  1.4277  0.7792  1.8488
 4152SOL    HW224090   4.642   2.900   5.351 -2.7722  0.7247  0.5510
 4153SOL     OW24091   4.051   4.005   1.240 -0.0470  0.0505 -0.3844
 4153SOL    HW124092   4.146   4.011   1.256 -0.3877 -2.3514  2.4124
 4153SOL    HW224093   4.047   3.960   1.156 -1.2229 -1.3609  0.4518
 4154SOL     OW24094   3.750   2.154   2.482  0.0854 -0.0104  0.6695
 4154SOL    HW124095   3.694   2.117   2.551  1.2754 -0.9921  1.1210
 4154SOL    HW224096   3.827   2.186   2.528  2.5370 -2.4981 -1.7474
 4155SOL     OW24097   3.682   3.606   1.268 -1.1305 -0.0373  0.1989
 4155SOL    HW124098   3.632   3.641   1.194 -1.9976  0.3716  0.9916
 4155SOL    HW224099   3.765   3.578   1.228 -1.9104 -0.4362 -1.1340
 4156SOL     OW24100   3.806   4.369   2.141 -0.2708 -0.0813  0.1747
 4156SOL    HW124101   3.810   4.461   2.166  0.0161  0.4181 -1.7136
 4156SOL    HW224102   3.768   4.374   2.053  2.5291  3.6029 -0.8142
 4157SOL     OW24103   0.138   2.094  13.158  0.1875 -0.9031 -0.1464
 4157SOL    HW124104   0.106   2.178  13.191 -0.1339 -0.3315 -1.9176
 4157SOL    HW224105   0.188   2.062  13.233  1.2377 -1.7009 -1.1849
 4158SOL     OW24106   2.476   2.770  12.789 -0.3450 -0.5767 -0.0306
 4158SOL    HW124107   2.485   2.832  12.862 -0.7681 -1.7626  1.0316
 4158SOL    HW224108   2.386   2.782  12.762  0.6300  0.5225 -2.7597
 4159SOL     OW24109   0.966   2.044   7.847  0.6408 -0.3405 -0.6615
 4159SOL    HW124110   1.039   2.011   7.795  0.8082  1.1627 -1.3825
 4159SOL    HW224111   0.943   1.961   7.888 -0.0641  0.1152 -0.1384
 4160SOL     OW24112   2.452   3.639  10.814  0.1597  0.1138  0.8620
 4160SOL    HW124113   2.403   3.688  10.880  0.5925 -0.2346  1.4396
 4160SOL    HW224114   2.543   3.667  10.824  1.1809 -2.3357 -1.5423
 4161SOL     OW24115   2.745   1.775   5.319 -0.2117 -0.0178 -0.1432
 4161SOL    HW124116   2.680   1.811   5.258  0.7478 -1.6968 -2.1518
 4161SOL    HW224117   2.725   1.807   5.407 -0.4462 -1.0039  0.1586
 4162SOL     OW24118   0.087   0.488   7.345  0.5183 -0.6943 -0.3449
 4162SOL    HW124119   0.118   0.409   7.389 -0.5654 -1.4205 -0.8751
 4162SOL    HW224120   0.055   0.541   7.419  1.3947  0.0423 -0.4979
 4163SOL     OW24121   3.640   0.207   5.254  0.3488 -0.2018 -0.1182
 4163SOL    HW124122   3.627   0.281   5.314  2.8326 -0.3509  0.5967
 4163SOL    HW224123   3.645   0.248   5.168  0.1685 -0.7252 -0.3756
 4164SOL     OW24124   2.512   1.448   6.373  0.1578 -0.1144  0.0648
 4164SOL    HW124125   2.446   1.379   6.372  1.0161 -0.9583  0.5868
 4164SOL    HW224126   2.501   1.486   6.461 -0.5279 -2.2679  0.9040
 4165SOL     OW24127   3.058   3.319  15.731  0.3407  0.0104 -0.1216
 4165SOL    HW124128   3.136   3.273  15.699  1.2571  0.9680  0.7747
 4165SOL    HW224129   3.002   3.241  15.730  0.6446 -0.2077 -0.0008
 4166SOL     OW24130   4.218   1.002   4.497  0.3885 -0.0609  0.2585
 4166SOL    HW124131   4.252   1.034   4.581 -0.5288 -3.3652  1.8794
 4166SOL    HW224132   4.297   1.023   4.447  0.3548 -1.1614 -0.2658
 4167SOL     OW24133   0.155   4.211   1.781 -0.0737  0.6667 -0.2576
 4167SOL    HW124134   0.080   4.257   1.744 -0.3394  0.2387 -0.2542
 4167SOL    HW224135   0.119   4.194   1.868 -0.9900 -1.5297 -1.0481
 4168SOL     OW24136   0.629   0.534   8.561 -0.0142  0.5692  0.5640
 4168SOL    HW124137   0.625   0.475   8.636 -1.6880 -0.3305 -0.2288
 4168SOL    HW224138   0.708   0.584   8.582  0.5012  0.9556 -2.3400
 4169SOL     OW24139   0.958   1.703   3.145 -0.2132 -0.0840 -0.1771
 4169SOL    HW124140   0.919   1.676   3.229 -0.0824  0.3796  0.0339
 4169SOL    HW224141   0.889   1.767   3.129  2.0643  2.6850  1.2252
 4170SOL     OW24142   0.233   1.232   4.824  0.2355  0.5053 -0.3238
 4170SOL    HW124143   0.221   1.242   4.730  0.7807  3.0619 -0.1001
 4170SOL    HW224144   0.297   1.161   4.825 -1.1512 -0.7312  0.8300
 4171SOL     OW24145   1.513   2.710   6.714  0.2932 -0.6115 -0.6618
 4171SOL    HW124146   1.543   2.683   6.627  0.0293 -1.8364 -0.3834
 4171SOL    HW224147   1.433   2.746   6.677  1.1904  1.1329 -0.8977
 4172SOL     OW24148   3.525   0.276   6.289  0.0866  0.4790  0.1831
 4172SOL    HW124149   3.470   0.336   6.238 -0.1321  0.1678  0.0577
 4172SOL    HW224150   3.506   0.314   6.374  0.8514  0.1470  0.4947
 4173SOL     OW24151   1.559   2.391   3.329  0.1921 -0.7241  0.6422
 4173SOL    HW124152   1.567   2.391   3.234  0.5623  0.9486  0.6695
 4173SOL    HW224153   1.640   2.350   3.358  1.1255 -0.0729 -1.0863
 4174SOL     OW24154   2.117   3.880   3.368 -0.0482 -1.1250 -0.1921
 4174SOL    HW124155   2.187   3.834   3.415  1.6257  0.9466 -0.6805
 4174SOL    HW224156   2.126   3.863   3.274  0.3759  1.1731 -0.5653
 4175SOL     OW24157   4.509   0.380   9.284 -0.2061 -0.7379 -0.2273
 4175SOL    HW124158   4.525   0.317   9.354  0.4805  1.0552  1.2235
 4175SOL    HW224159   4.502   0.462   9.333 -1.0897 -1.1995  0.4129
 4176SOL     OW24160   0.300   2.750  13.926  0.2958  0.5172  0.9505
 4176SOL    HW124161   0.260   2.706  14.002  0.8174 -1.4034  0.1090
 4176SOL    HW224162   0.337   2.674  13.882 -2.4619 -0.7416  0.8125
 4177SOL     OW24163   3.424   4.134  14.059 -0.5927 -0.4228 -0.1659
 4177SOL    HW124164   3.434   4.199  13.990  0.0754 -0.1828  0.1545
 4177SOL    HW224165   3.350   4.172  14.105  0.2396  0.1614  0.6839
 4178SOL     OW24166   0.127   1.821  10.491 -0.3257  0.3122  0.4884
 4178SOL    HW124167   0.188   1.895  10.479  1.2934 -1.3709 -1.7406
 4178SOL    HW224168   0.042   1.856  10.464  0.6487  1.9310 -0.5113
 4179SOL     OW24169   3.741   0.865   6.952  0.0923 -0.0582 -0.0672
 4179SOL    HW124170   3.820   0.871   6.899  0.2762  0.3768  0.2632
 4179SOL    HW224171   3.662   0.878   6.900 -0.0190 -0.7955 -0.0915
 4180SOL     OW24172   3.732   3.755  15.741 -0.0685 -0.3689 -0.1903
 4180SOL    HW124173   3.753   3.697  15.814  1.8122 -0.5412 -0.8571
 4180SOL    HW224174   3.661   3.799  15.789  0.6229  0.1374  0.3686
 4181SOL     OW24175   0.225   2.103   2.304  0.4543 -0.1998 -0.7922
 4181SOL    HW124176   0.270   2.187   2.293 -0.6030  0.2076 -1.8612
 4181SOL    HW224177   0.173   2.123   2.382  2.8668 -0.7093  0.9500
 4182SOL     OW24178   1.768   0.449  14.187  0.2702  0.8777  0.4381
 4182SOL    HW124179   1.738   0.363  14.159 -1.0876  1.3443  0.4548
 4182SOL    HW224180   1.805   0.479  14.104 -0.8391  0.0952 -0.3317
 4183SOL     OW24181   4.099   4.292  11.555 -0.3429 -0.0669  0.3426
 4183SOL    HW124182   4.145   4.350  11.616 -0.6322 -0.9091  1.3614
 4183SOL    HW224183   4.122   4.321  11.467  0.5696 -0.9019  0.3100
 4184SOL     OW24184   3.812   0.122   1.856  0.0654 -0.3478  0.2420
 4184SOL    HW124185   3.844   0.034   1.835  1.6648  0.7231 -1.9299
 4184SOL    HW224186   3.880   0.153   1.916 -0.2814  1.5814 -0.3547
 4185SOL     OW24187   3.019   3.351   1.907 -0.0174  0.0512  0.5900
 4185SOL    HW124188   3.087   3.370   1.972  1.8290 -0.3082 -1.2551
 4185SOL    HW224189   2.997   3.440   1.878  1.3352  0.5728  1.1828
 4186SOL     OW24190   2.599   0.541   2.637 -0.6845  0.2030  1.3296
 4186SOL    HW124191   2.615   0.473   2.702  0.8103 -0.1247  0.6321
 4186SOL    HW224192   2.577   0.617   2.691  0.7684  0.9921  0.8220
 4187SOL     OW24193   4.134   0.072   6.048  0.1580 -0.2805 -0.6174
 4187SOL    HW124194   4.063   0.008   6.052 -2.1218  2.2198 -1.0442
 4187SOL    HW224195   4.154   0.072   6.141  0.4594 -2.9025 -0.6830
 4188SOL     OW24196   3.529   2.120  10.805  0.0682  0.2545 -0.1596
 4188SOL    HW124197   3.582   2.146  10.729 -1.8095  1.0200 -1.2161
 4188SOL    HW224198   3.502   2.208  10.830  2.0652  0.9658 -0.5223
 4189SOL     OW24199   4.353   4.592   4.677  0.1614 -0.1154 -0.0684
 4189SOL    HW124200   4.373   4.506   4.641  1.2124  0.3820 -0.6675
 4189SOL    HW224201   4.302   4.561   4.752 -0.6496  0.5554 -0.3446
 4190SOL     OW24202   0.564   0.706   5.638 -0.5968  0.4383  0.1932
 4190SOL    HW124203   0.589   0.708   5.730  1.5325 -0.5899 -0.3864
 4190SOL    HW224204   0.563   0.613   5.618 -1.7164  0.7013 -0.9864
 4191SOL     OW24205   3.293   1.671   5.495 -0.2338 -0.6941 -0.0620
 4191SOL    HW124206   3.335   1.699   5.414  0.4422  0.0892  0.5628
 4191SOL    HW224207   3.202   1.696   5.478 -0.9935 -0.4732  4.1355
 4192SOL     OW24208   0.754   0.356   2.403 -0.5646 -0.4803 -0.5105
 4192SOL    HW124209   0.804   0.355   2.321  0.6652 -1.7143  0.2564
 4192SOL    HW224210   0.672   0.321   2.369 -0.2181 -0.7307 -1.0946
 4193SOL     OW24211   3.521   0.025   2.345 -0.7513 -0.4086  0.5004
 4193SOL    HW124212   3.446   0.073   2.380 -1.0421 -0.7638  0.3687
 4193SOL    HW224213   3.589   0.092   2.337 -0.5620 -0.5404  0.9418
 4194SOL     OW24214   1.957   1.692  11.752  0.0337 -0.0113  0.4430
 4194SOL    HW124215   1.963   1.599  11.729  1.8271 -0.6396  3.4243
 4194SOL    HW224216   1.887   1.702  11.816  0.2982 -1.4160  0.9478
 4195SOL     OW24217   4.632   3.056  10.585 -0.3464  0.0687  0.6237
 4195SOL    HW124218   4.704   2.993  10.585  0.3788  0.9092 -0.6931
 4195SOL    HW224219   4.636   3.094  10.672 -0.0713  2.5281 -0.4720
 4196SOL     OW24220   1.957   2.367   4.920  0.1838 -0.2450  0.4811
 4196SOL    HW124221   1.971   2.308   4.846 -2.5804 -1.9749  1.2995
 4196SOL    HW224222   2.040   2.366   4.967  1.7121 -2.1027 -2.2585
 4197SOL     OW24223   2.247   2.433   6.075 -0.3352 -0.0939  0.2092
 4197SOL    HW124224   2.205   2.347   6.075  0.9031 -0.6850  1.2939
 4197SOL    HW224225   2.182   2.484   6.123  1.5453  0.6731  1.9376
 4198SOL     OW24226   2.089   2.871   1.964  0.5477 -0.4523  0.5334
 4198SOL    HW124227   2.174   2.871   1.920 -0.5437 -1.6315 -1.5642
 4198SOL    HW224228   2.050   2.803   1.909  0.7600  1.4148 -1.9130
 4199SOL     OW24229   0.903   1.714   7.716  0.2257 -0.5277  0.2071
 4199SOL    HW124230   0.864   1.779   7.775  1.3394  0.1763  0.1651
 4199SOL    HW224231   0.969   1.681   7.776  1.6538  1.8368 -0.0528
 4200SOL     OW24232   1.762   0.950   1.750  0.0419  0.1161  0.1205
 4200SOL    HW124233   1.764   0.980   1.840 -1.2428  1.3344 -0.2524
 4200SOL    HW224234   1.736   1.026   1.697  0.9533  1.6835  1.9314
 4201SOL     OW24235   0.325   3.292   5.450  0.0882 -0.2671  0.2614
 4201SOL    HW124236   0.385   3.218   5.459 -1.6709 -1.6939  0.3341
 4201SOL    HW224237   0.241   3.261   5.484  0.5363 -1.3729  0.3514
 4202SOL     OW24238   1.778   0.132  17.565 -0.0539 -0.4950 -0.4531
 4202SOL    HW124239   1.872   0.149  17.560  0.5092 -2.5614  2.8067
 4202SOL    HW224240   1.740   0.220  17.561  3.5491  1.1288  1.4128
 4203SOL     OW24241   2.759   1.502  10.125 -0.4472 -0.1225  0.0419
 4203SOL    HW124242   2.693   1.556  10.081 -0.6342 -1.1883 -0.9986
 4203SOL    HW224243   2.843   1.537  10.096 -1.5568  1.9435 -0.6791
 4204SOL     OW24244   1.692   0.583   9.222  0.4946 -0.3547  0.2585
 4204SOL    HW124245   1.675   0.520   9.292  1.2611 -1.4164 -0.5047
 4204SOL    HW224246   1.788   0.584   9.222  0.4973 -0.5415 -0.0059
 4205SOL     OW24247   2.018   3.196  12.027 -0.0794  0.0942  0.3120
 4205SOL    HW124248   2.026   3.170  11.935 -0.4272  2.6118 -0.4281
 4205SOL    HW224249   2.090   3.156  12.075  0.4751  0.0614 -0.5548
 4206SOL     OW24250   2.955   2.206   7.359  0.5509 -0.8089  0.1183
 4206SOL    HW124251   2.931   2.299   7.356  0.3748 -0.8153  1.4737
 4206SOL    HW224252   3.051   2.215   7.365  0.5986  0.8169 -3.1536
 4207SOL     OW24253   1.747   0.600   4.673 -0.3291 -0.6849  0.0070
 4207SOL    HW124254   1.683   0.660   4.712 -1.9332 -1.0729 -2.0169
 4207SOL    HW224255   1.819   0.654   4.642 -0.8574 -1.0268 -1.8249
 4208SOL     OW24256   1.842   3.062   9.575  0.0138 -0.4828  0.0096
 4208SOL    HW124257   1.783   3.069   9.500 -0.3560 -0.7274  0.2795
 4208SOL    HW224258   1.837   3.149   9.612  0.6846 -0.1938 -0.5711
 4209SOL     OW24259   0.618   1.366   8.915 -0.8977 -0.1956 -0.5957
 4209SOL    HW124260   0.681   1.437   8.897 -0.2766 -0.8413 -0.9713
 4209SOL    HW224261   0.648   1.307   8.846 -1.2917 -0.3934 -0.5949
 4210SOL     OW24262   4.405   2.705   2.160 -0.3811  0.1735 -0.4577
 4210SOL    HW124263   4.431   2.616   2.140  1.4359 -0.0541  2.7826
 4210SOL    HW224264   4.320   2.681   2.197 -0.0357  0.8334  0.7667
 4211SOL     OW24265   3.688   3.402  10.044  0.1257  0.5699  0.1282
 4211SOL    HW124266   3.654   3.360   9.966  0.4956 -2.2219  1.4795
 4211SOL    HW224267   3.607   3.414  10.094  0.1535 -0.3304  0.3747
 4212SOL     OW24268   3.874   4.562  17.657 -0.2570  0.0504 -0.1753
 4212SOL    HW124269   3.854   4.639  17.603 -2.6958 -0.0051  0.6580
 4212SOL    HW224270   3.946   4.522  17.608  2.5159  0.4770  3.5248
 4213SOL     OW24271   4.206   1.466   4.599 -0.0801  0.2423  0.8226
 4213SOL    HW124272   4.117   1.489   4.626 -0.4600 -0.2836  0.0494
 4213SOL    HW224273   4.207   1.516   4.517 -1.6354 -1.4725 -0.2408
 4214SOL     OW24274   2.538   0.744   0.683 -0.2060 -0.1270 -0.0286
 4214SOL    HW124275   2.490   0.816   0.642 -2.5768 -0.7143  1.6729
 4214SOL    HW224276   2.487   0.732   0.764 -0.6496 -1.2903 -0.4846
 4215SOL     OW24277   4.243   0.847   8.107  0.4693 -0.4555  0.2335
 4215SOL    HW124278   4.332   0.822   8.081  0.7819 -2.5158  3.2100
 4215SOL    HW224279   4.261   0.864   8.200 -1.7760 -0.0523  0.5876
 4216SOL     OW24280   2.623   0.929  12.596 -0.4232  0.1066 -0.3299
 4216SOL    HW124281   2.636   0.850  12.648  0.6156  0.9798  0.7153
 4216SOL    HW224282   2.657   0.992  12.660 -0.6721  0.2492 -0.3369
 4217SOL     OW24283   4.609   0.529   9.924 -0.3481  0.3899 -0.2597
 4217SOL    HW124284   4.637   0.439   9.938  0.9400  0.9828  0.9439
 4217SOL    HW224285   4.594   0.528   9.830 -2.5510 -1.3106  0.1284
 4218SOL     OW24286   4.543   4.209   1.299 -0.2028 -0.0734 -0.0570
 4218SOL    HW124287   4.569   4.299   1.280 -3.2714  1.1078  1.3219
 4218SOL    HW224288   4.488   4.185   1.224 -0.4103  0.1630  0.0201
 4219SOL     OW24289   2.075   0.542   3.718 -0.6558 -0.6434  0.0447
 4219SOL    HW124290   2.082   0.459   3.765  2.0446 -0.1561  0.5455
 4219SOL    HW224291   2.070   0.603   3.792  0.0018  0.1588 -0.5733
 4220SOL     OW24292   3.392   2.232   7.118  0.2575  0.1646 -0.2748
 4220SOL    HW124293   3.337   2.294   7.165  0.2467  0.6228 -0.8826
 4220SOL    HW224294   3.370   2.257   7.028 -1.8363 -0.8127 -0.0204
 4221SOL     OW24295   4.303   4.051   9.204  0.2033 -0.0761  0.0890
 4221SOL    HW124296   4.211   4.027   9.216  0.0363  0.9062  0.8132
 4221SOL    HW224297   4.353   3.978   9.241 -3.4211 -2.5296  0.2013
 4222SOL     OW24298   3.251   1.009   1.440  0.1220  0.0582  0.8142
 4222SOL    HW124299   3.288   1.000   1.528  0.6659  2.4159  0.8127
 4222SOL    HW224300   3.214   0.921   1.430 -0.4121 -0.0084  3.3845
 4223SOL     OW24301   0.522   3.917   1.934  0.0621 -0.5090 -0.5760
 4223SOL    HW124302   0.473   3.966   2.000  3.0016  2.7786 -0.8214
 4223SOL    HW224303   0.457   3.851   1.912 -2.1114  0.7609  1.9745
 4224SOL     OW24304   2.923   1.051   9.073 -0.1631  0.2241  0.0337
 4224SOL    HW124305   2.916   0.957   9.093  1.5992 -0.0473 -0.5881
 4224SOL    HW224306   3.003   1.061   9.022 -0.0113 -2.0144 -0.1566
 4225SOL     OW24307   3.260   0.384   4.471  0.2501  0.2365  0.2495
 4225SOL    HW124308   3.200   0.417   4.538 -0.2631 -0.2163  0.0122
 4225SOL    HW224309   3.248   0.289   4.481 -3.0372  0.7940  1.6875
 4226SOL     OW24310   1.341   3.644   2.157 -0.2250 -0.1763 -0.2957
 4226SOL    HW124311   1.402   3.713   2.185 -2.9790  1.7958  0.8523
 4226SOL    HW224312   1.278   3.635   2.229 -0.7365  0.4173 -0.6720
 4227SOL     OW24313   0.104   0.882   7.676 -0.3628  0.1833  0.3811
 4227SOL    HW124314   0.051   0.961   7.670 -0.3141  0.2999  1.4293
 4227SOL    HW224315   0.030   0.825   7.697  1.6773 -1.5265  2.9276
 4228SOL     OW24316   0.712   1.917   5.651 -0.0249  0.7479  0.2175
 4228SOL    HW124317   0.735   1.827   5.672 -1.0915  0.8342  1.7350
 4228SOL    HW224318   0.700   1.912   5.556 -0.2793 -0.8031  0.3265
 4229SOL     OW24319   2.420   0.592   1.461 -0.5156 -0.3399  0.1204
 4229SOL    HW124320   2.340   0.571   1.413 -0.2930 -0.9160  0.0026
 4229SOL    HW224321   2.460   0.506   1.476  0.0329  0.2617  2.0401
 4230SOL     OW24322   1.830   3.897   2.529 -0.4769 -0.4699  0.1478
 4230SOL    HW124323   1.852   3.923   2.618  1.0661 -1.1481 -0.0504
 4230SOL    HW224324   1.736   3.880   2.531 -0.8610  1.5128 -0.9217
 4231SOL     OW24325   1.288   1.308   1.978 -0.1383  0.3982 -0.2886
 4231SOL    HW124326   1.324   1.220   1.989 -1.0002  0.0530 -0.2152
 4231SOL    HW224327   1.366   1.361   1.964 -1.0598  1.0864 -2.8230
 4232SOL     OW24328   3.483   3.433   3.543  0.0538  0.4832 -0.1203
 4232SOL    HW124329   3.481   3.512   3.489  0.1542  0.6441  0.1093
 4232SOL    HW224330   3.437   3.372   3.486  0.5817 -1.7547  1.8198
 4233SOL     OW24331   2.424   1.080   2.556  0.1247 -0.8027  1.0342
 4233SOL    HW124332   2.480   1.079   2.479 -0.1652 -3.8935  0.8797
 4233SOL    HW224333   2.393   0.990   2.558  2.1313 -1.5130 -0.7851
 4234SOL     OW24334   3.308   1.404   5.521 -0.7056  0.3123  0.2230
 4234SOL    HW124335   3.217   1.422   5.497 -0.1219  1.4493 -1.1144
 4234SOL    HW224336   3.342   1.489   5.548 -0.3835 -0.1930  1.4118
 4235SOL     OW24337   2.779   3.383   2.571  0.3928 -0.6917 -0.5346
 4235SOL    HW124338   2.783   3.366   2.665  0.9038 -0.3244 -0.4912
 4235SOL    HW224339   2.732   3.466   2.568 -2.8835 -2.4166  3.0639
 4236SOL     OW24340   4.593   1.707   1.727 -0.0090  1.0390  0.0647
 4236SOL    HW124341   4.593   1.635   1.664  0.3935 -0.0270  1.2782
 4236SOL    HW224342   4.632   1.784   1.685  0.3424  0.2217 -1.1108
 4237SOL     OW24343   1.623   2.717   9.887  0.2942 -0.0205  0.3616
 4237SOL    HW124344   1.551   2.696   9.828  1.5474 -0.0857 -1.1420
 4237SOL    HW224345   1.590   2.767   9.962  2.3735  1.4424  0.2961
 4238SOL     OW24346   0.586   1.337  11.932 -0.1948  0.5304  0.2219
 4238SOL    HW124347   0.589   1.374  11.844 -1.6429  2.4003  0.9673
 4238SOL    HW224348   0.662   1.391  11.955  0.7117 -0.3769 -0.6759
 4239SOL     OW24349   0.545   2.618  10.867  0.0203  0.4173  0.3555
 4239SOL    HW124350   0.498   2.670  10.932  0.1519 -0.9637  1.5602
 4239SOL    HW224351   0.634   2.650  10.883  1.2046 -2.1323 -1.1514
 4240SOL     OW24352   4.174   0.470   2.837  0.0880 -0.9171 -0.2757
 4240SOL    HW124353   4.217   0.472   2.752  1.8849 -1.1117  0.6256
 4240SOL    HW224354   4.225   0.400   2.878 -0.1651 -0.2163  1.2595
 4241SOL     OW24355   1.023   0.372   3.151  0.2952 -0.6644  0.0104
 4241SOL    HW124356   1.035   0.446   3.210  1.8599 -3.4919  3.2191
 4241SOL    HW224357   1.081   0.399   3.081 -0.2824  1.4868  0.3780
 4242SOL     OW24358   2.961   4.686   0.601 -0.3655 -0.3712  0.1410
 4242SOL    HW124359   3.033   4.693   0.663  1.4989 -0.4784 -2.0015
 4242SOL    HW224360   2.949   0.038   0.568  0.2323 -0.4529 -0.3039
 4243SOL     OW24361   3.199   4.472   8.463 -0.2565  0.6341 -0.1961
 4243SOL    HW124362   3.173   4.402   8.523  1.0944  1.0968  0.9427
 4243SOL    HW224363   3.276   4.496   8.514  0.6219 -1.1478 -0.6962
 4244SOL     OW24364   1.384   3.808   2.975 -0.2319 -0.1036  0.2175
 4244SOL    HW124365   1.312   3.764   3.021 -0.1987 -1.5430 -1.1186
 4244SOL    HW224366   1.397   3.889   3.024  1.5226 -1.1296  1.4470
 4245SOL     OW24367   3.336   0.452   6.166 -0.5909 -0.5060 -0.0239
 4245SOL    HW124368   3.272   0.505   6.214  0.4006 -1.2944  2.1442
 4245SOL    HW224369   3.309   0.439   6.075 -0.4832  0.0548 -0.1376
 4246SOL     OW24370   0.009   0.672   5.424 -0.6153  0.1901  0.0318
 4246SOL    HW124371   4.709   0.715   5.501  2.2748  0.1145  1.4845
 4246SOL    HW224372   0.099   0.705   5.413 -0.4481  0.1001  1.1944
 4247SOL     OW24373   0.287   1.986   3.153 -0.0375 -0.4934  0.1753
 4247SOL    HW124374   0.231   1.994   3.230 -1.1424 -0.9321 -0.5717
 4247SOL    HW224375   0.347   2.056   3.180  0.5161 -1.3993  1.2746
 4248SOL     OW24376   0.430   4.354   0.381  0.1865 -0.1847 -0.2888
 4248SOL    HW124377   0.418   4.380   0.290 -0.2746  0.5276 -0.0192
 4248SOL    HW224378   0.524   4.374   0.385  0.2021 -0.2530 -0.3148
 4249SOL     OW24379   3.261   1.410  14.527 -0.1682  0.5005 -0.8224
 4249SOL    HW124380   3.206   1.346  14.571  1.0189 -1.5604 -2.3097
 4249SOL    HW224381   3.202   1.461  14.472 -3.3180 -0.3800  1.7956
 4250SOL     OW24382   3.608   0.725   2.156  0.2027 -0.1594 -0.2374
 4250SOL    HW124383   3.652   0.710   2.240  0.2342  1.1228 -0.0277
 4250SOL    HW224384   3.675   0.696   2.093  0.6201  2.6147 -1.0513
 4251SOL     OW24385   2.399   1.351   7.561 -0.2045 -0.7934  0.8859
 4251SOL    HW124386   2.329   1.396   7.514  0.5620 -2.1002 -1.5334
 4251SOL    HW224387   2.431   1.416   7.624 -0.4598  0.0266  0.1786
 4252SOL     OW24388   3.238   3.652   0.418 -0.2309  0.0304 -0.5643
 4252SOL    HW124389   3.237   3.651   0.322  0.4518 -0.6545 -0.5692
 4252SOL    HW224390   3.179   3.727   0.427 -1.6280 -0.9942 -1.1464
 4253SOL     OW24391   3.654   4.162   1.164 -0.8592  0.2586  0.4595
 4253SOL    HW124392   3.696   4.243   1.136  0.3388 -0.7017 -0.5145
 4253SOL    HW224393   3.566   4.183   1.193 -0.2027  2.6234  0.7023
 4254SOL     OW24394   0.599   0.384   8.832 -1.3786  0.7808 -0.3544
 4254SOL    HW124395   0.534   0.318   8.857  0.1867  1.0198  4.2629
 4254SOL    HW224396   0.675   0.352   8.880 -0.6027  0.3087 -1.9055
 4255SOL     OW24397   4.580   3.678   2.898  0.5245  0.5770  0.3366
 4255SOL    HW124398   4.517   3.750   2.892  0.4037  0.3749 -0.8198
 4255SOL    HW224399   4.513   3.610   2.896  1.7867 -0.6490  0.2783
 4256SOL     OW24400   3.469   3.572   0.616 -0.2088 -0.1613 -0.1624
 4256SOL    HW124401   3.549   3.626   0.613 -0.7682  0.5160 -2.5079
 4256SOL    HW224402   3.407   3.624   0.566 -0.6844 -1.4027 -0.8463
 4257SOL     OW24403   1.352   1.479   7.346  0.1432 -0.1722  0.0036
 4257SOL    HW124404   1.341   1.424   7.268 -1.4916 -0.9511  0.7828
 4257SOL    HW224405   1.260   1.484   7.369 -0.0359  0.8392 -0.9385
 4258SOL     OW24406   2.954   1.560   3.114  0.0062 -0.9537  0.9202
 4258SOL    HW124407   3.002   1.580   3.194  2.7285  1.8565 -1.4022
 4258SOL    HW224408   2.876   1.614   3.125  1.2164  0.8936  0.4085
 4259SOL     OW24409   3.821   0.531   7.829 -0.4225 -0.4467 -0.6223
 4259SOL    HW124410   3.745   0.473   7.815 -1.6851  0.8946  0.7198
 4259SOL    HW224411   3.797   0.570   7.913  1.5754  0.1718 -0.3473
 4260SOL     OW24412   1.251   3.280   2.139  0.3144 -0.4955 -0.4912
 4260SOL    HW124413   1.220   3.368   2.120  0.6377 -0.7567 -2.2467
 4260SOL    HW224414   1.208   3.230   2.069 -0.6735  0.5705 -0.6426
 4261SOL     OW24415   3.091   3.299   5.782  0.3150  1.2727 -0.2950
 4261SOL    HW124416   3.051   3.212   5.791  0.3380  1.4682  1.6740
 4261SOL    HW224417   3.150   3.301   5.858  1.7448 -2.0741 -1.3080
 4262SOL     OW24418   0.182   1.694  15.038 -0.6340 -0.4496  0.3076
 4262SOL    HW124419   0.182   1.703  15.133  1.7052 -1.2854  0.3840
 4262SOL    HW224420   0.109   1.634  15.022  0.7949 -1.7720 -1.3579
 4263SOL     OW24421   2.636   3.564  14.019 -0.2942  0.0511 -0.3049
 4263SOL    HW124422   2.630   3.644  14.071  0.4462 -1.2745  1.8280
 4263SOL    HW224423   2.620   3.486  14.072 -0.5839 -0.0245 -0.5035
 4264SOL     OW24424   3.324   0.347  11.066 -0.0345 -0.0605  0.2524
 4264SOL    HW124425   3.358   0.425  11.110 -0.1894  0.4558 -0.5482
 4264SOL    HW224426   3.335   0.360  10.972 -0.3713  0.4132  0.2729
 4265SOL     OW24427   2.434   1.009   5.612 -0.4643  0.1548  0.3804
 4265SOL    HW124428   2.454   0.976   5.525 -0.8179  1.7362 -0.2964
 4265SOL    HW224429   2.387   0.936   5.654  0.2263 -1.0388 -0.9411
 4266SOL     OW24430   0.265   0.359   6.257  0.2785  0.2728 -0.1442
 4266SOL    HW124431   0.240   0.290   6.195 -0.8849  1.2448 -0.7499
 4266SOL    HW224432   0.327   0.308   6.309 -2.4769 -0.5787  2.2874
 4267SOL     OW24433   1.812   2.319   9.459  0.4231 -0.0399  0.2007
 4267SOL    HW124434   1.802   2.414   9.463 -1.8335 -0.2742  0.0500
 4267SOL    HW224435   1.721   2.291   9.454  0.4255  0.3177 -2.0839
 4268SOL     OW24436   3.165   2.577   2.708 -0.2373 -0.4145  0.2128
 4268SOL    HW124437   3.149   2.671   2.706 -1.0923 -0.5560  0.3353
 4268SOL    HW224438   3.260   2.571   2.711 -0.1642  1.4503  1.8446
 4269SOL     OW24439   3.440   1.533   2.938 -0.0507 -0.2652  0.4400
 4269SOL    HW124440   3.458   1.440   2.923  2.0475  0.5644 -2.1439
 4269SOL    HW224441   3.523   1.566   2.971 -0.2158 -0.0798  0.6720
 4270SOL     OW24442   3.820   3.528   3.381 -0.3702  0.1971 -0.6697
 4270SOL    HW124443   3.837   3.588   3.454  2.5174 -0.7658 -0.5476
 4270SOL    HW224444   3.733   3.495   3.402 -0.6817 -0.1956 -2.5976
 4271SOL     OW24445   3.505   2.208   5.108  0.0400 -0.3498 -0.3271
 4271SOL    HW124446   3.526   2.222   5.201  0.8347 -0.0662 -0.5455
 4271SOL    HW224447   3.418   2.245   5.098  0.0212 -0.5465 -0.8940
 4272SOL     OW24448   0.287   4.730  12.720 -0.3055 -0.2210 -0.0271
 4272SOL    HW124449   0.289   0.071  12.665  0.0004 -0.8272 -0.8865
 4272SOL    HW224450   0.230   0.024  12.790 -1.0306 -0.1367 -0.6585
 4273SOL     OW24451   3.740   0.635   3.666  0.5256 -0.1164 -0.2516
 4273SOL    HW124452   3.675   0.638   3.736 -0.8832 -1.6366 -1.5139
 4273SOL    HW224453   3.707   0.683   3.590 -0.6640 -1.0826 -0.3425
 4274SOL     OW24454   1.732   3.846   4.548  0.2183  0.4670 -0.0490
 4274SOL    HW124455   1.769   3.856   4.636 -0.7018 -0.1976  0.4159
 4274SOL    HW224456   1.701   3.934   4.526 -0.7585  0.1182 -0.0659
 4275SOL     OW24457   0.465   2.357   5.566  0.9288 -0.3224 -0.0782
 4275SOL    HW124458   0.552   2.343   5.530  1.0184 -0.1540  0.0729
 4275SOL    HW224459   0.471   2.450   5.590 -0.0613 -0.4508  0.7081
 4276SOL     OW24460   1.061   1.400   6.963 -0.3386 -0.3464  0.0508
 4276SOL    HW124461   0.988   1.383   7.023 -0.5359  0.6445  0.0962
 4276SOL    HW224462   1.036   1.488   6.935  2.3520  1.2026  2.4158
 4277SOL     OW24463   1.552   0.711   2.314 -0.2395 -0.3619 -0.1265
 4277SOL    HW124464   1.595   0.793   2.337  0.5194 -0.3946 -1.4484
 4277SOL    HW224465   1.531   0.676   2.401 -2.2512  0.3942 -0.2973
 4278SOL     OW24466   3.458   1.126   8.162 -0.0013  0.1612 -0.3176
 4278SOL    HW124467   3.541   1.082   8.183 -0.3460 -0.9555 -1.2635
 4278SOL    HW224468   3.454   1.176   8.244  1.7233 -0.6714  0.2827
 4279SOL     OW24469   1.827   0.321   7.302 -0.2578 -0.6449  0.2774
 4279SOL    HW124470   1.809   0.320   7.396  0.7085 -2.6591  0.4387
 4279SOL    HW224471   1.747   0.365   7.271 -0.4334 -0.8758  0.3993
 4280SOL     OW24472   0.871   2.311  13.439 -0.3978 -0.2920  0.2579
 4280SOL    HW124473   0.859   2.257  13.361 -2.3139  0.5526 -0.0369
 4280SOL    HW224474   0.870   2.400  13.404 -3.4844 -0.3754  0.1345
 4281SOL     OW24475   1.623   0.141   7.779  0.8055  0.2779  0.6510
 4281SOL    HW124476   1.691   0.086   7.741  0.1696 -0.5282  0.6896
 4281SOL    HW224477   1.539   0.097   7.780  2.2061 -2.3313  3.4334
 4282SOL     OW24478   3.837   3.795   9.676  0.7823  0.3453  0.6436
 4282SOL    HW124479   3.766   3.854   9.703 -0.3250 -1.2796  1.2626
 4282SOL    HW224480   3.865   3.840   9.596 -2.5572 -0.1419 -0.8155
 4283SOL     OW24481   3.197   1.708  12.776 -0.1776 -0.2075 -0.1832
 4283SOL    HW124482   3.174   1.709  12.683 -1.2103 -1.6723  0.0592
 4283SOL    HW224483   3.200   1.615  12.797  0.0237 -0.1613 -0.0041
 4284SOL     OW24484   3.401   0.489   1.093  0.1300 -0.1960 -0.5234
 4284SOL    HW124485   3.313   0.451   1.079 -0.6537  0.4831  2.5915
 4284SOL    HW224486   3.423   0.435   1.169  0.5904 -0.0008 -0.5237
 4285SOL     OW24487   2.482   0.622   8.763 -0.4581 -0.2285 -0.3415
 4285SOL    HW124488   2.449   0.663   8.843 -0.4631  0.3214 -0.6298
 4285SOL    HW224489   2.443   0.677   8.695  0.6842 -1.6529 -2.1598
 4286SOL     OW24490   1.889   4.370   0.940  0.2599  0.6427  0.0709
 4286SOL    HW124491   1.909   4.412   0.857  0.4669  0.9264  0.2687
 4286SOL    HW224492   1.801   4.404   0.956 -1.4758 -2.5039 -2.5031
 4287SOL     OW24493   1.347   4.066   0.608  0.3107 -0.1055 -0.3906
 4287SOL    HW124494   1.310   4.089   0.522  0.7690 -2.5717 -1.2449
 4287SOL    HW224495   1.313   4.139   0.659 -1.9266 -0.5534 -1.2584
 4288SOL     OW24496   1.524   3.958  17.222 -0.1829 -0.2600 -0.2060
 4288SOL    HW124497   1.513   3.876  17.174  2.0117 -1.3067  1.0843
 4288SOL    HW224498   1.570   4.010  17.156  0.4114  1.2376  1.3991
 4289SOL     OW24499   1.792   4.254   3.703  0.1868 -0.2506  0.2791
 4289SOL    HW124500   1.777   4.257   3.798  0.6746  1.3861  0.3074
 4289SOL    HW224501   1.768   4.343   3.676 -0.4140  0.0341  1.7630
 4290SOL     OW24502   4.137   2.314   3.405  0.1863 -0.3848  0.0252
 4290SOL    HW124503   4.133   2.409   3.399  1.5287 -0.3362 -0.1822
 4290SOL    HW224504   4.060   2.281   3.360 -2.0154  0.5326  3.1071
 4291SOL     OW24505   2.155   2.705   6.942 -0.0298 -0.1031 -0.3357
 4291SOL    HW124506   2.075   2.730   6.895  0.1850  1.1189 -0.0450
 4291SOL    HW224507   2.157   2.774   7.008 -0.5754 -1.7357  1.3645
 4292SOL     OW24508   1.179   0.225  14.108 -0.0469 -0.6960  0.0860
 4292SOL    HW124509   1.266   0.264  14.103 -0.8453  1.1916  0.8654
 4292SOL    HW224510   1.139   0.269  14.033 -2.2377  0.6772  2.0614
 4293SOL     OW24511   3.317   1.959   2.195  0.1742  0.3865 -0.3804
 4293SOL    HW124512   3.233   1.961   2.149  0.1500 -1.1523 -0.3833
 4293SOL    HW224513   3.302   2.032   2.256  0.6206  3.4270 -3.9395
 4294SOL     OW24514   3.739   4.115   5.440 -0.2830  0.4297  0.3069
 4294SOL    HW124515   3.735   4.110   5.345  0.3298 -1.0810  0.3586
 4294SOL    HW224516   3.659   4.067   5.461 -1.3211  1.9930 -0.1288
 4295SOL     OW24517   1.979   1.975  10.795 -0.1265 -0.9566  0.5773
 4295SOL    HW124518   2.000   2.067  10.779  1.7913 -1.4764  0.1434
 4295SOL    HW224519   2.002   1.939  10.709 -1.5537 -3.3000  1.1692
 4296SOL     OW24520   4.085   1.812   6.216 -0.4182  0.3412  0.4505
 4296SOL    HW124521   3.990   1.826   6.218 -0.7425 -1.7164 -0.8154
 4296SOL    HW224522   4.089   1.732   6.164  0.6127  0.4341  0.3864
 4297SOL     OW24523   1.964   3.848   2.277 -0.5010  0.0185 -0.2976
 4297SOL    HW124524   1.978   3.934   2.315  1.1733 -0.9717  1.3612
 4297SOL    HW224525   1.937   3.804   2.358 -0.7281  1.4406  0.3906
 4298SOL     OW24526   4.058   2.497   8.630  0.1750  0.1326  0.2803
 4298SOL    HW124527   4.098   2.507   8.544  0.5360  1.7718  0.6361
 4298SOL    HW224528   4.087   2.413   8.665  0.1607 -0.5711 -1.4273
 4299SOL     OW24529   3.897   1.591   4.929 -0.5378 -0.2305  0.3065
 4299SOL    HW124530   3.808   1.555   4.930 -0.4143 -0.4957  1.3355
 4299SOL    HW224531   3.905   1.649   5.005 -0.6533  0.1462  0.0352
 4300SOL     OW24532   3.830   4.239   7.873 -0.1578  0.3295 -0.2388
 4300SOL    HW124533   3.838   4.209   7.782 -1.8190  0.8315 -0.5484
 4300SOL    HW224534   3.858   4.158   7.917  1.6899  1.0956 -0.0463
 4301SOL     OW24535   3.440   1.888   3.974 -0.0180  0.1823  0.0248
 4301SOL    HW124536   3.407   1.804   4.005 -1.0839  1.0467  1.2187
 4301SOL    HW224537   3.497   1.905   4.048  1.2354 -2.1708 -0.4073
 4302SOL     OW24538   4.090   3.887   9.247 -0.3735 -0.1751  0.2864
 4302SOL    HW124539   4.154   3.827   9.285  1.7767  1.0255 -1.4683
 4302SOL    HW224540   4.030   3.896   9.322 -1.1534  1.7946 -0.5899
 4303SOL     OW24541   0.959   1.465  13.329 -0.4135 -0.5717  0.0169
 4303SOL    HW124542   1.028   1.498  13.388 -0.3493  0.4966 -0.6598
 4303SOL    HW224543   0.988   1.374  13.343 -0.7627 -1.0949 -2.8286
 4304SOL     OW24544   0.959   3.769   0.097  0.1324 -0.7340  0.0728
 4304SOL    HW124545   0.885   3.817   0.059  1.4546  0.1356 -1.4020
 4304SOL    HW224546   0.992   3.833   0.160 -2.1258  1.7808 -1.2828
 4305SOL     OW24547   3.081   0.258   3.719 -0.0770  0.1075 -0.1225
 4305SOL    HW124548   3.147   0.300   3.776  0.2230  1.1351 -1.2220
 4305SOL    HW224549   3.036   0.205   3.784  0.8033  0.8380  1.0879
 4306SOL     OW24550   2.158   0.047  15.662  0.6856 -0.1974  0.0826
 4306SOL    HW124551   2.066   0.042  15.637  0.2807  1.2844  1.2564
 4306SOL    HW224552   2.165   4.721  15.734  1.4262  0.1731  0.3441
 4307SOL     OW24553   0.984   4.208   5.204  0.3911  0.1435  0.1443
 4307SOL    HW124554   1.043   4.264   5.154  0.4084 -1.4299 -1.6170
 4307SOL    HW224555   0.975   4.139   5.138 -0.8423 -0.5375  1.0167
 4308SOL     OW24556   3.684   0.563   8.596 -0.1192 -0.3544 -0.2474
 4308SOL    HW124557   3.693   0.535   8.505  0.0366  3.9094 -1.5256
 4308SOL    HW224558   3.744   0.507   8.646 -1.8288 -0.0467  2.1251
 4309SOL     OW24559   1.475   4.369   2.852  0.1615  0.6049  0.4521
 4309SOL    HW124560   1.404   4.340   2.795  1.5584 -1.4176 -0.2618
 4309SOL    HW224561   1.555   4.356   2.802  0.0592  1.6781  0.0185
 4310SOL     OW24562   2.386   2.074   3.678 -0.2211  0.0887 -0.0477
 4310SOL    HW124563   2.447   2.000   3.674 -0.0565  0.3032 -1.7389
 4310SOL    HW224564   2.354   2.067   3.768 -1.6040 -2.0912 -0.7143
 4311SOL     OW24565   3.419   2.404   4.656 -0.3550  0.0745  0.5812
 4311SOL    HW124566   3.479   2.477   4.665 -1.2262  0.9709 -0.9484
 4311SOL    HW224567   3.365   2.423   4.733  2.7643  0.1612  2.7615
 4312SOL     OW24568   3.277   2.115  15.670 -0.1379  0.0962  0.4882
 4312SOL    HW124569   3.321   2.109  15.585  1.1584  1.1241  1.0811
 4312SOL    HW224570   3.254   2.023  15.686 -1.4116 -0.4758 -4.6509
 4313SOL     OW24571   1.015   3.851  16.862  0.0136  0.7461  0.1506
 4313SOL    HW124572   0.940   3.903  16.889 -1.3948 -1.6036  0.7597
 4313SOL    HW224573   1.079   3.871  16.930 -0.9294  1.0239  0.9552
 4314SOL     OW24574   3.603   0.110   1.646 -0.1831  0.2871 -0.0312
 4314SOL    HW124575   3.674   0.146   1.699 -0.9344  0.6468  0.7436
 4314SOL    HW224576   3.596   0.019   1.674 -0.1507  0.3498  0.1813
 4315SOL     OW24577   2.802   2.269   8.641  0.3296  0.2438 -0.7342
 4315SOL    HW124578   2.740   2.279   8.713  0.5071 -1.0992 -0.3936
 4315SOL    HW224579   2.871   2.329   8.672  0.3841 -0.4476  0.4921
 4316SOL     OW24580   2.815   2.898   1.674 -0.5413  0.3959 -0.2085
 4316SOL    HW124581   2.835   2.974   1.728  2.7751 -0.6551  0.0305
 4316SOL    HW224582   2.722   2.906   1.650 -0.7070 -1.8424 -0.3334
 4317SOL     OW24583   0.455   4.234   2.752 -0.6935 -0.2170  0.0813
 4317SOL    HW124584   0.436   4.156   2.701 -0.2981 -0.4415  0.2780
 4317SOL    HW224585   0.383   4.232   2.815 -1.4212 -0.3590 -0.7581
 4318SOL     OW24586   2.370   3.365  15.149 -0.6748 -0.3365  0.0641
 4318SOL    HW124587   2.309   3.292  15.162  0.3369 -1.2654 -0.3754
 4318SOL    HW224588   2.365   3.373  15.054 -0.4225  2.3381  0.2964
 4319SOL     OW24589   3.322   3.223   1.903 -0.4510  0.1013 -0.1007
 4319SOL    HW124590   3.417   3.233   1.905 -0.0938 -3.1061  0.3333
 4319SOL    HW224591   3.296   3.267   1.984 -0.6789  0.6799 -0.4890
 4320SOL     OW24592   3.250   1.018   6.126  0.1623 -0.3303  0.0699
 4320SOL    HW124593   3.341   1.044   6.143 -0.0728  0.7622 -0.3498
 4320SOL    HW224594   3.213   1.012   6.214 -1.3779  0.2665 -0.5427
 4321SOL     OW24595   0.046   0.638   3.657  0.1498  0.6363 -0.5604
 4321SOL    HW124596   0.005   0.724   3.667 -0.6001 -0.0787  2.4487
 4321SOL    HW224597   0.049   0.628   3.562  0.4386 -3.6410 -0.0754
 4322SOL     OW24598   1.049   3.265   3.439  0.0031 -0.5486 -0.0618
 4322SOL    HW124599   1.129   3.270   3.387 -0.9881  1.5205 -1.4278
 4322SOL    HW224600   0.999   3.316   3.375 -2.1334 -1.5230  0.8140
 4323SOL     OW24601   1.853   4.045  17.327  0.2255  0.4728  0.3817
 4323SOL    HW124602   1.938   4.032  17.284  0.5785  0.5330  1.0609
 4323SOL    HW224603   1.826   4.130  17.293 -0.7551 -0.3578 -0.9327
 4324SOL     OW24604   3.748   0.188   3.288  0.0082  0.3377 -0.1204
 4324SOL    HW124605   3.791   0.272   3.274 -0.5832  0.6036 -0.3645
 4324SOL    HW224606   3.734   0.169   3.196 -3.1028 -2.1719  0.8561
 4325SOL     OW24607   1.839   3.526   8.516  0.1062 -0.4464 -0.3520
 4325SOL    HW124608   1.763   3.511   8.460 -0.2694 -1.3092  0.3916
 4325SOL    HW224609   1.792   3.575   8.583 -0.2330  0.5953 -1.3355
 4326SOL     OW24610   1.855   1.896   6.041 -0.2978  0.0157  0.6032
 4326SOL    HW124611   1.767   1.893   6.080 -0.1570 -0.1583  0.9102
 4326SOL    HW224612   1.884   1.805   6.048  1.6349  0.5841 -0.0355
 4327SOL     OW24613   2.771   1.140  13.679  0.7081 -0.5431 -0.1054
 4327SOL    HW124614   2.815   1.169  13.600 -0.6450 -0.4008 -0.8053
 4327SOL    HW224615   2.801   1.049  13.685  2.4415  0.0896  0.9309
 4328SOL     OW24616   3.307   2.715   5.011  0.2134 -0.5868  0.7828
 4328SOL    HW124617   3.355   2.775   4.954  0.2882 -0.2286  1.2277
 4328SOL    HW224618   3.240   2.772   5.048 -0.4712 -0.1688 -1.1041
 4329SOL     OW24619   1.234   4.384   5.820 -0.2943 -0.3209 -0.1972
 4329SOL    HW124620   1.149   4.417   5.789  0.7001  2.6502  0.2181
 4329SOL    HW224621   1.291   4.405   5.746 -0.5966 -1.0542 -0.6342
 4330SOL     OW24622   3.723   0.890   5.616 -0.5911 -0.1870 -0.1603
 4330SOL    HW124623   3.692   0.800   5.626  2.0832 -1.0163  0.6886
 4330SOL    HW224624   3.645   0.945   5.622 -0.8169 -0.6162  0.7808
 4331SOL     OW24625   0.035   0.245   4.307 -0.1082 -0.1165  0.6611
 4331SOL    HW124626   4.690   0.232   4.355  0.2977 -0.8871  1.1649
 4331SOL    HW224627   0.054   0.158   4.272 -1.1981 -0.2952  0.5055
 4332SOL     OW24628   3.211   3.341   5.401  0.6197  0.5770 -0.0022
 4332SOL    HW124629   3.254   3.409   5.453 -1.4421  0.1207  2.3116
 4332SOL    HW224630   3.147   3.397   5.356 -0.5969 -0.9616 -0.1882
 4333SOL     OW24631   1.247   2.377  17.007 -0.2464 -0.1161 -0.1358
 4333SOL    HW124632   1.263   2.462  16.965 -0.5841 -0.9846 -2.0143
 4333SOL    HW224633   1.162   2.395  17.046 -0.6698 -2.8685  0.2031
 4334SOL     OW24634   2.165   1.963   1.884  0.1757  0.4066 -0.3228
 4334SOL    HW124635   2.103   1.993   1.817 -0.9113  0.2959  0.6320
 4334SOL    HW224636   2.136   1.875   1.907 -0.2306  0.6135 -0.0243
 4335SOL     OW24637   2.298   0.702  12.618 -0.2595 -0.2972 -0.0743
 4335SOL    HW124638   2.390   0.677  12.613  0.0093  1.0242 -2.1552
 4335SOL    HW224639   2.262   0.683  12.704  0.4297  1.3245  0.5722
 4336SOL     OW24640   3.398   2.919   2.621  0.4232  0.0793 -0.3077
 4336SOL    HW124641   3.327   2.982   2.609 -0.3428 -0.9013 -0.8322
 4336SOL    HW224642   3.380   2.875   2.704 -2.6180 -0.5999 -1.3352
 4337SOL     OW24643   3.654   1.459   4.950 -0.3947  0.5137 -0.0004
 4337SOL    HW124644   3.635   1.367   4.932  1.3114  0.4734 -1.5854
 4337SOL    HW224645   3.565   1.488   4.973 -1.2373 -1.7880 -0.3126
 4338SOL     OW24646   4.246   4.547   3.955  1.1907  0.4081  0.0546
 4338SOL    HW124647   4.270   4.489   3.882  0.9089 -1.8110  1.7095
 4338SOL    HW224648   4.223   4.477   4.017  0.2178  2.6084  2.1672
 4339SOL     OW24649   0.211   3.118   8.989 -0.0385  0.1013  0.2859
 4339SOL    HW124650   0.298   3.148   9.018  1.5782 -2.8927 -1.5034
 4339SOL    HW224651   0.204   3.153   8.901  3.4606  0.8047  0.2663
 4340SOL     OW24652   2.237   4.342   5.637  0.4102 -0.5991  0.0170
 4340SOL    HW124653   2.287   4.301   5.708 -2.7943 -2.3332  1.2982
 4340SOL    HW224654   2.301   4.411   5.620  1.0521 -0.5444  2.6184
 4341SOL     OW24655   2.818   1.776   4.856  0.3166  0.0986 -0.0585
 4341SOL    HW124656   2.817   1.851   4.916  3.3379  1.6272 -1.9568
 4341SOL    HW224657   2.846   1.703   4.910 -2.7574 -0.4186  0.8557
 4342SOL     OW24658   2.761   2.579   5.190 -0.1027 -0.5072  0.9274
 4342SOL    HW124659   2.680   2.543   5.154  0.7299 -1.4866  0.0408
 4342SOL    HW224660   2.746   2.551   5.280  0.3275  1.6461  1.6812
 4343SOL     OW24661   1.805   1.954   8.520 -0.7002 -0.1002  0.2201
 4343SOL    HW124662   1.744   2.010   8.567 -0.4400 -0.3679  0.8707
 4343SOL    HW224663   1.745   1.895   8.474 -0.6802 -0.3853  0.5625
 4344SOL     OW24664   3.997   1.891   7.135 -0.4744 -0.0052 -0.3231
 4344SOL    HW124665   3.947   1.894   7.054  1.2113 -0.9174 -1.4065
 4344SOL    HW224666   4.084   1.915   7.105  0.0704 -0.1036  1.1438
 4345SOL     OW24667   2.559   2.004   2.443  0.1049  0.2138  0.5191
 4345SOL    HW124668   2.587   1.913   2.445  1.0055  0.4366 -2.0179
 4345SOL    HW224669   2.552   2.021   2.537 -0.0635 -1.5499  0.8273
 4346SOL     OW24670   3.763   1.593   7.129  0.0705  0.5351  0.6227
 4346SOL    HW124671   3.715   1.656   7.183 -0.6362 -0.9608  1.7207
 4346SOL    HW224672   3.727   1.508   7.154  0.8220 -0.3245 -1.2496
 4347SOL     OW24673   3.721   0.554   9.098 -0.3169 -0.6777 -1.0101
 4347SOL    HW124674   3.642   0.505   9.074 -0.1602 -1.4028 -0.0337
 4347SOL    HW224675   3.714   0.540   9.192 -0.8297  0.9794 -0.8124
 4348SOL     OW24676   3.044   0.585  11.119  0.4081  0.4903  0.6405
 4348SOL    HW124677   2.951   0.600  11.138 -0.3453  1.5418 -3.9768
 4348SOL    HW224678   3.072   0.592  11.210 -0.1305 -0.4579  0.8833
 4349SOL     OW24679   0.770   0.432   1.823 -1.0570  0.3662  0.3772
 4349SOL    HW124680   0.695   0.469   1.868 -1.5073  0.1511 -0.1934
 4349SOL    HW224681   0.750   0.441   1.730  0.2859  1.6766  0.2090
 4350SOL     OW24682   3.237   3.009   2.096  0.6680 -0.1917 -0.6735
 4350SOL    HW124683   3.200   2.923   2.074 -0.8534 -0.4231  2.8103
 4350SOL    HW224684   3.174   3.069   2.057 -0.3465 -0.9386 -0.1865
 4351SOL     OW24685   2.098   1.525   1.942  0.0444  0.3119 -0.1419
 4351SOL    HW124686   2.137   1.439   1.959  1.0516  0.7377 -0.2977
 4351SOL    HW224687   2.163   1.576   1.991 -0.6718  2.5443 -1.5501
 4352SOL     OW24688   1.073   0.112   9.165  0.0303  0.0474  0.0826
 4352SOL    HW124689   1.084   0.153   9.251  1.9041 -2.3207  0.9955
 4352SOL    HW224690   0.995   0.156   9.133  1.6741  1.9873 -1.3272
 4353SOL     OW24691   4.205   4.365  10.871 -0.0618 -0.1542 -0.2995
 4353SOL    HW124692   4.289   4.405  10.893 -0.3024  0.0704  0.2078
 4353SOL    HW224693   4.181   4.334  10.958  1.2405  2.3139  0.9384
 4354SOL     OW24694   4.154   0.950   2.715 -0.0226 -0.2028  0.0551
 4354SOL    HW124695   4.131   1.031   2.761 -0.1904  0.0337 -0.4472
 4354SOL    HW224696   4.066   0.915   2.700 -0.3659  0.3503  0.7483
 4355SOL     OW24697   1.269   3.191   7.969 -0.2998  0.5075 -0.2790
 4355SOL    HW124698   1.242   3.144   7.890 -0.7985  2.3783 -1.2434
 4355SOL    HW224699   1.348   3.241   7.948  0.1219 -0.1239 -0.1603
 4356SOL     OW24700   0.479   3.831   3.688  0.4101 -0.2386  1.0651
 4356SOL    HW124701   0.569   3.840   3.657 -0.9330  1.6105 -2.1650
 4356SOL    HW224702   0.437   3.811   3.605  3.9909 -1.0682 -0.5324
 4357SOL     OW24703   2.596   2.164  10.009 -0.6013  0.0554  0.3293
 4357SOL    HW124704   2.562   2.253  10.017  0.4643  0.4996 -0.0910
 4357SOL    HW224705   2.633   2.152  10.097  1.0745  0.8094 -0.2592
 4358SOL     OW24706   1.317   2.829   6.136  0.3615  0.2802 -0.3541
 4358SOL    HW124707   1.305   2.922   6.155 -0.6892  0.1000 -0.1382
 4358SOL    HW224708   1.323   2.831   6.040  1.9197  1.3988 -0.2420
 4359SOL     OW24709   2.966   2.875   8.520  0.4979 -0.0005  0.4648
 4359SOL    HW124710   2.958   2.805   8.585  1.2477 -0.9266 -0.4457
 4359SOL    HW224711   2.980   2.824   8.440  0.0530  1.5724 -0.6157
 4360SOL     OW24712   4.141   4.164   7.026 -0.6625 -0.4400  0.4268
 4360SOL    HW124713   4.204   4.113   7.077 -0.3743  0.4401  0.9672
 4360SOL    HW224714   4.158   4.149   6.933 -2.1608  2.5477 -0.3481
 4361SOL     OW24715   0.444   0.438   2.548  0.2617  0.7155 -0.9944
 4361SOL    HW124716   0.434   0.355   2.501 -1.4121 -0.3098  1.1918
 4361SOL    HW224717   0.420   0.491   2.471  3.4510  2.8783 -0.4945
 4362SOL     OW24718   0.413   0.035   4.759  0.5527  0.2185 -0.5152
 4362SOL    HW124719   0.501   0.006   4.735 -0.0651 -2.3137  0.3139
 4362SOL    HW224720   0.365   4.690   4.764  1.1834 -0.3214 -3.5664
 4363SOL     OW24721   4.142   3.495   4.078  0.4100  0.7123  0.1758
 4363SOL    HW124722   4.208   3.429   4.059 -0.3273 -1.1015  3.9518
 4363SOL    HW224723   4.157   3.555   4.004 -4.6663 -0.0537 -1.4958
 4364SOL     OW24724   2.584   2.969   5.301  0.6052 -0.1766  0.3973
 4364SOL    HW124725   2.501   2.939   5.338  1.6031 -0.4369  2.4394
 4364SOL    HW224726   2.624   3.004   5.381 -0.1941 -1.9547  1.5863
 4365SOL     OW24727   3.151   1.896   0.615  0.5360 -0.3352  0.3141
 4365SOL    HW124728   3.154   1.943   0.532  2.4169 -1.1580 -0.0924
 4365SOL    HW224729   3.209   1.820   0.603  2.1951  1.0616 -0.5013
 4366SOL     OW24730   0.191   0.706  16.699 -0.2268  0.0704 -0.8341
 4366SOL    HW124731   0.260   0.677  16.759 -0.1673 -0.6306 -1.2506
 4366SOL    HW224732   0.230   0.712  16.612 -1.2313 -1.5092 -1.3751
 4367SOL     OW24733   3.583   0.649   4.664  0.5434  0.1177  0.4720
 4367SOL    HW124734   3.517   0.717   4.650 -0.5191 -0.7184  1.3892
 4367SOL    HW224735   3.656   0.677   4.609  0.0030  2.3155  0.8772
 4368SOL     OW24736   4.460   1.230   5.813 -0.1503  0.1313 -0.5370
 4368SOL    HW124737   4.535   1.287   5.832 -1.0710  0.8170  1.0379
 4368SOL    HW224738   4.437   1.262   5.726  0.9653 -2.1089 -1.6333
 4369SOL     OW24739   3.121   0.918   7.925 -0.1065 -0.4532 -0.0352
 4369SOL    HW124740   3.182   0.991   7.912 -1.9626  1.1291 -0.0922
 4369SOL    HW224741   3.043   0.971   7.945 -0.3798 -0.8996  0.0821
 4370SOL     OW24742   0.806   2.577   4.670  0.9783 -0.1842  0.1953
 4370SOL    HW124743   0.830   2.507   4.731  1.0753 -1.6404 -1.5181
 4370SOL    HW224744   0.853   2.558   4.589 -1.3382  0.9719 -1.4205
 4371SOL     OW24745   2.153   2.878   8.773  0.0458 -0.1063 -0.1405
 4371SOL    HW124746   2.144   2.960   8.725  1.5179  0.6722  0.9512
 4371SOL    HW224747   2.217   2.897   8.841  0.7887 -1.8535 -0.3404
 4372SOL     OW24748   3.652   2.912   2.170 -0.9553 -0.2481  0.1083
 4372SOL    HW124749   3.634   2.969   2.094  1.8793  3.0058  1.8807
 4372SOL    HW224750   3.713   2.967   2.218  1.5934 -2.2613 -0.8553
 4373SOL     OW24751   1.812   1.508   0.098 -0.1772 -0.0820  0.4898
 4373SOL    HW124752   1.765   1.590   0.112 -0.0984  0.0675 -0.1019
 4373SOL    HW224753   1.807   1.463   0.182 -1.3702  0.7121  0.8440
 4374SOL     OW24754   0.247   1.453   2.050 -0.0405 -0.0403 -0.4126
 4374SOL    HW124755   0.169   1.439   1.996  0.0507  1.2128 -0.8774
 4374SOL    HW224756   0.234   1.396   2.125  1.6946  0.0370 -0.0618
 4375SOL     OW24757   3.466   2.331   5.700  0.0420  0.0726 -0.0135
 4375SOL    HW124758   3.517   2.279   5.762  0.5185 -2.3206 -2.4062
 4375SOL    HW224759   3.516   2.413   5.692 -0.5133  0.3395 -0.7831
 4376SOL     OW24760   1.030   3.683  11.256 -0.4040  0.1372  0.0582
 4376SOL    HW124761   1.118   3.683  11.294 -0.1961  0.1156 -0.4135
 4376SOL    HW224762   1.058   3.637  11.176  0.2312  1.2395 -0.3572
 4377SOL     OW24763   2.115   2.208   0.624  0.2314  0.0927  0.1753
 4377SOL    HW124764   2.182   2.162   0.676 -2.0533 -3.8244 -0.3633
 4377SOL    HW224765   2.047   2.142   0.619 -1.4016  1.9230 -1.7285
 4378SOL     OW24766   0.053   0.766   6.916 -0.2873  0.1730 -0.3973
 4378SOL    HW124767   0.011   0.689   6.953 -0.3433 -0.3140 -1.4810
 4378SOL    HW224768   0.139   0.747   6.878  0.0829 -1.2134  1.1233
 4379SOL     OW24769   0.062   1.798   9.567 -0.5568 -0.1356  0.0084
 4379SOL    HW124770   4.704   1.793   9.570 -0.6265  1.5539  0.3932
 4379SOL    HW224771   0.084   1.745   9.644  0.7568  0.9711  0.4031
 4380SOL     OW24772   0.525   1.735  16.022 -0.1438 -0.1776 -0.1485
 4380SOL    HW124773   0.533   1.830  16.030  0.3769 -0.3602  1.5365
 4380SOL    HW224774   0.564   1.710  16.106  1.5376 -1.8287 -1.4413
 4381SOL     OW24775   1.543   3.092   4.542 -0.1385 -0.2802 -0.8968
 4381SOL    HW124776   1.589   3.120   4.621  0.3370 -2.2617 -0.4783
 4381SOL    HW224777   1.542   2.996   4.546  0.0190 -0.1559  2.1147
 4382SOL     OW24778   2.517   3.554  15.583 -0.1596  0.4686  0.4392
 4382SOL    HW124779   2.537   3.642  15.552  0.4342  0.4266  0.7139
 4382SOL    HW224780   2.524   3.494  15.508 -2.0051  1.4493 -0.5304
 4383SOL     OW24781   2.191   4.438   2.895 -0.1345 -0.0090 -0.0243
 4383SOL    HW124782   2.117   4.459   2.838  0.2704  0.4045 -0.4002
 4383SOL    HW224783   2.164   4.358   2.941  0.5262  1.1853  2.4753
 4384SOL     OW24784   0.437   1.747   3.222 -0.3779  0.3990 -0.0981
 4384SOL    HW124785   0.449   1.785   3.309 -2.0423 -0.2996  0.4311
 4384SOL    HW224786   0.397   1.818   3.172 -0.1924 -0.0501 -0.8888
 4385SOL     OW24787   1.511   2.834   4.521 -0.2479 -0.2983 -0.8016
 4385SOL    HW124788   1.420   2.823   4.492  0.0147 -0.3239 -1.6405
 4385SOL    HW224789   1.563   2.776   4.465 -0.9108  0.2517 -1.9948
 4386SOL     OW24790   3.468   2.938   7.566 -0.2104  0.3422  0.3897
 4386SOL    HW124791   3.373   2.936   7.558 -0.4696  0.9866  3.2876
 4386SOL    HW224792   3.496   3.000   7.499  4.4479  1.2292  3.1860
 4387SOL     OW24793   1.278   1.286   6.740  0.2204  0.4189  0.5327
 4387SOL    HW124794   1.370   1.288   6.764  0.7212 -1.5135 -1.1629
 4387SOL    HW224795   1.251   1.315   6.827 -1.7255 -2.5071  0.9378
 4388SOL     OW24796   0.675   0.941  13.133 -0.1254 -0.3393 -0.1648
 4388SOL    HW124797   0.727   0.917  13.056  1.6002 -1.5192  1.3665
 4388SOL    HW224798   0.661   0.855  13.173 -2.9579 -0.8105 -2.2024
 4389SOL     OW24799   3.874   3.039   5.820  0.0765  0.0445  0.1488
 4389SOL    HW124800   3.955   3.054   5.771  0.2030 -1.2163 -0.0328
 4389SOL    HW224801   3.889   2.949   5.848 -0.2852 -0.7654 -2.2527
 4390SOL     OW24802   1.434   3.196  14.647 -0.2238 -0.4036 -0.3360
 4390SOL    HW124803   1.485   3.273  14.622 -1.4206  0.0405 -1.4097
 4390SOL    HW224804   1.351   3.230  14.679  0.9237 -0.1468  2.3598
 4391SOL     OW24805   4.551   1.910   8.066 -0.0123  0.4864  0.1843
 4391SOL    HW124806   4.470   1.961   8.056 -0.5793 -0.3561  0.5112
 4391SOL    HW224807   4.527   1.832   8.117  0.9579 -1.3724 -2.2058
 4392SOL     OW24808   3.381   4.281   1.672 -0.0067 -0.5966 -0.8396
 4392SOL    HW124809   3.378   4.323   1.758  2.5448 -2.3888  0.1305
 4392SOL    HW224810   3.460   4.231   1.691 -1.5365 -2.2609  1.0860
 4393SOL     OW24811   4.104   2.719  12.908  0.0878  0.2510  0.0725
 4393SOL    HW124812   4.013   2.715  12.938  0.5073 -1.3120  1.1521
 4393SOL    HW224813   4.137   2.636  12.943 -0.0071 -0.8602 -2.5005
 4394SOL     OW24814   3.567   2.830   0.800  0.3241  0.4209  0.2061
 4394SOL    HW124815   3.528   2.748   0.830  1.5760 -0.2807 -0.0765
 4394SOL    HW224816   3.524   2.839   0.715  2.3328 -0.8404 -0.9389
 4395SOL     OW24817   1.018   3.736   3.785  0.0053 -0.5586  0.4292
 4395SOL    HW124818   0.931   3.727   3.823 -0.5305  0.8722 -0.4560
 4395SOL    HW224819   1.020   3.655   3.733  2.2969 -0.8523  0.9905
 4396SOL     OW24820   4.731   0.969  11.841  0.3413 -0.3489  0.1677
 4396SOL    HW124821   0.030   1.057  11.848 -0.8049  0.0387  1.1457
 4396SOL    HW224822   0.012   0.935  11.930  1.6057 -3.1898 -1.1502
 4397SOL     OW24823   2.275   0.626  17.414  0.1028  0.2045  0.2923
 4397SOL    HW124824   2.300   0.667  17.497  1.5144 -1.8719  0.8801
 4397SOL    HW224825   2.186   0.598  17.435  0.4756 -0.7189  0.6641
 4398SOL     OW24826   4.319   0.115   3.944 -0.3589  0.4553 -0.0343
 4398SOL    HW124827   4.363   0.152   3.868  0.2755 -1.9610 -0.8538
 4398SOL    HW224828   4.352   0.025   3.939 -0.2789  0.3666  2.0651
 4399SOL     OW24829   2.447   0.277   4.736 -0.1761 -0.5570 -0.4279
 4399SOL    HW124830   2.432   0.239   4.823  0.7440 -3.2396 -1.4441
 4399SOL    HW224831   2.428   0.370   4.744  1.7330 -0.1197 -1.0839
 4400SOL     OW24832   4.328   0.626   1.985 -0.5031  0.2840 -0.0493
 4400SOL    HW124833   4.327   0.559   1.917  2.3168  0.7591 -0.5832
 4400SOL    HW224834   4.421   0.646   1.998 -0.5228 -0.1415  0.7109
 4401SOL     OW24835   0.109   3.121   5.247  0.2140 -0.2570 -0.4901
 4401SOL    HW124836   0.099   3.215   5.257  1.1193 -0.3844  1.5795
 4401SOL    HW224837   0.197   3.114   5.210  0.3230 -0.8028 -0.1396
 4402SOL     OW24838   0.904   4.410   4.890  0.6811 -0.4332 -0.5060
 4402SOL    HW124839   0.890   4.433   4.799 -0.8002 -0.8949 -0.4035
 4402SOL    HW224840   0.977   4.349   4.879  1.3096  0.3135 -0.4090
 4403SOL     OW24841   2.766   4.722   3.494 -0.7517  0.0037  0.0696
 4403SOL    HW124842   2.861   4.724   3.483 -1.1095  1.6970 -2.7149
 4403SOL    HW224843   2.747   4.632   3.468  0.6008  0.1009 -1.2622
 4404SOL     OW24844   4.140   3.081   8.457  0.4417 -0.0775 -0.1180
 4404SOL    HW124845   4.099   3.129   8.386 -1.4436  0.6396  1.4627
 4404SOL    HW224846   4.094   3.124   8.529 -0.7228  0.8555 -1.4349
 4405SOL     OW24847   4.342   0.186   7.589  0.2305  0.3288  0.1560
 4405SOL    HW124848   4.412   0.237   7.548 -0.4601 -0.3613 -1.8605
 4405SOL    HW224849   4.323   0.117   7.526  0.3480  0.3681  0.0782
 4406SOL     OW24850   2.713   0.861  13.778  0.1280 -0.1844  0.3210
 4406SOL    HW124851   2.724   0.799  13.850  0.2947  1.4229  1.6589
 4406SOL    HW224852   2.662   0.809  13.715 -0.4314  0.4131  0.2804
 4407SOL     OW24853   3.788   2.410  11.906 -0.3514 -0.2226 -0.0048
 4407SOL    HW124854   3.852   2.450  11.847 -1.3274  3.1984  1.2629
 4407SOL    HW224855   3.708   2.417  11.854  0.6759 -0.3993 -1.5923
 4408SOL     OW24856   3.579   0.718   8.311  0.0546 -0.1052 -0.1312
 4408SOL    HW124857   3.596   0.804   8.350  1.3638 -0.2740 -0.3302
 4408SOL    HW224858   3.660   0.700   8.264  0.4602  0.8969  0.1912
 4409SOL     OW24859   0.952   3.286   5.450 -0.0198  0.6648  0.3351
 4409SOL    HW124860   1.006   3.224   5.498 -0.0577  0.2483 -0.1550
 4409SOL    HW224861   1.009   3.312   5.377  0.4443 -1.6401 -0.1112
 4410SOL     OW24862   0.847   0.197   5.168 -0.0301  0.3716  0.0682
 4410SOL    HW124863   0.794   0.187   5.090  1.0188 -0.7746 -0.4982
 4410SOL    HW224864   0.932   0.169   5.133  0.1513 -0.2860  1.0258
 4411SOL     OW24865   0.026   3.456   3.193  0.0817 -0.4673  0.1742
 4411SOL    HW124866   4.723   3.371   3.211 -2.9161  0.9714  0.2180
 4411SOL    HW224867   0.117   3.434   3.210  0.5885  0.6870 -1.0212
 4412SOL     OW24868   0.498   3.102   0.764  0.2124  0.0418 -0.4494
 4412SOL    HW124869   0.444   3.135   0.836 -1.8276 -3.0820 -0.5741
 4412SOL    HW224870   0.581   3.076   0.804 -0.8174 -1.9352  0.3800
 4413SOL     OW24871   1.978   0.306  17.605 -0.1680 -0.2668  0.1148
 4413SOL    HW124872   1.953   0.310  17.697  2.0372  2.1737  0.6110
 4413SOL    HW224873   2.039   0.380  17.604  1.0847 -1.3353 -1.8335
 4414SOL     OW24874   2.525   3.200   3.854 -0.1209 -0.2567  0.2166
 4414SOL    HW124875   2.578   3.125   3.830  1.1199  0.5907  0.3188
 4414SOL    HW224876   2.558   3.219   3.942 -0.1286 -1.4693  0.4726
 4415SOL     OW24877   3.966   3.860  11.477 -0.0064  0.5041 -0.2164
 4415SOL    HW124878   3.889   3.889  11.427  0.1164  0.0654 -0.6496
 4415SOL    HW224879   3.946   3.922  11.547  1.3633  1.6620 -0.8436
 4416SOL     OW24880   1.704   4.149   3.216 -0.6615 -0.0157  0.0930
 4416SOL    HW124881   1.681   4.121   3.304 -1.2900  0.7307  0.1679
 4416SOL    HW224882   1.723   4.242   3.223  0.6666 -0.5073  2.7946
 4417SOL     OW24883   2.895   2.006   7.158  0.3380 -0.2483  0.2243
 4417SOL    HW124884   2.974   1.995   7.104  0.0160  0.3595 -0.3655
 4417SOL    HW224885   2.933   2.066   7.222 -2.1945 -0.0583  1.5522
 4418SOL     OW24886   1.762   1.155   5.421 -0.1567 -0.2242 -0.0324
 4418SOL    HW124887   1.680   1.183   5.462 -1.2315 -2.3016 -0.7590
 4418SOL    HW224888   1.761   1.061   5.437  0.8764 -0.0000  1.3391
 4419SOL     OW24889   2.366   3.607   7.056  0.1120  0.1426  0.4401
 4419SOL    HW124890   2.428   3.534   7.047  1.0488  0.6336  3.0546
 4419SOL    HW224891   2.390   3.667   6.985 -2.4465  1.6261  0.8328
 4420SOL     OW24892   1.684   4.393  17.427 -0.4090  0.1536  0.1050
 4420SOL    HW124893   1.736   4.371  17.350  1.3543 -0.9510  1.6033
 4420SOL    HW224894   1.735   4.354  17.498  0.2708 -1.1447 -1.0973
 4421SOL     OW24895   1.973   4.305   1.483  0.4349 -0.0823  1.0122
 4421SOL    HW124896   1.929   4.375   1.434  0.2340 -0.6431  0.3963
 4421SOL    HW224897   1.901   4.257   1.523 -0.9527  0.1442 -1.1636
 4422SOL     OW24898   1.490   3.219   1.907  0.3338 -0.5415 -0.1975
 4422SOL    HW124899   1.410   3.270   1.893  0.2414 -0.4614  0.6025
 4422SOL    HW224900   1.468   3.133   1.870 -3.0058  0.4298 -0.5301
 4423SOL     OW24901   1.603   1.304   3.338 -0.7701  0.0012 -0.8336
 4423SOL    HW124902   1.674   1.358   3.371 -0.0145 -1.0135 -0.7882
 4423SOL    HW224903   1.534   1.336   3.396  3.2102  2.4719  2.4549
 4424SOL     OW24904   1.093   3.311  16.073  0.2208  0.5852 -0.4761
 4424SOL    HW124905   1.036   3.363  16.130 -2.2508 -0.9133 -1.6174
 4424SOL    HW224906   1.073   3.218  16.085  1.3707  0.3896 -0.1079
 4425SOL     OW24907   2.035   1.558  15.479 -0.7888  0.0850  0.0128
 4425SOL    HW124908   2.000   1.471  15.500 -1.6989  0.2668 -0.7772
 4425SOL    HW224909   1.980   1.624  15.521 -2.3092 -2.5756  2.1992
 4426SOL     OW24910   2.685   4.414   3.749  0.3992  0.4835  0.0361
 4426SOL    HW124911   2.612   4.352   3.756  0.2259  0.7376  0.4821
 4426SOL    HW224912   2.700   4.397   3.656  1.1195  2.1644 -0.1630
 4427SOL     OW24913   4.192   2.004   6.546  0.1513 -0.0535  0.0506
 4427SOL    HW124914   4.216   2.000   6.453  1.4237 -1.2395  0.4476
 4427SOL    HW224915   4.096   2.010   6.540 -0.0286 -3.6351 -0.6261
 4428SOL     OW24916   4.030   0.573  16.886 -0.0316 -0.0241 -0.0264
 4428SOL    HW124917   3.982   0.636  16.940  2.9749  1.5279  0.7850
 4428SOL    HW224918   4.011   0.489  16.928 -1.2517 -0.2883 -1.1057
 4429SOL     OW24919   3.846   2.748   8.101 -0.1664  0.4916 -0.3561
 4429SOL    HW124920   3.786   2.781   8.035  0.2197  1.2943 -0.3081
 4429SOL    HW224921   3.909   2.710   8.039  0.9143  3.7936 -1.2593
 4430SOL     OW24922   3.634   0.164   2.828 -0.0086  0.2296 -0.0350
 4430SOL    HW124923   3.568   0.146   2.894 -0.7347 -1.3436 -1.1944
 4430SOL    HW224924   3.656   0.253   2.857 -0.1868  0.2426  0.0625
 4431SOL     OW24925   2.042   3.258  13.920  0.1426 -0.5903 -0.1973
 4431SOL    HW124926   2.036   3.165  13.941  0.2344 -0.4868  0.2944
 4431SOL    HW224927   1.999   3.303  13.993 -0.2477 -1.0477 -0.1433
 4432SOL     OW24928   0.967   3.644  14.909 -0.0063  0.2522 -0.4483
 4432SOL    HW124929   1.001   3.712  14.852  1.2253  0.8740  1.0182
 4432SOL    HW224930   0.873   3.652  14.900 -0.2156 -1.8702 -0.3516
 4433SOL     OW24931   2.733   3.800   3.164  0.4893  0.1305  0.2229
 4433SOL    HW124932   2.748   3.854   3.086  2.1480 -0.8040 -0.1036
 4433SOL    HW224933   2.638   3.790   3.161  0.5580 -0.5380  0.2738
 4434SOL     OW24934   4.431   0.233   5.474 -0.7931  1.1110 -0.2471
 4434SOL    HW124935   4.474   0.235   5.389 -2.2561 -0.8673 -1.0139
 4434SOL    HW224936   4.497   0.252   5.541 -0.6812  0.3314 -0.1371
 4435SOL     OW24937   4.414   1.544   2.359  0.0819 -0.0015  0.6769
 4435SOL    HW124938   4.348   1.485   2.323 -0.1851  0.0952  1.0088
 4435SOL    HW224939   4.480   1.528   2.292 -0.2379 -0.4156  0.4653
 4436SOL     OW24940   0.218   1.147   7.138 -0.4056 -0.2449 -0.3536
 4436SOL    HW124941   0.268   1.109   7.066 -1.0081 -2.3088  0.3074
 4436SOL    HW224942   0.207   1.068   7.191 -1.4263  1.4296  1.9332
 4437SOL     OW24943   0.256   3.610  11.795 -0.5501 -0.1603 -0.5219
 4437SOL    HW124944   0.165   3.578  11.790 -0.2261 -1.0845 -0.4776
 4437SOL    HW224945   0.293   3.544  11.853  0.5171  1.2650  0.3972
 4438SOL     OW24946   0.573   0.584   9.535  0.1618 -0.1662 -0.3886
 4438SOL    HW124947   0.587   0.575   9.629  0.3294  1.0771 -0.2979
 4438SOL    HW224948   0.646   0.639   9.506  0.4745 -1.0198 -1.2458
 4439SOL     OW24949   3.567   1.542   7.697 -0.1490 -0.4117  0.0646
 4439SOL    HW124950   3.495   1.562   7.638 -1.8397  0.1810  2.3562
 4439SOL    HW224951   3.633   1.602   7.662 -1.3165 -0.4259 -2.1757
 4440SOL     OW24952   1.717   2.037   3.769  0.6027  0.1337  0.0638
 4440SOL    HW124953   1.801   1.991   3.759  0.5046 -0.3969  1.6362
 4440SOL    HW224954   1.747   2.122   3.799 -1.8517  0.3932  1.8078
 4441SOL     OW24955   3.528   2.847  11.662 -0.2464 -0.0257 -0.0438
 4441SOL    HW124956   3.500   2.778  11.603 -1.8556  0.4247  0.1942
 4441SOL    HW224957   3.566   2.795  11.733  1.3473 -0.4293 -1.1926
 4442SOL     OW24958   1.023   2.891   2.860 -0.4068 -0.1680  0.1179
 4442SOL    HW124959   1.092   2.825   2.862 -0.1212  0.0023 -3.8522
 4442SOL    HW224960   0.948   2.832   2.861 -0.3311 -0.2379  1.5614
 4443SOL     OW24961   3.658   3.680   2.480  0.0979  0.4973 -0.1034
 4443SOL    HW124962   3.565   3.689   2.459  0.5087  0.7116 -1.8436
 4443SOL    HW224963   3.658   3.584   2.482 -2.3400  0.4537 -1.6654
 4444SOL     OW24964   1.983   3.517   2.649  0.0012 -0.3502  0.0341
 4444SOL    HW124965   1.993   3.526   2.744 -2.3468  0.4387  0.1885
 4444SOL    HW224966   1.942   3.598   2.622  1.3124  1.1290  2.4388
 4445SOL     OW24967   2.108   4.592  13.924  0.3579 -0.1831  0.1838
 4445SOL    HW124968   2.016   4.617  13.931  0.8372  1.2885  1.1876
 4445SOL    HW224969   2.138   4.584  13.834  2.3957 -0.5681  0.8979
 4446SOL     OW24970   3.663   1.412   4.076  0.2884  0.1687  0.4182
 4446SOL    HW124971   3.599   1.396   4.007 -0.9769  0.5759  1.4950
 4446SOL    HW224972   3.622   1.373   4.153 -1.4040 -1.5307 -1.3604
 4447SOL     OW24973   1.047   2.298   8.121 -0.2951  0.2435 -0.2134
 4447SOL    HW124974   1.141   2.300   8.140 -0.5266 -2.8412  1.2264
 4447SOL    HW224975   1.029   2.392   8.121  2.7516  0.8481 -2.6968
 4448SOL     OW24976   1.476   0.290   6.868  0.1194  0.0280 -0.2340
 4448SOL    HW124977   1.401   0.349   6.859  0.8966  1.0883  0.2890
 4448SOL    HW224978   1.440   0.211   6.908  1.8453  0.2209  1.6662
 4449SOL     OW24979   1.962   0.617   9.166 -0.1874 -0.0990  0.0604
 4449SOL    HW124980   1.968   0.630   9.071  1.4641  1.5903  0.3962
 4449SOL    HW224981   2.048   0.648   9.194 -0.2997  0.6544 -0.4183
 4450SOL     OW24982   1.455   0.037   4.240  0.0264  0.1183  0.1235
 4450SOL    HW124983   1.530   0.063   4.294  0.5451  0.3871 -0.7282
 4450SOL    HW224984   1.455   0.104   4.172 -1.4987  0.5340  0.5326
 4451SOL     OW24985   2.292   1.807   2.880  0.3509  0.0204  0.2549
 4451SOL    HW124986   2.293   1.781   2.972  1.3577  1.5858  0.6827
 4451SOL    HW224987   2.198   1.829   2.877  0.0843 -1.4300 -1.4077
 4452SOL     OW24988   4.024   2.236  17.138  0.3462 -0.4380  0.2428
 4452SOL    HW124989   4.029   2.253  17.044  0.5701 -0.3414  0.2717
 4452SOL    HW224990   4.082   2.307  17.165  0.4105 -0.3272 -0.1938
 4453SOL     OW24991   4.568   3.738   3.454  0.7267  0.0473  0.1427
 4453SOL    HW124992   4.511   3.806   3.490  2.9655  2.8106 -1.5259
 4453SOL    HW224993   4.527   3.731   3.367 -0.0382 -2.0140  0.6710
 4454SOL     OW24994   2.430   4.609   5.912  0.0085  0.1265  0.2430
 4454SOL    HW124995   2.525   4.608   5.915  0.0363  1.5297  0.1314
 4454SOL    HW224996   2.416   4.689   5.860  2.1053  1.9392  2.4524
 4455SOL     OW24997   2.972   0.902   5.430 -0.5600 -0.9047 -0.1046
 4455SOL    HW124998   3.029   0.914   5.354  0.3106 -1.3010  0.4846
 4455SOL    HW224999   2.890   0.887   5.384 -0.9113 -1.3118  0.6573
 4456SOL     OW25000   4.312   2.028   3.068  0.2307  0.3114  0.1014
 4456SOL    HW125001   4.368   2.106   3.070  0.2317  0.2932  0.9737
 4456SOL    HW225002   4.325   1.996   3.158 -0.7033 -0.5985 -0.0945
 4457SOL     OW25003   3.807   0.692   7.586  0.8131  0.1602  0.3105
 4457SOL    HW125004   3.819   0.625   7.653 -0.2071  0.4803  0.8110
 4457SOL    HW225005   3.799   0.645   7.504 -0.8019  1.0580 -0.0386
 4458SOL     OW25006   4.255   4.290   1.439 -0.3305  0.1654  0.4237
 4458SOL    HW125007   4.174   4.265   1.394 -0.2805 -2.0624  1.5707
 4458SOL    HW225008   4.309   4.228   1.390  0.7135  1.0830  0.4162
 4459SOL     OW25009   2.792   4.437  15.060  0.6609 -0.7020 -0.0464
 4459SOL    HW125010   2.809   4.528  15.086 -0.5294  0.1872 -2.3456
 4459SOL    HW225011   2.867   4.389  15.096  0.7013 -1.4819 -1.1834
 4460SOL     OW25012   2.753   1.593   7.260  0.2436  0.3417 -0.1309
 4460SOL    HW125013   2.768   1.505   7.293 -1.0211 -0.6297 -2.1752
 4460SOL    HW225014   2.681   1.630   7.310  0.6506  1.8315 -0.6181
 4461SOL     OW25015   0.115   2.515   0.724 -0.0950 -0.0477  0.6107
 4461SOL    HW125016   0.094   2.502   0.816  1.5883 -0.2935  0.9642
 4461SOL    HW225017   0.207   2.490   0.726  0.0335 -0.0118 -4.5839
 4462SOL     OW25018   3.212   1.276   8.153 -0.2827 -0.0963  0.0099
 4462SOL    HW125019   3.227   1.364   8.118 -0.7575 -0.0348 -0.0342
 4462SOL    HW225020   3.302   1.243   8.161 -1.1462 -1.8173  2.4224
 4463SOL     OW25021   0.792   1.061   8.029 -0.3658 -0.1727  0.0164
 4463SOL    HW125022   0.718   1.042   7.973 -0.0694  1.3585 -0.9007
 4463SOL    HW225023   0.857   1.065   7.958 -1.2699  1.8321 -0.6991
 4464SOL     OW25024   2.609   0.178   6.765  0.3658  0.0687  0.3322
 4464SOL    HW125025   2.525   0.134   6.749  2.2289 -2.0783 -3.4803
 4464SOL    HW225026   2.580   0.233   6.838  0.5848 -0.8319  1.1016
 4465SOL     OW25027   3.871   0.436   9.937 -0.0920 -0.0324 -0.6885
 4465SOL    HW125028   3.846   0.394  10.020 -1.5413  1.5824 -0.2979
 4465SOL    HW225029   3.850   0.529   9.950 -1.0646 -0.3471  0.0203
 4466SOL     OW25030   2.592   2.431   3.454 -0.6495  0.6332  0.0502
 4466SOL    HW125031   2.683   2.402   3.449 -1.3796 -1.3519 -1.6723
 4466SOL    HW225032   2.560   2.397   3.371  0.0704  2.9511 -1.1960
 4467SOL     OW25033   3.912   0.729   8.993  0.0755 -0.3988 -0.2136
 4467SOL    HW125034   3.917   0.808   9.046  0.0752 -0.2611 -0.4197
 4467SOL    HW225035   3.838   0.677   9.025  0.5245 -0.5142  0.6412
 4468SOL     OW25036   3.830   0.301   6.445  0.2892 -0.1749 -0.1534
 4468SOL    HW125037   3.812   0.355   6.369 -0.3539 -1.6747 -1.0723
 4468SOL    HW225038   3.772   0.227   6.427 -0.1209  0.1042  0.0239
 4469SOL     OW25039   3.851   0.851   9.306 -0.0388  0.4851 -0.3600
 4469SOL    HW125040   3.885   0.920   9.363  1.3459 -1.4463  1.1798
 4469SOL    HW225041   3.762   0.839   9.340 -0.2537  0.8450 -0.7959
 4470SOL     OW25042   1.180   0.843   6.188 -0.2765  0.6056  0.0579
 4470SOL    HW125043   1.268   0.843   6.150 -0.2754 -0.7833  0.0321
 4470SOL    HW225044   1.171   0.769   6.249  0.5080 -0.8858 -1.6268
 4471SOL     OW25045   3.217   4.698   1.577  0.0338  0.7723 -0.1950
 4471SOL    HW125046   3.290   0.019   1.593 -0.4906  1.2743  0.3702
 4471SOL    HW225047   3.164   0.013   1.517 -1.3056 -0.1768  0.1547
 4472SOL     OW25048   1.398   0.552   4.924  0.3039  0.0988 -0.2243
 4472SOL    HW125049   1.334   0.481   4.918 -0.8381  0.9652  1.5518
 4472SOL    HW225050   1.368   0.609   4.852 -1.0667  1.0722  1.1277
 4473SOL     OW25051   3.783   3.828  17.372 -0.1080 -0.2268  0.3033
 4473SOL    HW125052   3.827   3.760  17.320 -1.4840 -0.4786 -0.5284
 4473SOL    HW225053   3.701   3.847  17.327 -0.8013  1.2276  2.1843
 4474SOL     OW25054   4.643   0.799   3.161 -0.7116 -0.3777  0.2340
 4474SOL    HW125055   4.548   0.790   3.165 -0.6526 -0.5736  1.3059
 4474SOL    HW225056   4.666   0.823   3.071 -0.1681 -1.0717  0.1861
 4475SOL     OW25057   1.387   0.421   2.796 -0.1856  0.5251 -0.0629
 4475SOL    HW125058   1.346   0.448   2.714 -3.8289 -0.2095  1.5534
 4475SOL    HW225059   1.477   0.455   2.794  0.3792 -1.0416 -1.3937
 4476SOL     OW25060   0.784   0.737   5.229 -0.1031 -0.0681 -0.4591
 4476SOL    HW125061   0.695   0.762   5.254  0.3878  0.0832  1.1041
 4476SOL    HW225062   0.781   0.645   5.253 -2.2739  0.4635  1.3083
 4477SOL     OW25063   0.923   3.349  10.583 -0.0328  0.8438 -0.4767
 4477SOL    HW125064   0.990   3.345  10.515  0.1315 -0.3044 -0.2426
 4477SOL    HW225065   0.975   3.343  10.664 -0.8793 -2.3608 -0.1925
 4478SOL     OW25066   3.630   2.565  10.584  0.1669 -0.6794  0.5482
 4478SOL    HW125067   3.701   2.579  10.521 -0.5037  0.9139  0.1551
 4478SOL    HW225068   3.654   2.621  10.657 -0.2743  0.0312  0.1482
 4479SOL     OW25069   3.778   1.569   0.269  0.6759 -0.2331 -0.2448
 4479SOL    HW125070   3.840   1.640   0.254  1.1155 -0.3670  0.9248
 4479SOL    HW225071   3.715   1.574   0.197 -1.3646  1.8101  1.6572
 4480SOL     OW25072   2.179   4.530   3.857 -0.2398 -0.2242  0.0516
 4480SOL    HW125073   2.185   4.492   3.769 -2.8349  0.3240 -0.3595
 4480SOL    HW225074   2.168   4.623   3.837  1.2074 -0.3125 -1.1658
 4481SOL     OW25075   2.449   2.599   6.130  0.3418 -0.4271 -0.1171
 4481SOL    HW125076   2.389   2.538   6.087 -0.0524  0.3438 -0.6615
 4481SOL    HW225077   2.387   2.666   6.159  0.8584 -0.4409  1.0260
 4482SOL     OW25078   1.513   3.723  13.626 -0.1662  0.3894 -0.0468
 4482SOL    HW125079   1.449   3.773  13.676 -0.2792  0.2837 -0.0852
 4482SOL    HW225080   1.463   3.704  13.547 -0.2376  0.7301 -0.0819
 4483SOL     OW25081   3.022   2.617   5.096 -0.2395  0.5687 -0.7311
 4483SOL    HW125082   2.931   2.601   5.121  0.7205 -1.1409  1.6645
 4483SOL    HW225083   3.067   2.549   5.146 -2.6980 -2.3439 -2.4614
 4484SOL     OW25084   1.554   1.544   2.220  0.0048 -0.2306  0.0221
 4484SOL    HW125085   1.514   1.559   2.306  0.5076 -3.0955  0.7321
 4484SOL    HW225086   1.647   1.564   2.231  0.4483 -1.5843 -1.3443
 4485SOL     OW25087   0.125   2.192   2.531  0.1438  0.0075  0.1116
 4485SOL    HW125088   0.156   2.144   2.608  1.9668  0.4957 -0.3057
 4485SOL    HW225089   0.031   2.177   2.541  0.0981 -0.1237 -0.5362
 4486SOL     OW25090   4.618   2.602  10.062  0.1094 -0.1249 -0.1144
 4486SOL    HW125091   4.680   2.570  10.127  0.9391 -0.1617 -0.9322
 4486SOL    HW225092   4.544   2.551  10.095  0.3233 -0.2952  0.0943
 4487SOL     OW25093   0.816   2.268  12.401 -0.4272  0.5054 -0.1350
 4487SOL    HW125094   0.827   2.355  12.364 -2.5516  1.1828  0.8732
 4487SOL    HW225095   0.730   2.276  12.442 -0.5601 -0.0894 -0.2969
 4488SOL     OW25096   2.834   2.706   6.322 -0.1480 -0.1447 -0.3915
 4488SOL    HW125097   2.868   2.649   6.391 -0.3158  0.4479  0.1818
 4488SOL    HW225098   2.906   2.764   6.295  1.4687 -1.8572  0.2627
 4489SOL     OW25099   3.559   3.259   6.242  0.5265 -0.6666  0.3907
 4489SOL    HW125100   3.595   3.266   6.154 -0.9361  0.6737 -0.1029
 4489SOL    HW225101   3.544   3.165   6.249  0.0346 -0.6199 -0.0429
 4490SOL     OW25102   0.102   1.099  15.490  0.5881  0.2680  0.1745
 4490SOL    HW125103   0.072   1.090  15.580  0.2505 -0.3386  0.0059
 4490SOL    HW225104   0.026   1.080  15.434  1.6202 -1.1361 -0.7308
 4491SOL     OW25105   1.704   0.357  16.726  0.2409 -0.2479 -0.4092
 4491SOL    HW125106   1.745   0.421  16.785  2.0043 -1.0564 -0.7620
 4491SOL    HW225107   1.739   0.277  16.766  1.7132  0.7556  0.3306
 4492SOL     OW25108   3.017   3.344   1.559  0.3916 -0.0317 -0.4640
 4492SOL    HW125109   3.104   3.374   1.584  0.2640 -0.5052  0.5457
 4492SOL    HW225110   2.968   3.422   1.587  0.9480  0.1446  0.0128
 4493SOL     OW25111   3.900   3.435   8.830 -0.1064  0.2683  0.0710
 4493SOL    HW125112   3.985   3.403   8.799 -0.0750 -1.9831  2.4849
 4493SOL    HW225113   3.878   3.361   8.887  0.5525 -2.3035 -3.0201
 4494SOL     OW25114   2.143   2.511   7.507  0.3434 -0.3275 -0.0135
 4494SOL    HW125115   2.170   2.603   7.506 -1.1757  0.0962 -2.1505
 4494SOL    HW225116   2.100   2.511   7.421  1.6806 -1.3111 -0.6879
 4495SOL     OW25117   1.043   4.438   7.359 -0.1821 -0.4175  0.4412
 4495SOL    HW125118   1.118   4.427   7.301 -0.9546 -2.3171 -0.2174
 4495SOL    HW225119   1.080   4.391   7.434 -1.1813 -2.0908 -0.1101
 4496SOL     OW25120   4.238   4.063   0.928 -0.0406 -0.3542  0.5157
 4496SOL    HW125121   4.200   4.076   0.842  0.3198  1.0859  0.5782
 4496SOL    HW225122   4.164   4.022   0.973  0.1923  0.6220  1.8191
 4497SOL     OW25123   3.175   4.105  15.941  0.2014 -0.6908 -0.1797
 4497SOL    HW125124   3.250   4.087  15.885 -1.1926  0.2072 -2.3463
 4497SOL    HW225125   3.106   4.052  15.903 -0.2839  0.5565 -1.0394
 4498SOL     OW25126   4.647   0.705  16.689 -0.0978 -0.2693  0.1244
 4498SOL    HW125127   4.619   0.648  16.760 -1.6217 -1.5072 -1.4766
 4498SOL    HW225128   0.004   0.690  16.694 -0.5365 -2.2952  2.0345
 4499SOL     OW25129   0.086   4.222   2.343  0.4634 -1.0314  0.2225
 4499SOL    HW125130   0.061   4.134   2.372 -0.5307  0.8154  4.9330
 4499SOL    HW225131   0.019   4.284   2.372  0.9163 -0.0497 -0.8379
 4500SOL     OW25132   1.544   0.197  13.682 -0.1501 -0.1397 -0.1990
 4500SOL    HW125133   1.463   0.155  13.711 -0.1445  0.2105  0.3047
 4500SOL    HW225134   1.589   0.120  13.647 -1.4962 -1.4458  0.9372
 4501SOL     OW25135   4.039   1.644   5.186 -0.0143  0.2491 -0.1909
 4501SOL    HW125136   4.094   1.566   5.187 -2.3416 -1.4405 -2.7299
 4501SOL    HW225137   3.961   1.602   5.224 -0.3296  0.8944 -0.1180
 4502SOL     OW25138   0.848   1.587   1.867 -0.3342  0.3631 -0.2180
 4502SOL    HW125139   0.822   1.571   1.958  1.3815 -0.6272  0.0935
 4502SOL    HW225140   0.942   1.602   1.877 -0.6501  1.3037  1.3071
 4503SOL     OW25141   1.483   4.042   4.268  0.0330 -0.1874 -0.4923
 4503SOL    HW125142   1.482   4.133   4.239  1.1858 -0.5156 -1.5727
 4503SOL    HW225143   1.395   4.016   4.240 -0.4274  1.7655 -0.8050
 4504SOL     OW25144   4.671   1.239  16.057 -0.1723 -0.3421  0.3169
 4504SOL    HW125145   4.659   1.243  15.963 -0.3839 -1.1704  0.3101
 4504SOL    HW225146   0.005   1.303  16.055 -0.4163 -0.1033 -0.5177
 4505SOL     OW25147   1.268   2.690   2.826  0.0715 -0.0150  0.3011
 4505SOL    HW125148   1.272   2.734   2.741 -0.2546 -0.7906 -0.1171
 4505SOL    HW225149   1.334   2.622   2.809 -1.3228 -1.4474  0.6434
 4506SOL     OW25150   1.262   1.379   7.858 -0.4334 -0.3488  0.1633
 4506SOL    HW125151   1.202   1.435   7.907 -0.0577  1.9112 -1.9377
 4506SOL    HW225152   1.208   1.301   7.853  0.3324 -0.7566 -1.6650
 4507SOL     OW25153   2.779   1.550   6.457  0.5867 -0.2470  0.3277
 4507SOL    HW125154   2.825   1.623   6.498  1.9864  0.2303 -2.0861
 4507SOL    HW225155   2.825   1.530   6.375  0.3114  0.7131 -0.0511
 4508SOL     OW25156   4.284   2.256   5.942  0.0961  0.9193 -0.2031
 4508SOL    HW125157   4.319   2.246   6.031 -1.1909 -1.2830  0.0558
 4508SOL    HW225158   4.229   2.178   5.943  1.8821 -0.3346  0.3936
 4509SOL     OW25159   3.567   3.800   4.200  0.1242  0.7699  0.1686
 4509SOL    HW125160   3.479   3.770   4.220  0.0573  0.6216 -0.3331
 4509SOL    HW225161   3.557   3.895   4.207 -0.8126  0.6569  0.2622
 4510SOL     OW25162   1.452   4.284   4.170 -0.2474  0.2689  0.4282
 4510SOL    HW125163   1.362   4.299   4.144  0.3856  1.6857 -0.9115
 4510SOL    HW225164   1.487   4.371   4.191  0.0203  0.5860 -1.3688
 4511SOL     OW25165   3.868   0.720  11.622 -0.0691  0.4119  0.4619
 4511SOL    HW125166   3.923   0.672  11.560  1.1618  1.2540  0.9012
 4511SOL    HW225167   3.936   0.770  11.668 -1.3976  2.4935  0.1684
 4512SOL     OW25168   1.810   2.398   6.418  0.1541 -0.0532 -0.6267
 4512SOL    HW125169   1.747   2.388   6.347 -2.1952  1.5571  1.2548
 4512SOL    HW225170   1.848   2.310   6.417  0.8504  0.2483 -0.9827
 4513SOL     OW25171   0.039   1.796   7.645  0.1800 -0.4226  0.3310
 4513SOL    HW125172   0.047   1.715   7.596 -0.6329 -0.1590 -0.2542
 4513SOL    HW225173   4.706   1.773   7.706  0.2339  1.4000  1.1017
 4514SOL     OW25174   2.861   3.045   7.616  0.0190  0.0086  0.0676
 4514SOL    HW125175   2.780   3.096   7.607 -0.5108 -0.4179  2.3612
 4514SOL    HW225176   2.930   3.110   7.605 -0.9744  1.2739  1.2740
 4515SOL     OW25177   0.612   2.958   4.186 -0.3318  0.3222  0.3046
 4515SOL    HW125178   0.535   2.908   4.158 -1.7033  3.3975 -1.4564
 4515SOL    HW225179   0.679   2.891   4.182  0.1204  0.6712  2.0965
 4516SOL     OW25180   1.292   0.781   2.192  0.7526  0.0277  0.5394
 4516SOL    HW125181   1.239   0.705   2.217 -1.0776 -0.3482 -4.5358
 4516SOL    HW225182   1.370   0.744   2.233  1.1825  0.8427  0.4412
 4517SOL     OW25183   4.430   3.641   8.760 -0.3112  0.3821 -0.1457
 4517SOL    HW125184   4.353   3.696   8.751 -1.5251 -1.2001  0.5488
 4517SOL    HW225185   4.420   3.614   8.851 -2.5229  0.5895 -0.3263
 4518SOL     OW25186   4.117   3.368   1.252 -0.4818 -0.2812 -0.0336
 4518SOL    HW125187   4.117   3.460   1.277  2.2590 -0.4699  0.6509
 4518SOL    HW225188   4.041   3.367   1.193  1.5479 -0.0111 -2.6759
 4519SOL     OW25189   3.682   4.019   7.755  0.2129 -0.5606 -0.1909
 4519SOL    HW125190   3.648   3.932   7.776 -2.3756  0.4225 -0.3197
 4519SOL    HW225191   3.607   4.077   7.766  1.7091  0.9434  2.1326
 4520SOL     OW25192   0.744   3.746   6.287 -0.1234  0.7935 -0.7240
 4520SOL    HW125193   0.773   3.687   6.218 -1.0240 -0.8985  0.3305
 4520SOL    HW225194   0.762   3.687   6.360  0.0102  0.1862 -1.2593
 4521SOL     OW25195   3.444   0.815   7.879  0.2527 -0.0817 -0.1536
 4521SOL    HW125196   3.408   0.894   7.920  0.0484 -1.1235  1.6654
 4521SOL    HW225197   3.526   0.851   7.845 -0.0210 -0.1040 -0.8361
 4522SOL     OW25198   0.281   2.622   8.115  0.3051 -0.5114 -0.0115
 4522SOL    HW125199   0.329   2.687   8.167 -1.9737  1.2035 -0.0624
 4522SOL    HW225200   0.338   2.548   8.138  1.9523  0.8296  0.2662
 4523SOL     OW25201   1.666   0.683   5.494  0.2395 -0.1039 -0.1885
 4523SOL    HW125202   1.654   0.588   5.503  0.5132 -0.0977  0.2351
 4523SOL    HW225203   1.596   0.710   5.435  0.2429 -2.6083 -1.3559
 4524SOL     OW25204   4.371   2.106   9.137  0.0708 -0.5855  0.6607
 4524SOL    HW125205   4.394   2.081   9.226  0.1053 -1.9729  0.2597
 4524SOL    HW225206   4.432   2.060   9.080 -1.9458 -0.7861 -1.3249
 4525SOL     OW25207   1.660   1.120  12.835 -0.9953  0.4569  0.3766
 4525SOL    HW125208   1.713   1.189  12.874 -0.2725 -1.1264  2.1646
 4525SOL    HW225209   1.718   1.044  12.826  0.2705  0.8925  5.2676
 4526SOL     OW25210   1.308   2.389   8.688  0.4968  0.0572 -0.1991
 4526SOL    HW125211   1.269   2.424   8.608 -0.6691 -0.8179 -0.0018
 4526SOL    HW225212   1.397   2.425   8.680  1.5485 -2.5800 -0.3359
 4527SOL     OW25213   1.180   0.267   9.613 -0.1828  0.1492 -1.2053
 4527SOL    HW125214   1.165   0.234   9.702 -0.5071  0.7390 -1.0469
 4527SOL    HW225215   1.276   0.269   9.615 -0.1072 -1.5346 -3.2978
 4528SOL     OW25216   3.120   0.219  10.749 -0.1241 -0.3112 -0.5333
 4528SOL    HW125217   3.134   0.307  10.716 -1.4299  0.2920  0.4830
 4528SOL    HW225218   3.088   0.252  10.833 -2.7541  0.6675 -1.9006
 4529SOL     OW25219   2.118   2.018   4.534 -0.1702  0.0718 -0.2985
 4529SOL    HW125220   2.207   2.055   4.534  0.4463 -1.4216  0.1426
 4529SOL    HW225221   2.116   1.992   4.626 -1.4989  1.9679  0.2092
 4530SOL     OW25222   0.819   1.501   2.140  0.1633  0.3627 -0.1634
 4530SOL    HW125223   0.884   1.436   2.112 -1.1557 -0.4877 -1.2479
 4530SOL    HW225224   0.766   1.452   2.203  2.5667 -0.6745  1.0585
 4531SOL     OW25225   0.679   2.543  15.167 -0.0864 -0.4769 -0.5195
 4531SOL    HW125226   0.661   2.466  15.221  1.7098  0.4281  1.3787
 4531SOL    HW225227   0.604   2.598  15.190  1.5556  0.1876  3.2524
 4532SOL     OW25228   1.468   3.234   7.217  0.0300  0.3148 -0.0530
 4532SOL    HW125229   1.536   3.281   7.264 -1.6160  1.4943  1.1521
 4532SOL    HW225230   1.503   3.171   7.153  0.8651  1.7172 -0.9712
 4533SOL     OW25231   3.403   4.587   2.161 -0.1372  0.7333  0.4011
 4533SOL    HW125232   3.450   4.612   2.241  1.3478 -0.5670 -0.0765
 4533SOL    HW225233   3.321   4.622   2.196 -0.3874 -0.1554  0.7115
 4534SOL     OW25234   1.502   0.755  13.599 -0.2626 -0.2941  0.0498
 4534SOL    HW125235   1.462   0.695  13.536  2.1728  0.5271 -2.2568
 4534SOL    HW225236   1.470   0.842  13.575 -2.6992 -1.7446 -1.9804
 4535SOL     OW25237   2.754   3.156  13.586 -0.1977 -0.1221  0.6179
 4535SOL    HW125238   2.713   3.108  13.513 -0.5811  2.4631 -0.8817
 4535SOL    HW225239   2.738   3.094  13.656 -0.5447 -0.0998  0.5585
 4536SOL     OW25240   0.508   0.165   6.387 -0.1779  0.6024 -0.0382
 4536SOL    HW125241   0.547   0.253   6.394  0.2968  0.3987 -0.0952
 4536SOL    HW225242   0.585   0.109   6.379 -0.4238  0.1984  0.4296
 4537SOL     OW25243   0.071   1.559   3.474 -0.5636  0.1867 -0.3879
 4537SOL    HW125244   0.134   1.619   3.512 -0.3472 -0.1813 -0.1685
 4537SOL    HW225245   0.096   1.563   3.381  1.1164 -0.4337  0.0445
 4538SOL     OW25246   3.239   4.260   2.421  0.1022 -0.1227 -1.1951
 4538SOL    HW125247   3.182   4.333   2.445 -0.0734 -0.4108 -0.7289
 4538SOL    HW225248   3.268   4.276   2.331 -1.2837 -0.3485 -1.6789
 4539SOL     OW25249   4.516   4.553   7.382  0.4311 -0.1410 -0.2000
 4539SOL    HW125250   4.542   4.481   7.439  1.8012  1.2864  0.9864
 4539SOL    HW225251   4.461   4.508   7.318  1.4985 -2.9596  0.8705
 4540SOL     OW25252   0.551   4.609  17.474 -0.2280 -0.0930 -0.1384
 4540SOL    HW125253   0.601   4.647  17.402 -0.1190  1.0969  0.5708
 4540SOL    HW225254   0.505   4.551  17.413  0.3266  0.2363 -0.8624
 4541SOL     OW25255   2.001   1.541   2.380  0.4709  0.7907  0.0619
 4541SOL    HW125256   1.982   1.462   2.430  0.5361  0.7392  0.0055
 4541SOL    HW225257   2.048   1.598   2.440  2.7542  0.2763 -1.2460
 4542SOL     OW25258   2.782   4.575  15.567  0.2000  0.3497 -0.0574
 4542SOL    HW125259   2.841   4.633  15.519  0.0654 -0.9165 -1.7413
 4542SOL    HW225260   2.703   4.623  15.543  1.7236  3.6334  1.5333
 4543SOL     OW25261   3.240   3.994  13.872  1.1220 -0.0447 -0.3140
 4543SOL    HW125262   3.313   4.006  13.933  2.6170 -1.7581 -1.7678
 4543SOL    HW225263   3.247   4.079  13.828 -0.4062  1.8191  3.0455
 4544SOL     OW25264   0.381   4.364   3.636  0.2066 -0.0193 -0.9508
 4544SOL    HW125265   0.305   4.307   3.628 -0.8936  1.2527  0.3820
 4544SOL    HW225266   0.425   4.301   3.693  0.9922 -0.0039 -1.5408
 4545SOL     OW25267   1.649   3.987  17.478  0.0720 -0.3964  0.4434
 4545SOL    HW125268   1.603   4.009  17.397  2.2347 -3.0277 -1.4887
 4545SOL    HW225269   1.738   3.989  17.443  0.4186  1.0770  1.3929
 4546SOL     OW25270   3.284   0.349   8.282 -0.0014 -0.6635  0.3898
 4546SOL    HW125271   3.301   0.272   8.227  0.0988 -1.0720  0.9870
 4546SOL    HW225272   3.217   0.329   8.348  0.1577  0.1847  0.8101
 4547SOL     OW25273   1.883   2.486  15.718  1.1475  0.4441  0.1956
 4547SOL    HW125274   1.903   2.424  15.788 -2.3835 -0.5697  0.3286
 4547SOL    HW225275   1.938   2.458  15.646  1.5284 -0.1935  0.7321
 4548SOL     OW25276   0.699   4.176   4.427 -0.1803  0.2863  0.3108
 4548SOL    HW125277   0.616   4.218   4.450 -0.4528 -0.7614  1.2301
 4548SOL    HW225278   0.697   4.109   4.495 -3.1576 -0.0815 -0.1648
 4549SOL     OW25279   4.292   2.448   4.811  0.4505  0.1013  0.4999
 4549SOL    HW125280   4.243   2.503   4.872 -0.1207  1.3173 -1.0331
 4549SOL    HW225281   4.288   2.364   4.857 -0.6266 -0.9376 -1.5002
 4550SOL     OW25282   1.006   2.359   4.872  0.0414  0.2176  0.2508
 4550SOL    HW125283   1.069   2.420   4.836 -0.1836 -0.3243 -1.0468
 4550SOL    HW225284   0.992   2.295   4.802  0.6795  0.0380  0.2871
 4551SOL     OW25285   2.632   0.092   8.835 -0.5130  0.7216 -0.1556
 4551SOL    HW125286   2.567   0.098   8.905 -2.2636  0.4912 -1.7403
 4551SOL    HW225287   2.601   0.019   8.781  0.6686 -0.1903  0.3972
 4552SOL     OW25288   0.102   1.682   3.965 -0.0778  0.6244  0.0196
 4552SOL    HW125289   0.189   1.663   3.930  1.0098  0.3378  2.8440
 4552SOL    HW225290   0.043   1.621   3.922 -0.2090  0.1533  0.8575
 4553SOL     OW25291   0.582   0.112   4.285  0.0245 -0.2451 -0.0367
 4553SOL    HW125292   0.550   0.044   4.225  0.8043 -0.2312 -0.4804
 4553SOL    HW225293   0.499   0.137   4.325  0.2050  0.2827  0.0001
 4554SOL     OW25294   4.177   0.490   5.183  0.5314  0.0810 -0.5870
 4554SOL    HW125295   4.155   0.529   5.267  2.6781  0.1781 -0.0744
 4554SOL    HW225296   4.138   0.550   5.120  0.4942 -0.1301 -0.7667
 4555SOL     OW25297   1.113   4.195  10.089 -0.2921 -0.5477 -0.6135
 4555SOL    HW125298   1.028   4.156  10.108  0.9702 -3.4916 -1.0764
 4555SOL    HW225299   1.137   4.141  10.014 -0.2953 -0.6048 -0.5734
 4556SOL     OW25300   3.183   4.213   6.115  0.7623 -0.3284  0.5527
 4556SOL    HW125301   3.228   4.186   6.035 -2.7973  0.8653 -1.8669
 4556SOL    HW225302   3.150   4.300   6.092  0.8088  0.3081  2.9260
 4557SOL     OW25303   3.164   1.848   7.944 -0.5524 -0.0382 -0.9122
 4557SOL    HW125304   3.142   1.788   8.015  2.2355 -0.3882 -0.3454
 4557SOL    HW225305   3.252   1.876   7.968  0.0289 -1.4027 -1.4337
 4558SOL     OW25306   1.620   4.239   5.605  0.1194  0.4302 -0.1287
 4558SOL    HW125307   1.674   4.298   5.657  1.4499 -2.1593  1.4694
 4558SOL    HW225308   1.674   4.184   5.548  1.0484  1.8922 -0.6402
 4559SOL     OW25309   2.891   2.056   5.411  0.0222  0.6732  0.0035
 4559SOL    HW125310   2.901   2.098   5.496 -1.1181  1.2081 -0.1333
 4559SOL    HW225311   2.811   2.005   5.424  2.3903 -2.7270  1.2011
 4560SOL     OW25312   3.648   3.562  14.729  0.4037  0.6043  0.2203
 4560SOL    HW125313   3.727   3.601  14.767  1.0885 -0.4418 -0.1281
 4560SOL    HW225314   3.685   3.536  14.645 -1.5646  0.5062 -0.6152
 4561SOL     OW25315   0.033   4.083   1.210  0.4801  0.0711  0.2322
 4561SOL    HW125316   0.014   4.059   1.120 -1.7535  1.1655  0.4196
 4561SOL    HW225317   4.680   4.102   1.237 -0.2467 -2.3830 -0.4840
 4562SOL     OW25318   2.894   4.449   6.210 -0.3754 -0.0991 -0.1407
 4562SOL    HW125319   2.853   4.385   6.151 -0.7110 -1.1853  1.2793
 4562SOL    HW225320   2.889   4.525   6.151  0.5241  0.2273  0.1961
 4563SOL     OW25321   2.175   0.643   8.454  0.0714  0.0411  0.2412
 4563SOL    HW125322   2.225   0.638   8.372 -0.6879  3.6347 -0.4515
 4563SOL    HW225323   2.172   0.552   8.481 -1.8012  0.4299  1.3492
 4564SOL     OW25324   3.143   2.065   6.228 -0.0826 -0.0259 -0.2648
 4564SOL    HW125325   3.053   2.085   6.253 -0.2193 -1.3553  0.3048
 4564SOL    HW225326   3.146   1.973   6.256 -0.4811  0.1518  0.3748
 4565SOL     OW25327   3.603   1.027  15.757 -0.3702  0.0831 -0.1849
 4565SOL    HW125328   3.555   0.950  15.727 -1.3531 -0.5203  2.8822
 4565SOL    HW225329   3.651   0.978  15.824  1.2663  1.1873 -0.5463
 4566SOL     OW25330   1.097   0.567   7.001 -0.4310 -0.5282 -0.3696
 4566SOL    HW125331   1.175   0.582   6.947 -0.2593  2.1020  0.5830
 4566SOL    HW225332   1.028   0.579   6.936 -0.4185 -2.3827 -0.7250
 4567SOL     OW25333   0.619   3.163   1.159 -0.0169  0.1667  0.2792
 4567SOL    HW125334   0.543   3.219   1.141 -1.8523 -2.0583  1.1657
 4567SOL    HW225335   0.664   3.222   1.221 -0.7954 -0.8620  1.8143
 4568SOL     OW25336   3.052   0.199   3.102 -0.4953 -0.4039 -0.7040
 4568SOL    HW125337   3.104   0.239   3.172  1.1345 -0.0714 -2.0995
 4568SOL    HW225338   3.054   0.107   3.128  2.1572 -0.3784 -0.7412
 4569SOL     OW25339   0.161   2.796   6.905  0.5149  0.2266 -0.3146
 4569SOL    HW125340   0.081   2.839   6.873  1.2068  0.5608 -1.5843
 4569SOL    HW225341   0.199   2.871   6.951 -0.0332  1.2424 -1.5156
 4570SOL     OW25342   0.154   0.156   4.790 -0.3901 -0.0799 -0.0597
 4570SOL    HW125343   0.103   0.145   4.870  0.7794 -1.0594  0.5531
 4570SOL    HW225344   0.215   0.083   4.779  0.7628  0.9264 -0.3294
 4571SOL     OW25345   0.875   1.471   3.967 -0.1071 -0.1412  0.1743
 4571SOL    HW125346   0.906   1.426   3.888  0.0895  0.6849 -0.2251
 4571SOL    HW225347   0.921   1.419   4.033 -1.1779 -1.6013 -0.2485
 4572SOL     OW25348   2.811   1.891   8.733 -0.4754  0.5826 -0.4902
 4572SOL    HW125349   2.901   1.903   8.764 -0.3833 -2.5971  0.5617
 4572SOL    HW225350   2.785   1.982   8.736 -0.0930  0.6996 -0.7659
 4573SOL     OW25351   0.483   2.694   1.032 -0.2201 -0.3178  0.4498
 4573SOL    HW125352   0.404   2.688   1.085 -0.0690  0.3494  0.7536
 4573SOL    HW225353   0.532   2.756   1.086  1.2666  0.5528 -1.8412
 4574SOL     OW25354   3.454   3.179   5.696  0.7324 -0.0502 -0.2971
 4574SOL    HW125355   3.539   3.168   5.653  1.0903 -1.7538  0.8350
 4574SOL    HW225356   3.463   3.135   5.781  0.7455 -0.5622 -0.5654
 4575SOL     OW25357   1.806   2.236  17.701 -0.1710 -0.1846 -0.2313
 4575SOL    HW125358   1.764   2.150  17.692 -0.8516 -0.1116  2.3138
 4575SOL    HW225359   1.813   2.252   0.047 -0.2925  1.1696 -0.4601
 4576SOL     OW25360   2.748   3.648  16.545  0.3103 -0.6349 -0.3718
 4576SOL    HW125361   2.713   3.720  16.596  1.5521 -0.6596  0.5393
 4576SOL    HW225362   2.721   3.579  16.606  0.7619 -1.9380 -1.6513
 4577SOL     OW25363   2.731   0.651   5.993 -0.4747 -0.0733 -0.3210
 4577SOL    HW125364   2.768   0.578   6.042  0.8950  1.0510  0.3062
 4577SOL    HW225365   2.770   0.729   6.031  0.9270 -0.8562 -0.1680
 4578SOL     OW25366   0.144   3.936   7.300 -0.0079 -0.0989  0.5143
 4578SOL    HW125367   0.151   3.861   7.242  0.4952 -0.5032  1.0984
 4578SOL    HW225368   0.076   3.904   7.359 -0.1990 -0.4799  0.0875
 4579SOL     OW25369   0.203   1.305   2.284 -0.1015  0.1838 -0.2347
 4579SOL    HW125370   0.141   1.355   2.337 -0.1117 -1.0542  0.9180
 4579SOL    HW225371   0.211   1.232   2.345 -0.1556 -0.0563 -0.5125
 4580SOL     OW25372   0.159   0.924  10.201  0.1812 -0.3529  0.0825
 4580SOL    HW125373   0.132   0.925  10.110  2.2937  0.8929 -0.5248
 4580SOL    HW225374   0.234   0.984  10.197 -1.4066  1.7006  1.3822
 4581SOL     OW25375   0.703   1.005  12.036  0.8884  0.3220 -0.2790
 4581SOL    HW125376   0.688   0.991  11.943 -1.1172  2.7092 -0.3149
 4581SOL    HW225377   0.622   1.055  12.049  1.0475  0.3770  0.4987
 4582SOL     OW25378   1.855   1.219   9.017  0.1686 -0.0935  0.2705
 4582SOL    HW125379   1.925   1.276   8.986 -1.7224  2.1181  0.0153
 4582SOL    HW225380   1.900   1.135   9.019  1.3396  0.4897 -1.1076
 4583SOL     OW25381   4.332   3.739  17.601 -0.5442 -0.0408  0.6447
 4583SOL    HW125382   4.378   3.737  17.517  0.3585  0.4999  1.1296
 4583SOL    HW225383   4.346   3.647  17.624 -0.0170  0.0817  0.8148
 4584SOL     OW25384   0.451   4.558   2.410  0.2967 -0.2050 -0.1689
 4584SOL    HW125385   0.403   4.481   2.379 -1.8777  0.9767  0.2240
 4584SOL    HW225386   0.496   4.532   2.490  2.8665  0.5208 -1.3841
 4585SOL     OW25387   0.135   2.934   9.385 -0.2099  0.2102 -0.1512
 4585SOL    HW125388   0.201   2.873   9.417 -2.4476 -0.9383  2.3069
 4585SOL    HW225389   0.083   2.950   9.463  0.4142  0.8513  0.1284
 4586SOL     OW25390   3.634   0.047   8.923  0.2663 -0.6302  0.3617
 4586SOL    HW125391   3.696   4.715   8.944  2.0293  0.1246 -2.3084
 4586SOL    HW225392   3.697   0.119   8.933 -3.9797  2.6452  3.9481
 4587SOL     OW25393   3.758   3.298   6.918  0.0060  0.0487  0.6443
 4587SOL    HW125394   3.683   3.350   6.946 -0.6588  0.6478 -2.2911
 4587SOL    HW225395   3.798   3.289   7.005 -0.0605  5.5092  1.2334
 4588SOL     OW25396   0.717   0.860   7.449 -0.1147 -0.6751 -0.0634
 4588SOL    HW125397   0.712   0.835   7.541  2.0538 -1.2923 -0.1214
 4588SOL    HW225398   0.727   0.774   7.408 -1.3558 -0.5889 -0.5527
 4589SOL     OW25399   1.129   1.120   7.875  0.2490  0.6843 -0.3411
 4589SOL    HW125400   1.215   1.087   7.847  0.2188  0.2683  0.0629
 4589SOL    HW225401   1.069   1.064   7.826 -0.7059  2.9669 -1.7970
 4590SOL     OW25402   1.972   3.838   1.766  0.5725  0.2445  0.8556
 4590SOL    HW125403   1.958   3.759   1.818  1.8236  2.2066  4.1668
 4590SOL    HW225404   2.029   3.892   1.821 -0.2541  1.5280  0.4361
 4591SOL     OW25405   4.573   0.610  12.199 -0.7348  0.0992  0.0426
 4591SOL    HW125406   4.660   0.635  12.230 -0.3080 -0.1807 -0.9646
 4591SOL    HW225407   4.578   0.627  12.105 -2.5977 -0.4529 -0.1580
 4592SOL     OW25408   2.242   3.964   7.681 -0.0197 -0.4535 -0.0089
 4592SOL    HW125409   2.299   3.974   7.758 -0.2490 -1.2989  0.2662
 4592SOL    HW225410   2.303   3.988   7.611 -0.7526  0.0084 -0.4912
 4593SOL     OW25411   2.288   3.495  14.387 -0.1172 -0.3635 -0.2052
 4593SOL    HW125412   2.196   3.473  14.401 -1.1910  1.4449 -4.4605
 4593SOL    HW225413   2.280   3.568  14.326 -0.5179 -0.2893 -0.0630
 4594SOL     OW25414   3.817   1.400   8.997  0.4686 -0.6067 -0.1507
 4594SOL    HW125415   3.787   1.311   9.014 -1.4074  0.2773  1.1060
 4594SOL    HW225416   3.901   1.410   9.042 -0.3663  0.5825  1.1239
 4595SOL     OW25417   3.053   0.774   4.812 -0.1341 -0.0916 -0.0399
 4595SOL    HW125418   3.062   0.828   4.733 -2.4416  0.2321 -0.0810
 4595SOL    HW225419   3.127   0.716   4.799 -0.5044  0.0156 -2.6208
 4596SOL     OW25420   0.114   2.546   3.208  0.5376  0.3584  0.0159
 4596SOL    HW125421   0.023   2.574   3.216 -0.3515 -2.2119 -1.1333
 4596SOL    HW225422   0.158   2.628   3.188  1.0007  0.2626  0.6728
 4597SOL     OW25423   3.035   4.331  12.861  0.1455 -0.4373  0.2862
 4597SOL    HW125424   2.960   4.386  12.838 -0.2497 -1.1489 -0.0996
 4597SOL    HW225425   3.106   4.396  12.857 -0.5782  0.3201 -0.1907
 4598SOL     OW25426   1.007   2.977  11.278 -0.3953  0.0916  0.0851
 4598SOL    HW125427   1.041   2.990  11.367  1.7466 -2.7946 -0.2967
 4598SOL    HW225428   1.083   2.927  11.247  0.5422 -0.4670  3.2708
 4599SOL     OW25429   1.735   2.148   3.263 -0.7280 -0.5116  0.4612
 4599SOL    HW125430   1.661   2.100   3.301 -0.0177 -1.5396  0.5497
 4599SOL    HW225431   1.810   2.098   3.294 -0.4901 -0.4483 -0.0233
 4600SOL     OW25432   3.375   0.490  11.499 -0.0545 -0.0481  0.0880
 4600SOL    HW125433   3.418   0.547  11.563  0.1348  1.1455 -1.0919
 4600SOL    HW225434   3.430   0.413  11.514  0.6236  0.2934 -0.5997
 4601SOL     OW25435   4.587   4.512   8.319 -0.4399  0.2165  0.7339
 4601SOL    HW125436   4.575   4.487   8.227 -0.8002 -0.1421  0.8769
 4601SOL    HW225437   4.493   4.508   8.340 -0.0609 -1.2666  2.1610
 4602SOL     OW25438   3.412   3.753   2.412  0.4058 -0.0921  0.3800
 4602SOL    HW125439   3.322   3.728   2.391  0.6460 -2.2706  2.0900
 4602SOL    HW225440   3.413   3.845   2.441 -0.7773  0.1890 -0.4433
 4603SOL     OW25441   4.672   4.143   5.659 -0.0779  0.1723 -0.2421
 4603SOL    HW125442   4.698   4.233   5.639 -1.0670  0.7475  0.9989
 4603SOL    HW225443   4.607   4.157   5.728  0.2118 -1.0642  0.2803
 4604SOL     OW25444   1.067   1.256  11.051 -0.0653 -0.4155  0.6268
 4604SOL    HW125445   1.018   1.282  10.972  0.7594  0.5383  0.4269
 4604SOL    HW225446   1.112   1.177  11.022  0.8518 -0.2611  1.6709
 4605SOL     OW25447   4.711   2.956   3.698  0.2999  0.9636 -0.4151
 4605SOL    HW125448   4.625   2.994   3.717  0.2189  1.6416 -2.1231
 4605SOL    HW225449   4.683   2.877   3.650 -0.9063  0.7715  0.6094
 4606SOL     OW25450   2.170   3.691   0.408 -0.2876  0.7442 -0.1520
 4606SOL    HW125451   2.095   3.746   0.433  0.9815  0.7685  3.5770
 4606SOL    HW225452   2.244   3.750   0.423 -0.0206  0.3637  0.0214
 4607SOL     OW25453   0.651   3.975  14.596 -1.0014  1.0377 -0.1083
 4607SOL    HW125454   0.689   3.911  14.537  0.3330  0.1151  1.7424
 4607SOL    HW225455   0.660   4.063  14.559  0.3369  1.3389  0.9666
 4608SOL     OW25456   1.435   3.593   7.421  0.0500  0.1305  0.3753
 4608SOL    HW125457   1.499   3.563   7.486  1.3548  1.7903 -0.1442
 4608SOL    HW225458   1.357   3.592   7.477 -1.1907 -0.0336 -1.3567
 4609SOL     OW25459   1.632   4.173  15.794  0.4158  0.6744 -0.1523
 4609SOL    HW125460   1.662   4.183  15.703 -2.3597 -0.4326 -1.1555
 4609SOL    HW225461   1.611   4.081  15.784 -0.4415  0.6441  1.8823
 4610SOL     OW25462   3.401   2.724   6.922  0.2247  0.2227  0.0100
 4610SOL    HW125463   3.416   2.734   6.828 -2.1378 -0.8838 -0.4956
 4610SOL    HW225464   3.319   2.772   6.934  2.3243  4.2947 -2.0844
 4611SOL     OW25465   1.409   0.169  14.907 -0.3844  0.4856  0.6479
 4611SOL    HW125466   1.353   0.217  14.845 -0.2276 -0.3698 -0.1616
 4611SOL    HW225467   1.413   0.233  14.977 -0.0137  2.0679 -0.8096
 4612SOL     OW25468   0.674   2.727   8.928 -0.3512  0.2596  0.2549
 4612SOL    HW125469   0.724   2.646   8.917 -2.6398 -1.0705 -0.4353
 4612SOL    HW225470   0.694   2.746   9.020 -2.9095 -3.0410  1.4967
 4613SOL     OW25471   3.953   2.487   0.471 -0.3378 -0.2737 -0.1184
 4613SOL    HW125472   3.953   2.453   0.560 -0.5748  1.2932  0.4838
 4613SOL    HW225473   3.994   2.409   0.433  0.2527 -0.0986  0.1619
 4614SOL     OW25474   1.598   1.671   3.838  0.0425 -0.1854 -0.3666
 4614SOL    HW125475   1.518   1.705   3.797 -0.8519  0.4489  1.9359
 4614SOL    HW225476   1.668   1.663   3.774 -1.3427  0.4918 -1.9870
 4615SOL     OW25477   0.708   2.368   8.419 -0.8475 -0.7352  0.2314
 4615SOL    HW125478   0.732   2.278   8.443  1.2843 -0.0714  0.6481
 4615SOL    HW225479   0.727   2.413   8.501  0.5157  0.0879 -0.5233
 4616SOL     OW25480   0.252   3.688  16.052 -0.0290 -0.4250 -0.1881
 4616SOL    HW125481   0.321   3.646  16.104  0.1048 -0.4969 -0.4239
 4616SOL    HW225482   0.187   3.676  16.121  0.0122  0.8221  0.0684
 4617SOL     OW25483   4.572   3.103   2.203  0.2774  0.1683  0.0254
 4617SOL    HW125484   4.576   3.064   2.116 -0.8236 -2.7295  1.2816
 4617SOL    HW225485   4.482   3.082   2.227  0.2771 -1.8092 -1.7787
 4618SOL     OW25486   2.488   2.648   2.259 -0.8947 -0.3051 -0.1794
 4618SOL    HW125487   2.485   2.740   2.235  0.9980 -0.0689  0.4372
 4618SOL    HW225488   2.503   2.654   2.353 -0.7442 -1.4117 -0.1326
 4619SOL     OW25489   2.188   1.305  15.299 -0.1672 -0.1630  0.2097
 4619SOL    HW125490   2.107   1.290  15.349  0.3890 -1.2621  0.7965
 4619SOL    HW225491   2.150   1.380  15.254 -1.8597 -0.7290  0.6943
 4620SOL     OW25492   1.271   0.086  13.737 -0.0292  0.1260 -0.1195
 4620SOL    HW125493   1.218   0.059  13.661 -0.7663  0.3860  0.3043
 4620SOL    HW225494   1.205   0.135  13.786 -1.1378  0.5555 -2.0077
 4621SOL     OW25495   3.529   1.474   2.355 -0.3295  0.2819 -0.1021
 4621SOL    HW125496   3.485   1.551   2.319 -1.8783 -0.9256 -0.7998
 4621SOL    HW225497   3.497   1.462   2.444 -0.9748  0.5180 -0.3071
 4622SOL     OW25498   2.645   3.719   2.620 -0.5231  0.0103 -0.3317
 4622SOL    HW125499   2.557   3.697   2.650  0.0820 -0.2542  1.2155
 4622SOL    HW225500   2.645   3.809   2.654 -3.6905  0.0924 -0.5769
 4623SOL     OW25501   4.272   4.305   6.404 -0.1071  0.6112  0.8800
 4623SOL    HW125502   4.319   4.277   6.482  1.5553 -0.1320 -0.4034
 4623SOL    HW225503   4.284   4.231   6.344 -0.2348  0.6135  0.8501
 4624SOL     OW25504   2.105   1.150   4.875 -0.3376 -1.2148  0.0935
 4624SOL    HW125505   2.070   1.129   4.788 -0.8318  2.8469 -0.6592
 4624SOL    HW225506   2.022   1.175   4.914 -1.9002 -2.4431 -2.3880
 4625SOL     OW25507   2.550   0.794   8.307  0.4750 -0.2744 -0.4092
 4625SOL    HW125508   2.504   0.741   8.242  2.2828 -3.5320  0.9305
 4625SOL    HW225509   2.559   0.880   8.268 -0.8249 -0.4188 -0.9945
 4626SOL     OW25510   0.827   1.065   4.283 -0.0749  0.3170  0.2711
 4626SOL    HW125511   0.920   1.041   4.288  0.0182  0.1711 -2.0502
 4626SOL    HW225512   0.782   1.015   4.351 -1.0921 -1.0250 -1.3698
 4627SOL     OW25513   2.216   4.658   2.734 -0.4853 -0.0008 -0.3417
 4627SOL    HW125514   2.251   4.574   2.763  0.4762  0.4694 -0.0988
 4627SOL    HW225515   2.281   4.710   2.782  0.0536 -0.1448 -0.9202
 4628SOL     OW25516   4.373   4.548   0.274 -0.6281 -0.1378  0.3239
 4628SOL    HW125517   4.435   4.621   0.279  0.7376 -1.1034 -2.0691
 4628SOL    HW225518   4.307   4.591   0.219 -2.1378 -0.9619  1.5047
 4629SOL     OW25519   0.887   2.118   3.646  0.4794  0.4320 -0.1160
 4629SOL    HW125520   0.813   2.159   3.692 -0.1047  0.1991 -0.8588
 4629SOL    HW225521   0.940   2.194   3.625  0.6886  0.0323 -1.0280
 4630SOL     OW25522   4.337   3.952   3.771  0.0211 -0.7465 -0.3499
 4630SOL    HW125523   4.247   3.982   3.760 -0.0544 -0.0619  2.0588
 4630SOL    HW225524   4.374   3.973   3.686 -0.0068 -3.3052 -0.9807
 4631SOL     OW25525   4.709   3.177   1.870 -0.0146  0.0292 -0.3781
 4631SOL    HW125526   4.627   3.198   1.915 -0.0993  1.9566 -1.4190
 4631SOL    HW225527   4.729   3.271   1.860 -0.9819  0.4148  1.2390
 4632SOL     OW25528   0.004   0.989   5.504  0.0431 -0.2142 -0.0591
 4632SOL    HW125529   0.081   0.933   5.503 -0.5568 -1.0423  0.5157
 4632SOL    HW225530   4.686   0.939   5.564  0.4864  0.3724  0.8304
 4633SOL     OW25531   4.656   0.946  14.628 -0.0018  0.1903 -0.2296
 4633SOL    HW125532   4.625   1.013  14.567 -0.2878 -0.2337 -0.5501
 4633SOL    HW225533   0.014   0.955  14.620  0.1313 -1.8429 -0.8015
 4634SOL     OW25534   3.732   1.660   2.646  0.7253 -0.4367 -0.1868
 4634SOL    HW125535   3.791   1.724   2.607  0.0709 -0.6119 -1.4819
 4634SOL    HW225536   3.663   1.646   2.582 -2.8935  0.7314  3.4746
 4635SOL     OW25537   1.662   1.826   8.018  0.1010  0.4689  0.1837
 4635SOL    HW125538   1.601   1.870   8.077 -0.9896  0.1911 -0.7463
 4635SOL    HW225539   1.661   1.884   7.942  2.3686  0.9482  0.5081
 4636SOL     OW25540   0.868   3.858   7.148 -0.8542 -0.0041  0.5619
 4636SOL    HW125541   0.931   3.785   7.155 -0.2667  0.6888  2.4628
 4636SOL    HW225542   0.931   3.928   7.166  0.8396 -1.1811 -0.7661
 4637SOL     OW25543   4.705   4.531   6.440 -0.4423  0.3076  0.6103
 4637SOL    HW125544   0.036   4.555   6.503 -0.4230  1.2595  0.2280
 4637SOL    HW225545   4.630   4.542   6.499 -2.3160 -1.2187 -1.4985
 4638SOL     OW25546   0.952   3.176   3.862  0.3991  0.1956  0.3845
 4638SOL    HW125547   0.961   3.099   3.918 -0.1197 -1.6002 -2.0027
 4638SOL    HW225548   0.997   3.242   3.916  1.9779 -0.2592 -0.3585
 4639SOL     OW25549   3.514   1.621   3.687 -0.5475  0.4006 -0.3964
 4639SOL    HW125550   3.568   1.696   3.712 -1.6202  0.9379  0.3249
 4639SOL    HW225551   3.578   1.564   3.645  0.3922  0.1032  1.4536
 4640SOL     OW25552   0.110   3.626   3.414  0.4167  0.2802 -0.2413
 4640SOL    HW125553   0.016   3.644   3.406  0.3992  0.0768 -0.4889
 4640SOL    HW225554   0.140   3.659   3.330  2.6912 -1.1311  0.0207
 4641SOL     OW25555   0.816   4.517  11.469  0.0441 -0.5366  0.0484
 4641SOL    HW125556   0.876   4.458  11.513 -0.4600 -0.6923  0.5289
 4641SOL    HW225557   0.745   4.525  11.532 -0.4767 -2.0388 -0.3445
 4642SOL     OW25558   0.053   0.857   2.572  0.0623 -0.1574  0.1514
 4642SOL    HW125559   0.119   0.790   2.591 -0.1874 -0.5332 -0.3097
 4642SOL    HW225560   0.078   0.929   2.631 -0.1675 -1.1602  1.4586
 4643SOL     OW25561   1.595   0.156   6.010 -0.0402  0.6149 -0.8236
 4643SOL    HW125562   1.536   0.167   5.935  1.5483 -2.0076 -2.4808
 4643SOL    HW225563   1.537   0.096   6.057  0.2072 -0.6352 -2.1018
 4644SOL     OW25564   1.957   1.587  10.327  0.1604 -0.0770  0.0412
 4644SOL    HW125565   2.039   1.537  10.328  2.1743  3.2688  1.2539
 4644SOL    HW225566   1.907   1.550  10.400  0.8526 -0.2714  0.4184
 4645SOL     OW25567   0.919   2.120   4.158  0.2678 -0.4926  0.6159
 4645SOL    HW125568   0.911   2.088   4.068 -1.6254  0.1034  0.5813
 4645SOL    HW225569   0.885   2.048   4.210 -1.6580  0.3218  0.4718
 4646SOL     OW25570   1.348   2.568   1.288 -0.1079 -0.3151 -0.3347
 4646SOL    HW125571   1.261   2.586   1.251  0.8244 -1.4303 -3.0991
 4646SOL    HW225572   1.395   2.634   1.237  0.7728  1.4083  2.7108
 4647SOL     OW25573   3.785   1.049   2.115 -0.3042 -0.8098  0.4409
 4647SOL    HW125574   3.819   1.137   2.099 -0.5780 -0.4759  1.7090
 4647SOL    HW225575   3.694   1.063   2.092  0.7879  1.7536 -2.2480
 4648SOL     OW25576   4.223   1.870  11.619 -0.0197  0.1472 -0.5430
 4648SOL    HW125577   4.293   1.931  11.642 -0.9054  1.3075 -0.9227
 4648SOL    HW225578   4.257   1.786  11.650 -0.0930 -0.4157 -1.9848
 4649SOL     OW25579   4.176   2.943  11.370  0.2191 -0.2869 -0.2013
 4649SOL    HW125580   4.089   2.939  11.409  0.8557 -1.1765  1.1308
 4649SOL    HW225581   4.146   3.028  11.338 -1.0993 -0.7603 -0.2161
 4650SOL     OW25582   1.108   0.601   8.571 -0.5639  0.2271 -0.0569
 4650SOL    HW125583   1.151   0.677   8.531  1.7332 -0.8214  0.4529
 4650SOL    HW225584   1.110   0.614   8.666 -0.8566  0.4330 -0.0787
 4651SOL     OW25585   4.473   0.460  11.944 -0.5070 -0.1610  0.4046
 4651SOL    HW125586   4.437   0.442  12.032 -0.3322 -1.7900  0.1475
 4651SOL    HW225587   4.516   0.376  11.928  0.6289  0.9660 -2.3051
 4652SOL     OW25588   2.791   0.514   6.223  0.3948 -0.2122 -0.0885
 4652SOL    HW125589   2.749   0.429   6.239  1.8518 -0.7436  0.8900
 4652SOL    HW225590   2.867   0.519   6.281 -0.3981  2.2163  0.7451
 4653SOL     OW25591   2.931   4.421   3.006 -0.4410 -0.1407  0.7238
 4653SOL    HW125592   3.019   4.401   2.973  0.2471  1.5650  1.5166
 4653SOL    HW225593   2.925   4.516   2.995 -0.6136 -0.4177 -1.4950
 4654SOL     OW25594   4.367   2.790   2.706 -0.4661 -0.4643 -0.5556
 4654SOL    HW125595   4.421   2.734   2.649  0.6688 -0.4027  0.4564
 4654SOL    HW225596   4.412   2.874   2.705 -0.2440 -0.5602  0.9014
 4655SOL     OW25597   3.982   0.654   0.399 -0.0692 -0.9354  0.5496
 4655SOL    HW125598   3.903   0.600   0.402  1.8034 -3.6456  0.9349
 4655SOL    HW225599   4.013   0.624   0.314  1.7429 -0.1247  0.9224
 4656SOL     OW25600   0.443   1.649   6.179  0.1686 -0.2452 -0.1255
 4656SOL    HW125601   0.423   1.743   6.187 -1.1501 -0.4690 -0.7693
 4656SOL    HW225602   0.424   1.627   6.270 -0.0417 -1.0126 -0.3593
 4657SOL     OW25603   1.217   3.728   3.166  0.0619 -0.1215  0.0229
 4657SOL    HW125604   1.216   3.657   3.230 -0.9704 -0.4752 -0.3844
 4657SOL    HW225605   1.197   3.809   3.213 -0.5580 -1.1073  1.4683
 4658SOL     OW25606   3.799   0.973   9.788  0.3948 -0.5669  0.6529
 4658SOL    HW125607   3.719   0.971   9.735 -0.2014 -0.7744  1.5554
 4658SOL    HW225608   3.771   0.971   9.880 -1.9971  1.4982  0.0075
 4659SOL     OW25609   3.977   2.573   3.709 -0.4531  0.3420  0.1178
 4659SOL    HW125610   3.928   2.585   3.790 -3.5503 -0.8336 -1.5733
 4659SOL    HW225611   3.929   2.634   3.653 -1.1419  0.3119  0.6733
 4660SOL     OW25612   2.590   2.230   8.474 -0.2076  0.5278  0.4098
 4660SOL    HW125613   2.666   2.216   8.530 -0.7526 -2.7275  0.3537
 4660SOL    HW225614   2.541   2.148   8.486 -0.0725  0.2233 -1.1494
 4661SOL     OW25615   2.559   0.029   2.088 -0.1947  0.5388  0.1392
 4661SOL    HW125616   2.578   4.731   2.001 -1.3557 -1.9668  0.8889
 4661SOL    HW225617   2.609   0.111   2.091 -0.7205  0.9536 -2.4499
 4662SOL     OW25618   4.430   1.135  15.438  0.1016 -0.2128 -0.3887
 4662SOL    HW125619   4.468   1.051  15.411 -0.4431 -0.5887  0.0127
 4662SOL    HW225620   4.485   1.182  15.375  0.5637  1.1191  1.0041
 4663SOL     OW25621   2.932   1.914  10.906  0.6592  0.2541 -0.3624
 4663SOL    HW125622   2.842   1.892  10.931  0.3060 -0.9611 -2.7471
 4663SOL    HW225623   2.982   1.833  10.918  0.9882  0.6817  1.1952
 4664SOL     OW25624   4.443   1.260  15.013 -0.1845  0.1397  0.1000
 4664SOL    HW125625   4.456   1.228  14.924 -0.7195 -0.5072  0.2588
 4664SOL    HW225626   4.352   1.286  15.024 -0.1535  0.0792  0.5362
 4665SOL     OW25627   0.375   4.650   3.596 -0.2926 -0.0061 -0.0681
 4665SOL    HW125628   0.286   4.653   3.560 -0.9520  0.5292  1.5972
 4665SOL    HW225629   0.368   4.561   3.631 -3.5507 -0.0743 -0.9135
 4666SOL     OW25630   3.195   4.683   2.316  0.5791  0.0456  0.2436
 4666SOL    HW125631   3.156   4.635   2.388 -3.1562  0.4644 -1.4953
 4666SOL    HW225632   3.224   0.024   2.363  1.0326 -0.5445  0.9339
 4667SOL     OW25633   2.389   3.135   9.052  0.4323  0.7450 -0.2563
 4667SOL    HW125634   2.341   3.109   9.131  0.3415 -0.7529 -0.7995
 4667SOL    HW225635   2.446   3.199   9.095  2.3431 -2.1656  1.5192
 4668SOL     OW25636   1.806   4.293  14.812 -0.0634  0.5890 -0.1416
 4668SOL    HW125637   1.812   4.386  14.834 -0.3201  0.2604  1.3270
 4668SOL    HW225638   1.842   4.246  14.887  0.9182  0.1306 -0.9036
 4669SOL     OW25639   4.529   3.833   9.051  0.3395 -0.4208  0.2354
 4669SOL    HW125640   4.504   3.835   9.143 -0.5041  0.3434 -0.0163
 4669SOL    HW225641   4.483   3.752   9.027 -0.8858  0.8017 -1.5476
 4670SOL     OW25642   4.164   2.899   4.889 -0.0127 -0.1369  0.5720
 4670SOL    HW125643   4.137   2.941   4.807 -1.7077 -0.5002  0.9553
 4670SOL    HW225644   4.218   2.965   4.933 -0.4820 -1.7897  3.6478
 4671SOL     OW25645   0.868   1.707   3.822  0.5976  0.4401  0.1080
 4671SOL    HW125646   0.868   1.654   3.902 -1.4229 -0.1640 -0.2783
 4671SOL    HW225647   0.838   1.638   3.762  1.8051  0.4720 -0.5284
 4672SOL     OW25648   0.991   1.872  13.070  0.0493  0.2934 -0.1395
 4672SOL    HW125649   1.022   1.916  13.149  3.6352 -2.2088 -0.1585
 4672SOL    HW225650   0.958   1.790  13.106 -0.2963  0.7325  0.5529
 4673SOL     OW25651   2.225   2.460  12.761 -0.4216  0.0268  0.0699
 4673SOL    HW125652   2.268   2.440  12.677 -1.6145 -1.0843 -0.2637
 4673SOL    HW225653   2.310   2.464  12.805  0.4852 -0.0589 -1.6374
 4674SOL     OW25654   4.462   0.247   2.680 -0.4352  0.3560 -0.0627
 4674SOL    HW125655   4.470   0.243   2.585  0.3450  1.8450 -0.0581
 4674SOL    HW225656   4.553   0.270   2.697 -0.2114 -1.1106  0.6502
 4675SOL     OW25657   1.156   1.235   2.531  0.3152 -0.4873  0.3936
 4675SOL    HW125658   1.172   1.179   2.455  0.4364 -1.4320  1.1067
 4675SOL    HW225659   1.183   1.322   2.503 -0.4495 -0.1822  0.6083
 4676SOL     OW25660   3.601   1.299   4.542 -0.2068  0.3801  0.1762
 4676SOL    HW125661   3.605   1.394   4.548 -0.8602  0.3098  1.5681
 4676SOL    HW225662   3.559   1.277   4.624  0.6150  0.3542  0.5937
 4677SOL     OW25663   2.814   0.742   2.927 -0.4964  0.5207  0.3237
 4677SOL    HW125664   2.804   0.801   2.852  1.4106  1.5741  0.8886
 4677SOL    HW225665   2.896   0.783   2.957  0.4824 -0.1465 -1.4261
 4678SOL     OW25666   3.391   1.730   4.436 -0.2683 -0.4560 -0.0435
 4678SOL    HW125667   3.421   1.741   4.526  2.5830 -0.8945 -0.9436
 4678SOL    HW225668   3.313   1.675   4.447  0.0828 -0.4420  2.3072
 4679SOL     OW25669   3.413   2.832   8.023 -0.6485  0.0524  0.3155
 4679SOL    HW125670   3.321   2.817   8.047 -0.6611 -0.9730 -0.3513
 4679SOL    HW225671   3.427   2.746   7.983  1.1255 -0.3487  1.8000
 4680SOL     OW25672   1.520   1.282   2.323  0.0215  0.3283  0.1862
 4680SOL    HW125673   1.531   1.364   2.274  1.4440  0.2333  0.3410
 4680SOL    HW225674   1.603   1.287   2.370  0.6555  0.5735 -0.9487
 4681SOL     OW25675   3.237   2.464   5.765 -0.0786  0.2113  0.1977
 4681SOL    HW125676   3.328   2.436   5.761 -0.3131 -0.3465 -1.3404
 4681SOL    HW225677   3.205   2.374   5.775  1.4055 -0.3791 -0.3934
 4682SOL     OW25678   4.154   4.237  16.100 -0.1622  0.3872 -0.4636
 4682SOL    HW125679   4.125   4.158  16.054  0.7241  1.1380 -2.3288
 4682SOL    HW225680   4.196   4.276  16.023 -0.4434  1.4907 -0.0496
 4683SOL     OW25681   1.387   1.233  12.563 -0.4603 -0.1296  0.0281
 4683SOL    HW125682   1.381   1.286  12.643  0.7152  1.3701 -0.8847
 4683SOL    HW225683   1.400   1.147  12.603  0.0227  0.8780  2.0649
 4684SOL     OW25684   2.908   3.171  14.852 -0.4797  0.1623  0.1647
 4684SOL    HW125685   2.858   3.249  14.876 -0.9496  0.0519 -0.4805
 4684SOL    HW225686   2.942   3.137  14.935  0.1734 -0.5485 -0.3890
 4685SOL     OW25687   3.480   1.315   7.513  0.6105  0.0273 -0.4497
 4685SOL    HW125688   3.472   1.404   7.548  0.3237 -0.4926  0.8101
 4685SOL    HW225689   3.457   1.327   7.420  0.3084  0.9047 -0.2614
 4686SOL     OW25690   1.905   0.601   7.447 -0.0276 -0.3085 -0.0604
 4686SOL    HW125691   1.913   0.542   7.372 -1.3329 -0.7929  0.1841
 4686SOL    HW225692   1.823   0.643   7.425  0.5409 -0.4914 -2.4831
 4687SOL     OW25693   4.247   3.236   6.921 -0.0035  0.2661 -0.4645
 4687SOL    HW125694   4.214   3.236   6.831 -0.3842  0.3478 -0.3245
 4687SOL    HW225695   4.249   3.141   6.931 -1.9902  0.2503 -0.1282
 4688SOL     OW25696   3.443   3.714   6.637 -0.2907  0.1933  0.0212
 4688SOL    HW125697   3.379   3.782   6.657  0.3031  0.2020  1.9999
 4688SOL    HW225698   3.412   3.686   6.551  0.6836  0.9716 -0.5782
 4689SOL     OW25699   2.766   0.491  16.205  0.2098 -0.6786 -0.5996
 4689SOL    HW125700   2.717   0.439  16.268  0.8548 -0.7970 -0.1926
 4689SOL    HW225701   2.699   0.556  16.183  0.0932 -0.6560 -0.1675
 4690SOL     OW25702   4.568   2.354   6.371 -0.9475 -0.5355  0.2231
 4690SOL    HW125703   4.539   2.324   6.458 -0.2077 -0.7091  0.4157
 4690SOL    HW225704   4.637   2.418   6.386 -1.6318  0.4732 -0.9948
 4691SOL     OW25705   2.317   0.869   2.350  0.5726  0.1228 -0.3623
 4691SOL    HW125706   2.412   0.859   2.347  0.6524 -0.5997  4.0791
 4691SOL    HW225707   2.285   0.779   2.343  0.3302 -0.0071  2.2415
 4692SOL     OW25708   1.491   4.484   5.320  0.8635 -0.1035  0.5391
 4692SOL    HW125709   1.554   4.490   5.392  2.8678  1.8204 -1.3716
 4692SOL    HW225710   1.441   4.563   5.337  0.5881 -0.4733  1.4646
 4693SOL     OW25711   2.354   4.589   3.189  0.5653 -0.4244  0.6090
 4693SOL    HW125712   2.278   4.531   3.196  1.6707 -2.0064 -0.4756
 4693SOL    HW225713   2.322   4.677   3.210 -0.4021 -1.1380  2.1457
 4694SOL     OW25714   0.166   3.789   2.154  0.3330  0.7240 -0.5157
 4694SOL    HW125715   0.259   3.801   2.174  0.3686  0.4363 -0.5150
 4694SOL    HW225716   0.171   3.814   2.062  4.2850  2.0073  0.0768
 4695SOL     OW25717   4.400   0.155   9.022  0.1089 -0.4390  0.5214
 4695SOL    HW125718   4.436   0.244   9.014 -0.0368 -0.7178 -3.1887
 4695SOL    HW225719   4.394   0.131   8.930  0.0925 -0.9617  0.6598
 4696SOL     OW25720   4.153   0.647   7.947  0.4808 -0.1620  0.1387
 4696SOL    HW125721   4.191   0.700   8.017  1.4922  1.6989 -1.7973
 4696SOL    HW225722   4.072   0.696   7.932  1.3719  1.3456  0.2492
 4697SOL     OW25723   2.150   0.114   5.128  0.1076 -0.0795  0.4409
 4697SOL    HW125724   2.085   0.053   5.095 -1.3751  1.2834  0.8792
 4697SOL    HW225725   2.156   0.091   5.220  1.1290  0.5569  0.5458
 4698SOL     OW25726   3.214   4.711   4.131 -0.3381  0.2389  0.3900
 4698SOL    HW125727   3.136   0.029   4.135 -1.2369 -0.8989 -1.9723
 4698SOL    HW225728   3.177   4.645   4.073  1.6984 -1.0959  0.6086
 4699SOL     OW25729   1.961   1.948  13.224 -0.3777  0.4955  0.1179
 4699SOL    HW125730   1.886   1.925  13.170 -1.0361  2.2395  0.2842
 4699SOL    HW225731   2.034   1.964  13.165  1.6372 -1.7272  2.0378
 4700SOL     OW25732   0.636   1.292   1.294  0.0428  0.1529  0.1624
 4700SOL    HW125733   0.722   1.324   1.267 -1.0101  1.1056 -2.0280
 4700SOL    HW225734   0.620   1.236   1.218 -0.4341 -0.7373  0.9139
 4701SOL     OW25735   2.835   0.401   3.574 -0.1819  0.1482 -0.0588
 4701SOL    HW125736   2.868   0.471   3.630 -0.5253 -1.6990  2.4463
 4701SOL    HW225737   2.868   0.324   3.620  2.8077  2.1843  1.1624
 4702SOL     OW25738   1.484   1.298   3.772  0.0627  0.1811  0.4948
 4702SOL    HW125739   1.435   1.354   3.831 -0.4527  0.8180 -0.5387
 4702SOL    HW225740   1.431   1.299   3.692 -0.1363 -1.8299  0.5836
 4703SOL     OW25741   2.364   0.684   7.191 -0.3017 -0.1150 -0.3753
 4703SOL    HW125742   2.334   0.715   7.276  2.7583  1.3442  0.1941
 4703SOL    HW225743   2.317   0.739   7.128 -0.4190 -0.8090 -0.8941
 4704SOL     OW25744   0.309   3.427   4.610  0.1248 -0.3326 -0.0820
 4704SOL    HW125745   0.287   3.448   4.519  0.9411  3.8254  0.7220
 4704SOL    HW225746   0.227   3.447   4.654  0.2385  1.1710 -0.5476
 4705SOL     OW25747   0.807   0.125   3.289 -0.1949  0.1678  0.5394
 4705SOL    HW125748   0.768   0.039   3.273  0.5684 -0.5742  2.6270
 4705SOL    HW225749   0.761   0.181   3.227 -0.1178  0.1471  0.4631
 4706SOL     OW25750   0.143   2.543  12.496 -0.5293 -0.2566 -0.6543
 4706SOL    HW125751   0.056   2.509  12.516 -1.5691  2.1322 -1.0387
 4706SOL    HW225752   0.125   2.637  12.506  1.5886 -0.0471  1.1353
 4707SOL     OW25753   3.047   1.580  13.173 -0.0287  0.7048  0.3516
 4707SOL    HW125754   3.095   1.648  13.126 -0.6855  2.3793  2.1241
 4707SOL    HW225755   3.008   1.624  13.249 -1.3628  0.6367 -0.2860
 4708SOL     OW25756   1.182   1.178  12.074 -0.1212  0.4649 -0.0775
 4708SOL    HW125757   1.216   1.150  12.159 -0.0249 -0.9182 -0.5643
 4708SOL    HW225758   1.162   1.265  12.108  1.9074  0.9868 -0.1924
 4709SOL     OW25759   4.368   3.916   6.465 -0.3400  0.4190  0.0971
 4709SOL    HW125760   4.342   3.889   6.377 -2.7624  0.5055  0.8035
 4709SOL    HW225761   4.283   3.947   6.495  0.6181  2.1074  1.0712
 4710SOL     OW25762   4.200   1.670  10.065  0.6267  0.0794  0.7631
 4710SOL    HW125763   4.109   1.640  10.065  0.4462  0.6954  3.8118
 4710SOL    HW225764   4.245   1.591  10.033 -0.1100 -0.0641  0.0583
 4711SOL     OW25765   0.587   2.858   7.131  0.5538 -0.5009 -0.4607
 4711SOL    HW125766   0.562   2.947   7.156 -1.0892 -1.2647  0.6042
 4711SOL    HW225767   0.503   2.812   7.124 -0.3333  1.3333 -2.2638
 4712SOL     OW25768   2.763   1.712  11.753 -0.1618  0.3076 -0.3889
 4712SOL    HW125769   2.844   1.764  11.756 -1.9725  3.0704  0.4654
 4712SOL    HW225770   2.791   1.652  11.822 -0.1837  1.8127  0.9336
 4713SOL     OW25771   2.485   3.659  12.686 -0.0458 -0.1256 -0.2059
 4713SOL    HW125772   2.490   3.591  12.753  0.0007 -1.2976 -1.4051
 4713SOL    HW225773   2.498   3.618  12.601  1.0008  0.3972 -0.2942
 4714SOL     OW25774   0.669   0.210   1.102 -0.1920 -0.1482 -0.3297
 4714SOL    HW125775   0.729   0.165   1.162  1.0756 -0.6019 -1.9267
 4714SOL    HW225776   0.697   0.301   1.111 -1.4635  0.1628  0.4637
 4715SOL     OW25777   3.664   4.027   0.298  0.0190 -0.1867 -0.0213
 4715SOL    HW125778   3.571   4.006   0.302 -0.5450  2.2891  0.0524
 4715SOL    HW225779   3.664   4.055   0.206 -1.6437 -0.1276  0.0010
 4716SOL     OW25780   4.249   1.205   8.479  0.5132  0.7839 -0.4054
 4716SOL    HW125781   4.341   1.230   8.473  0.4243  0.6384 -2.6202
 4716SOL    HW225782   4.228   1.205   8.572 -0.9720  1.4060 -0.7306
 4717SOL     OW25783   1.545   3.546   4.889 -0.0692  0.1118  0.3568
 4717SOL    HW125784   1.570   3.536   4.797  1.0351  1.2708  0.5131
 4717SOL    HW225785   1.479   3.615   4.885  1.5550  1.6238 -0.9359
 4718SOL     OW25786   4.159   3.004   1.224  0.1440 -0.5063 -0.1509
 4718SOL    HW125787   4.135   3.097   1.223  0.9141 -0.3275 -1.2384
 4718SOL    HW225788   4.072   2.965   1.212  0.3644 -1.2814  0.7673
 4719SOL     OW25789   0.650   3.445   3.695  0.9008 -0.0840 -0.0208
 4719SOL    HW125790   0.700   3.366   3.673  0.3262 -0.8087  1.3191
 4719SOL    HW225791   0.591   3.461   3.621 -0.2842 -0.5107  0.8378
 4720SOL     OW25792   0.089   2.584   4.539  0.6741 -0.1850  0.3765
 4720SOL    HW125793   0.123   2.662   4.584  1.2459 -1.0458  1.4337
 4720SOL    HW225794   4.733   2.592   4.556  0.8117 -2.9183  2.5014
 4721SOL     OW25795   4.469   0.307   8.086 -0.3670  0.0403  0.5743
 4721SOL    HW125796   4.442   0.301   8.177 -1.4695  2.2001  0.3863
 4721SOL    HW225797   4.389   0.323   8.035  0.2768 -1.7265 -1.0134
 4722SOL     OW25798   3.945   3.418   8.085  0.8177  0.1336 -0.3948
 4722SOL    HW125799   4.022   3.453   8.040 -0.5229  1.5536 -1.5770
 4722SOL    HW225800   3.885   3.493   8.076  0.3367 -0.2614 -0.4895
 4723SOL     OW25801   0.486   2.664   0.084 -0.4264 -0.6960  0.6763
 4723SOL    HW125802   0.393   2.686   0.089 -0.0227  1.1037  0.1703
 4723SOL    HW225803   0.487   2.573   0.113 -0.1763 -0.3110  1.8806
 4724SOL     OW25804   4.218   1.042   7.280 -0.0177 -0.6895  0.3958
 4724SOL    HW125805   4.284   1.085   7.225  0.9781 -0.5619  1.6985
 4724SOL    HW225806   4.264   1.032   7.363  0.5672  0.3988  0.2041
 4725SOL     OW25807   2.025   2.097   2.958 -0.0015 -0.3849  0.0326
 4725SOL    HW125808   1.981   2.024   2.914 -1.2822  1.0914 -1.1632
 4725SOL    HW225809   2.097   2.064   3.011 -0.1832  0.4709  0.8299
 4726SOL     OW25810   1.472   0.992   2.922 -0.2083 -0.0924  0.0898
 4726SOL    HW125811   1.459   1.077   2.879  0.6131 -0.0566 -0.0767
 4726SOL    HW225812   1.505   1.018   3.008 -0.8122  0.5394  0.1356
 4727SOL     OW25813   0.406   0.743   6.241 -0.0752 -0.0941  0.0194
 4727SOL    HW125814   0.414   0.747   6.145  0.0569 -0.2819  0.0229
 4727SOL    HW225815   0.312   0.756   6.250 -0.0566  2.7537 -3.7384
 4728SOL     OW25816   0.409   1.552   6.681  0.1932  0.1787  0.0913
 4728SOL    HW125817   0.360   1.621   6.725 -3.0993 -2.6294  0.8268
 4728SOL    HW225818   0.389   1.479   6.738  1.6181 -0.8391 -0.6986
 4729SOL     OW25819   2.864   2.633   1.612 -0.7832  0.0470 -0.6578
 4729SOL    HW125820   2.780   2.655   1.571 -1.0672  0.7155  0.2841
 4729SOL    HW225821   2.888   2.716   1.652  1.2818 -1.2251  0.7927
 4730SOL     OW25822   1.359   4.669   5.593  0.0537  0.2307 -0.0998
 4730SOL    HW125823   1.386   4.577   5.592 -1.7412 -0.3043 -0.1312
 4730SOL    HW225824   1.331   4.671   5.501  3.1367 -2.2840 -1.0597
 4731SOL     OW25825   1.992   4.308   2.627  0.1602  0.2676  0.0695
 4731SOL    HW125826   2.086   4.310   2.608  0.9276 -1.6386  3.7230
 4731SOL    HW225827   1.974   4.397   2.657  0.0315 -0.4118  1.9698
 4732SOL     OW25828   2.147   1.714   1.070 -0.3311  0.2016 -0.4744
 4732SOL    HW125829   2.119   1.623   1.059  1.1459 -0.4101  0.8171
 4732SOL    HW225830   2.162   1.720   1.164  2.5425 -0.5696 -0.8741
 4733SOL     OW25831   2.627   0.540   0.026 -0.4900  0.1345  0.2497
 4733SOL    HW125832   2.544   0.508   0.062 -0.5698 -0.1322 -0.1644
 4733SOL    HW225833   2.611   0.634   0.033  1.5923  0.5165 -0.0221
 4734SOL     OW25834   1.296   2.698  11.377  0.2519  0.6993  0.0234
 4734SOL    HW125835   1.334   2.711  11.290 -0.6839  0.9256 -0.3406
 4734SOL    HW225836   1.292   2.603  11.378  1.8617  0.6512  1.9030
 4735SOL     OW25837   3.414   4.456   7.791  0.1863 -0.1344 -0.4337
 4735SOL    HW125838   3.475   4.514   7.745  1.0992 -0.5861  0.2131
 4735SOL    HW225839   3.449   4.472   7.878 -2.2911  2.0295  0.1891
 4736SOL     OW25840   0.393   2.452   9.966 -0.0674  0.3991  0.5471
 4736SOL    HW125841   0.364   2.494  10.047 -2.5288 -0.8399  0.2797
 4736SOL    HW225842   0.347   2.509   9.904  0.7003 -2.0159 -2.2315
 4737SOL     OW25843   2.947   3.557  16.364  0.1843 -0.6639 -0.3332
 4737SOL    HW125844   2.869   3.583  16.413 -0.9459 -2.2522 -1.2918
 4737SOL    HW225845   2.912   3.484  16.313  0.2327 -1.2897  0.5271
 4738SOL     OW25846   0.334   2.994   3.462  0.3001 -0.0585  0.8322
 4738SOL    HW125847   0.383   2.938   3.523 -0.8276 -2.1533 -0.1999
 4738SOL    HW225848   0.341   3.076   3.512  0.1132 -1.5294  3.2886
 4739SOL     OW25849   2.403   4.361   2.330 -0.0100  0.1453  0.0695
 4739SOL    HW125850   2.463   4.416   2.280  0.4246 -1.1528 -0.8280
 4739SOL    HW225851   2.344   4.429   2.363 -0.8397 -0.5905  0.1048
 4740SOL     OW25852   4.441   0.504   5.265  0.1424  0.4965 -0.1059
 4740SOL    HW125853   4.487   0.549   5.195  2.7365 -0.7576  0.7964
 4740SOL    HW225854   4.353   0.497   5.227 -0.1907 -1.0923  0.9554
 4741SOL     OW25855   4.647   0.538   9.655  0.1384 -0.1065 -0.1869
 4741SOL    HW125856   4.679   0.586   9.579  0.9890 -2.0175 -1.0085
 4741SOL    HW225857   4.564   0.500   9.628 -1.1458  1.6719  1.2492
 4742SOL     OW25858   3.172   4.387  10.748 -0.6144  0.6681 -0.0354
 4742SOL    HW125859   3.179   4.420  10.659 -1.4818 -2.2382 -1.1542
 4742SOL    HW225860   3.147   4.471  10.787  0.0477  0.0240  1.7713
 4743SOL     OW25861   4.515   0.248   9.556 -0.0555  0.3359  0.2332
 4743SOL    HW125862   4.440   0.189   9.558  0.4286 -0.3694 -1.8835
 4743SOL    HW225863   4.582   0.198   9.602 -0.1360  0.3700  0.3880
 4744SOL     OW25864   1.289   3.131   4.428 -0.0787  0.4139 -0.1148
 4744SOL    HW125865   1.279   3.051   4.375 -0.5206 -0.5875  1.4991
 4744SOL    HW225866   1.380   3.129   4.457  0.4617  1.0585 -1.7383
 4745SOL     OW25867   1.242   4.341   8.253 -0.6623 -0.0317 -0.1943
 4745SOL    HW125868   1.223   4.259   8.300 -0.5442  0.9182  1.5115
 4745SOL    HW225869   1.337   4.333   8.243 -0.6280 -1.0190  0.7899
 4746SOL     OW25870   4.407   3.743   7.937 -0.1284 -0.4257  0.0400
 4746SOL    HW125871   4.325   3.790   7.954  0.5405  1.5288 -2.1283
 4746SOL    HW225872   4.419   3.694   8.019 -1.7243 -0.2852  0.3519
 4747SOL     OW25873   2.061   4.079   2.411 -0.2028  0.2100 -0.4487
 4747SOL    HW125874   2.155   4.097   2.417 -0.2401  0.6508 -1.1893
 4747SOL    HW225875   2.041   4.081   2.504  2.4412  0.9385  0.0955
 4748SOL     OW25876   1.925   1.915  14.782 -0.3396 -0.5141  0.4608
 4748SOL    HW125877   1.958   1.926  14.693  0.8221 -3.3814  0.5140
 4748SOL    HW225878   1.979   1.841  14.811 -0.7691  0.1545  2.9154
 4749SOL     OW25879   0.149   4.194  10.208 -0.1626  0.6521 -0.6098
 4749SOL    HW125880   0.060   4.207  10.242  0.4304  1.2415  0.7178
 4749SOL    HW225881   0.142   4.108  10.168  0.4823 -0.6376  2.0294
 4750SOL     OW25882   4.054   3.509  15.457  0.3422  0.0972  0.2529
 4750SOL    HW125883   3.973   3.512  15.406 -1.3419 -1.8980  2.8392
 4750SOL    HW225884   4.059   3.421  15.495 -2.9568 -0.7501 -1.2638
 4751SOL     OW25885   0.895   2.934   2.008  0.0735 -0.0704  0.4766
 4751SOL    HW125886   0.803   2.936   2.038 -0.4069  0.7009 -1.0709
 4751SOL    HW225887   0.899   2.869   1.938  0.9170  2.1493 -1.5003
 4752SOL     OW25888   3.353   1.074   4.303 -0.6760  0.3855  0.3245
 4752SOL    HW125889   3.285   1.008   4.315 -1.8926  1.7235  0.6749
 4752SOL    HW225890   3.424   1.009   4.300 -0.6802  0.3568  0.8287
 4753SOL     OW25891   3.641   1.751  17.214  0.1797 -0.0534  0.0456
 4753SOL    HW125892   3.692   1.817  17.261  1.0930 -0.5060 -0.3159
 4753SOL    HW225893   3.660   1.782  17.126  2.7541 -0.4739  0.4642
 4754SOL     OW25894   3.621   0.022   7.411 -0.1912  0.0051 -0.4198
 4754SOL    HW125895   3.596   4.676   7.372  0.6379 -0.9902  1.1843
 4754SOL    HW225896   3.717   0.017   7.403 -0.2055  0.6514 -0.9600
 4755SOL     OW25897   1.034   2.685   7.099 -0.1265 -0.1212  0.2114
 4755SOL    HW125898   0.994   2.746   7.162  2.1941  0.7076  0.8774
 4755SOL    HW225899   0.980   2.607   7.112  0.2532 -0.6318 -1.2647
 4756SOL     OW25900   0.162   4.630   6.615  0.3857  0.7280 -0.2745
 4756SOL    HW125901   0.093   4.695   6.632  1.1254  1.0095  1.5473
 4756SOL    HW225902   0.151   4.571   6.689  2.9647  2.4360  1.4735
 4757SOL     OW25903   1.490   3.021   1.563  0.1874 -0.4727  0.1287
 4757SOL    HW125904   1.464   3.113   1.568 -0.1899 -0.5336 -0.6920
 4757SOL    HW225905   1.449   2.982   1.640 -0.6056  0.6942  0.2920
 4758SOL     OW25906   4.705   0.624  14.989  0.1204  0.4440  0.4094
 4758SOL    HW125907   4.688   0.609  15.081 -1.1949 -1.8452 -0.2108
 4758SOL    HW225908   0.024   0.551  14.964 -2.1325 -1.3155  0.4014
 4759SOL     OW25909   2.041   0.260   7.024 -0.3768 -0.1021 -0.4204
 4759SOL    HW125910   1.950   0.261   6.995 -0.2510  1.3545 -0.7331
 4759SOL    HW225911   2.083   0.341   6.998 -0.3362 -0.2620 -0.8496
 4760SOL     OW25912   4.010   1.399   0.875  0.7137  0.4702  0.4597
 4760SOL    HW125913   4.064   1.323   0.852  1.1303  1.1548 -0.8403
 4760SOL    HW225914   4.005   1.371   0.967 -0.0421 -1.5872 -0.2078
 4761SOL     OW25915   0.543   2.944  17.156 -0.6139  0.9139  0.0317
 4761SOL    HW125916   0.477   3.003  17.121 -0.5510  0.6918 -0.4675
 4761SOL    HW225917   0.489   2.905  17.225 -1.1784 -0.5248 -1.2194
 4762SOL     OW25918   3.840   3.094   3.819 -0.4006 -0.0607 -0.1872
 4762SOL    HW125919   3.853   3.116   3.911 -0.9719 -1.8351  0.2935
 4762SOL    HW225920   3.908   3.144   3.773  0.7640 -3.0505 -1.6983
 4763SOL     OW25921   4.539   1.425   6.418 -0.0838 -0.7113  0.1312
 4763SOL    HW125922   4.473   1.478   6.463  0.4845  1.3407 -1.4245
 4763SOL    HW225923   4.620   1.455   6.461 -0.2344 -1.5826  1.0151
 4764SOL     OW25924   0.954   3.757   7.743  0.3419  0.0548  0.1022
 4764SOL    HW125925   0.961   3.748   7.838 -4.0754  3.0780  0.7060
 4764SOL    HW225926   1.045   3.775   7.721 -0.1802  0.3833 -1.8490
 4765SOL     OW25927   3.278   1.344   7.764 -0.2012 -0.1980  0.0656
 4765SOL    HW125928   3.285   1.327   7.670  2.0938 -3.0090  0.7531
 4765SOL    HW225929   3.211   1.412   7.769  1.8350  1.8962 -0.5956
 4766SOL     OW25930   0.626   1.711   7.560 -0.6397  0.1337  0.2384
 4766SOL    HW125931   0.556   1.764   7.598  0.4336 -0.8089  3.5143
 4766SOL    HW225932   0.684   1.696   7.634  0.4675  1.3467 -0.3817
 4767SOL     OW25933   2.108   1.545  15.173 -0.1255 -0.0135  0.0163
 4767SOL    HW125934   2.048   1.560  15.246 -2.1276 -1.3943 -1.3720
 4767SOL    HW225935   2.067   1.579  15.094  2.1074  1.5030 -0.5028
 4768SOL     OW25936   1.033   2.334   3.090 -0.0175  0.6690  0.1713
 4768SOL    HW125937   0.965   2.342   3.157  2.6852 -0.4363  3.0350
 4768SOL    HW225938   1.091   2.277   3.140  1.7818  1.7690 -0.6957
 4769SOL     OW25939   4.427   2.394   7.419 -0.8525  0.2268  0.7577
 4769SOL    HW125940   4.372   2.472   7.409 -0.6081  0.2387 -0.5639
 4769SOL    HW225941   4.510   2.443   7.425 -1.0227  0.6080 -0.0327
 4770SOL     OW25942   2.847   1.547  11.963  0.7106 -0.2898  0.0549
 4770SOL    HW125943   2.807   1.470  12.003  0.8030 -1.2415 -1.6662
 4770SOL    HW225944   2.933   1.517  11.933  1.5042 -0.1365  2.1875
 4771SOL     OW25945   2.380   0.851  14.620 -0.0325  0.1322 -0.7523
 4771SOL    HW125946   2.299   0.878  14.663  0.9585  1.5971  0.1963
 4771SOL    HW225947   2.366   0.759  14.598 -1.0921  0.4961 -1.6685
 4772SOL     OW25948   1.227   0.666   6.392 -0.3681 -0.3570 -0.1948
 4772SOL    HW125949   1.272   0.586   6.363  0.2474 -1.3330  3.5318
 4772SOL    HW225950   1.300   0.707   6.437 -1.5137  0.1064  1.2303
 4773SOL     OW25951   1.342   4.333   6.757  0.3892 -0.7336  0.3464
 4773SOL    HW125952   1.391   4.405   6.719  0.0863  0.7697  2.7831
 4773SOL    HW225953   1.348   4.258   6.697  2.3539  1.7843 -2.5763
 4774SOL     OW25954   1.590   0.981   7.155  0.7882  0.0479 -0.0920
 4774SOL    HW125955   1.527   0.916   7.186  0.6818  0.0919 -0.2142
 4774SOL    HW225956   1.674   0.938   7.169  1.5977  1.3035 -1.0633
 4775SOL     OW25957   2.253   4.290   2.622 -0.7796  0.2246 -0.2803
 4775SOL    HW125958   2.278   4.224   2.558 -1.5140 -1.4606  1.1744
 4775SOL    HW225959   2.336   4.337   2.630 -0.7162  0.0187  0.2830
 4776SOL     OW25960   1.887   3.038   2.864 -0.3625  0.1425  0.5011
 4776SOL    HW125961   1.852   2.966   2.916  1.6464  1.5315  3.7954
 4776SOL    HW225962   1.963   3.066   2.916  0.4692  0.9614 -1.1429
 4777SOL     OW25963   4.521   0.971   2.581 -0.1480 -0.1541  0.0816
 4777SOL    HW125964   4.575   1.049   2.570 -2.1383  1.0483 -1.1920
 4777SOL    HW225965   4.585   0.901   2.576 -1.1409 -1.3032  2.9497
 4778SOL     OW25966   0.276   0.301  10.841 -0.3987  0.0931 -0.0316
 4778SOL    HW125967   0.233   0.232  10.790  1.4028  0.2221 -1.7021
 4778SOL    HW225968   0.202   0.309  10.902 -1.2433  0.5550 -1.1169
 4779SOL     OW25969   3.658   4.541  11.863  0.0800  0.1940  0.5939
 4779SOL    HW125970   3.737   4.589  11.887  0.7051 -0.0644 -0.9708
 4779SOL    HW225971   3.675   4.453  11.896 -1.0977 -0.2241  0.0875
 4780SOL     OW25972   2.936   4.438  15.738  0.6269 -0.0930 -0.3692
 4780SOL    HW125973   2.948   4.516  15.792  1.1003 -0.9905  0.8232
 4780SOL    HW225974   2.878   4.463  15.666  0.4207 -0.5804 -0.3743
 4781SOL     OW25975   1.488   4.372   8.446  0.1222 -0.2697  0.0854
 4781SOL    HW125976   1.436   4.453   8.443 -1.8286 -1.5499 -0.6103
 4781SOL    HW225977   1.444   4.321   8.514  1.0365 -1.2483 -0.0514
 4782SOL     OW25978   1.938   1.545   3.045  0.1147  0.9379 -0.0608
 4782SOL    HW125979   1.950   1.553   3.140  0.6040 -0.8282  0.0226
 4782SOL    HW225980   1.844   1.526   3.049  0.7031 -2.3338 -2.5191
 4783SOL     OW25981   2.094   1.372   4.590  0.0797  0.2025 -0.3717
 4783SOL    HW125982   2.064   1.300   4.535 -1.4166  0.4117  0.1657
 4783SOL    HW225983   2.015   1.397   4.639  1.0294  0.2535  1.1563
 4784SOL     OW25984   0.942   1.741   4.121 -0.3498  0.2413  0.2915
 4784SOL    HW125985   0.863   1.687   4.120 -0.7882  0.8819  0.2481
 4784SOL    HW225986   0.916   1.817   4.173 -1.3979 -0.8811  1.4097
 4785SOL     OW25987   1.379   2.128   1.519  0.0509 -0.1569 -0.5658
 4785SOL    HW125988   1.443   2.178   1.568  0.9185 -1.9422  0.1189
 4785SOL    HW225989   1.301   2.131   1.574  0.6580 -0.7960  0.3192
 4786SOL     OW25990   2.507   0.152   4.107 -0.5876  0.2951  0.2534
 4786SOL    HW125991   2.522   0.178   4.016  1.6901  1.5307  0.9999
 4786SOL    HW225992   2.411   0.155   4.107 -0.5345  1.8185 -0.5731
 4787SOL     OW25993   3.022   1.916   2.345  0.3883  0.1566 -0.1467
 4787SOL    HW125994   3.036   2.011   2.351  2.1334 -0.2301  2.1814
 4787SOL    HW225995   3.020   1.889   2.254  1.8193  2.2557 -0.8146
 4788SOL     OW25996   2.912   3.989  14.966 -0.1645  0.5907 -0.5298
 4788SOL    HW125997   2.886   3.898  14.977  0.0480  0.7631  1.4726
 4788SOL    HW225998   2.893   4.013  14.876 -1.4201 -0.1145 -0.4490
 4789SOL     OW25999   0.095   0.086   8.012 -0.5895  0.6692 -0.3061
 4789SOL    HW126000   0.042   0.009   8.034  1.4153 -1.5899 -3.3543
 4789SOL    HW226001   0.183   0.050   8.001  0.1191  1.9703  1.0705
 4790SOL     OW26002   2.813   2.380   6.771 -0.0566 -0.1522 -0.4113
 4790SOL    HW126003   2.804   2.321   6.846 -0.6918 -0.0633 -0.4191
 4790SOL    HW226004   2.861   2.330   6.705  2.0346  0.0313  0.9762
 4791SOL     OW26005   2.299   0.622   7.727  0.2520  0.1893  0.4071
 4791SOL    HW126006   2.322   0.543   7.678 -0.7151 -0.4370  0.9695
 4791SOL    HW226007   2.381   0.671   7.717  0.0888  0.4154  0.1754
 4792SOL     OW26008   3.641   1.803   3.265 -0.1410 -0.0146 -0.2963
 4792SOL    HW126009   3.628   1.727   3.321  1.9437 -0.8665 -0.9534
 4792SOL    HW226010   3.595   1.864   3.323  2.7209  1.0816  0.7982
 4793SOL     OW26011   2.703   3.449   2.077  0.2749  0.4001  0.0240
 4793SOL    HW126012   2.687   3.425   1.985  1.6048 -2.0827  0.4581
 4793SOL    HW226013   2.614   3.439   2.112 -0.6629 -1.2220 -2.7706
 4794SOL     OW26014   1.174   0.945   9.255 -0.1457 -0.0552  0.7412
 4794SOL    HW126015   1.242   0.882   9.230 -1.4294 -0.6165 -1.3579
 4794SOL    HW226016   1.146   0.970   9.167  1.6862 -1.4483 -0.2491
 4795SOL     OW26017   2.758   3.999   7.479  0.0872  0.1566  0.1325
 4795SOL    HW126018   2.746   4.048   7.398 -0.1413 -0.6583 -0.3247
 4795SOL    HW226019   2.721   3.916   7.448  0.9015  0.4902 -1.6741
 4796SOL     OW26020   2.203   3.819  12.347 -0.6428 -0.3284 -0.2010
 4796SOL    HW126021   2.257   3.879  12.397  0.6643  0.0210 -2.0303
 4796SOL    HW226022   2.167   3.883  12.285 -1.3207  0.5861  1.1436
 4797SOL     OW26023   4.361   0.232   2.949  0.5824  0.1961 -0.8630
 4797SOL    HW126024   4.391   0.222   2.859 -1.3481  0.4139 -1.5362
 4797SOL    HW226025   4.442   0.213   2.996  0.5991 -0.5899 -1.2129
 4798SOL     OW26026   0.652   4.674   7.456 -0.2731 -0.2595  0.4317
 4798SOL    HW126027   0.634   4.716   7.541 -0.3894 -3.5064  2.0011
 4798SOL    HW226028   0.609   4.589   7.452  1.3377 -1.0453 -0.0734
 4799SOL     OW26029   4.526   4.412  11.814 -0.0501 -0.4918 -0.2089
 4799SOL    HW126030   4.560   4.466  11.886 -0.8082 -1.4354  0.8607
 4799SOL    HW226031   4.434   4.409  11.839  0.2594  2.7321  1.4114
 4800SOL     OW26032   4.230   0.886   9.973  0.3884  0.2117 -0.5888
 4800SOL    HW126033   4.227   0.918  10.063 -1.8127 -2.3616  0.2340
 4800SOL    HW226034   4.155   0.827   9.967  1.9189 -1.6767 -1.1339
 4801SOL     OW26035   4.259   2.091  10.989  0.3236  0.0184 -0.3027
 4801SOL    HW126036   4.201   2.104  10.914  1.5328  1.0899 -1.0514
 4801SOL    HW226037   4.267   1.996  10.981 -1.1207 -0.2255  1.0405
 4802SOL     OW26038   3.094   3.329   2.371 -0.0189  0.4356  0.1611
 4802SOL    HW126039   3.098   3.370   2.458  0.7803 -3.1915  1.8409
 4802SOL    HW226040   3.000   3.326   2.355 -0.2337  1.9039  1.1346
 4803SOL     OW26041   2.696   3.221   1.095 -0.1374 -0.0955 -0.1535
 4803SOL    HW126042   2.601   3.224   1.086 -0.0215  1.8916 -0.6605
 4803SOL    HW226043   2.711   3.128   1.080 -0.2154 -0.1760  0.2691
 4804SOL     OW26044   0.308   0.474   5.451 -0.6145  0.5143 -0.3035
 4804SOL    HW126045   0.349   0.442   5.370  0.0629  0.2773  0.1384
 4804SOL    HW226046   0.373   0.461   5.519  0.1650  2.8064 -0.6095
 4805SOL     OW26047   2.050   2.350   2.843  0.5598  0.1990 -0.0608
 4805SOL    HW126048   2.001   2.306   2.913 -0.7359  0.3538 -0.8778
 4805SOL    HW226049   2.040   2.442   2.870 -0.6005  0.5448 -1.6529
 4806SOL     OW26050   1.595   4.631   1.893 -0.0891  0.3160 -0.4764
 4806SOL    HW126051   1.590   4.536   1.891 -0.7795  0.3720 -2.1113
 4806SOL    HW226052   1.512   4.663   1.928  1.4672  1.3582  2.2570
 4807SOL     OW26053   0.076   0.412   5.536  0.3209 -0.3452 -0.5906
 4807SOL    HW126054   0.063   0.502   5.505  1.1745 -0.1002 -0.2180
 4807SOL    HW226055   0.170   0.407   5.519  0.6027  1.9049  0.3149
 4808SOL     OW26056   4.132   0.903   0.510  0.1452  0.2310  0.3404
 4808SOL    HW126057   4.072   0.923   0.582  0.0838 -1.7150  0.8349
 4808SOL    HW226058   4.109   0.813   0.487  0.1243  0.6857 -1.4573
 4809SOL     OW26059   4.587   3.236   7.775  0.2797 -0.1078  0.3625
 4809SOL    HW126060   4.577   3.316   7.723 -0.2080 -0.4651 -0.0884
 4809SOL    HW226061   4.589   3.169   7.706  0.4063 -0.6068  0.8520
 4810SOL     OW26062   3.190   0.228  13.581  0.2355  0.4677  0.2613
 4810SOL    HW126063   3.258   0.196  13.522  0.0110 -0.2627  0.4053
 4810SOL    HW226064   3.174   0.310  13.533 -0.0671  0.6295  0.6386
 4811SOL     OW26065   0.249   1.282   2.597  0.7100  0.0362  0.4481
 4811SOL    HW126066   0.343   1.285   2.580  0.5737 -0.2431 -0.3490
 4811SOL    HW226067   0.245   1.274   2.692 -0.4542 -0.3016  0.3776
 4812SOL     OW26068   4.736   1.461   1.883 -0.5402 -0.1142 -0.0148
 4812SOL    HW126069   0.025   1.524   1.817 -1.4026 -0.6857 -0.9162
 4812SOL    HW226070   4.680   1.399   1.835  3.1542 -1.8169 -2.1400
 4813SOL     OW26071   4.718   3.043   9.580 -0.3073 -0.1337 -0.4388
 4813SOL    HW126072   4.695   3.133   9.560  2.6185  0.4549 -1.0712
 4813SOL    HW226073   4.685   3.029   9.669 -1.7671 -0.7507 -1.0724
 4814SOL     OW26074   4.194   3.240  16.464 -0.5185 -0.2122 -0.2095
 4814SOL    HW126075   4.120   3.183  16.442  0.6518 -1.3121 -1.3674
 4814SOL    HW226076   4.159   3.269  16.548 -1.2364  0.7456 -0.8343
 4815SOL     OW26077   3.334   0.342   1.733  0.0372  0.2705  0.2675
 4815SOL    HW126078   3.351   0.436   1.725  0.3490  0.3926  2.2656
 4815SOL    HW226079   3.272   0.341   1.806 -1.0541 -2.8902 -0.6994
 4816SOL     OW26080   0.661   0.248   1.538 -1.0371 -0.3263  0.1444
 4816SOL    HW126081   0.655   0.159   1.504  2.1798 -0.8900  1.0621
 4816SOL    HW226082   0.749   0.248   1.577 -1.0250 -0.9920  0.1235
 4817SOL     OW26083   2.120   0.462   1.502  0.0487  1.2300 -0.2589
 4817SOL    HW126084   2.085   0.494   1.419  0.1740 -1.4455 -1.3705
 4817SOL    HW226085   2.041   0.415   1.527  1.8899 -0.5776  2.1179
 4818SOL     OW26086   3.874   0.894   3.955  0.0707 -0.5820 -0.7581
 4818SOL    HW126087   3.949   0.940   3.994  0.1708 -0.3729 -1.1933
 4818SOL    HW226088   3.914   0.852   3.879 -1.2291 -2.6191 -0.3089
 4819SOL     OW26089   2.974   2.722   8.742 -0.7493 -0.0948 -0.1384
 4819SOL    HW126090   2.893   2.671   8.751 -0.2578 -0.4852  2.0764
 4819SOL    HW226091   3.011   2.708   8.829 -0.0490  0.7472 -0.3048
 4820SOL     OW26092   3.771   2.487   5.161 -0.1347  0.5395 -0.0460
 4820SOL    HW126093   3.816   2.411   5.125 -0.4324  0.6455 -0.6509
 4820SOL    HW226094   3.833   2.559   5.151  0.1907  0.4294  1.2890
 4821SOL     OW26095   3.808   0.345   4.557  0.7462  0.6890  0.3460
 4821SOL    HW126096   3.790   0.299   4.475 -0.0199  2.3450 -0.4151
 4821SOL    HW226097   3.875   0.407   4.531  1.1791  0.0317 -0.1027
 4822SOL     OW26098   0.601   3.807   6.921  0.0101 -0.2779  0.1448
 4822SOL    HW126099   0.571   3.771   7.005  0.0025 -1.1641 -0.2299
 4822SOL    HW226100   0.670   3.867   6.948 -0.6904  0.4946  0.2044
 4823SOL     OW26101   0.884   4.052  10.230 -0.4014 -0.3186  0.0344
 4823SOL    HW126102   0.834   4.134  10.232 -1.0453 -0.7281  0.6210
 4823SOL    HW226103   0.818   3.999  10.185 -1.9886  0.4653  1.4186
 4824SOL     OW26104   3.619   0.188  14.161 -0.1727  0.3881  0.2298
 4824SOL    HW126105   3.709   0.175  14.131  0.0641  1.7463  0.3256
 4824SOL    HW226106   3.640   0.253  14.228  0.4552  2.2364 -1.7592
 4825SOL     OW26107   2.233   2.645  15.654  0.2406  0.2904 -0.3716
 4825SOL    HW126108   2.210   2.688  15.571  0.1587  0.2171 -0.3874
 4825SOL    HW226109   2.236   2.724  15.707  2.5437  0.0126 -0.0852
 4826SOL     OW26110   2.678   1.243   8.169 -0.3210  0.6775 -0.2850
 4826SOL    HW126111   2.690   1.253   8.075  2.6572 -0.4962 -0.0296
 4826SOL    HW226112   2.766   1.254   8.206 -0.5326  1.8011 -0.1285
 4827SOL     OW26113   1.787   2.640   3.973  0.0638  0.1035  0.1547
 4827SOL    HW126114   1.828   2.653   4.059 -1.1459  0.4374  0.6914
 4827SOL    HW226115   1.732   2.717   3.962  1.3932  0.8490 -1.2574
 4828SOL     OW26116   2.367   3.408   9.497  0.5634 -0.0637 -0.5188
 4828SOL    HW126117   2.409   3.392   9.582 -1.2945  0.4142  0.4976
 4828SOL    HW226118   2.303   3.474   9.522  0.2029 -1.3927  2.0980
 4829SOL     OW26119   4.608   4.599   1.886  0.1739  0.0288  0.0627
 4829SOL    HW126120   4.587   4.646   1.805 -3.0245 -2.0594 -0.2943
 4829SOL    HW226121   4.633   4.664   1.951  0.0353 -0.1016  0.2441
 4830SOL     OW26122   3.195   0.686   2.762  0.1293 -0.5788  0.1261
 4830SOL    HW126123   3.278   0.723   2.731 -1.1672  2.2530  0.0629
 4830SOL    HW226124   3.161   0.657   2.677 -0.3395  0.5735 -0.0738
 4831SOL     OW26125   1.678   0.795  10.706  0.0835  0.4284  0.0378
 4831SOL    HW126126   1.604   0.740  10.682  1.5581 -1.1190 -0.9095
 4831SOL    HW226127   1.698   0.754  10.790 -1.2727  0.5668  0.4253
 4832SOL     OW26128   4.648   4.117   0.928 -0.0243 -0.0086 -0.4233
 4832SOL    HW126129   4.718   4.165   0.972 -1.5572  0.5098  1.4752
 4832SOL    HW226130   4.673   4.125   0.836  0.9329 -0.0387 -0.1683
 4833SOL     OW26131   0.348   0.143   8.329 -0.2055  0.2124 -0.4403
 4833SOL    HW126132   0.257   0.170   8.318 -0.3349  0.1860  0.5566
 4833SOL    HW226133   0.386   0.178   8.249  1.5737 -1.4128 -0.3200
 4834SOL     OW26134   0.328   2.537   7.628  0.1415 -0.2365  0.1674
 4834SOL    HW126135   0.364   2.542   7.717  0.5466 -1.7565  0.0856
 4834SOL    HW226136   0.235   2.527   7.645  0.2312 -0.6169  0.4430
 4835SOL     OW26137   4.559   2.683   9.186 -0.4399  0.1793  0.6857
 4835SOL    HW126138   4.637   2.660   9.135 -0.4980 -1.1569  1.1867
 4835SOL    HW226139   4.557   2.607   9.245 -1.5589 -0.4990 -0.2292
 4836SOL     OW26140   2.790   4.196   3.497  0.7727 -0.4444  0.4797
 4836SOL    HW126141   2.870   4.156   3.462 -0.0329 -2.2722  0.7329
 4836SOL    HW226142   2.739   4.117   3.510 -0.8527  0.8163  1.7484
 4837SOL     OW26143   2.572   1.541   6.637 -0.1337 -0.1141 -0.0550
 4837SOL    HW126144   2.607   1.554   6.725 -1.1300 -0.6410  0.4136
 4837SOL    HW226145   2.651   1.538   6.582 -1.0117  0.9497 -1.3647
 4838SOL     OW26146   4.366   4.242  12.049 -0.0787  0.1211  0.0720
 4838SOL    HW126147   4.336   4.181  12.116  1.4570  0.3642  0.9904
 4838SOL    HW226148   4.389   4.315  12.107  0.9383  0.0941 -0.3025
 4839SOL     OW26149   1.015   1.178   0.048 -0.0665  0.0793 -0.7421
 4839SOL    HW126150   1.077   1.110   0.077  0.2221  1.4273  1.7248
 4839SOL    HW226151   1.060   1.198  17.713  1.5304  1.1218  0.3669
 4840SOL     OW26152   1.370   2.352   6.513 -0.0921 -0.5446 -0.2530
 4840SOL    HW126153   1.349   2.348   6.606 -1.5205 -0.6497 -0.5744
 4840SOL    HW226154   1.440   2.286   6.506  1.8178  1.3582  1.1961
 4841SOL     OW26155   1.585   0.167   8.045 -0.2243  0.5650  0.0642
 4841SOL    HW126156   1.648   0.100   8.067 -0.2265  0.7999  0.7730
 4841SOL    HW226157   1.602   0.153   7.952 -1.1767 -1.3429  0.1827
 4842SOL     OW26158   3.932   4.200   0.892 -0.1357 -0.0495  0.3609
 4842SOL    HW126159   3.992   4.237   0.827 -2.8726  1.8392 -1.0938
 4842SOL    HW226160   3.849   4.235   0.858 -0.4945  0.3581  1.6656
 4843SOL     OW26161   1.449   0.772   6.520  0.3382 -0.1454  0.6795
 4843SOL    HW126162   1.420   0.852   6.565 -1.4082 -0.2311 -0.3082
 4843SOL    HW226163   1.500   0.811   6.450  0.3966  0.0972  0.8561
 4844SOL     OW26164   1.580   1.225   7.970 -0.2758 -0.9202 -0.2288
 4844SOL    HW126165   1.600   1.318   7.967  1.4206 -1.2831 -0.7864
 4844SOL    HW226166   1.485   1.219   7.965 -0.2785  0.3411 -1.7911
 4845SOL     OW26167   3.251   0.480  10.689  0.2747  0.1701  0.2891
 4845SOL    HW126168   3.221   0.540  10.757 -0.6846  0.9652 -0.8431
 4845SOL    HW226169   3.339   0.462  10.722 -0.4869 -2.0956  1.0632
 4846SOL     OW26170   4.044   3.539   8.515  0.5155  0.1156 -0.3303
 4846SOL    HW126171   3.958   3.504   8.491  0.2151 -0.1007  1.0427
 4846SOL    HW226172   4.106   3.515   8.446 -1.0779 -1.5488 -1.1616
 4847SOL     OW26173   4.267   0.183   4.194  0.0288  0.2888  0.0623
 4847SOL    HW126174   4.340   0.246   4.195  2.2068 -2.2485 -0.9371
 4847SOL    HW226175   4.265   0.156   4.102 -0.7005  2.5204 -0.5955
 4848SOL     OW26176   4.648   0.317   4.035 -0.0583 -0.3997 -0.4240
 4848SOL    HW126177   4.659   0.230   4.074 -0.5453  0.4044  1.5288
 4848SOL    HW226178   4.678   0.300   3.946 -0.9275 -0.5107 -0.6931
 4849SOL     OW26179   3.506   4.345  12.249  0.2227 -0.4395  0.0076
 4849SOL    HW126180   3.556   4.337  12.331  2.9621 -0.5768 -1.6600
 4849SOL    HW226181   3.543   4.279  12.190 -1.1557 -1.3427  0.1425
 4850SOL     OW26182   1.233   3.687   8.701 -0.2144  0.6841  0.0039
 4850SOL    HW126183   1.249   3.593   8.692  2.6949  1.1363  0.3907
 4850SOL    HW226184   1.184   3.691   8.783  0.7087 -2.8956  0.7718
 4851SOL     OW26185   1.536   2.645   5.024 -0.1785 -0.0816 -0.1258
 4851SOL    HW126186   1.556   2.713   4.961  2.3286  0.4598  1.2801
 4851SOL    HW226187   1.580   2.566   4.993 -0.5482 -0.0424 -0.7467
 4852SOL     OW26188   0.400   4.274  10.576 -1.0794 -0.0831 -0.2212
 4852SOL    HW126189   0.361   4.353  10.538 -2.3627 -0.2889  0.6843
 4852SOL    HW226190   0.492   4.282  10.551 -0.7368  0.3093  1.1540
 4853SOL     OW26191   0.860   1.208   9.598  0.4222  0.0918  0.0518
 4853SOL    HW126192   0.891   1.137   9.543  0.0746  0.7882 -1.0493
 4853SOL    HW226193   0.944   1.250   9.618  0.3646 -0.6528  1.8984
 4854SOL     OW26194   0.262   0.188  10.463 -0.9284  0.0699 -0.5229
 4854SOL    HW126195   0.354   0.180  10.488 -0.6744  0.5529 -1.2980
 4854SOL    HW226196   0.270   0.238  10.382  0.7984 -0.4232 -0.6628
 4855SOL     OW26197   2.839   0.507  10.139  0.4560 -0.1305 -0.2866
 4855SOL    HW126198   2.857   0.510  10.045  2.0717  1.0041  0.0579
 4855SOL    HW226199   2.839   0.412  10.151 -0.3999  0.0937  1.5087
 4856SOL     OW26200   1.306   0.237   6.189  0.0956 -0.3074 -0.4505
 4856SOL    HW126201   1.349   0.154   6.168  0.1307 -0.0129 -1.5221
 4856SOL    HW226202   1.261   0.253   6.106  0.2429  1.2251 -0.2334
 4857SOL     OW26203   4.103   3.380   7.503  0.1285  0.4828  0.0930
 4857SOL    HW126204   4.089   3.370   7.409 -1.2167  1.0356  0.2379
 4857SOL    HW226205   4.124   3.293   7.536 -0.8262  0.1449 -0.1843
 4858SOL     OW26206   3.452   3.510   5.559  0.0862 -0.0044 -0.2313
 4858SOL    HW126207   3.536   3.497   5.515 -0.9862 -1.2388 -1.9162
 4858SOL    HW226208   3.469   3.446   5.628  2.5419  0.1657 -0.6679
 4859SOL     OW26209   4.325   1.323  12.067 -0.1723 -0.3225  0.2640
 4859SOL    HW126210   4.270   1.247  12.053  1.7231 -1.1515 -2.7212
 4859SOL    HW226211   4.397   1.286  12.118 -0.8606  0.9942  2.2083
 4860SOL     OW26212   3.130   3.967   4.112  0.6611 -0.4677 -0.2810
 4860SOL    HW126213   3.161   4.057   4.108 -0.8978 -0.0115 -2.0462
 4860SOL    HW226214   3.113   3.941   4.022 -0.0554  1.2868 -0.6487
 4861SOL     OW26215   3.014   0.149   2.530 -0.2095 -0.2545  0.4466
 4861SOL    HW126216   2.968   0.182   2.607  0.4488  2.6092 -0.3851
 4861SOL    HW226217   3.037   0.234   2.493 -0.3852  0.7449  2.6047
 4862SOL     OW26218   4.448   3.082  16.265  0.0498 -0.4413  0.4336
 4862SOL    HW126219   4.445   3.176  16.282  2.3564  0.2586 -3.0539
 4862SOL    HW226220   4.476   3.054  16.352 -2.9361  0.9427  1.8441
 4863SOL     OW26221   2.664   2.211   6.349  0.5266  0.0674 -0.0355
 4863SOL    HW126222   2.652   2.305   6.361 -1.4869 -0.1878 -0.1880
 4863SOL    HW226223   2.601   2.188   6.281  1.7012 -0.2457 -1.0244
 4864SOL     OW26224   3.578   3.103   3.709 -0.1791 -0.9228  0.2141
 4864SOL    HW126225   3.666   3.128   3.739 -0.0659 -2.3905  1.0867
 4864SOL    HW226226   3.523   3.175   3.739  0.7145 -0.2207  0.1638
 4865SOL     OW26227   1.784   1.720   7.580  0.2111  0.3588 -0.4940
 4865SOL    HW126228   1.842   1.662   7.530  0.8499  2.1217 -1.7841
 4865SOL    HW226229   1.732   1.659   7.632  1.9946 -0.8338 -0.1074
 4866SOL     OW26230   3.416   2.150   8.387  0.7023 -0.0528  0.5385
 4866SOL    HW126231   3.367   2.187   8.460 -0.4062 -0.5829  0.0532
 4866SOL    HW226232   3.417   2.218   8.321  1.1772 -1.0610 -0.5004
 4867SOL     OW26233   0.595   3.432   4.720 -0.1051 -0.1033  0.0319
 4867SOL    HW126234   0.622   3.342   4.738 -0.9548 -0.4945 -0.6087
 4867SOL    HW226235   0.512   3.420   4.673  0.9262 -1.3237 -1.4962
 4868SOL     OW26236   1.513   2.338   9.684 -0.3523 -0.0777  0.4326
 4868SOL    HW126237   1.606   2.351   9.702 -0.5422 -1.2209  2.2842
 4868SOL    HW226238   1.506   2.346   9.589  0.3172  1.1139  0.4824
 4869SOL     OW26239   3.383   1.402   9.236  0.2355 -0.1202  0.2856
 4869SOL    HW126240   3.313   1.432   9.178 -0.4854 -0.7546  0.8258
 4869SOL    HW226241   3.428   1.345   9.174  2.1828  2.0814 -0.3257
 4870SOL     OW26242   2.074   1.940   4.797  0.6564 -0.4645  0.0845
 4870SOL    HW126243   2.051   1.850   4.774 -0.8854  0.3834 -1.7335
 4870SOL    HW226244   2.148   1.928   4.855  2.7102 -0.5800 -2.5326
 4871SOL     OW26245   0.796   2.042  11.524 -0.1271  0.5656  0.3268
 4871SOL    HW126246   0.891   2.048  11.519 -0.3211  2.3788 -1.1925
 4871SOL    HW226247   0.768   2.133  11.532  1.1076  1.0171 -0.5710
 4872SOL     OW26248   1.843   2.522   7.147  0.3764  0.3198 -0.2676
 4872SOL    HW126249   1.774   2.563   7.198 -0.0304  0.1429 -0.6798
 4872SOL    HW226250   1.788   2.511   7.069  0.8060 -1.0742 -0.3751
 4873SOL     OW26251   0.567   0.078   7.974 -0.0499 -0.0917 -0.5965
 4873SOL    HW126252   0.550   0.173   7.977 -1.7743 -0.5508  4.7921
 4873SOL    HW226253   0.662   0.077   7.990  0.1510  0.4082 -1.7495
 4874SOL     OW26254   0.013   1.751   7.162  0.2052  0.2794  0.0925
 4874SOL    HW126255   4.716   1.709   7.084 -0.1147  2.7399 -1.0879
 4874SOL    HW226256   0.032   1.837   7.126  0.7078 -0.5386 -1.5732
 4875SOL     OW26257   2.119   1.697   2.562  0.0550  0.1947 -0.3532
 4875SOL    HW126258   2.119   1.792   2.557  1.6748  0.3632  2.6152
 4875SOL    HW226259   2.183   1.684   2.632 -0.7051 -1.5487  0.0235
 4876SOL     OW26260   1.606   3.409   8.349  0.5808  0.4945 -0.6185
 4876SOL    HW126261   1.557   3.377   8.425  0.4792  0.2024 -0.8076
 4876SOL    HW226262   1.610   3.346   8.277  3.0060  0.8161 -0.7526
 4877SOL     OW26263   3.476   0.917   3.574 -0.1211 -0.3580 -0.0254
 4877SOL    HW126264   3.509   0.848   3.632  2.4060  0.7574 -0.1120
 4877SOL    HW226265   3.542   0.908   3.505  0.7413  2.0092  0.4947
 4878SOL     OW26266   0.374   0.539   2.291 -0.2899 -0.2693 -0.4047
 4878SOL    HW126267   0.325   0.619   2.309  0.5491  0.2182 -0.3213
 4878SOL    HW226268   0.449   0.577   2.245  0.5051 -1.3672 -0.0284
 4879SOL     OW26269   4.000   2.233   4.084 -0.3230 -0.7146 -0.1648
 4879SOL    HW126270   3.971   2.223   3.994  1.2447  0.0464 -0.7494
 4879SOL    HW226271   3.920   2.258   4.131 -0.2154 -0.5094 -0.0912
 4880SOL     OW26272   0.434   1.059   4.333 -0.1847  0.3892  0.1406
 4880SOL    HW126273   0.367   1.060   4.265  1.3803 -0.2304 -1.4216
 4880SOL    HW226274   0.483   0.983   4.301  0.2772 -0.2516  2.3838
 4881SOL     OW26275   0.256   2.710  10.742  0.2340 -0.0655  0.2743
 4881SOL    HW126276   0.202   2.664  10.806 -0.9995 -1.7836 -1.9753
 4881SOL    HW226277   0.340   2.707  10.788 -0.1030  0.3134  0.9132
 4882SOL     OW26278   2.576   4.673   1.360 -0.4550  0.1775 -0.1630
 4882SOL    HW126279   2.641   4.603   1.372  0.3465  1.3518  2.2461
 4882SOL    HW226280   2.493   4.627   1.366 -1.3589  1.6257 -1.6012
 4883SOL     OW26281   3.851   1.032   5.794  0.1410  0.0242 -0.4870
 4883SOL    HW126282   3.942   1.024   5.765  0.8779  1.0847  1.5249
 4883SOL    HW226283   3.808   0.986   5.722  3.3249 -0.5614 -2.0233
 4884SOL     OW26284   1.348   4.134   5.194  0.2242 -0.6143  0.4563
 4884SOL    HW126285   1.329   4.133   5.288  2.4093 -0.3932  0.9205
 4884SOL    HW226286   1.440   4.108   5.189 -0.1258 -1.7785  0.1492
 4885SOL     OW26287   3.842   4.509   0.388 -0.2149  0.3845 -0.4344
 4885SOL    HW126288   3.908   4.466   0.442 -0.1356 -0.2612 -1.0372
 4885SOL    HW226289   3.851   4.455   0.309  0.9326  1.7379 -1.2537
 4886SOL     OW26290   0.604   3.996   2.982  0.3165  0.6005  0.3970
 4886SOL    HW126291   0.615   3.973   3.074  1.1626 -0.7834 -0.0367
 4886SOL    HW226292   0.590   4.090   2.982 -1.6500  0.3013 -0.5024
 4887SOL     OW26293   2.054   1.257   2.951  0.1605 -0.2426  0.4591
 4887SOL    HW126294   2.126   1.235   3.011  1.2419  1.0570 -0.3546
 4887SOL    HW226295   2.012   1.175   2.926 -0.4500  0.6708 -1.4886
 4888SOL     OW26296   1.206   2.890   4.690  0.3582 -0.5652  0.7073
 4888SOL    HW126297   1.249   2.814   4.652 -1.8228 -1.2129 -0.4376
 4888SOL    HW226298   1.115   2.861   4.692  0.4127 -0.6866  1.4171
 4889SOL     OW26299   0.772   1.493   3.663 -0.0558  0.2674 -0.1553
 4889SOL    HW126300   0.723   1.411   3.656 -2.2061  1.3189  2.2946
 4889SOL    HW226301   0.862   1.462   3.665 -0.4540 -0.7367  2.9556
 4890SOL     OW26302   3.353   1.341  16.116 -0.0228  0.3723 -0.8497
 4890SOL    HW126303   3.260   1.347  16.097 -0.2003  1.7519  0.5140
 4890SOL    HW226304   3.379   1.300  16.033 -0.4980 -0.0532 -0.7878
 4891SOL     OW26305   0.733   1.325  10.961  0.2995 -0.6418  0.0346
 4891SOL    HW126306   0.817   1.322  10.916  0.0851  1.9423 -0.5234
 4891SOL    HW226307   0.683   1.401  10.930 -0.1125 -0.3376  1.4529
 4892SOL     OW26308   2.516   0.281  13.970 -0.2823 -0.4392  0.3765
 4892SOL    HW126309   2.593   0.226  13.954 -0.6792 -0.1437 -2.6263
 4892SOL    HW226310   2.554   0.368  13.966 -2.7442  0.5782 -0.8333
 4893SOL     OW26311   0.818   2.146  13.240 -0.1612  0.1167 -0.2422
 4893SOL    HW126312   0.782   2.151  13.152  0.2974 -0.6731 -0.4743
 4893SOL    HW226313   0.891   2.084  13.230 -0.9984 -1.1023  1.0500
 4894SOL     OW26314   2.229   2.947   7.168  0.3757 -0.5339  0.2047
 4894SOL    HW126315   2.236   3.013   7.237  1.6209  0.6110 -1.0102
 4894SOL    HW226316   2.136   2.926   7.175  0.0073  1.7147  1.7441
 4895SOL     OW26317   0.095   2.015  17.300  0.0161 -0.3483 -0.1779
 4895SOL    HW126318   0.153   2.045  17.369  1.5383 -1.3725 -1.0142
 4895SOL    HW226319   0.078   1.923  17.322  1.2353 -0.3353  0.7881
 4896SOL     OW26320   4.661   3.272   9.465 -0.1848  0.4434  0.1866
 4896SOL    HW126321   4.698   3.352   9.503  0.4935 -0.1224  0.7072
 4896SOL    HW226322   4.724   3.260   9.393 -0.6024 -0.5098 -0.0177
 4897SOL     OW26323   1.986   1.801   1.549 -0.0892 -0.5249  0.2328
 4897SOL    HW126324   1.929   1.809   1.626 -1.3306 -2.9603 -0.4525
 4897SOL    HW226325   1.925   1.815   1.476 -2.7314 -1.5115  2.2562
 4898SOL     OW26326   1.252   4.359   2.693 -0.1368 -0.4819  0.0628
 4898SOL    HW126327   1.158   4.356   2.679 -0.7636 -1.5090  4.4893
 4898SOL    HW226328   1.282   4.283   2.643 -0.4705  1.2702 -2.7658
 4899SOL     OW26329   1.891   4.543   2.679 -0.7124  0.4898  0.0548
 4899SOL    HW126330   1.812   4.493   2.659  1.0812 -2.1829 -0.3804
 4899SOL    HW226331   1.890   4.617   2.618 -0.8316 -0.0324 -0.5761
 4900SOL     OW26332   1.315   2.121   8.708  0.4428 -1.2029 -0.0051
 4900SOL    HW126333   1.270   2.206   8.700  1.3847 -0.6160  0.8366
 4900SOL    HW226334   1.290   2.080   8.791  1.3658 -1.2670  0.2341
 4901SOL     OW26335   0.810   2.938   1.535 -0.3639 -0.2135  0.1219
 4901SOL    HW126336   0.790   2.923   1.443 -1.0551 -1.9401  0.5603
 4901SOL    HW226337   0.729   2.969   1.574 -0.9295 -1.0452 -0.4206
 4902SOL     OW26338   4.507   2.032   2.021  0.2708 -0.2214  0.7129
 4902SOL    HW126339   4.463   1.954   1.987 -0.6500  0.6410 -0.0928
 4902SOL    HW226340   4.547   2.085   1.952  0.4340 -2.3281 -0.7893
 4903SOL     OW26341   0.390   2.253   6.472  0.2167  0.1676 -0.2221
 4903SOL    HW126342   0.346   2.306   6.538 -1.4628  0.1179 -1.2993
 4903SOL    HW226343   0.318   2.193   6.452  1.1793 -0.5012 -1.7183
 4904SOL     OW26344   1.743   2.261   8.864 -0.2614 -0.4627  0.0190
 4904SOL    HW126345   1.809   2.194   8.880 -0.0899 -0.4356 -0.5985
 4904SOL    HW226346   1.680   2.221   8.805 -0.1499 -0.3536 -0.1733
 4905SOL     OW26347   0.128   0.956   0.087  0.0691 -0.5750  0.3259
 4905SOL    HW126348   0.155   0.864   0.081  1.0946 -0.1217 -2.1579
 4905SOL    HW226349   0.081   0.951   0.170  0.4712 -0.4946  0.5542
 4906SOL     OW26350   3.537   1.834  10.853  0.0572  0.4510 -0.3891
 4906SOL    HW126351   3.507   1.808  10.940  1.0283 -2.2386 -0.8303
 4906SOL    HW226352   3.524   1.928  10.862 -0.3387  0.1615  2.0335
 4907SOL     OW26353   0.787   2.714   3.713  0.0638 -0.0560  0.1244
 4907SOL    HW126354   0.765   2.661   3.637  2.6902 -0.5381 -0.3199
 4907SOL    HW226355   0.700   2.741   3.741 -0.6427 -0.8701 -1.3215
 4908SOL     OW26356   0.608   4.683   1.326 -0.0061  0.3206 -0.4855
 4908SOL    HW126357   0.687   4.729   1.299  0.8526 -0.8598  0.0362
 4908SOL    HW226358   0.621   4.588   1.323 -0.7913  0.2198 -0.7707
 4909SOL     OW26359   2.513   2.938   7.335  0.4520  0.3922 -0.6426
 4909SOL    HW126360   2.494   2.872   7.402 -0.2510  0.2088 -1.0327
 4909SOL    HW226361   2.482   3.024   7.363 -0.1883 -0.2463  0.6377
 4910SOL     OW26362   3.829   4.128  17.464 -0.2172  0.0574 -0.2508
 4910SOL    HW126363   3.836   4.039  17.429  0.2266 -0.3668  0.9249
 4910SOL    HW226364   3.770   4.173  17.403 -1.1669  1.3332  1.6444
 4911SOL     OW26365   3.182   3.521   7.368 -0.5138 -0.6856 -0.1590
 4911SOL    HW126366   3.215   3.457   7.431 -0.9019 -0.2535  0.4849
 4911SOL    HW226367   3.269   3.548   7.338  0.1420 -1.6058  0.8962
 4912SOL     OW26368   0.509   1.354   2.554 -0.6052  0.1901 -0.3886
 4912SOL    HW126369   0.539   1.391   2.637 -0.6387  3.4151 -1.8154
 4912SOL    HW226370   0.505   1.430   2.496 -2.8755  1.0049  0.8290
 4913SOL     OW26371   1.951   0.620  10.232 -0.4142 -0.0618 -0.4252
 4913SOL    HW126372   1.915   0.666  10.308 -1.7923  1.6513 -2.0815
 4913SOL    HW226373   2.037   0.661  10.225 -0.6173  0.6970  1.7337
 4914SOL     OW26374   1.287   3.342   4.861 -0.3897  0.2036  0.4844
 4914SOL    HW126375   1.266   3.428   4.824 -3.2617 -0.7013  0.0029
 4914SOL    HW226376   1.262   3.280   4.792 -0.5216  0.4129  0.3462
 4915SOL     OW26377   0.106   3.094  15.074 -0.4005  0.6270  0.6029
 4915SOL    HW126378   0.099   3.173  15.020  0.0288  0.2905  0.0624
 4915SOL    HW226379   0.132   3.136  15.157 -1.1839 -0.0736  1.2074
 4916SOL     OW26380   2.277   1.793   0.623  0.1487 -0.2444 -0.0091
 4916SOL    HW126381   2.364   1.829   0.605  0.3517  0.9571  3.4442
 4916SOL    HW226382   2.258   1.749   0.540 -0.4362  1.5322 -0.8215
 4917SOL     OW26383   1.210   0.592   7.959  0.0962  0.5160  0.5777
 4917SOL    HW126384   1.186   0.577   8.050 -0.2768  0.8251  0.5314
 4917SOL    HW226385   1.251   0.679   7.956 -0.2220  0.6804  0.9346
 4918SOL     OW26386   2.363   0.865   1.506  0.5728  0.0021  0.0661
 4918SOL    HW126387   2.417   0.934   1.544  0.5342 -0.0336  0.1856
 4918SOL    HW226388   2.413   0.787   1.529 -0.6077 -0.5533  0.7633
 4919SOL     OW26389   4.170   0.944   6.996  0.4997  0.1500  0.2390
 4919SOL    HW126390   4.244   0.998   6.967  0.3411 -1.0828 -2.4709
 4919SOL    HW226391   4.136   0.999   7.066 -1.0432  1.4172 -1.5182
 4920SOL     OW26392   0.346   3.869   3.152  0.5755  0.5401  0.6560
 4920SOL    HW126393   0.420   3.923   3.178  0.5459  1.3898 -1.0179
 4920SOL    HW226394   0.298   3.934   3.101  0.4732  1.2719  1.6824
 4921SOL     OW26395   0.865   2.790  15.999 -0.1393  0.6180  0.1206
 4921SOL    HW126396   0.910   2.782  16.083  0.7593  1.0278 -0.3283
 4921SOL    HW226397   0.830   2.701  15.994 -1.3126  1.0573  0.6290
 4922SOL     OW26398   2.818   1.123  11.266 -0.0630 -0.0762  0.1139
 4922SOL    HW126399   2.745   1.180  11.289 -1.0629 -1.5549  0.6254
 4922SOL    HW226400   2.886   1.160  11.322  1.3670  1.2051 -2.4604
 4923SOL     OW26401   2.110   2.764   2.756  0.0710 -0.1741 -0.6870
 4923SOL    HW126402   2.062   2.743   2.836 -0.7361  1.8531 -0.6431
 4923SOL    HW226403   2.033   2.807   2.718  1.0059  0.0575 -2.2926
 4924SOL     OW26404   1.696   1.298  13.085  0.0352 -0.4511  0.0518
 4924SOL    HW126405   1.782   1.265  13.058  0.1175 -0.1061 -0.1185
 4924SOL    HW226406   1.715   1.388  13.110 -0.8429 -0.6277  1.3509
 4925SOL     OW26407   3.881   3.440   4.824  0.5561 -0.8807 -0.0268
 4925SOL    HW126408   3.976   3.449   4.834  0.1712  1.9532  0.9127
 4925SOL    HW226409   3.876   3.360   4.771  2.4896 -1.5056  0.7172
 4926SOL     OW26410   1.427   1.679   6.566 -0.6054 -0.1917  0.0701
 4926SOL    HW126411   1.369   1.750   6.540 -0.1642  0.1462  0.0214
 4926SOL    HW226412   1.511   1.713   6.536 -0.9270 -2.3690 -3.4140
 4927SOL     OW26413   1.895   3.246   3.323 -0.0460 -0.1365  0.0307
 4927SOL    HW126414   1.811   3.291   3.329 -0.3201 -0.5675 -0.5753
 4927SOL    HW226415   1.888   3.180   3.393  0.2433 -1.4450 -1.1620
 4928SOL     OW26416   0.916   3.595  11.654 -0.4853  0.2782 -0.6357
 4928SOL    HW126417   0.894   3.594  11.561 -1.5563 -1.4714 -0.3591
 4928SOL    HW226418   0.837   3.557  11.691  0.1687  0.2649  0.7360
 4929SOL     OW26419   2.565   2.441   7.765  0.4608  0.1414 -0.6428
 4929SOL    HW126420   2.495   2.491   7.722 -0.3828  1.3996  2.1912
 4929SOL    HW226421   2.589   2.497   7.838  1.2733  0.2240 -0.9753
 4930SOL     OW26422   2.137   2.241  16.331 -0.3105  0.0509  0.5247
 4930SOL    HW126423   2.136   2.218  16.424  0.0653  0.1068  0.5438
 4930SOL    HW226424   2.207   2.190  16.290 -1.0193  1.6319 -2.6693
 4931SOL     OW26425   2.044   1.131   6.483 -0.3697 -0.3284 -0.4529
 4931SOL    HW126426   2.111   1.144   6.550  0.7440  0.1295 -1.6350
 4931SOL    HW226427   2.048   1.038   6.463  0.9487 -0.1505 -1.0104
 4932SOL     OW26428   3.628   2.612   3.364  0.5711 -0.0649 -0.1832
 4932SOL    HW126429   3.692   2.543   3.382  1.7331  1.2585  0.7718
 4932SOL    HW226430   3.690   2.677   3.331  1.5106 -0.5867  0.5220
 4933SOL     OW26431   0.904   4.071  15.565  0.0567  0.0972  0.6809
 4933SOL    HW126432   0.892   4.079  15.470 -1.8816  0.1739  0.9278
 4933SOL    HW226433   0.982   4.126  15.574 -1.2991  2.3107 -1.0551
 4934SOL     OW26434   1.969   2.464   8.881  0.2631  0.1846 -0.1522
 4934SOL    HW126435   2.033   2.411   8.929  0.2319  1.8358  1.6871
 4934SOL    HW226436   1.909   2.389   8.874  1.5504 -0.8887  0.1905
 4935SOL     OW26437   3.491   2.875   3.075  0.5799 -0.4523  0.3217
 4935SOL    HW126438   3.448   2.875   3.160 -0.4189 -2.3887 -0.1734
 4935SOL    HW226439   3.504   2.780   3.067 -0.0094 -0.4565 -0.5676
 4936SOL     OW26440   3.383   1.576   1.450  0.1410  0.4257  0.6149
 4936SOL    HW126441   3.316   1.601   1.386 -0.6229 -3.4097 -0.0670
 4936SOL    HW226442   3.448   1.643   1.431 -0.1826  0.8170  0.8728
 4937SOL     OW26443   4.252   0.339   9.694 -0.7411  0.6511 -0.2603
 4937SOL    HW126444   4.259   0.273   9.625 -0.9446 -1.5368  1.7929
 4937SOL    HW226445   4.162   0.371   9.701 -1.1174 -0.7143  1.3428
 4938SOL     OW26446   0.433   4.206   7.252  0.1536  0.4990 -0.3729
 4938SOL    HW126447   0.393   4.214   7.166 -0.8330  0.1430  0.0508
 4938SOL    HW226448   0.515   4.171   7.218 -0.0906 -1.0428  0.6202
 4939SOL     OW26449   0.894   3.086   8.543  0.4179  1.0934 -0.6579
 4939SOL    HW126450   0.903   2.995   8.570 -1.3551  0.7352 -1.2684
 4939SOL    HW226451   0.823   3.089   8.479 -0.0792 -3.2165 -0.3058
 4940SOL     OW26452   1.088   2.135  13.486 -0.0419  0.0645  0.1861
 4940SOL    HW126453   1.179   2.161  13.471 -0.1501  0.3871  0.1088
 4940SOL    HW226454   1.032   2.212  13.480  0.0362  0.0990 -0.1053
 4941SOL     OW26455   3.606   1.665   4.250  0.1846  0.5741 -0.1196
 4941SOL    HW126456   3.541   1.669   4.320 -0.5145 -0.5363 -0.7120
 4941SOL    HW226457   3.598   1.581   4.205  0.7877  0.3477  0.1989
 4942SOL     OW26458   1.664   2.368   6.176  0.2422 -0.0846  0.1376
 4942SOL    HW126459   1.598   2.304   6.148  0.1305  0.6511 -1.2754
 4942SOL    HW226460   1.607   2.442   6.197 -0.2535 -0.2738 -0.5431
 4943SOL     OW26461   0.549   0.240   2.282 -0.5811 -0.4142  0.1072
 4943SOL    HW126462   0.540   0.230   2.187 -0.1093 -1.4072  0.1610
 4943SOL    HW226463   0.616   0.172   2.294  0.0585  0.9882  4.7289
 4944SOL     OW26464   0.270   1.564  16.334  1.1963 -0.4727 -0.1578
 4944SOL    HW126465   0.233   1.480  16.359  1.0439  0.3844  2.5143
 4944SOL    HW226466   0.198   1.602  16.282  1.6464  0.1008 -0.3617
 4945SOL     OW26467   3.223   3.091   5.543  0.2982  0.7033  0.1468
 4945SOL    HW126468   3.223   3.167   5.484 -0.8659 -0.5974 -1.5516
 4945SOL    HW226469   3.287   3.123   5.606 -1.0156 -0.3650  2.0046
 4946SOL     OW26470   1.228   1.303   2.834  0.3768 -0.6281  0.4962
 4946SOL    HW126471   1.201   1.338   2.749  0.6982 -0.7328  0.3511
 4946SOL    HW226472   1.314   1.265   2.819  0.3128 -0.2618 -0.8027
 4947SOL     OW26473   4.347   4.372   7.881 -0.2714  0.9183  1.0396
 4947SOL    HW126474   4.388   4.286   7.884  0.0425  0.9226 -3.0888
 4947SOL    HW226475   4.414   4.417   7.830 -1.2502  1.1087 -0.0753
 4948SOL     OW26476   0.106   1.624   0.199 -0.6770 -0.3861  0.0753
 4948SOL    HW126477   0.067   1.555   0.145 -0.5833 -1.8541  1.8824
 4948SOL    HW226478   0.042   1.633   0.269 -0.8517  1.5170 -0.3222
 4949SOL     OW26479   3.233   0.206   8.867  0.3740 -0.5912 -0.3145
 4949SOL    HW126480   3.315   0.210   8.820 -0.0638 -0.5413 -1.0658
 4949SOL    HW226481   3.175   0.203   8.791 -1.7008  0.2270  1.2057
 4950SOL     OW26482   3.151   3.083   4.645 -0.4281 -0.5626 -0.5352
 4950SOL    HW126483   3.167   3.133   4.566 -0.6355  1.9438  1.0259
 4950SOL    HW226484   3.139   3.157   4.704 -0.1406 -0.1109 -1.0473
 4951SOL     OW26485   2.443   2.175   7.692 -0.1318 -0.7528 -0.2486
 4951SOL    HW126486   2.447   2.196   7.598  1.2755 -0.1363 -0.0516
 4951SOL    HW226487   2.469   2.256   7.735  0.6418 -1.8250  1.2972
 4952SOL     OW26488   3.258   2.689   1.474 -0.3388 -0.6587 -0.0293
 4952SOL    HW126489   3.231   2.683   1.382 -0.4870 -2.2597  0.1209
 4952SOL    HW226490   3.203   2.621   1.512 -3.8632  2.7898  0.9809
 4953SOL     OW26491   3.520   4.095  15.682 -0.3287 -0.2249  0.2421
 4953SOL    HW126492   3.588   4.113  15.748  0.8788  0.9975 -1.3297
 4953SOL    HW226493   3.573   4.115  15.604 -3.2078  1.4299 -1.2844
 4954SOL     OW26494   0.697   0.059  16.646 -0.2702  0.0053  0.3771
 4954SOL    HW126495   0.660   0.068  16.558 -1.6269  0.4732  0.9918
 4954SOL    HW226496   0.784   0.025  16.628 -0.8290 -1.9314  1.3313
 4955SOL     OW26497   0.419   1.354   7.111  0.4102 -0.1380 -0.1672
 4955SOL    HW126498   0.346   1.294   7.130  1.6264 -1.4271  0.4501
 4955SOL    HW226499   0.376   1.437   7.130  0.5300 -0.5076  1.7328
 4956SOL     OW26500   1.700   1.961  17.716  0.7910  0.8126 -0.1906
 4956SOL    HW126501   1.622   2.006  17.684 -0.2755  0.2306  1.5956
 4956SOL    HW226502   1.709   1.889  17.653  0.7700  0.0856  0.6298
 4957SOL     OW26503   3.276   3.956   7.961 -0.1704  0.6873 -0.2747
 4957SOL    HW126504   3.181   3.949   7.966 -0.1989  0.9165 -0.4541
 4957SOL    HW226505   3.285   4.045   7.996 -1.4530  1.2401 -1.3761
 4958SOL     OW26506   0.568   3.294   5.091 -0.2947 -0.7095  0.2307
 4958SOL    HW126507   0.479   3.259   5.096 -0.0792 -1.6997 -3.0323
 4958SOL    HW226508   0.554   3.359   5.160  1.9735  1.1646 -1.0924
 4959SOL     OW26509   0.061   1.239   8.546  0.2283 -0.1883 -0.0435
 4959SOL    HW126510   4.718   1.288   8.567  0.7559  0.8086 -0.3831
 4959SOL    HW226511   0.034   1.156   8.586  0.6293 -0.7310 -0.9050
 4960SOL     OW26512   2.588   3.209  14.932 -0.0762 -0.6358 -0.7454
 4960SOL    HW126513   2.651   3.141  14.955  0.2278 -0.4030 -0.8915
 4960SOL    HW226514   2.508   3.168  14.900  0.2657 -0.5643 -1.6781
 4961SOL     OW26515   1.562   0.838   7.673  0.6782  0.1478  0.2112
 4961SOL    HW126516   1.641   0.859   7.624  0.0519  1.7234 -0.1208
 4961SOL    HW226517   1.590   0.758   7.718  0.9223 -0.4637 -1.0422
 4962SOL     OW26518   1.858   2.250  14.555 -0.0629 -0.3914  0.3616
 4962SOL    HW126519   1.924   2.317  14.572  0.2883 -0.9667  1.2894
 4962SOL    HW226520   1.910   2.171  14.536  0.7889  0.1359  0.4965
 4963SOL     OW26521   4.707   0.181   6.477 -0.3165  0.2601 -0.2334
 4963SOL    HW126522   0.063   0.162   6.485 -0.1795  2.5728  3.4285
 4963SOL    HW226523   4.695   0.257   6.533 -2.0690 -0.3566  0.2194
 4964SOL     OW26524   2.606   1.645   8.345  0.2422  0.0161  0.0417
 4964SOL    HW126525   2.631   1.593   8.422 -1.2664 -1.6237 -0.5848
 4964SOL    HW226526   2.660   1.722   8.360 -1.0329  0.4016  2.5728
 4965SOL     OW26527   3.677   3.616   2.929 -0.2936 -0.0272 -0.5101
 4965SOL    HW126528   3.755   3.566   2.952  0.8565  2.3083  0.6529
 4965SOL    HW226529   3.714   3.690   2.881  2.1703 -0.0172  1.4101
 4966SOL     OW26530   3.127   0.038  14.703 -0.3117 -0.0133  0.0358
 4966SOL    HW126531   3.102   0.109  14.644 -0.4575  0.6007  0.8275
 4966SOL    HW226532   3.117   0.076  14.791  0.4902 -0.0210  0.1356
 4967SOL     OW26533   1.879   1.945   5.747 -0.2522 -0.0189  0.5727
 4967SOL    HW126534   1.900   1.897   5.826 -2.5305 -1.6304  0.2003
 4967SOL    HW226535   1.801   1.996   5.768 -0.1025  0.2899  0.3799
 4968SOL     OW26536   0.901   0.528   8.418 -0.5271  0.2532 -0.0881
 4968SOL    HW126537   0.967   0.587   8.454  1.0924 -0.3607 -2.1028
 4968SOL    HW226538   0.881   0.463   8.486  2.7234  0.3865  1.0152
 4969SOL     OW26539   2.973   0.229   0.489 -0.3941 -0.4355  0.3138
 4969SOL    HW126540   2.970   0.310   0.539 -1.5373 -0.2586 -0.0612
 4969SOL    HW226541   3.067   0.210   0.500 -0.0080  1.7163  0.7449
 4970SOL     OW26542   2.596   0.528   0.928 -0.0331 -0.2231 -0.4191
 4970SOL    HW126543   2.631   0.499   1.012  1.3377 -1.6583 -1.4855
 4970SOL    HW226544   2.643   0.478   0.861  0.1330 -1.6176  0.7413
 4971SOL     OW26545   0.977   4.691  12.132 -0.2946  0.8095 -0.1747
 4971SOL    HW126546   0.912   4.730  12.190 -1.5969 -1.9778  0.2152
 4971SOL    HW226547   0.927   4.655  12.059 -0.0936 -0.5722  0.3586
 4972SOL     OW26548   0.896   0.055   7.147 -0.0419 -1.1860  0.0883
 4972SOL    HW126549   0.943   4.719   7.106  0.1438 -0.3734 -1.1298
 4972SOL    HW226550   0.926   0.044   7.238 -0.1109 -0.8636  0.1490
 4973SOL     OW26551   4.025   3.505   1.730  0.3545  0.6492 -0.3214
 4973SOL    HW126552   4.115   3.533   1.742 -0.0106  1.9139 -0.5388
 4973SOL    HW226553   3.995   3.548   1.649 -0.0227  0.4544 -0.2838
 4974SOL     OW26554   3.345   4.169   6.560 -0.3083  0.1439 -0.5900
 4974SOL    HW126555   3.423   4.218   6.532 -0.4722  0.8797  0.2287
 4974SOL    HW226556   3.312   4.221   6.633 -1.8624  0.3657 -1.4598
 4975SOL     OW26557   1.225   0.195   9.870 -0.2837  0.2461 -0.1044
 4975SOL    HW126558   1.174   0.150   9.937  0.8313  0.5649  0.9577
 4975SOL    HW226559   1.311   0.197   9.910 -0.9135 -0.2470  1.2646
 4976SOL     OW26560   4.584   4.408   7.700  0.6597  0.6700 -0.4203
 4976SOL    HW126561   4.656   4.439   7.755  1.8502  0.1821 -1.7195
 4976SOL    HW226562   4.523   4.481   7.700 -1.7761 -1.3313 -0.0306
 4977SOL     OW26563   3.772   3.868   4.902 -0.4455  0.1808  0.1079
 4977SOL    HW126564   3.831   3.866   4.977  1.3367  1.9504 -1.2322
 4977SOL    HW226565   3.803   3.949   4.862 -0.5862  0.2486  0.1328
 4978SOL     OW26566   0.053   3.707  16.251 -0.0038 -0.6682 -0.5204
 4978SOL    HW126567   0.063   3.754  16.333 -1.3904  0.2308 -0.8795
 4978SOL    HW226568   0.011   3.628  16.285 -1.0866  0.0569 -0.2039
 4979SOL     OW26569   3.132   4.507   1.772  0.2677 -0.5622 -0.1963
 4979SOL    HW126570   3.210   4.459   1.798 -0.9380 -1.9563  0.8381
 4979SOL    HW226571   3.168   4.575   1.715 -0.8608 -0.6000 -0.9536
 4980SOL     OW26572   1.311   1.090   2.300 -0.0383  0.9861 -0.0707
 4980SOL    HW126573   1.377   1.159   2.307 -0.4032  1.5551 -2.1261
 4980SOL    HW226574   1.362   1.018   2.263 -1.6334  0.5372 -1.3731
 4981SOL     OW26575   1.169   0.469   4.576  0.3928  0.2748  0.5038
 4981SOL    HW126576   1.114   0.494   4.650 -0.0631 -0.6029  0.4642
 4981SOL    HW226577   1.099   0.437   4.519 -1.9730  0.2787  3.4167
 4982SOL     OW26578   1.494   2.079   2.610 -0.0888 -0.2491  0.3250
 4982SOL    HW126579   1.510   1.987   2.631  0.9484  0.0568  0.8489
 4982SOL    HW226580   1.469   2.123   2.692 -2.3635 -0.6829 -0.1473
 4983SOL     OW26581   1.735   4.675   9.544  0.2088  0.0812  0.8482
 4983SOL    HW126582   1.763   0.008   9.485 -1.0752  0.2756  0.4621
 4983SOL    HW226583   1.818   4.666   9.591  1.2752  0.6113 -0.8932
 4984SOL     OW26584   3.991   1.150   9.175 -0.3977  0.1438 -0.1197
 4984SOL    HW126585   4.064   1.113   9.225 -0.0986 -0.9865 -1.3588
 4984SOL    HW226586   4.006   1.244   9.184  0.9799  0.0195 -0.9317
 4985SOL     OW26587   2.032   2.848  13.805  0.3561  0.4464 -0.8144
 4985SOL    HW126588   2.073   2.773  13.848  1.7931  1.4480 -0.4418
 4985SOL    HW226589   2.021   2.906  13.880  0.1358 -1.5909  0.6972
 4986SOL     OW26590   1.611   4.388   4.864  0.0295  0.1205  0.3488
 4986SOL    HW126591   1.639   4.301   4.837  1.0024  0.9087 -1.1930
 4986SOL    HW226592   1.611   4.377   4.959 -3.8823 -1.0508  0.2259
 4987SOL     OW26593   1.302   2.766   5.599  0.3885 -0.2372 -0.3987
 4987SOL    HW126594   1.335   2.852   5.626 -0.7698  0.3153 -0.7711
 4987SOL    HW226595   1.281   2.785   5.508  0.7862  2.9573  0.1679
 4988SOL     OW26596   3.238   1.330   0.683 -0.5829 -0.1968 -0.7654
 4988SOL    HW126597   3.221   1.423   0.668 -0.8593 -0.1307 -0.0129
 4988SOL    HW226598   3.292   1.338   0.761 -0.9300  0.3892 -0.5859
 4989SOL     OW26599   1.549   0.793   2.018 -0.0284 -0.3965  0.3336
 4989SOL    HW126600   1.560   0.778   2.112  0.9537  2.8509  0.7349
 4989SOL    HW226601   1.634   0.758   1.991 -0.0210  0.0043 -0.1689
 4990SOL     OW26602   2.880   1.467   7.017 -0.2756  0.1466 -0.0317
 4990SOL    HW126603   2.883   1.378   7.053 -2.1995 -0.2431 -0.7924
 4990SOL    HW226604   2.826   1.513   7.081 -0.4529 -2.0458  1.4132
 4991SOL     OW26605   2.862   0.567   3.813  0.2155 -0.0538 -0.0188
 4991SOL    HW126606   2.807   0.623   3.867 -0.6178 -0.0519 -0.8562
 4991SOL    HW226607   2.835   0.482   3.849  1.4031 -0.5287 -0.2619
 4992SOL     OW26608   2.118   3.730   2.071  0.1273  0.0097  0.8610
 4992SOL    HW126609   2.052   3.770   2.127 -1.4548 -1.5500  0.1092
 4992SOL    HW226610   2.138   3.798   2.007 -0.0531  0.8216  1.6546
 4993SOL     OW26611   0.641   4.674   8.937  0.3702  0.6079  0.1396
 4993SOL    HW126612   0.650   4.597   8.994 -1.3783  0.4505  0.2183
 4993SOL    HW226613   0.731   4.701   8.917  0.6446  1.4253  2.4067
 4994SOL     OW26614   4.003   4.248   1.349  0.5758 -0.0731 -0.2916
 4994SOL    HW126615   3.963   4.200   1.422  0.6687 -1.3910 -1.0961
 4994SOL    HW226616   3.998   4.172   1.291 -1.1899 -0.9307  0.9759
 4995SOL     OW26617   3.834   0.356   5.959  0.5069  0.1225 -0.6174
 4995SOL    HW126618   3.791   0.361   5.874  1.1504  0.5405 -0.9190
 4995SOL    HW226619   3.927   0.354   5.937 -0.2358  0.1479 -3.7055
 4996SOL     OW26620   4.292   3.660   1.779  0.0535 -0.4242 -0.2094
 4996SOL    HW126621   4.373   3.676   1.828 -0.4895 -0.8131  0.7966
 4996SOL    HW226622   4.220   3.694   1.830 -1.6684 -2.4438 -1.2966
 4997SOL     OW26623   3.896   3.923   4.287  0.4782 -0.2573 -0.1741
 4997SOL    HW126624   3.870   3.867   4.360  0.8753 -0.9919 -0.5995
 4997SOL    HW226625   3.955   3.861   4.244  0.7300 -0.7713  0.9215
 4998SOL     OW26626   2.384   3.436   6.605 -0.4886 -0.2072 -0.0873
 4998SOL    HW126627   2.475   3.455   6.626 -0.3047  0.2433 -1.3483
 4998SOL    HW226628   2.358   3.525   6.585 -0.4325 -0.4127 -1.0791
 4999SOL     OW26629   3.820   1.950   9.081 -0.4742  0.2992 -0.6495
 4999SOL    HW126630   3.897   1.893   9.076 -0.9899 -0.7306  3.4393
 4999SOL    HW226631   3.841   2.005   9.005 -0.5102  0.7554 -0.3254
 5000SOL     OW26632   2.278   3.832  12.731 -0.4713 -0.1784  0.0609
 5000SOL    HW126633   2.326   3.859  12.809  2.7223  1.1847 -2.3756
 5000SOL    HW226634   2.328   3.752  12.713 -0.1297  0.1705 -0.5238
 5001SOL     OW26635   2.185   1.150   8.806 -0.5009  0.1192  0.2650
 5001SOL    HW126636   2.266   1.199   8.798  0.0904 -0.8217  0.5520
 5001SOL    HW226637   2.160   1.123   8.718  0.0058  2.5494 -0.6163
 5002SOL     OW26638   2.486   4.324   4.785 -0.8017  0.1018 -0.0987
 5002SOL    HW126639   2.505   4.368   4.702  0.6555  0.0377  0.2069
 5002SOL    HW226640   2.459   4.237   4.753  2.0439 -1.0433  0.6402
 5003SOL     OW26641   4.461   4.187   7.558 -0.1564  0.2975 -0.2729
 5003SOL    HW126642   4.474   4.213   7.649  2.0099 -0.4001 -0.3873
 5003SOL    HW226643   4.539   4.137   7.537 -1.4186 -1.2254 -1.3440
 5004SOL     OW26644   1.168   1.067   4.216  0.1476  0.1881 -0.1714
 5004SOL    HW126645   1.164   1.125   4.141  1.7078  1.7807  0.9719
 5004SOL    HW226646   1.201   0.982   4.187 -1.6036 -0.9357  1.1140
 5005SOL     OW26647   3.812   0.661   3.118  0.1758  0.2633 -0.2624
 5005SOL    HW126648   3.868   0.697   3.049 -1.1378 -0.7872 -1.8702
 5005SOL    HW226649   3.754   0.736   3.133  0.1335  0.1305  0.2289
 5006SOL     OW26650   2.112   4.459   3.235  0.0308 -0.3307 -0.3960
 5006SOL    HW126651   2.093   4.366   3.220  0.1803 -0.4238 -0.0112
 5006SOL    HW226652   2.082   4.459   3.326  0.1095  0.4179 -0.3669
 5007SOL     OW26653   1.110   3.163   1.939 -0.2352 -0.4643 -0.6238
 5007SOL    HW126654   1.054   3.114   1.879  0.3719  1.1105 -2.4403
 5007SOL    HW226655   1.098   3.250   1.902 -0.2187 -0.5618 -0.8576
 5008SOL     OW26656   2.042   2.972   5.717 -0.1735  0.2397 -0.2062
 5008SOL    HW126657   1.994   2.890   5.704  0.2508 -0.3386  1.9436
 5008SOL    HW226658   2.120   2.958   5.664  0.5280  0.2597  0.8333
 5009SOL     OW26659   3.050   2.142   4.973 -0.0638 -0.1476 -0.5571
 5009SOL    HW126660   2.962   2.117   5.001 -0.1723  2.3760  1.4264
 5009SOL    HW226661   3.034   2.211   4.908  1.7155 -0.3684 -1.2260
 5010SOL     OW26662   0.137   4.270   2.081 -0.0775 -0.3494 -0.0213
 5010SOL    HW126663   0.130   4.260   2.176  3.3937 -0.4930  0.2364
 5010SOL    HW226664   0.048   4.277   2.047 -1.1203 -1.6597  2.4320
 5011SOL     OW26665   1.070   0.933   6.924 -0.0524  0.4043 -0.7880
 5011SOL    HW126666   1.106   0.896   6.843  0.0810  1.1271 -1.0511
 5011SOL    HW226667   1.149   0.976   6.955  1.2602 -2.0152 -0.7248
 5012SOL     OW26668   2.555   1.421   4.975  0.7540 -0.0365  0.3051
 5012SOL    HW126669   2.459   1.418   4.980  0.6045 -0.5148 -2.8716
 5012SOL    HW226670   2.582   1.467   5.054  1.3380  2.8953 -1.5656
 5013SOL     OW26671   3.819   2.476   6.172  0.6906 -0.5450  0.0903
 5013SOL    HW126672   3.780   2.480   6.084 -1.7466 -0.9445  1.1565
 5013SOL    HW226673   3.844   2.385   6.184  2.2739  0.3142  3.1573
 5014SOL     OW26674   4.357   4.395   9.307  0.0073  0.7401  0.1609
 5014SOL    HW126675   4.391   4.383   9.396  0.2793  0.0085 -0.0404
 5014SOL    HW226676   4.340   4.489   9.312 -0.3486  0.7183 -0.6791
 5015SOL     OW26677   2.935   2.544   1.280 -0.4890 -0.1406  0.7312
 5015SOL    HW126678   2.898   2.605   1.344 -4.3831 -3.4350  1.6398
 5015SOL    HW226679   2.870   2.479   1.310 -0.1048 -0.0007  1.8770
 5016SOL     OW26680   0.564   1.843   3.493  0.1924  0.6004  0.0408
 5016SOL    HW126681   0.541   1.783   3.564  3.2017  1.8338  2.0482
 5016SOL    HW226682   0.658   1.855   3.502  0.3299  0.0524 -0.6485
 5017SOL     OW26683   0.045   0.304   2.756 -0.5851  0.2175  0.0532
 5017SOL    HW126684   0.065   0.223   2.710  1.7351  0.7758  0.1020
 5017SOL    HW226685   0.075   0.365   2.688 -0.0250 -2.7796 -2.3697
 5018SOL     OW26686   0.602   4.374   6.511 -0.1932 -0.1404 -0.3451
 5018SOL    HW126687   0.598   4.379   6.607  0.3839 -0.4165 -0.3062
 5018SOL    HW226688   0.694   4.348   6.511 -0.0208  0.4689  0.1613
 5019SOL     OW26689   4.147   1.511   3.169 -0.0334  0.0155 -0.1145
 5019SOL    HW126690   4.126   1.475   3.083 -0.9188  3.1186 -1.2013
 5019SOL    HW226691   4.089   1.587   3.173 -0.3374 -0.3412  2.1923
 5020SOL     OW26692   3.806   2.485   7.250  0.4095 -0.0561  0.0239
 5020SOL    HW126693   3.759   2.424   7.308  3.1726  0.1620  2.5116
 5020SOL    HW226694   3.748   2.560   7.255 -0.1085 -0.3307 -2.1437
 5021SOL     OW26695   3.733   1.175   9.252 -0.0106  0.4481 -0.2057
 5021SOL    HW126696   3.743   1.259   9.297  1.3060 -0.2092  0.7254
 5021SOL    HW226697   3.824   1.152   9.233 -1.0203 -2.1699 -1.9431
 5022SOL     OW26698   2.977   3.933   2.520 -0.1471 -0.3041  0.1092
 5022SOL    HW126699   2.901   3.949   2.464 -1.4759 -0.0102  2.0136
 5022SOL    HW226700   2.990   4.019   2.560 -1.5059  0.7718 -1.7677
 5023SOL     OW26701   3.364   1.038   0.635  0.1572 -0.0093  0.3059
 5023SOL    HW126702   3.316   1.120   0.644 -1.3642 -0.9408  0.9020
 5023SOL    HW226703   3.313   0.993   0.567  0.7365 -0.3922  0.1253
 5024SOL     OW26704   1.275   2.865   6.677  0.3497 -0.5319 -0.0658
 5024SOL    HW126705   1.220   2.815   6.616 -3.1956  0.1447  2.5737
 5024SOL    HW226706   1.204   2.889   6.736  1.7648 -1.3818  1.9690
 5025SOL     OW26707   2.760   3.736   6.484 -0.3881 -0.3786  0.3164
 5025SOL    HW126708   2.844   3.723   6.527 -0.0108 -1.9243 -0.8993
 5025SOL    HW226709   2.771   3.831   6.481  1.6703 -0.6249 -0.0864
 5026SOL     OW26710   2.283   0.804   6.945  0.1130  0.4185 -0.2090
 5026SOL    HW126711   2.279   0.891   6.983  3.8004  1.1584 -1.5087
 5026SOL    HW226712   2.214   0.814   6.879 -0.0972  2.9877  0.4172
 5027SOL     OW26713   0.607   0.169   2.032  0.0846  0.7433  0.2693
 5027SOL    HW126714   0.697   0.161   2.000  0.4456  0.3247  1.3991
 5027SOL    HW226715   0.584   0.077   2.047 -0.7270  0.7520 -0.8885
 5028SOL     OW26716   1.741   4.714   8.330  0.2927 -0.3878  0.9197
 5028SOL    HW126717   1.725   4.665   8.249  0.7155  0.1051  0.5433
 5028SOL    HW226718   1.748   4.635   8.384  0.2971  1.7801  4.0462
 5029SOL     OW26719   0.006   3.867  13.455  0.7767  0.4207 -0.1032
 5029SOL    HW126720   4.732   3.961  13.470 -0.5189  0.3895 -0.8266
 5029SOL    HW226721   0.017   3.829  13.543  1.0143  0.8847  0.0662
 5030SOL     OW26722   2.419   3.661   5.346  0.2522 -0.3049  0.2407
 5030SOL    HW126723   2.405   3.678   5.439  0.1389 -0.5657  0.2718
 5030SOL    HW226724   2.470   3.580   5.352 -0.7038 -0.8301  1.3410
 5031SOL     OW26725   0.283   0.478   4.808  0.0023  0.4669 -0.6183
 5031SOL    HW126726   0.305   0.518   4.724 -1.6201 -1.6899 -2.0475
 5031SOL    HW226727   0.240   0.394   4.792 -1.7706  1.0716  1.0251
 5032SOL     OW26728   3.873   2.543  13.451 -0.1591 -0.0927 -0.0436
 5032SOL    HW126729   3.804   2.491  13.410  2.2023 -3.5438  0.3018
 5032SOL    HW226730   3.939   2.539  13.382  2.3866  0.4231  2.3642
 5033SOL     OW26731   2.686   3.199  10.006  0.4925  0.2711  0.0208
 5033SOL    HW126732   2.645   3.132   9.951 -1.5977 -0.1469  2.0915
 5033SOL    HW226733   2.740   3.145  10.062 -0.1399 -1.1583 -0.7352
 5034SOL     OW26734   4.731   3.643   4.002 -0.3340  0.0076 -0.3770
 5034SOL    HW126735   4.713   3.549   4.014 -1.4600  0.1237 -1.2161
 5034SOL    HW226736   4.682   3.672   3.926 -1.0829  2.3747  1.0225
 5035SOL     OW26737   4.446   2.750   3.491 -0.5009 -0.5776  0.3385
 5035SOL    HW126738   4.531   2.708   3.497 -0.9885 -1.5545  0.3428
 5035SOL    HW226739   4.472   2.836   3.524  2.4743 -1.4646  0.2791
 5036SOL     OW26740   3.588   2.032  10.435  0.4716  0.0155 -0.1100
 5036SOL    HW126741   3.533   2.048  10.359 -0.1299 -0.3233  0.2590
 5036SOL    HW226742   3.545   1.952  10.465  0.2686 -0.2782 -1.1653
 5037SOL     OW26743   0.560   0.370   4.155 -0.1541 -0.0055 -0.1100
 5037SOL    HW126744   0.532   0.419   4.232 -1.3865  1.4343 -1.4755
 5037SOL    HW226745   0.574   0.280   4.184  1.0838  0.7267  1.5490
 5038SOL     OW26746   3.581   4.652   2.608 -0.1497 -0.0525 -0.1199
 5038SOL    HW126747   3.573   4.683   2.518  2.1524  4.4166  1.2514
 5038SOL    HW226748   3.664   4.693   2.629 -0.3772  0.1837  0.3336
 5039SOL     OW26749   3.374   1.325   1.900 -0.3982  0.0962  0.0449
 5039SOL    HW126750   3.337   1.338   1.812 -0.2734  0.3186  0.0257
 5039SOL    HW226751   3.332   1.395   1.949 -1.5064  0.6371 -1.6850
 5040SOL     OW26752   0.195   1.664   5.972  0.1101  0.2401  0.2953
 5040SOL    HW126753   0.241   1.738   6.013  0.2849 -0.1823  0.8598
 5040SOL    HW226754   0.247   1.588   5.996 -1.7129 -1.3663 -0.8408
 5041SOL     OW26755   2.665   1.375   5.923  0.8298 -0.9889  0.3060
 5041SOL    HW126756   2.590   1.329   5.961  0.0827 -0.1477 -0.1379
 5041SOL    HW226757   2.747   1.347   5.964  0.5738  0.5530  1.9177
 5042SOL     OW26758   2.198   0.564  12.817 -0.4986  0.5004 -0.1088
 5042SOL    HW126759   2.193   0.469  12.801  0.5459  0.3562  0.4027
 5042SOL    HW226760   2.254   0.563  12.894  1.0100 -0.9094 -1.1974
 5043SOL     OW26761   2.133   0.766   3.511  0.0381 -0.5739  0.1622
 5043SOL    HW126762   2.181   0.805   3.584 -1.1784 -0.7303  1.0302
 5043SOL    HW226763   2.043   0.771   3.543  0.3864  0.2196  1.0291
 5044SOL     OW26764   4.519   2.198   3.143  0.2046  0.4538  0.0674
 5044SOL    HW126765   4.592   2.243   3.100  1.1073 -0.8092  0.2947
 5044SOL    HW226766   4.481   2.269   3.196 -1.3404  1.1498 -1.9545
 5045SOL     OW26767   4.707   2.306   2.961 -0.1327 -0.8042  0.2561
 5045SOL    HW126768   4.681   2.391   2.925 -1.2337 -0.6155  1.4635
 5045SOL    HW226769   4.662   2.252   2.896  0.8426 -1.3992  0.0799
 5046SOL     OW26770   2.894   1.419  10.769 -0.3000 -0.0696 -0.0578
 5046SOL    HW126771   2.832   1.448  10.703  1.8435 -0.4950 -2.2416
 5046SOL    HW226772   2.957   1.372  10.714  0.0039  0.0997  0.1445
 5047SOL     OW26773   1.930   3.226   5.554 -0.2572  0.1542  0.1803
 5047SOL    HW126774   1.953   3.299   5.496 -2.6031 -0.0679 -1.0327
 5047SOL    HW226775   1.863   3.274   5.603 -0.1704 -1.3870  1.8123
 5048SOL     OW26776   4.194   4.009   5.889  0.5117  0.7008  0.4389
 5048SOL    HW126777   4.165   3.918   5.879  0.0239  0.6688  2.1498
 5048SOL    HW226778   4.108   4.049   5.899  0.1586 -0.2922  1.3997
 5049SOL     OW26779   3.294   1.179  16.742 -0.0606  0.6286 -0.6507
 5049SOL    HW126780   3.241   1.131  16.678 -0.1826 -0.1203  0.0155
 5049SOL    HW226781   3.345   1.234  16.683 -1.4616  1.1595 -1.3647
 5050SOL     OW26782   2.537   1.712   2.794 -0.1761  0.5468 -0.2382
 5050SOL    HW126783   2.578   1.737   2.877 -1.7762  1.9490  0.1435
 5050SOL    HW226784   2.451   1.749   2.816  0.8283  2.9080 -0.2584
 5051SOL     OW26785   2.194   1.428  10.321 -0.2504 -0.2643 -0.8138
 5051SOL    HW126786   2.164   1.372  10.393 -0.0298  1.0332  0.2744
 5051SOL    HW226787   2.276   1.462  10.355  0.7891 -2.3291 -1.2306
 5052SOL     OW26788   4.121   0.733   9.625  0.0698 -0.0301  0.3048
 5052SOL    HW126789   4.132   0.827   9.640  1.1612 -0.1131 -0.0234
 5052SOL    HW226790   4.063   0.722   9.701 -1.7962  0.3200 -1.0670
 5053SOL     OW26791   3.332   4.200   0.201 -0.5279  0.0196 -0.1680
 5053SOL    HW126792   3.390   4.275   0.207 -0.2121 -0.2402  0.0244
 5053SOL    HW226793   3.393   4.131   0.226 -0.5440  0.6964  1.7036
 5054SOL     OW26794   3.425   2.764   6.648  0.7434  0.1196 -0.5748
 5054SOL    HW126795   3.344   2.749   6.600 -0.2422  1.2428  0.7432
 5054SOL    HW226796   3.486   2.786   6.577  0.1165  3.9124  0.0376
 5055SOL     OW26797   0.476   3.009   9.262  0.0447 -0.1794  0.2091
 5055SOL    HW126798   0.448   3.098   9.238 -2.2532 -1.1095 -0.5491
 5055SOL    HW226799   0.421   2.995   9.339  2.6698 -0.3792  2.0366
 5056SOL     OW26800   2.798   0.737  14.022 -0.5540 -0.0714 -0.1873
 5056SOL    HW126801   2.786   0.831  14.038  1.9422  0.1285  0.3810
 5056SOL    HW226802   2.893   0.730  14.013 -0.4298  0.9425  0.2893
 5057SOL     OW26803   3.376   4.735  12.669  0.2647 -0.1193 -0.8787
 5057SOL    HW126804   3.355   4.646  12.699  0.9211  0.1193  0.2848
 5057SOL    HW226805   3.454   4.721  12.615  2.9981 -0.7227  3.2262
 5058SOL     OW26806   0.813   3.815  12.012  0.8652 -0.2833  0.0806
 5058SOL    HW126807   0.829   3.903  12.044 -3.2624  1.2844 -2.1647
 5058SOL    HW226808   0.895   3.797  11.966  0.5143  1.2972 -1.1495
 5059SOL     OW26809   1.815   4.690   6.171  0.4039 -0.4153 -0.1648
 5059SOL    HW126810   1.780   4.726   6.090  1.8324  0.4532 -0.4011
 5059SOL    HW226811   1.773   0.009   6.236  2.5438  0.0466  0.8266
 5060SOL     OW26812   3.214   3.514   6.947  0.0577  0.1894 -0.3506
 5060SOL    HW126813   3.274   3.570   6.997 -1.4214 -0.8466  2.5988
 5060SOL    HW226814   3.259   3.471   6.874 -1.2135 -1.5564 -0.1132
 5061SOL     OW26815   2.822   3.279   8.446  0.6097 -0.0437 -0.2374
 5061SOL    HW126816   2.778   3.337   8.384  1.6411  0.8416 -0.1442
 5061SOL    HW226817   2.756   3.210   8.454  1.3910 -0.4754  2.4751
 5062SOL     OW26818   0.636   3.669   9.109  0.6727  0.6725  0.1232
 5062SOL    HW126819   0.716   3.711   9.139  1.7547  0.0615 -1.9178
 5062SOL    HW226820   0.670   3.660   9.020 -0.5185 -0.5757 -0.2054
 5063SOL     OW26821   2.606   4.113   2.525  0.3379 -0.1205  0.0844
 5063SOL    HW126822   2.532   4.080   2.476  0.6452  0.5746 -0.8478
 5063SOL    HW226823   2.616   4.061   2.605  0.5330 -0.1071  0.0704
 5064SOL     OW26824   0.563   2.401   0.128 -0.4452  0.3862 -0.1739
 5064SOL    HW126825   0.607   2.349   0.061  0.3494  1.7838 -0.7356
 5064SOL    HW226826   0.589   2.350   0.205 -1.1555 -1.1789 -0.9632
 5065SOL     OW26827   1.626   1.508  14.714  0.5064  0.2233 -0.3056
 5065SOL    HW126828   1.620   1.420  14.676 -0.3216  0.9677 -1.8870
 5065SOL    HW226829   1.620   1.565  14.638  0.8578 -0.2129 -0.6650
 5066SOL     OW26830   0.847   1.275  12.188  0.3656 -0.0248  0.0309
 5066SOL    HW126831   0.775   1.323  12.147 -0.5884 -1.2763  0.2046
 5066SOL    HW226832   0.907   1.243  12.120  1.1714  0.0493  0.7087
 5067SOL     OW26833   4.250   0.527  10.706  0.2671  0.2436 -0.6987
 5067SOL    HW126834   4.273   0.542  10.614  0.1288  0.2177 -0.7380
 5067SOL    HW226835   4.259   0.619  10.732 -0.9356 -0.6422  2.8462
 5068SOL     OW26836   0.181   0.086   1.927  0.2088 -0.2175  0.1628
 5068SOL    HW126837   0.185   0.033   1.847 -0.9814 -0.7687  0.4656
 5068SOL    HW226838   0.176   0.018   1.995  0.7052 -2.2897 -1.8576
 5069SOL     OW26839   3.523   2.306   5.424  0.4362  0.0079 -0.1638
 5069SOL    HW126840   3.568   2.231   5.465  0.0873  0.7499  1.5829
 5069SOL    HW226841   3.455   2.310   5.491  1.8417 -0.6507  1.3090
 5070SOL     OW26842   3.759   0.648   9.612  0.3357  0.3289  0.4332
 5070SOL    HW126843   3.700   0.609   9.677  1.6188  0.9974  1.9979
 5070SOL    HW226844   3.719   0.727   9.577 -0.2684  0.0744  0.5339
 5071SOL     OW26845   1.757   1.078   2.601 -0.0169 -0.9241 -0.0090
 5071SOL    HW126846   1.755   1.043   2.690  1.9001  1.9064  1.1283
 5071SOL    HW226847   1.848   1.052   2.585  0.5630  1.8175 -1.0748
 5072SOL     OW26848   2.317   0.106   3.233  0.4623 -0.7027  0.2902
 5072SOL    HW126849   2.387   0.168   3.253  0.3701 -1.3550  2.5525
 5072SOL    HW226850   2.254   0.174   3.208  0.2349 -0.0823  2.5314
 5073SOL     OW26851   0.219   3.572   5.654 -0.4055  0.9384  0.6855
 5073SOL    HW126852   0.305   3.576   5.612 -1.1015  0.1200 -0.8010
 5073SOL    HW226853   0.182   3.642   5.601  0.3110 -0.3840 -1.5389
 5074SOL     OW26854   1.673   1.247   7.020 -0.3574 -0.2022 -0.0143
 5074SOL    HW126855   1.759   1.271   7.056 -0.0203 -2.9106  0.9406
 5074SOL    HW226856   1.663   1.160   7.058 -3.5196  0.4541  0.6766
 5075SOL     OW26857   4.288   1.674  11.842 -0.4613  0.7866 -0.5671
 5075SOL    HW126858   4.309   1.608  11.777  0.2988  0.2173  0.2614
 5075SOL    HW226859   4.201   1.653  11.877 -0.5025 -1.3255 -1.9140
 5076SOL     OW26860   2.972   4.325   3.291  0.2222  0.5203 -0.1008
 5076SOL    HW126861   3.053   4.324   3.239  0.8362 -0.1697  0.8898
 5076SOL    HW226862   2.957   4.231   3.295 -2.4784  0.8873 -1.2748
 5077SOL     OW26863   4.337   4.704   3.463  0.2589 -0.3773  0.2038
 5077SOL    HW126864   4.355   0.040   3.405 -1.5552 -0.8226 -0.9335
 5077SOL    HW226865   4.244   4.686   3.450  0.2365  1.6873 -2.3765
 5078SOL     OW26866   4.469   1.060   8.125 -0.0412 -0.0945  0.1734
 5078SOL    HW126867   4.523   1.071   8.204  0.1133 -1.4595  0.2548
 5078SOL    HW226868   4.493   0.970   8.104 -1.0609 -0.2300 -0.3694
 5079SOL     OW26869   4.516   3.929   1.159  0.0127  0.0598  0.5170
 5079SOL    HW126870   4.512   3.836   1.180  1.8824 -0.5164 -1.5721
 5079SOL    HW226871   4.572   3.924   1.081  0.3839  1.1297  0.7029
 5080SOL     OW26872   4.345   1.008   5.812 -0.7061  0.1404  0.1299
 5080SOL    HW126873   4.320   0.997   5.904  0.3657  0.6098  0.4704
 5080SOL    HW226874   4.386   1.094   5.821 -0.9454  0.3784 -1.0530
 5081SOL     OW26875   3.988   2.182   4.738 -0.1342  0.0972  0.0452
 5081SOL    HW126876   4.057   2.205   4.801 -1.2686 -1.0362  1.7140
 5081SOL    HW226877   3.933   2.259   4.755 -0.1699  0.1739 -0.4289
 5082SOL     OW26878   3.343   4.424   1.426 -0.3231 -0.3100 -1.1730
 5082SOL    HW126879   3.358   4.403   1.518  0.0157 -0.4771 -1.2632
 5082SOL    HW226880   3.392   4.506   1.422 -3.2357  1.5904  2.2373
 5083SOL     OW26881   3.412   2.965  14.447  0.3323 -0.2853 -0.1400
 5083SOL    HW126882   3.449   3.045  14.409 -0.3942  0.8014  1.4631
 5083SOL    HW226883   3.324   2.964  14.410  0.0826  2.4129  0.3850
 5084SOL     OW26884   2.807   4.653   7.274 -0.3275  0.4050  0.0730
 5084SOL    HW126885   2.879   4.704   7.310 -0.1479 -0.8642  1.5039
 5084SOL    HW226886   2.742   4.722   7.255 -0.6200  0.7654  2.4257
 5085SOL     OW26887   0.933   3.442   3.255  0.0136  0.2953 -0.5270
 5085SOL    HW126888   0.917   3.473   3.166 -1.1422  1.6092  0.1363
 5085SOL    HW226889   0.991   3.515   3.276  1.4651 -1.2425  0.8225
 5086SOL     OW26890   2.799   0.199   8.270  0.2751  0.6119 -0.2420
 5086SOL    HW126891   2.714   0.214   8.311  0.3644  0.5650 -0.0363
 5086SOL    HW226892   2.772   0.208   8.179 -1.0625  1.5662  0.2474
 5087SOL     OW26893   0.579   4.221  13.469  0.2142 -0.1984 -0.3448
 5087SOL    HW126894   0.518   4.199  13.540 -0.2516  4.4659  0.6942
 5087SOL    HW226895   0.661   4.246  13.512  0.6431  0.0178 -1.2937
 5088SOL     OW26896   2.746   0.961   0.663 -0.5359 -0.1210 -0.6701
 5088SOL    HW126897   2.760   1.049   0.700  0.2835 -1.6125  2.6297
 5088SOL    HW226898   2.786   0.907   0.732  1.6806  0.1990 -1.7233
 5089SOL     OW26899   3.856   4.239   6.904 -0.1586  0.3128 -0.3902
 5089SOL    HW126900   3.946   4.213   6.883  0.5911  2.6731 -0.0878
 5089SOL    HW226901   3.879   4.328   6.931 -0.0767 -0.0862  0.8533
 5090SOL     OW26902   1.348   3.797   2.681  0.1286  0.5991 -0.5312
 5090SOL    HW126903   1.286   3.869   2.684  0.8214  1.1359  0.8244
 5090SOL    HW226904   1.352   3.774   2.773 -1.1867 -1.1484 -0.9005
 5091SOL     OW26905   3.292   0.128   8.136  0.1613  0.8488  0.5348
 5091SOL    HW126906   3.360   0.072   8.172 -2.0988 -0.8484  2.1181
 5091SOL    HW226907   3.229   0.103   8.203 -0.2257  3.0820  1.0013
 5092SOL     OW26908   3.085   0.738   6.841  0.0341  0.0634  0.1195
 5092SOL    HW126909   3.081   0.834   6.838 -1.3418  0.0141  0.4555
 5092SOL    HW226910   3.172   0.714   6.808 -0.9018 -0.2120 -2.1566
 5093SOL     OW26911   1.148   0.854   3.551 -0.4851 -0.3064  0.4547
 5093SOL    HW126912   1.120   0.890   3.467 -0.2154  0.3671  0.6478
 5093SOL    HW226913   1.241   0.849   3.529 -0.9414 -0.7946 -1.3288
 5094SOL     OW26914   1.282   1.681  17.596 -0.0726 -0.1316 -0.0222
 5094SOL    HW126915   1.247   1.595  17.571 -0.8658 -0.4176  2.0933
 5094SOL    HW226916   1.218   1.742  17.558 -0.8896 -2.1952 -1.9880
 5095SOL     OW26917   0.766   0.247  14.482 -0.4414  0.5489  0.0944
 5095SOL    HW126918   0.826   0.175  14.462 -0.0191  0.6910  0.8450
 5095SOL    HW226919   0.682   0.218  14.446 -0.0985  0.0541 -0.3064
 5096SOL     OW26920   4.377   4.470   5.564 -0.2369 -0.2920 -0.2442
 5096SOL    HW126921   4.305   4.418   5.599 -0.5291  0.4558  0.2724
 5096SOL    HW226922   4.435   4.468   5.640 -0.7335  0.1278  0.1481
 5097SOL     OW26923   0.986   2.459   3.990 -0.2351 -0.4816  0.1202
 5097SOL    HW126924   0.984   2.551   4.016 -1.0879 -0.8708  1.4491
 5097SOL    HW226925   0.896   2.443   3.960  0.2207 -0.6303 -1.1798
 5098SOL     OW26926   1.404   2.243   4.881  0.1053 -0.5760 -0.2014
 5098SOL    HW126927   1.332   2.287   4.836  0.4113  1.0529  0.9257
 5098SOL    HW226928   1.378   2.152   4.866 -1.5201 -0.3089  1.0037
 5099SOL     OW26929   3.821   0.024  17.471  0.3336  0.1708 -0.5694
 5099SOL    HW126930   3.799   0.115  17.491 -0.3604 -0.7735  3.0132
 5099SOL    HW226931   3.755   0.020  17.401  1.9509 -0.9314 -2.0215
 5100SOL     OW26932   0.520   1.914   4.022  0.0107  0.0907 -0.0320
 5100SOL    HW126933   0.438   1.949   4.058 -0.2347  2.0539 -2.4939
 5100SOL    HW226934   0.570   1.893   4.101  0.4725 -5.4415 -1.8050
 5101SOL     OW26935   3.263   0.819   8.699 -0.0230 -0.7333 -0.1913
 5101SOL    HW126936   3.322   0.748   8.672  1.9391  1.3020 -1.2345
 5101SOL    HW226937   3.178   0.782   8.722  0.0002  0.0692  1.1775
 5102SOL     OW26938   0.683   0.225   8.418  0.2666  0.1487 -0.4474
 5102SOL    HW126939   0.741   0.159   8.379 -1.0435 -0.0285 -2.0819
 5102SOL    HW226940   0.741   0.296   8.446  0.8200 -0.1882 -0.7335
 5103SOL     OW26941   0.250   3.788   1.875  0.4875  0.2909  0.3382
 5103SOL    HW126942   0.247   3.834   1.791 -0.5587  0.3710  0.4264
 5103SOL    HW226943   0.218   3.704   1.842  0.3431 -0.4511  2.3853
 5104SOL     OW26944   4.480   1.179  14.747  0.1001  0.6523  0.3789
 5104SOL    HW126945   4.480   1.098  14.696 -0.3986 -0.1536  1.6562
 5104SOL    HW226946   4.468   1.241  14.675 -0.9561  0.6224  0.5174
 5105SOL     OW26947   4.451   2.909   1.940  0.0499 -0.3617 -0.1356
 5105SOL    HW126948   4.449   2.867   2.026 -1.9804 -0.8837 -0.4432
 5105SOL    HW226949   4.391   2.983   1.944  0.7821  0.2835 -1.1828
 5106SOL     OW26950   0.879   2.543   8.882 -0.5710  0.4280 -0.0465
 5106SOL    HW126951   0.856   2.471   8.941  0.1222  1.0437  0.9870
 5106SOL    HW226952   0.974   2.549   8.888 -0.3747  0.3812 -3.0605
 5107SOL     OW26953   3.581   3.766   3.900  0.1252 -0.5098  0.3182
 5107SOL    HW126954   3.505   3.708   3.901  0.0314 -0.3855  0.0751
 5107SOL    HW226955   3.617   3.741   3.986  1.6950 -2.1105 -0.8096
 5108SOL     OW26956   3.162   0.273  11.263 -0.1399  0.1049  0.4835
 5108SOL    HW126957   3.167   0.364  11.293  0.5713  1.4418 -3.6233
 5108SOL    HW226958   3.195   0.285  11.174  0.2892 -2.3335  0.3162
 5109SOL     OW26959   0.290   3.142   7.456 -0.4432 -0.4382  0.5038
 5109SOL    HW126960   0.223   3.198   7.496 -2.4926 -1.4529 -1.5292
 5109SOL    HW226961   0.328   3.108   7.537  3.1388  0.9237 -0.6067
 5110SOL     OW26962   3.479   2.902   4.493  0.6413  0.2101 -0.1117
 5110SOL    HW126963   3.525   2.959   4.432 -0.2141  3.0547  1.9103
 5110SOL    HW226964   3.469   2.950   4.575  0.9731  0.4759 -0.2266
 5111SOL     OW26965   2.453   0.555  14.822 -0.0929 -0.0144 -0.4039
 5111SOL    HW126966   2.381   0.599  14.868  1.7436  0.8623  1.6414
 5111SOL    HW226967   2.422   0.566  14.732 -0.4971  0.9096 -0.1563
 5112SOL     OW26968   1.191   2.146   3.205 -0.0723  0.3913  0.4062
 5112SOL    HW126969   1.259   2.079   3.204 -2.1959 -1.7482  0.6697
 5112SOL    HW226970   1.234   2.210   3.262  0.6755 -0.8730  1.2690
 5113SOL     OW26971   2.696   1.562   2.026 -0.0990 -0.5342 -0.3593
 5113SOL    HW126972   2.635   1.613   1.972 -1.3305 -0.0548  1.4627
 5113SOL    HW226973   2.782   1.581   1.989 -0.3519  0.2166 -0.5504
 5114SOL     OW26974   4.107   2.432  10.563 -0.1771 -0.5518  0.0822
 5114SOL    HW126975   4.081   2.484  10.488 -0.6553 -0.8516  0.0354
 5114SOL    HW226976   4.072   2.484  10.635  0.5493  1.1840 -0.8386
 5115SOL     OW26977   3.832   2.171   3.896 -0.3621 -0.0978 -0.3184
 5115SOL    HW126978   3.776   2.207   3.965  0.8364 -1.0462  1.1667
 5115SOL    HW226979   3.807   2.079   3.904  2.9947 -1.1232 -1.3709
 5116SOL     OW26980   1.074   4.276   6.263  0.4935  0.1641  0.2163
 5116SOL    HW126981   1.117   4.350   6.305 -0.5868 -0.3540  2.2767
 5116SOL    HW226982   1.152   4.241   6.220  0.2714  1.5586 -1.3086
 5117SOL     OW26983   2.042   3.444   4.370  0.0444 -0.8173  0.2241
 5117SOL    HW126984   1.977   3.379   4.398  0.9660 -1.6654  0.3732
 5117SOL    HW226985   2.120   3.417   4.419  0.2475 -1.3661 -0.4129
 5118SOL     OW26986   2.406   1.222  11.427  0.1224  0.4993  0.6552
 5118SOL    HW126987   2.316   1.193  11.412  0.7930  0.8720 -4.3926
 5118SOL    HW226988   2.389   1.310  11.459  1.2791  0.2169  2.0123
 5119SOL     OW26989   1.481   1.768   7.633  0.4857 -0.1271  0.2307
 5119SOL    HW126990   1.473   1.727   7.547 -0.3346  0.5694 -0.0253
 5119SOL    HW226991   1.470   1.698   7.698 -0.2754  0.3611  0.6218
 5120SOL     OW26992   3.303   1.542  13.621  0.3478 -0.0091  0.3678
 5120SOL    HW126993   3.280   1.528  13.712 -0.6902 -0.4964  0.0321
 5120SOL    HW226994   3.368   1.612  13.629 -0.9924  1.3797 -1.0449
 5121SOL     OW26995   3.598   1.931   3.718  0.3897 -0.2720 -0.3796
 5121SOL    HW126996   3.516   1.931   3.768  0.8222 -0.0979  0.3258
 5121SOL    HW226997   3.663   1.920   3.787 -0.7356 -0.5146  0.6538
 5122SOL     OW26998   1.283   1.317   7.108 -0.1195 -0.1123  0.3766
 5122SOL    HW126999   1.197   1.343   7.075 -0.8410  0.6831  2.8983
 5122SOL    HW227000   1.295   1.226   7.078 -1.8289  0.7803 -3.0749
 5123SOL     OW27001   1.823   2.699   7.555 -0.0543 -0.4752  0.2052
 5123SOL    HW127002   1.779   2.614   7.549  0.0754 -0.4513 -0.9714
 5123SOL    HW227003   1.766   2.750   7.498  0.7755  0.8052  0.5356
 5124SOL     OW27004   4.072   4.047  15.650 -0.1501 -0.8467  0.0402
 5124SOL    HW127005   4.022   4.127  15.662  0.9071  0.1568 -2.1149
 5124SOL    HW227006   4.104   4.068  15.562  0.9541 -0.4491  0.5380
 5125SOL     OW27007   0.466   2.842   7.756 -0.4631  0.2478 -0.1951
 5125SOL    HW127008   0.429   2.795   7.682 -0.4798  1.1178 -0.7378
 5125SOL    HW227009   0.553   2.802   7.752 -0.4503  0.4276 -1.8141
 5126SOL     OW27010   1.382   3.230   7.474 -0.0407 -0.6345 -0.3944
 5126SOL    HW127011   1.367   3.138   7.453  1.0426 -0.9241  0.1347
 5126SOL    HW227012   1.409   3.257   7.386  0.2988  0.0411 -0.0801
 5127SOL     OW27013   0.219   0.794   1.696 -0.1272 -0.0629  0.5105
 5127SOL    HW127014   0.144   0.795   1.756 -0.4716  1.0175  0.0728
 5127SOL    HW227015   0.231   0.699   1.694  2.8670  0.2939  1.7857
 5128SOL     OW27016   4.643   0.261   5.285 -0.0369  0.4577 -0.2073
 5128SOL    HW127017   4.647   0.353   5.259  2.0141  0.2491 -0.6116
 5128SOL    HW227018   4.716   0.251   5.346 -0.5614 -0.5246  0.2655
 5129SOL     OW27019   1.191   0.347   2.267  0.2832 -0.2973  0.0657
 5129SOL    HW127020   1.263   0.316   2.322  1.2160 -0.0788 -1.0189
 5129SOL    HW227021   1.219   0.326   2.177 -1.4078 -0.3305 -0.4492
 5130SOL     OW27022   0.040   3.166   0.242  0.0459  0.8019 -0.1576
 5130SOL    HW127023   4.723   3.203   0.311 -2.0465 -0.4496 -1.1299
 5130SOL    HW227024   0.036   3.238   0.179 -2.7721  0.1778 -0.6850
 5131SOL     OW27025   2.418   4.676  12.767 -0.0975  0.3386  0.0715
 5131SOL    HW127026   2.449   4.595  12.807  1.1719 -0.4106 -2.4000
 5131SOL    HW227027   2.491   4.736  12.787  0.4090 -0.1626 -0.2791
 5132SOL     OW27028   4.652   3.576  10.060 -0.2796  0.0902 -0.1882
 5132SOL    HW127029   4.653   3.518  10.137 -0.6582 -0.5344 -0.6566
 5132SOL    HW227030   4.701   3.652  10.092  0.2416  0.4553 -1.8483
 5133SOL     OW27031   0.150   2.302   8.913 -0.1370  0.3351  0.4386
 5133SOL    HW127032   0.149   2.347   8.997  1.4532 -2.9787  2.2305
 5133SOL    HW227033   0.238   2.269   8.897  0.2644  1.1009  1.0936
 5134SOL     OW27034   2.183   1.743   1.344  0.0638 -0.2391 -0.0675
 5134SOL    HW127035   2.127   1.799   1.398 -1.0729 -1.4070 -0.0556
 5134SOL    HW227036   2.241   1.706   1.411 -0.7545 -0.4702  0.5086
 5135SOL     OW27037   1.373   0.974   9.504  0.2990  0.0526 -1.1408
 5135SOL    HW127038   1.296   0.958   9.450 -0.8317  0.2476  0.4216
 5135SOL    HW227039   1.408   0.890   9.534  0.3250  0.3708 -0.2724
 5136SOL     OW27040   0.891   3.488  16.914 -0.4403 -0.1553  0.0596
 5136SOL    HW127041   0.832   3.472  16.840  0.3423 -1.6330 -0.2353
 5136SOL    HW227042   0.957   3.536  16.864  0.1312  0.1364  1.0902
 5137SOL     OW27043   2.618   0.265   4.311 -0.0093  0.5795 -0.2531
 5137SOL    HW127044   2.569   0.219   4.243  0.1558 -0.4794  0.3377
 5137SOL    HW227045   2.650   0.337   4.256  0.3673  1.8665  1.6437
 5138SOL     OW27046   3.289   2.972   1.495 -0.2538 -0.3628  0.5209
 5138SOL    HW127047   3.248   2.887   1.480 -0.2343 -0.1554 -0.7200
 5138SOL    HW227048   3.300   2.975   1.590  0.9617  1.0504  0.3271
 5139SOL     OW27049   0.550   1.344   8.339 -0.3428 -0.4001 -0.6406
 5139SOL    HW127050   0.491   1.313   8.407 -0.3566  1.4093  0.1547
 5139SOL    HW227051   0.515   1.298   8.262  0.3269 -1.0540 -0.5578
 5140SOL     OW27052   0.129   4.000   3.431  0.3349 -0.2504 -0.2092
 5140SOL    HW127053   0.112   4.046   3.349 -0.2047  0.7497  0.4500
 5140SOL    HW227054   0.143   3.909   3.405 -1.3731 -1.3075  2.5799
 5141SOL     OW27055   3.256   0.208   5.593 -0.3922  0.3995 -0.2988
 5141SOL    HW127056   3.299   0.126   5.620  0.1468  0.6682 -0.3265
 5141SOL    HW227057   3.165   0.186   5.611  0.2962 -1.7806  0.4637
 5142SOL     OW27058   3.269   3.047   6.323 -0.2215 -0.5982 -0.0376
 5142SOL    HW127059   3.249   3.109   6.254  0.6141 -1.3487 -0.9590
 5142SOL    HW227060   3.363   3.036   6.307 -0.1546 -2.8636  1.8132
 5143SOL     OW27061   1.554   4.064   8.099 -0.0550 -0.0776 -0.0746
 5143SOL    HW127062   1.561   3.984   8.046  0.3205 -0.6698  0.8703
 5143SOL    HW227063   1.462   4.086   8.090  0.1628  1.6029  1.8728
 5144SOL     OW27064   1.967   3.060   7.638  0.5394 -0.4725 -0.2249
 5144SOL    HW127065   1.932   3.121   7.703 -1.1451 -1.8129  0.1466
 5144SOL    HW227066   1.916   2.988   7.676 -0.6448 -0.2785 -1.4419
 5145SOL     OW27067   0.106   0.655   9.882  0.3010 -0.3123  0.2903
 5145SOL    HW127068   0.022   0.635   9.924 -0.7085 -1.6016 -2.3637
 5145SOL    HW227069   0.093   0.631   9.791  3.3551  0.0812 -0.2461
 5146SOL     OW27070   1.602   2.828   7.069  0.0185 -0.3842 -0.4490
 5146SOL    HW127071   1.654   2.775   7.008  1.4074  0.2502  0.1977
 5146SOL    HW227072   1.629   2.910   7.027 -3.1976 -0.2472 -2.2736
 5147SOL     OW27073   0.133   4.681   3.460  0.0503  0.0030 -0.1571
 5147SOL    HW127074   0.088   0.017   3.501 -0.7043 -0.4522 -0.1774
 5147SOL    HW227075   0.161   4.721   3.378 -1.5598  1.8631  0.2228
 5148SOL     OW27076   0.728   0.398   4.581 -0.0581 -0.0371  0.1285
 5148SOL    HW127077   0.671   0.341   4.631  0.8531  1.9108  3.3826
 5148SOL    HW227078   0.662   0.439   4.525 -0.3369 -1.8480 -0.8707
 5149SOL     OW27079   3.926   0.448   7.341 -0.1844 -0.5089  0.2810
 5149SOL    HW127080   3.973   0.372   7.374  0.3985 -0.3115 -0.0992
 5149SOL    HW227081   3.980   0.474   7.266 -0.1188 -3.3178 -0.6358
 5150SOL     OW27082   0.385   3.676   7.996  0.1416  0.2454 -0.2195
 5150SOL    HW127083   0.414   3.678   7.905  1.9170  0.6148  0.3480
 5150SOL    HW227084   0.359   3.584   8.005  2.3045 -0.3948 -0.3980
 5151SOL     OW27085   2.585   2.269   4.457 -0.1808 -0.1016 -0.1470
 5151SOL    HW127086   2.676   2.249   4.481 -0.1959  0.5252  0.4420
 5151SOL    HW227087   2.566   2.348   4.507 -0.7845  0.0989 -0.6861
 5152SOL     OW27088   4.407   4.474   2.296 -0.1620 -0.3641 -0.2767
 5152SOL    HW127089   4.430   4.443   2.208  1.2466  0.2091 -0.1016
 5152SOL    HW227090   4.383   4.564   2.278  1.1579 -0.1893 -1.1240
 5153SOL     OW27091   2.721   4.454   3.439 -0.5478 -0.2764  0.0285
 5153SOL    HW127092   2.777   4.481   3.367 -1.3934  0.9331 -0.1773
 5153SOL    HW227093   2.739   4.360   3.447  3.4718  0.4501 -0.8247
 5154SOL     OW27094   3.594   1.930   6.582  0.0948 -0.5210  0.1828
 5154SOL    HW127095   3.659   1.973   6.638 -0.8663 -0.1982  1.0432
 5154SOL    HW227096   3.654   1.859   6.557 -2.2653 -2.0881 -0.9444
 5155SOL     OW27097   3.568   1.944   1.698 -1.1120  0.2406 -0.2593
 5155SOL    HW127098   3.559   2.039   1.706  2.5982  0.5788  0.2525
 5155SOL    HW227099   3.660   1.930   1.676 -1.3019  1.7080 -1.9480
 5156SOL     OW27100   3.857   2.826   5.493 -0.1963 -0.0102 -0.0766
 5156SOL    HW127101   3.764   2.844   5.476 -0.4085 -0.7141  0.3497
 5156SOL    HW227102   3.849   2.800   5.585 -2.1098  1.5774  0.2217
 5157SOL     OW27103   4.355   0.872   2.942 -0.3196  0.2592 -0.1537
 5157SOL    HW127104   4.372   0.966   2.945 -0.6911  0.2629  1.7703
 5157SOL    HW227105   4.301   0.863   2.864  1.8673  1.9487 -1.8348
 5158SOL     OW27106   1.109   2.776   8.041 -0.4293  0.2744 -0.3038
 5158SOL    HW127107   1.189   2.776   7.989 -0.5829  2.3502 -0.5142
 5158SOL    HW227108   1.104   2.867   8.071 -0.9120 -0.0751  0.6879
 5159SOL     OW27109   2.805   1.165   0.274  0.3012 -0.2556  0.6031
 5159SOL    HW127110   2.855   1.133   0.349 -0.8655 -0.9896  1.0630
 5159SOL    HW227111   2.871   1.225   0.239 -0.0677  0.7890  1.6929
 5160SOL     OW27112   4.684   2.429   6.723 -0.1400  0.4719 -0.2284
 5160SOL    HW127113   4.626   2.485   6.774  0.8721  0.4965  0.8738
 5160SOL    HW227114   0.001   2.497   6.685 -1.6452 -0.7113 -4.5441
 5161SOL     OW27115   1.326   3.746   3.722  0.1693  0.0634  0.2276
 5161SOL    HW127116   1.242   3.775   3.758 -0.0253 -1.9528  1.4279
 5161SOL    HW227117   1.381   3.759   3.799 -2.8430  1.1998  2.1935
 5162SOL     OW27118   1.019   4.596   0.953  0.3595 -0.4216  0.4192
 5162SOL    HW127119   1.037   4.656   1.025  0.8281  0.9280 -0.8224
 5162SOL    HW227120   1.032   4.517   1.006  0.3174  2.0373  4.0835
 5163SOL     OW27121   4.579   2.795   9.500 -0.0232 -0.3108  0.0738
 5163SOL    HW127122   4.559   2.815   9.592  0.2296  2.7222 -0.5168
 5163SOL    HW227123   4.621   2.876   9.471  0.2343 -0.5699 -0.2672
 5164SOL     OW27124   1.355   3.924   6.014  0.1654 -0.4024  0.4101
 5164SOL    HW127125   1.382   4.002   5.966  1.0312 -0.7283  0.3839
 5164SOL    HW227126   1.363   3.856   5.948  3.2338  0.7156 -0.3224
 5165SOL     OW27127   1.139   1.370   8.743 -0.5149  0.1352 -0.4416
 5165SOL    HW127128   1.161   1.279   8.763 -0.1251  0.2585 -0.3207
 5165SOL    HW227129   1.215   1.394   8.690  0.5799 -0.2203  1.0055
 5166SOL     OW27130   1.362   2.071   1.858 -0.0154 -0.1384  0.3165
 5166SOL    HW127131   1.442   2.120   1.876 -0.4570  0.2669  1.1705
 5166SOL    HW227132   1.327   2.052   1.945  1.2472  0.5326  0.9743
 5167SOL     OW27133   1.595   4.045   5.217 -0.3543 -0.2331  0.3171
 5167SOL    HW127134   1.585   3.998   5.300 -0.5110 -0.5523  0.1190
 5167SOL    HW227135   1.645   3.980   5.167 -2.8091 -0.7465 -1.4625
 5168SOL     OW27136   3.900   3.899   0.409  0.7994  0.3508 -0.2451
 5168SOL    HW127137   3.873   3.825   0.354  0.6915  1.0936 -1.1909
 5168SOL    HW227138   3.836   3.961   0.376  0.3760  0.9792  1.8019
 5169SOL     OW27139   3.481   0.239   7.355 -0.2409 -0.2900 -0.4176
 5169SOL    HW127140   3.553   0.294   7.326 -0.2351  0.0271  0.1876
 5169SOL    HW227141   3.530   0.156   7.361 -0.6191 -0.4500  0.5903
 5170SOL     OW27142   4.570   4.126   1.582 -0.1968 -0.5411  0.5841
 5170SOL    HW127143   4.580   4.141   1.488  1.6813 -0.1576  0.8365
 5170SOL    HW227144   4.498   4.184   1.604  1.6042  1.8050  0.2079
 5171SOL     OW27145   1.079   0.634   5.767 -0.3342  0.4307 -0.8917
 5171SOL    HW127146   0.992   0.607   5.795 -0.9094  3.5455  0.3435
 5171SOL    HW227147   1.117   0.547   5.757 -0.0275  0.6268 -1.4270
 5172SOL     OW27148   3.671   1.651   3.034  0.2144  0.3448 -0.0515
 5172SOL    HW127149   3.657   1.712   3.106  0.6615 -1.0039  1.1790
 5172SOL    HW227150   3.724   1.702   2.973 -0.2876  3.1864  1.8740
 5173SOL     OW27151   0.664   4.422   6.213  0.2173  0.3912 -0.4547
 5173SOL    HW127152   0.705   4.336   6.212  0.0322  0.2895  0.5232
 5173SOL    HW227153   0.648   4.435   6.307 -0.1427  2.0927 -0.7479
 5174SOL     OW27154   2.676   0.550   2.140  0.4641 -0.6423  0.3140
 5174SOL    HW127155   2.618   0.474   2.139  1.7969 -1.6568 -0.3614
 5174SOL    HW227156   2.700   0.558   2.232  0.5727  0.3062  0.2076
 5175SOL     OW27157   3.457   2.187  12.264  0.0187  0.4747 -0.2972
 5175SOL    HW127158   3.537   2.214  12.219  0.4387 -0.6935 -0.2523
 5175SOL    HW227159   3.471   2.093  12.275  1.9074  0.6056 -1.5912
 5176SOL     OW27160   3.692   0.724   2.413  0.3276 -0.1907 -0.4355
 5176SOL    HW127161   3.740   0.782   2.472 -0.0273  2.0504 -2.3765
 5176SOL    HW227162   3.691   0.641   2.462  2.6129  0.5829  0.9386
 5177SOL     OW27163   4.157   1.042  12.032  0.1515  0.3275  0.3393
 5177SOL    HW127164   4.203   1.060  12.114  0.8053  0.9248 -0.1664
 5177SOL    HW227165   4.177   0.948  12.025  2.1746  0.7826 -0.0557
 5178SOL     OW27166   0.539   2.187  14.702  0.2842  0.1428 -0.4638
 5178SOL    HW127167   0.541   2.231  14.617  0.7740 -1.7738 -1.4339
 5178SOL    HW227168   0.608   2.122  14.692  0.4684  0.0820  1.1774
 5179SOL     OW27169   1.760   2.746  15.756  0.0038  0.2891 -0.1239
 5179SOL    HW127170   1.840   2.798  15.760 -0.0151  0.1580  1.8892
 5179SOL    HW227171   1.799   2.659  15.745 -1.1521 -0.2062 -0.3118
 5180SOL     OW27172   0.156   4.696  16.976 -0.5998 -0.3384  0.2348
 5180SOL    HW127173   0.109   4.660  17.051 -2.0567  0.5634 -0.2518
 5180SOL    HW227174   0.237   4.646  16.980 -0.2237  0.1351 -1.4587
 5181SOL     OW27175   1.924   4.028   3.792 -0.4126 -0.4514 -0.1664
 5181SOL    HW127176   1.866   4.029   3.868 -0.0725  2.1779  0.0730
 5181SOL    HW227177   1.884   4.096   3.738 -0.7371 -0.3160  0.2432
 5182SOL     OW27178   0.190   1.584   3.216  0.4356 -0.2204 -0.1629
 5182SOL    HW127179   0.282   1.562   3.231  0.4694  0.0701  0.0600
 5182SOL    HW227180   0.159   1.509   3.165 -1.0579  1.1782 -1.3295
 5183SOL     OW27181   0.272   2.903  12.717  0.2907  0.8441 -0.2172
 5183SOL    HW127182   0.315   2.981  12.681  0.2988  1.6009  1.4417
 5183SOL    HW227183   0.354   2.858  12.738 -1.8172 -1.4362  3.1029
 5184SOL     OW27184   1.321   0.657   4.458 -0.1807 -0.9516  0.6276
 5184SOL    HW127185   1.274   0.595   4.514  2.6207 -1.0500  2.8317
 5184SOL    HW227186   1.297   0.619   4.373  2.3226 -2.6550  0.6887
 5185SOL     OW27187   4.499   0.726   4.764  0.5274  0.2383 -0.4312
 5185SOL    HW127188   4.546   0.770   4.834 -0.7856 -1.7022  1.6728
 5185SOL    HW227189   4.562   0.661   4.730 -1.8057 -1.3586 -1.7070
 5186SOL     OW27190   0.564   2.951   2.739  0.4624 -0.2734 -0.3243
 5186SOL    HW127191   0.551   2.954   2.834  0.0569 -1.7420 -0.3333
 5186SOL    HW227192   0.543   2.859   2.724  0.2248 -0.1324 -0.8312
 5187SOL     OW27193   0.390   2.365  13.435 -0.6300  0.2145 -0.4987
 5187SOL    HW127194   0.364   2.457  13.427  1.9398  1.2324  3.0562
 5187SOL    HW227195   0.439   2.366  13.352 -0.1137  0.7057 -0.1869
 5188SOL     OW27196   3.718   3.689   5.296  0.8397 -0.1358  0.6001
 5188SOL    HW127197   3.792   3.686   5.236  0.3207 -0.1907 -0.0281
 5188SOL    HW227198   3.652   3.683   5.228  1.8776  0.6311 -0.4671
 5189SOL     OW27199   2.871   3.169   1.743  0.4518 -0.0593 -0.0253
 5189SOL    HW127200   2.911   3.221   1.813  1.9196  0.1861 -1.0340
 5189SOL    HW227201   2.899   3.216   1.664 -1.4630  1.3316  0.1026
 5190SOL     OW27202   3.662   1.719  10.056 -0.4286  0.2694 -0.0042
 5190SOL    HW127203   3.572   1.740  10.029 -0.1540 -1.1427 -2.0134
 5190SOL    HW227204   3.692   1.810  10.063  2.3846 -0.6831  0.1127
 5191SOL     OW27205   0.215   0.811   5.553 -0.3497  0.5735  0.3112
 5191SOL    HW127206   0.220   0.766   5.638 -0.6546 -1.4411 -0.7356
 5191SOL    HW227207   0.294   0.865   5.546 -0.4978  0.7863  0.2924
 5192SOL     OW27208   0.289   3.405   0.239  0.6144 -0.0503 -0.0990
 5192SOL    HW127209   0.333   3.487   0.216 -0.5790  0.2644 -1.3078
 5192SOL    HW227210   0.360   3.340   0.237 -0.1701 -0.9273  0.5512
 5193SOL     OW27211   2.206   2.203   2.185  0.0122 -0.6260 -0.0385
 5193SOL    HW127212   2.117   2.227   2.158 -1.1356 -2.0194  2.4288
 5193SOL    HW227213   2.241   2.284   2.219 -0.2485  0.0369 -1.3465
 5194SOL     OW27214   1.966   0.048  12.363  0.1557  0.7305  0.1563
 5194SOL    HW127215   1.989   0.140  12.351 -0.2445  0.6136 -1.4730
 5194SOL    HW227216   1.930   0.025  12.277  1.0337  0.7176 -0.2141
 5195SOL     OW27217   1.432   2.248   2.848  0.0662  0.0923 -0.3350
 5195SOL    HW127218   1.409   2.312   2.781 -0.3766 -0.5381 -0.7842
 5195SOL    HW227219   1.470   2.309   2.911 -1.4497  0.6992  0.0068
 5196SOL     OW27220   3.041   3.069   1.366  0.0393  0.1129  0.2396
 5196SOL    HW127221   3.036   3.154   1.410  0.6172  0.0234  0.4717
 5196SOL    HW227222   3.116   3.040   1.417 -1.5527 -1.3609  1.7480
 5197SOL     OW27223   1.113   3.890   2.407  0.2381 -0.3592  0.3191
 5197SOL    HW127224   1.025   3.868   2.437  0.5339 -2.4866 -0.3700
 5197SOL    HW227225   1.139   3.807   2.366  0.3744  0.6719 -1.6999
 5198SOL     OW27226   2.054   3.786   3.072 -0.1089 -0.2830 -0.2089
 5198SOL    HW127227   1.989   3.837   3.120 -0.3014 -0.4499 -0.2934
 5198SOL    HW227228   2.039   3.698   3.108  1.2171  0.6342  2.5596
 5199SOL     OW27229   3.065   0.550  12.023 -0.3648  0.2859  0.4531
 5199SOL    HW127230   3.131   0.552  11.953 -0.5118  0.5024  0.3218
 5199SOL    HW227231   3.000   0.601  11.975 -2.7666 -0.3057  3.1090
 5200SOL     OW27232   2.540   3.388   7.021  0.3657 -0.1416  0.4979
 5200SOL    HW127233   2.543   3.310   6.965  0.2994  1.9914 -2.4529
 5200SOL    HW227234   2.595   3.454   6.979  1.0374 -1.2270 -0.3322
 5201SOL     OW27235   2.495   1.442   9.087  0.5547  0.5989  0.0785
 5201SOL    HW127236   2.410   1.410   9.117  0.3235  0.5032 -0.6853
 5201SOL    HW227237   2.554   1.366   9.087 -0.3278 -0.0855  0.3300
 5202SOL     OW27238   4.224   4.430   9.803  0.2161  0.0093  0.4029
 5202SOL    HW127239   4.192   4.406   9.890 -0.2878 -1.9992 -0.3335
 5202SOL    HW227240   4.158   4.409   9.738 -0.3889  1.5529  0.5304
 5203SOL     OW27241   4.011   0.068   4.026 -0.0560  0.4971 -0.3900
 5203SOL    HW127242   4.095   0.038   4.062 -1.1124  0.2357  1.8535
 5203SOL    HW227243   3.973   4.719   4.011 -2.6391  1.1064  2.5633
 5204SOL     OW27244   2.580   4.506   6.983  0.0750 -0.1165 -0.2169
 5204SOL    HW127245   2.626   4.582   6.947  0.7882 -0.3022  0.2983
 5204SOL    HW227246   2.642   4.433   6.980  0.8076  0.5875 -2.0618
 5205SOL     OW27247   2.708   2.968  10.402 -0.0349 -0.3233  0.0523
 5205SOL    HW127248   2.730   2.984  10.310 -1.5329 -1.7231 -0.5544
 5205SOL    HW227249   2.623   3.010  10.411 -0.5576 -1.4282  0.2288
 5206SOL     OW27250   1.493   1.881   4.568 -0.1707  0.3189  0.0955
 5206SOL    HW127251   1.459   1.794   4.551 -1.2850  0.3711  2.0041
 5206SOL    HW227252   1.579   1.852   4.599 -0.8911 -0.1798  1.6527
 5207SOL     OW27253   1.109   3.767   5.219 -0.4116 -0.3804  0.1021
 5207SOL    HW127254   1.125   3.673   5.210  0.0767 -0.3136  0.2822
 5207SOL    HW227255   1.170   3.793   5.150 -1.6338 -2.3301 -1.7189
 5208SOL     OW27256   3.102   1.260   7.335  0.7295 -0.0490 -0.2428
 5208SOL    HW127257   3.104   1.164   7.344  0.0897  0.0873  1.2690
 5208SOL    HW227258   3.175   1.270   7.274  1.7905 -1.2004  0.8270
 5209SOL     OW27259   3.977   4.095   5.578 -0.5502 -0.3670 -0.6261
 5209SOL    HW127260   3.950   4.139   5.659  0.8399 -1.0071  0.1784
 5209SOL    HW227261   3.901   4.115   5.524 -0.3518  1.2932 -0.2892
 5210SOL     OW27262   1.220   4.623  12.548 -0.2302 -0.5408 -0.1624
 5210SOL    HW127263   1.145   4.619  12.489  0.0303 -0.3059 -0.5169
 5210SOL    HW227264   1.177   4.660  12.624  1.0270  0.8671 -0.1284
 5211SOL     OW27265   2.740   0.469   1.438 -0.4542 -0.1163 -0.1376
 5211SOL    HW127266   2.712   0.441   1.351 -1.0852  0.7092 -0.2039
 5211SOL    HW227267   2.687   0.404   1.484  2.1566 -3.4341 -1.8681
 5212SOL     OW27268   4.454   3.802   4.954  0.0489  0.7628 -0.1933
 5212SOL    HW127269   4.440   3.809   5.049  0.0549 -2.2846  0.0303
 5212SOL    HW227270   4.484   3.712   4.946  0.8979  1.0315 -0.0571
 5213SOL     OW27271   0.055   2.802  17.270 -0.0937  0.2325  0.0307
 5213SOL    HW127272   4.725   2.860  17.234 -1.3476 -1.1189  0.1872
 5213SOL    HW227273   0.096   2.763  17.193 -2.3465  1.0994 -1.6237
 5214SOL     OW27274   2.408   4.470   9.065  0.3319 -0.1149  0.8081
 5214SOL    HW127275   2.434   4.433   9.150  2.7779  0.4930  0.3126
 5214SOL    HW227276   2.434   4.401   9.004 -0.2281  0.3965  0.0020
 5215SOL     OW27277   3.089   1.370   1.485  0.0346 -0.1676  0.4019
 5215SOL    HW127278   3.039   1.319   1.550  2.3431 -1.0326  1.4929
 5215SOL    HW227279   3.170   1.375   1.536  1.0452  2.1854 -1.4482
 5216SOL     OW27280   1.245   4.533   7.763  0.1305  0.0994 -0.0081
 5216SOL    HW127281   1.214   4.472   7.696  0.8017  0.1010 -0.3155
 5216SOL    HW227282   1.306   4.482   7.817  0.8040  1.9936  1.0047
 5217SOL     OW27283   0.811   1.849   7.957  0.3101 -0.2887  0.1543
 5217SOL    HW127284   0.795   1.858   8.051  3.4646  1.5546  0.5299
 5217SOL    HW227285   0.739   1.905   7.929 -1.0731 -1.8054  0.6901
 5218SOL     OW27286   3.956   4.089   8.561  0.8246 -0.0754  0.0525
 5218SOL    HW127287   4.041   4.103   8.518  0.2081  2.6855 -0.2640
 5218SOL    HW227288   3.976   4.018   8.621 -1.0548 -1.6070 -1.1707
 5219SOL     OW27289   2.170   1.945   9.303 -0.3521 -0.5947 -0.0477
 5219SOL    HW127290   2.107   2.015   9.284 -0.0967 -0.2395  0.3942
 5219SOL    HW227291   2.175   1.952   9.399 -2.0383 -0.3604  0.0197
 5220SOL     OW27292   0.200   0.165   6.064 -0.4787  0.0408  0.5053
 5220SOL    HW127293   0.180   0.079   6.027 -0.9990  0.1700  0.4824
 5220SOL    HW227294   0.118   0.190   6.106 -1.0837  0.9831 -1.2270
 5221SOL     OW27295   4.465   0.877   6.611 -0.6725  0.4193 -0.4285
 5221SOL    HW127296   4.505   0.912   6.531 -0.2107  0.0567 -0.3561
 5221SOL    HW227297   4.522   0.909   6.682 -0.0260  1.3052 -1.3518
 5222SOL     OW27298   2.675   4.470   4.029  0.5134 -0.5051  0.2415
 5222SOL    HW127299   2.583   4.496   4.020 -0.1300 -2.7127  0.5772
 5222SOL    HW227300   2.701   4.449   3.939  0.4946  0.0673  0.1043
 5223SOL     OW27301   1.949   1.965  13.481  0.5046 -0.2392 -0.3566
 5223SOL    HW127302   1.993   2.048  13.498  1.1286 -0.6159 -0.1319
 5223SOL    HW227303   1.965   1.952  13.387  0.5796 -0.2398 -0.3434
 5224SOL     OW27304   2.285   3.353   5.337  0.3157 -0.7611 -0.1945
 5224SOL    HW127305   2.316   3.286   5.276  0.2444 -1.6967  0.7929
 5224SOL    HW227306   2.345   3.336   5.410 -1.9403  1.1294  2.1328
 5225SOL     OW27307   4.149   4.291   3.646 -0.1676  0.4362 -0.1002
 5225SOL    HW127308   4.136   4.245   3.563 -0.5677 -0.1197  0.2671
 5225SOL    HW227309   4.063   4.299   3.686 -0.9057  0.7600 -1.7701
 5226SOL     OW27310   0.553   3.859   5.242  0.3031  0.5694  0.5987
 5226SOL    HW127311   0.631   3.914   5.250  0.6510  0.3747 -1.5977
 5226SOL    HW227312   0.501   3.903   5.175  1.6395  1.1775 -0.0356
 5227SOL     OW27313   2.721   3.452   8.247 -0.1184  0.3069 -0.2746
 5227SOL    HW127314   2.754   3.524   8.302  1.6074 -0.3213 -0.5087
 5227SOL    HW227315   2.752   3.473   8.159 -0.1522 -1.3687 -0.6819
 5228SOL     OW27316   4.139   4.080  14.948 -0.2511  0.1317  0.1290
 5228SOL    HW127317   4.153   4.003  14.894 -3.0270  0.9735 -1.8189
 5228SOL    HW227318   4.055   4.109  14.912  0.3043  2.1278  0.4400
 5229SOL     OW27319   3.503   2.548   7.540 -0.8894 -0.0539 -0.5310
 5229SOL    HW127320   3.476   2.582   7.455 -1.4526  2.1910  0.5567
 5229SOL    HW227321   3.503   2.453   7.524  2.0755 -0.2147  0.4180
 5230SOL     OW27322   3.454   1.717   8.482 -0.5160 -0.5828  0.0350
 5230SOL    HW127323   3.482   1.806   8.501 -0.2505 -0.6956  0.1796
 5230SOL    HW227324   3.484   1.720   8.392  0.3667 -0.1805  0.3423
 5231SOL     OW27325   3.614   0.910   3.926 -0.2876  0.1854  0.4553
 5231SOL    HW127326   3.706   0.921   3.949 -0.2165  0.2392  0.1445
 5231SOL    HW227327   3.610   0.815   3.943 -1.5686 -0.4769 -3.5559
 5232SOL     OW27328   4.406   4.342   1.672  0.3139  0.5690  0.2010
 5232SOL    HW127329   4.368   4.342   1.584 -0.0702  0.9707  0.3685
 5232SOL    HW227330   4.337   4.290   1.714 -0.2855  1.1740 -0.0329
 5233SOL     OW27331   2.478   2.155   6.819  0.3940  0.4365 -0.4169
 5233SOL    HW127332   2.489   2.171   6.726  1.2025 -0.1257 -0.4220
 5233SOL    HW227333   2.572   2.150   6.839  0.3331 -0.0519 -0.2441
 5234SOL     OW27334   3.512   4.616   4.000 -0.1645  0.3066  0.3176
 5234SOL    HW127335   3.420   4.636   4.021  0.6198  2.3909  1.7127
 5234SOL    HW227336   3.516   4.545   4.063 -5.1113  1.3274  1.8416
 5235SOL     OW27337   0.800   1.927   4.323 -0.6966 -0.4234 -0.1559
 5235SOL    HW127338   0.708   1.902   4.319 -1.0101  0.5097  1.1501
 5235SOL    HW227339   0.804   1.916   4.418 -0.0569  1.3941  0.0325
 5236SOL     OW27340   1.768   1.193  10.664 -0.5063 -0.1058 -0.6407
 5236SOL    HW127341   1.751   1.266  10.724 -1.8105 -0.5667 -0.4472
 5236SOL    HW227342   1.857   1.171  10.689 -1.2267 -1.9065  0.3411
 5237SOL     OW27343   3.871   3.935   3.160 -0.2860 -0.1227  0.4509
 5237SOL    HW127344   3.863   3.891   3.075 -1.7499  0.2628  0.3835
 5237SOL    HW227345   3.796   3.994   3.165 -1.5865 -1.6415 -0.8844
 5238SOL     OW27346   0.816   1.828  13.479  0.0501  0.6092  1.1087
 5238SOL    HW127347   0.791   1.804  13.568  1.1612 -0.4088  1.1427
 5238SOL    HW227348   0.763   1.907  13.468  0.8852  1.1352  0.8249
 5239SOL     OW27349   3.841   0.553   8.354 -0.0596 -0.4500 -0.3075
 5239SOL    HW127350   3.900   0.587   8.421 -1.3078 -0.8129  0.9775
 5239SOL    HW227351   3.855   0.459   8.364  2.6626  0.0337  0.2805
 5240SOL     OW27352   1.940   0.460   3.168 -0.1749 -0.2447  0.1951
 5240SOL    HW127353   1.925   0.373   3.204 -0.8175  0.1120  0.7853
 5240SOL    HW227354   1.965   0.514   3.242 -2.8415 -1.2325  1.8240
 5241SOL     OW27355   0.854   3.310   4.507  0.2512 -0.5174  0.2411
 5241SOL    HW127356   0.941   3.331   4.473 -0.5106 -0.3221 -1.6027
 5241SOL    HW227357   0.835   3.230   4.459  1.1439  0.9560 -2.5585
 5242SOL     OW27358   1.506   4.126   9.643 -0.5845 -0.1886 -0.6173
 5242SOL    HW127359   1.545   4.042   9.619 -2.1784 -1.3629  0.9115
 5242SOL    HW227360   1.561   4.189   9.595  0.6121 -1.0054 -0.3182
 5243SOL     OW27361   2.300   4.571   8.224  0.1661 -0.1076 -0.0457
 5243SOL    HW127362   2.322   4.547   8.314 -0.9287  1.1277  0.5413
 5243SOL    HW227363   2.333   4.487   8.189  1.4420 -0.2773  1.5600
 5244SOL     OW27364   1.653   3.512   7.558 -0.0492 -0.4820 -0.1645
 5244SOL    HW127365   1.650   3.599   7.598 -0.8460 -0.9805  0.8701
 5244SOL    HW227366   1.739   3.482   7.586  0.0192 -2.0780 -2.0542
 5245SOL     OW27367   1.233   1.865   2.082  0.0537 -0.1607 -0.8040
 5245SOL    HW127368   1.313   1.827   2.045  0.4443 -0.5728  0.4726
 5245SOL    HW227369   1.183   1.785   2.092 -0.1629  0.2709  1.5373
 5246SOL     OW27370   3.106   2.105   7.025  0.3592 -0.4410  0.4244
 5246SOL    HW127371   3.064   2.190   7.017 -0.9092 -1.3306 -2.3118
 5246SOL    HW227372   3.194   2.132   7.051  1.0638 -1.6861 -0.6455
 5247SOL     OW27373   1.407   3.724   5.826 -0.0728  0.7155  0.6054
 5247SOL    HW127374   1.420   3.630   5.809  0.8442  1.0357 -0.5187
 5247SOL    HW227375   1.363   3.758   5.748  0.9628  1.3932  0.3151
 5248SOL     OW27376   3.222   2.962  15.747  0.3364  0.2700  0.0686
 5248SOL    HW127377   3.270   2.880  15.759  0.0118  0.0877  0.1253
 5248SOL    HW227378   3.206   2.995  15.836  1.0633  0.5464  0.0985
 5249SOL     OW27379   3.030   4.401   6.448  0.0431 -0.4084  0.2563
 5249SOL    HW127380   3.064   4.325   6.400 -2.6934 -1.0887 -0.6217
 5249SOL    HW227381   2.974   4.438   6.380  0.2837 -2.0137 -0.8074
 5250SOL     OW27382   4.624   0.264   5.675  0.1248 -0.2850 -0.3254
 5250SOL    HW127383   4.685   0.329   5.640 -1.1158  1.3182  0.5047
 5250SOL    HW227384   4.633   0.288   5.767  0.8724 -1.2000 -0.1601
 5251SOL     OW27385   3.411   1.838  16.289 -0.2949  0.1873 -0.1003
 5251SOL    HW127386   3.432   1.930  16.306 -2.5700  0.8297 -0.7702
 5251SOL    HW227387   3.363   1.824  16.371 -1.1070  0.4634 -0.5353
 5252SOL     OW27388   4.703   3.736   5.516 -0.1091  0.5666  0.1280
 5252SOL    HW127389   4.698   3.640   5.520 -0.1268  0.4880 -1.5708
 5252SOL    HW227390   4.629   3.754   5.458 -0.4880 -0.4651  0.2872
 5253SOL     OW27391   3.363   3.227   1.050  0.2994 -0.2876 -0.0985
 5253SOL    HW127392   3.433   3.239   1.114  1.6465  0.6837 -1.7515
 5253SOL    HW227393   3.408   3.182   0.978 -1.2794 -2.5773  0.3384
 5254SOL     OW27394   2.321   3.426   3.013 -0.0592 -0.3002  0.3450
 5254SOL    HW127395   2.322   3.462   3.102 -0.5022  1.6694 -0.4465
 5254SOL    HW227396   2.232   3.392   3.008 -1.0632  2.3739  0.2623
 5255SOL     OW27397   0.571   3.619   3.016  0.2287 -0.2734  0.3125
 5255SOL    HW127398   0.579   3.637   3.110 -1.2256  0.7643  0.2320
 5255SOL    HW227399   0.571   3.523   3.025 -0.7782 -0.3652 -0.6658
 5256SOL     OW27400   3.790   1.908   3.925 -0.1982 -0.1928 -0.1114
 5256SOL    HW127401   3.743   1.886   4.005  1.0748  0.3204  0.7773
 5256SOL    HW227402   3.880   1.910   3.958  0.0544  0.3875 -0.8142
 5257SOL     OW27403   4.199   2.653  16.417 -0.1737  0.2185 -0.0744
 5257SOL    HW127404   4.288   2.653  16.451 -0.1573 -2.7787 -0.0829
 5257SOL    HW227405   4.219   2.576  16.364  0.4655 -0.5758  1.3222
 5258SOL     OW27406   2.297   2.231   6.272 -0.4473 -0.1775 -0.0287
 5258SOL    HW127407   2.253   2.312   6.299 -0.4328 -0.0369 -0.4314
 5258SOL    HW227408   2.286   2.176   6.349  2.4247 -1.2809 -0.4277
 5259SOL     OW27409   2.813   4.712   2.434  0.2201  0.0708  0.0731
 5259SOL    HW127410   2.890   0.020   2.467 -0.3364  0.4368  0.8742
 5259SOL    HW227411   2.747   0.024   2.482 -0.7208  1.1675 -2.3386
 5260SOL     OW27412   4.427   4.279   3.112 -0.0326 -0.6475 -0.3136
 5260SOL    HW127413   4.426   4.354   3.172  2.5669 -2.3892  1.8982
 5260SOL    HW227414   4.394   4.215   3.176 -2.1975  1.5443  0.7696
 5261SOL     OW27415   4.479   3.559   8.167 -0.4150 -0.1292 -0.0613
 5261SOL    HW127416   4.479   3.466   8.187 -1.3444 -0.4282 -1.4673
 5261SOL    HW227417   4.519   3.597   8.246  1.9440 -2.4334 -0.1158
 5262SOL     OW27418   3.710   4.611   7.887  0.3698  0.8517  0.8097
 5262SOL    HW127419   3.656   4.689   7.879 -1.7089 -0.7562 -1.0183
 5262SOL    HW227420   3.798   4.648   7.881 -0.5650  2.8675 -0.2537
 5263SOL     OW27421   3.043   2.114   1.032 -0.2085 -0.6621 -0.2703
 5263SOL    HW127422   3.020   2.065   0.953  1.6473  0.0559 -1.2666
 5263SOL    HW227423   2.955   2.128   1.068 -0.4188 -4.0727  0.5611
 5264SOL     OW27424   2.004   0.216   8.055  0.2339  0.0592  0.2030
 5264SOL    HW127425   1.959   0.141   8.018  1.8227 -0.0094 -1.6203
 5264SOL    HW227426   2.054   0.167   8.121  1.2058  1.9506  0.9064
 5265SOL     OW27427   0.653   3.585  11.721 -0.3216 -0.1891  0.1075
 5265SOL    HW127428   0.624   3.674  11.740 -0.2080  0.1253 -1.1597
 5265SOL    HW227429   0.654   3.588  11.625 -1.8493  1.6450  0.1510
 5266SOL     OW27430   1.759   2.626   0.422 -0.0533 -1.0153 -0.2081
 5266SOL    HW127431   1.701   2.615   0.347 -0.0412  2.9529 -0.7904
 5266SOL    HW227432   1.779   2.720   0.418 -0.2062 -0.8459  3.5349
 5267SOL     OW27433   1.090   4.278   9.330 -0.3331 -0.7581  0.2215
 5267SOL    HW127434   1.143   4.348   9.292 -0.3268 -0.5176  0.6861
 5267SOL    HW227435   1.013   4.319   9.367  0.3941 -1.4871  2.5813
 5268SOL     OW27436   2.231   1.970   9.570  0.0832  0.3015  0.8220
 5268SOL    HW127437   2.158   2.030   9.586 -0.3703  0.1143 -0.4813
 5268SOL    HW227438   2.247   1.929   9.655 -0.8304  1.5445  1.5941
 5269SOL     OW27439   1.535   1.887   7.158  0.4287 -0.4405 -0.2561
 5269SOL    HW127440   1.593   1.881   7.083  1.7489  0.3974  0.6827
 5269SOL    HW227441   1.461   1.869   7.100  1.3085  1.0990 -1.8709
 5270SOL     OW27442   0.657   2.212   9.528 -0.5357 -0.4610  0.0453
 5270SOL    HW127443   0.601   2.214   9.605 -1.4672 -0.4355 -0.6404
 5270SOL    HW227444   0.666   2.118   9.511  1.6503 -0.4002  0.8589
 5271SOL     OW27445   1.704   4.544  15.734  0.2325  0.1690 -0.1722
 5271SOL    HW127446   1.701   4.449  15.724 -1.5057 -0.1604  3.7133
 5271SOL    HW227447   1.699   4.562  15.828 -0.4044  1.7407 -0.5126
 5272SOL     OW27448   2.616   0.714   6.260  0.0407 -0.5839 -1.0655
 5272SOL    HW127449   2.696   0.664   6.250 -0.7372 -2.0636  0.1606
 5272SOL    HW227450   2.585   0.683   6.345  1.2781 -0.9270 -0.7415
 5273SOL     OW27451   0.515   4.676   4.074  0.2222 -0.0938  0.0178
 5273SOL    HW127452   0.461   0.012   4.044  0.2976  0.2477  0.7248
 5273SOL    HW227453   0.451   4.605   4.077 -0.5994  0.6248 -0.4637
 5274SOL     OW27454   3.966   0.470   2.565 -0.0316  0.2314  0.6293
 5274SOL    HW127455   4.014   0.547   2.536 -0.6554 -0.1345 -1.3939
 5274SOL    HW227456   3.886   0.502   2.607 -1.2617  0.5005 -1.8719
 5275SOL     OW27457   3.777   4.516  16.803 -0.2705 -0.0845  0.1791
 5275SOL    HW127458   3.847   4.537  16.865  1.3525 -1.8197 -1.0404
 5275SOL    HW227459   3.825   4.519  16.720 -1.3589  1.2623 -0.3850
 5276SOL     OW27460   2.340   4.183  16.098  0.8024 -0.0572  0.1576
 5276SOL    HW127461   2.347   4.103  16.149  1.5235  0.0195  0.1826
 5276SOL    HW227462   2.422   4.170  16.050  0.5849 -0.1784 -0.1753
 5277SOL     OW27463   1.060   0.930  16.520  0.1322  0.5499  0.2105
 5277SOL    HW127464   1.141   0.879  16.523 -1.0217 -1.4107 -1.5728
 5277SOL    HW227465   1.016   0.879  16.452 -0.1423 -0.4329  1.1118
 5278SOL     OW27466   1.287   1.420  17.716  0.0937 -0.0674  0.2418
 5278SOL    HW127467   1.345   1.493  17.735  2.7310 -1.9881 -0.4670
 5278SOL    HW227468   1.224   1.436   0.039 -0.9328  0.7991 -0.8789
 5279SOL     OW27469   3.366   3.221   6.975 -0.3295 -0.2467  0.1063
 5279SOL    HW127470   3.412   3.303   6.993 -2.7632  1.4818 -1.5441
 5279SOL    HW227471   3.272   3.235   6.965 -0.8416 -3.3478  0.6573
 5280SOL     OW27472   1.646   4.212   3.979  0.2970 -0.1403  0.3371
 5280SOL    HW127473   1.700   4.176   4.049  0.6831  0.4231  0.3257
 5280SOL    HW227474   1.565   4.227   4.027 -0.4737 -3.1007 -0.0143
 5281SOL     OW27475   2.326   2.423   8.271 -0.5321  0.6375 -0.3323
 5281SOL    HW127476   2.241   2.435   8.230 -0.7740  0.1689  0.0330
 5281SOL    HW227477   2.300   2.362   8.340  0.6516  1.7970  1.1549
 5282SOL     OW27478   4.272   1.356   2.656  0.4393  0.1042 -0.4062
 5282SOL    HW127479   4.192   1.369   2.604  1.4358  0.5794 -1.8328
 5282SOL    HW227480   4.327   1.308   2.594 -1.5525 -3.3313  0.5554
 5283SOL     OW27481   4.298   1.626   0.014 -0.5902  0.1381 -0.4723
 5283SOL    HW127482   4.383   1.606  17.723 -1.2075 -0.8946 -1.3042
 5283SOL    HW227483   4.273   1.541   0.050 -0.2506  1.0845  2.0424
 5284SOL     OW27484   0.083   2.230   4.227 -0.2894  0.1306 -0.3415
 5284SOL    HW127485   0.007   2.202   4.176  0.6619 -0.5663 -1.3505
 5284SOL    HW227486   0.062   2.322   4.244 -0.2364 -0.0880  0.9602
 5285SOL     OW27487   0.239   4.150  11.263  0.5277 -0.0714  0.8077
 5285SOL    HW127488   0.296   4.074  11.272  0.5328 -0.1216  0.3702
 5285SOL    HW227489   0.198   4.148  11.176  1.8594  1.8599  0.1248
 5286SOL     OW27490   2.607   3.221  13.043  0.0115 -0.4706 -0.4822
 5286SOL    HW127491   2.543   3.211  13.113  0.6069 -0.7314  0.0242
 5286SOL    HW227492   2.662   3.145  13.063  0.3000  0.0774  0.8309
 5287SOL     OW27493   2.874   1.826   6.562 -0.3897 -0.1404  0.3937
 5287SOL    HW127494   2.969   1.826   6.552 -0.6918 -0.8947 -2.4826
 5287SOL    HW227495   2.867   1.851   6.654  0.0735 -0.0005  0.3930
 5288SOL     OW27496   2.424   4.258  10.314  0.6768 -0.5080 -0.0394
 5288SOL    HW127497   2.425   4.299  10.401  4.2585  2.6923 -1.6071
 5288SOL    HW227498   2.445   4.171  10.349 -0.8372 -1.5733 -1.8109
 5289SOL     OW27499   4.151   1.037   7.762 -0.2824 -0.3210 -0.5584
 5289SOL    HW127500   4.084   0.981   7.722 -0.8680  0.2248 -0.3493
 5289SOL    HW227501   4.146   1.116   7.708  0.6358 -0.8716 -1.4528
 5290SOL     OW27502   1.246   4.438  10.169  0.4848 -0.4147  0.3713
 5290SOL    HW127503   1.340   4.420  10.164  0.3007 -0.2377 -3.7503
 5290SOL    HW227504   1.214   4.347  10.167  1.1891 -0.6622  0.2703
 5291SOL     OW27505   1.765   0.247  12.587 -0.3814  0.3186 -0.0599
 5291SOL    HW127506   1.752   0.165  12.540  1.9250  0.9490 -1.7824
 5291SOL    HW227507   1.852   0.272  12.555  0.1862 -1.1436  0.3244
 5292SOL     OW27508   4.529   2.218   4.429 -0.5273  0.0571  0.4267
 5292SOL    HW127509   4.596   2.223   4.498 -0.7986  0.7196  0.6419
 5292SOL    HW227510   4.496   2.128   4.433 -0.0006 -0.0987  1.1556
 5293SOL     OW27511   0.243   4.303  14.865 -0.5538 -0.4993  0.0053
 5293SOL    HW127512   0.322   4.248  14.864  0.0785  0.3987 -0.0072
 5293SOL    HW227513   0.281   4.381  14.823  1.1307 -0.4634  1.5928
 5294SOL     OW27514   2.191   0.510   4.306 -0.0992 -0.7823  0.3629
 5294SOL    HW127515   2.150   0.501   4.392 -2.0574  1.7415 -0.2970
 5294SOL    HW227516   2.264   0.562   4.340  0.4486 -2.1293  1.2305
 5295SOL     OW27517   2.236   3.811   7.435 -0.8361 -0.2984  0.2450
 5295SOL    HW127518   2.178   3.885   7.453 -2.8348 -2.1225  1.3921
 5295SOL    HW227519   2.237   3.775   7.524 -0.6852  0.3711  0.5176
 5296SOL     OW27520   0.437   3.772   2.200 -0.3066  0.4590 -0.0545
 5296SOL    HW127521   0.523   3.770   2.240  0.3849 -1.3184 -1.6400
 5296SOL    HW227522   0.454   3.713   2.126 -0.0535 -0.6498  0.8996
 5297SOL     OW27523   4.041   1.446   2.538 -0.0197  0.1300  0.0731
 5297SOL    HW127524   3.983   1.469   2.465  2.9285 -1.1070 -2.6760
 5297SOL    HW227525   3.999   1.362   2.557 -2.1652  1.5592  1.6685
 5298SOL     OW27526   1.870   0.473   5.189 -0.5352 -0.2209  0.2574
 5298SOL    HW127527   1.926   0.528   5.244 -0.2631  0.9388 -1.2076
 5298SOL    HW227528   1.857   0.533   5.116  2.5862  1.6584  1.2278
 5299SOL     OW27529   1.812   3.462   4.556  0.1348  0.4990  0.3515
 5299SOL    HW127530   1.875   3.532   4.575  2.0114 -1.4326  1.2955
 5299SOL    HW227531   1.804   3.431   4.647 -0.9906  0.9940  0.4191
 5300SOL     OW27532   3.763   0.658   8.063 -0.2689 -0.0608 -0.4994
 5300SOL    HW127533   3.811   0.598   8.120 -1.7309 -0.6050  0.1538
 5300SOL    HW227534   3.833   0.719   8.036 -0.1751  0.1120  0.1347
 5301SOL     OW27535   2.535   2.206   0.944  0.4305 -0.2478 -0.2428
 5301SOL    HW127536   2.518   2.299   0.961 -0.5392 -0.6822  1.1111
 5301SOL    HW227537   2.553   2.205   0.850  1.4959  1.9505 -0.0625
 5302SOL     OW27538   2.895   2.174   5.653 -0.1513  0.4071 -0.4905
 5302SOL    HW127539   2.833   2.155   5.724 -0.5046  0.5194 -0.7685
 5302SOL    HW227540   2.892   2.268   5.637  0.0289  0.6686  1.0161
 5303SOL     OW27541   4.548   1.830   7.332 -0.1503 -0.8197 -0.0860
 5303SOL    HW127542   4.528   1.917   7.297  1.6095  0.0942  1.2155
 5303SOL    HW227543   4.643   1.823   7.320 -0.3193 -2.0865 -0.7331
 5304SOL     OW27544   2.714   1.849   3.948 -0.6025 -0.8489  1.3115
 5304SOL    HW127545   2.797   1.875   3.908 -0.3992 -0.4880  1.9775
 5304SOL    HW227546   2.680   1.936   3.968 -1.6679 -1.2035  1.0840
 5305SOL     OW27547   1.773   4.403  12.606  0.2654  0.1752 -0.4053
 5305SOL    HW127548   1.766   4.498  12.618 -1.4660 -0.4662  3.7322
 5305SOL    HW227549   1.859   4.391  12.646 -1.1224  0.1826  2.5858
 5306SOL     OW27550   3.005   1.167   8.773  0.2265 -0.4940  0.8175
 5306SOL    HW127551   2.976   1.254   8.804 -1.5192 -0.7569 -0.0884
 5306SOL    HW227552   3.060   1.147   8.849  0.1346  2.2090  1.5995
 5307SOL     OW27553   3.006   1.470   9.758  0.6554 -0.2477 -0.0161
 5307SOL    HW127554   3.027   1.540   9.697 -0.9112  0.6344  0.4515
 5307SOL    HW227555   2.974   1.401   9.700 -1.0443 -0.2954  0.9835
 5308SOL     OW27556   0.292   4.736   4.353  0.2514  0.4066 -0.0006
 5308SOL    HW127557   0.299   0.093   4.362  1.8196  0.3007 -0.0885
 5308SOL    HW227558   0.226   4.718   4.420  0.9932  2.6319  1.3413
 5309SOL     OW27559   1.418   0.804  14.910  0.1169 -0.0642  0.1443
 5309SOL    HW127560   1.395   0.737  14.974  3.5062  1.8946  3.4004
 5309SOL    HW227561   1.341   0.858  14.927 -1.1780 -3.1575  4.0310
 5310SOL     OW27562   2.480   1.942   8.532 -0.4511 -0.4383  0.1387
 5310SOL    HW127563   2.468   1.965   8.624 -0.7848 -2.0396  0.4989
 5310SOL    HW227564   2.398   1.894   8.519 -0.6066  0.1849 -1.2076
 5311SOL     OW27565   1.399   3.691   7.182  0.3743 -0.3465 -0.2355
 5311SOL    HW127566   1.321   3.645   7.152  1.0630 -1.1969 -0.7247
 5311SOL    HW227567   1.427   3.641   7.259 -2.9607  0.1276  1.3075
 5312SOL     OW27568   0.108   1.847   8.698 -0.2351 -0.5408 -0.1739
 5312SOL    HW127569   0.073   1.808   8.618  0.2291  0.0722 -0.6758
 5312SOL    HW227570   0.032   1.905   8.708 -0.0737 -0.1716 -1.0722
 5313SOL     OW27571   0.001   2.378   3.945  0.1726 -0.2818  0.3715
 5313SOL    HW127572   0.074   2.420   3.900 -1.5737  1.9188 -0.4320
 5313SOL    HW227573   4.679   2.454   3.942  0.1067 -0.4279 -1.8405
 5314SOL     OW27574   3.257   4.006   7.681  0.0634  0.2548 -0.2781
 5314SOL    HW127575   3.162   4.001   7.670 -0.1073  0.8722  0.9750
 5314SOL    HW227576   3.264   3.982   7.773  1.5785 -1.7368 -0.9077
 5315SOL     OW27577   1.016   3.996   8.742 -0.6154  0.3138  0.0424
 5315SOL    HW127578   0.928   3.996   8.779 -0.7629  0.1863 -0.3027
 5315SOL    HW227579   1.053   4.068   8.794  0.8785  1.0135 -1.9691
 5316SOL     OW27580   2.040   2.337   1.440 -0.0371 -0.0685 -0.3975
 5316SOL    HW127581   1.975   2.401   1.469  2.8581  3.4173 -1.5332
 5316SOL    HW227582   2.105   2.362   1.506 -0.5056  0.1022 -0.0038
 5317SOL     OW27583   3.265   0.271   3.514 -0.7027 -0.3606 -0.0237
 5317SOL    HW127584   3.341   0.257   3.572 -0.4370 -0.4702 -0.3957
 5317SOL    HW227585   3.193   0.263   3.576  0.7312 -1.0646  1.5550
 5318SOL     OW27586   1.725   0.866   7.438 -0.0063 -0.0400  0.0411
 5318SOL    HW127587   1.798   0.870   7.376  1.0695  0.6331  1.3446
 5318SOL    HW227588   1.731   0.952   7.480 -0.3942  0.9874 -1.9763
 5319SOL     OW27589   1.289   3.231   3.308 -0.3052  0.3735  0.0820
 5319SOL    HW127590   1.286   3.136   3.319  0.2852  0.5604  1.8001
 5319SOL    HW227591   1.322   3.240   3.218  3.2769  0.2371  1.3805
 5320SOL     OW27592   4.355   2.622   6.506 -0.2225 -0.5879 -0.1453
 5320SOL    HW127593   4.409   2.624   6.427 -0.3864  1.0019 -0.2170
 5320SOL    HW227594   4.323   2.533   6.490 -0.5799 -0.4754 -0.0444
 5321SOL     OW27595   2.721   2.804  14.285 -0.2843  0.3072  0.1224
 5321SOL    HW127596   2.721   2.719  14.241  0.5021  0.3219  0.0973
 5321SOL    HW227597   2.663   2.789  14.359  0.2084  0.8696  0.6199
 5322SOL     OW27598   0.149   0.422   9.280 -0.5014 -0.1396 -0.2809
 5322SOL    HW127599   0.111   0.351   9.229 -0.5730 -0.0502 -0.3510
 5322SOL    HW227600   0.216   0.371   9.327 -2.4224 -1.3552  1.1445
 5323SOL     OW27601   2.080   0.778   2.088  0.3892 -0.4903 -0.3705
 5323SOL    HW127602   2.092   0.872   2.097  1.8429 -0.8079  0.9244
 5323SOL    HW227603   2.167   0.738   2.087  0.0289 -1.3310  1.2164
 5324SOL     OW27604   0.610   3.178   4.840 -0.2245  0.0673 -0.4127
 5324SOL    HW127605   0.594   3.222   4.923 -1.0487  1.8821 -1.5368
 5324SOL    HW227606   0.691   3.136   4.871  0.4414  0.8918 -1.0212
 5325SOL     OW27607   0.154   4.245   0.969 -0.1081  0.3809 -0.6373
 5325SOL    HW127608   0.230   4.261   1.025 -0.9692 -0.1653  0.6813
 5325SOL    HW227609   0.193   4.183   0.907  3.5415  0.6590  1.3635
 5326SOL     OW27610   2.529   4.429  15.124 -0.9533 -0.2527  0.4873
 5326SOL    HW127611   2.624   4.442  15.133 -0.4426 -2.5571 -1.6131
 5326SOL    HW227612   2.522   4.349  15.073  2.1967  0.8277 -1.5910
 5327SOL     OW27613   0.174   3.594   7.829  0.0233 -0.1326 -0.1750
 5327SOL    HW127614   0.212   3.535   7.894 -1.8452  0.4365  1.4722
 5327SOL    HW227615   0.083   3.600   7.860 -0.1011 -0.7669 -0.4264
 5328SOL     OW27616   0.830   4.270   7.307 -0.3896 -0.1305  0.0983
 5328SOL    HW127617   0.910   4.321   7.320 -1.1553  1.3157 -0.8998
 5328SOL    HW227618   0.830   4.223   7.390 -1.4803 -0.2036  0.0550
 5329SOL     OW27619   2.676   0.037  13.920  0.0708  0.0993 -0.0123
 5329SOL    HW127620   2.768   0.042  13.896  0.1383  3.0754  0.8570
 5329SOL    HW227621   2.636   4.711  13.861  0.6926  0.0841 -0.4135
 5330SOL     OW27622   1.461   1.678   1.961 -0.0061  0.2458 -0.4363
 5330SOL    HW127623   1.511   1.753   1.992 -1.0661  0.6930  0.1977
 5330SOL    HW227624   1.430   1.638   2.042  0.9129  0.3361 -0.0384
 5331SOL     OW27625   0.126   1.720  17.687  0.1668  0.1271 -0.3797
 5331SOL    HW127626   0.188   1.659  17.648  1.1409  0.2347  1.0067
 5331SOL    HW227627   0.117   1.689   0.029 -3.2207 -0.0924 -0.7819
 5332SOL     OW27628   3.825   0.837   8.622  0.0843  0.4407  0.2322
 5332SOL    HW127629   3.819   0.898   8.549 -2.4504 -0.5756 -0.3933
 5332SOL    HW227630   3.753   0.774   8.614 -0.4152  1.2431 -1.4886
 5333SOL     OW27631   4.379   1.673   4.300 -0.3719 -0.1772  0.3407
 5333SOL    HW127632   4.291   1.641   4.283 -0.8476 -0.1343  2.8381
 5333SOL    HW227633   4.418   1.653   4.214  0.0885  1.3796  0.1813
 5334SOL     OW27634   3.545   4.011   8.082 -0.1968  0.6266  0.2201
 5334SOL    HW127635   3.638   3.994   8.099 -0.6898 -1.0471  1.1913
 5334SOL    HW227636   3.549   4.022   7.987 -1.7782 -1.2504 -0.0594
 5335SOL     OW27637   1.201   3.072  13.254 -0.2867 -0.3903 -0.1389
 5335SOL    HW127638   1.187   3.088  13.348  1.1354  0.0274  0.0085
 5335SOL    HW227639   1.215   3.161  13.221  0.1849 -1.2424 -2.1971
 5336SOL     OW27640   4.537   0.866   5.654  0.1160  0.5736 -0.4983
 5336SOL    HW127641   4.491   0.922   5.716 -1.9585 -0.3556 -1.1899
 5336SOL    HW227642   4.489   0.785   5.673  1.9066 -1.0183 -2.7190
 5337SOL     OW27643   4.345   4.103   6.207 -0.2462 -0.4798  0.4071
 5337SOL    HW127644   4.355   4.008   6.214  1.9302 -0.5120 -2.5610
 5337SOL    HW227645   4.281   4.113   6.136  1.2029 -0.8107 -0.9696
 5338SOL     OW27646   1.429   4.043   7.806 -0.3452  0.2116 -0.1271
 5338SOL    HW127647   1.379   4.093   7.871  0.8299 -0.7341  1.5152
 5338SOL    HW227648   1.467   3.978   7.865 -0.5693  0.7225  0.5838
 5339SOL     OW27649   4.668   0.402  11.389 -0.1177  0.0526  0.1639
 5339SOL    HW127650   4.699   0.461  11.319 -1.3782  0.3398 -0.1495
 5339SOL    HW227651   4.684   0.318  11.347  1.9576  0.0103  1.0053
 5340SOL     OW27652   1.886   0.877   5.461  0.0362 -0.4056  0.0869
 5340SOL    HW127653   1.874   0.886   5.366  1.3809 -1.2657 -0.1633
 5340SOL    HW227654   1.828   0.803   5.480 -0.6537 -0.5740 -2.6032
 5341SOL     OW27655   3.492   3.381   2.917 -0.2850 -0.3679 -0.0079
 5341SOL    HW127656   3.482   3.383   2.822 -0.9633 -0.4289  0.0604
 5341SOL    HW227657   3.546   3.459   2.932 -0.6376 -0.3388  1.1749
 5342SOL     OW27658   0.568   1.417   1.509  0.2192  0.3934  0.0442
 5342SOL    HW127659   0.496   1.476   1.485 -0.1726 -0.4506 -0.8855
 5342SOL    HW227660   0.579   1.366   1.429  0.2717  0.3075  0.1072
 5343SOL     OW27661   3.462   3.767   1.991  0.0457  0.1608  0.4414
 5343SOL    HW127662   3.441   3.706   2.062  1.0849 -0.6802  0.0350
 5343SOL    HW227663   3.550   3.739   1.963 -0.4405  2.0551 -3.0008
 5344SOL     OW27664   1.396   2.399   0.163  0.3157 -0.7291 -0.1798
 5344SOL    HW127665   1.415   2.420   0.072 -0.5523 -0.0393 -0.1933
 5344SOL    HW227666   1.354   2.314   0.150 -0.7360 -0.3351  0.6335
 5345SOL     OW27667   0.896   4.157   0.166 -0.1188 -0.2644 -0.3789
 5345SOL    HW127668   0.820   4.175   0.111 -1.2443  0.6796  1.4815
 5345SOL    HW227669   0.876   4.094   0.236 -0.9568 -0.8745 -1.1671
 5346SOL     OW27670   2.621   4.298   9.537 -0.4231  0.0105 -0.5232
 5346SOL    HW127671   2.624   4.381   9.584  3.8567 -0.4504  0.0666
 5346SOL    HW227672   2.691   4.249   9.581 -0.6113  0.7004  0.5562
 5347SOL     OW27673   0.194   0.352   4.102 -0.1680  0.6041 -0.4249
 5347SOL    HW127674   0.163   0.363   4.012 -1.4287  0.6053  0.0081
 5347SOL    HW227675   0.116   0.319   4.145 -0.3849 -0.0565 -1.3072
 5348SOL     OW27676   0.174   4.673   7.693 -0.3483  0.4008  0.1846
 5348SOL    HW127677   0.228   4.653   7.770 -1.1611  1.7179  1.0939
 5348SOL    HW227678   0.237   4.726   7.644 -1.8217  0.3580 -1.7138
 5349SOL     OW27679   2.051   2.956  10.539  0.9030  0.0253  0.0828
 5349SOL    HW127680   2.002   2.966  10.457  0.8007  0.5243  0.2048
 5349SOL    HW227681   2.089   3.043  10.528  1.1245 -0.1853 -0.8041
 5350SOL     OW27682   2.311   4.526  10.347 -0.2735  0.2689  0.3451
 5350SOL    HW127683   2.354   4.494  10.268  0.2991 -0.8566  1.1163
 5350SOL    HW227684   2.327   4.450  10.403 -0.2577  1.1199  1.4882
 5351SOL     OW27685   0.409   1.129  12.392  0.3964 -0.5767 -0.1946
 5351SOL    HW127686   0.314   1.137  12.386  0.5507 -0.4618 -2.5492
 5351SOL    HW227687   0.441   1.104  12.305 -0.5648 -0.2196 -0.6502
 5352SOL     OW27688   1.752   0.321   5.617  0.1663 -0.2756  0.3856
 5352SOL    HW127689   1.713   0.234   5.626 -1.3400  0.2138 -1.2395
 5352SOL    HW227690   1.752   0.336   5.522  0.5567  1.2484  0.6275
 5353SOL     OW27691   1.441   4.519   4.592  0.5596  0.2550  0.4064
 5353SOL    HW127692   1.351   4.520   4.623  0.4515 -0.4716  0.1214
 5353SOL    HW227693   1.474   4.602   4.627  1.7589  1.1128 -2.6729
 5354SOL     OW27694   0.279   4.382   6.097 -0.2080  0.2772  0.2255
 5354SOL    HW127695   0.295   4.333   6.178  0.7770 -0.6172 -0.5060
 5354SOL    HW227696   0.191   4.416   6.115  0.1263  1.7625 -0.9800
 5355SOL     OW27697   3.924   3.205   2.582 -0.7759 -0.1403 -0.2718
 5355SOL    HW127698   4.000   3.242   2.537 -3.3006  2.3242 -2.5569
 5355SOL    HW227699   3.958   3.117   2.595  0.1950  0.4434  1.0557
 5356SOL     OW27700   1.563   4.355   0.129 -0.1726  0.0671  0.4085
 5356SOL    HW127701   1.600   4.320   0.048  2.1704  0.6186  1.2350
 5356SOL    HW227702   1.507   4.281   0.152 -0.9951 -0.0035 -1.8353
 5357SOL     OW27703   2.764   1.705  10.351 -0.3789 -0.2551 -0.3830
 5357SOL    HW127704   2.774   1.628  10.296  1.1789  0.1016 -0.6073
 5357SOL    HW227705   2.800   1.780  10.303  1.5240 -0.1312  1.2779
 5358SOL     OW27706   3.596   1.419   6.692 -0.0980 -0.4071 -0.2579
 5358SOL    HW127707   3.511   1.438   6.731 -0.2384 -0.6519 -0.4423
 5358SOL    HW227708   3.619   1.336   6.734 -0.9482 -0.8367 -0.6441
 5359SOL     OW27709   2.320   2.647   6.720  0.2739 -0.0322  0.0733
 5359SOL    HW127710   2.294   2.690   6.802 -0.2009  2.5455 -1.4417
 5359SOL    HW227711   2.380   2.583   6.758 -0.4889 -0.6890  0.1650
 5360SOL     OW27712   0.774   1.112   3.228 -0.4049  0.1519  0.1642
 5360SOL    HW127713   0.772   1.094   3.134 -0.5619  0.5931  0.0810
 5360SOL    HW227714   0.732   1.033   3.265 -0.6623  0.8528  1.3876
 5361SOL     OW27715   2.581   1.397  10.304  0.1164  0.4936  0.1075
 5361SOL    HW127716   2.593   1.376  10.397 -1.0500 -1.7413 -0.2431
 5361SOL    HW227717   2.668   1.414  10.268 -0.1739  1.6493 -0.0394
 5362SOL     OW27718   3.013   3.698   6.600 -0.1483  0.6661 -0.1807
 5362SOL    HW127719   3.004   3.630   6.666  0.6168 -0.2977 -1.0538
 5362SOL    HW227720   3.093   3.744   6.627  0.7895 -2.3022  2.1483
 5363SOL     OW27721   4.282   1.900  17.727  0.0780  1.0511  0.1642
 5363SOL    HW127722   4.289   1.805  17.733 -0.5524  1.0477  0.8658
 5363SOL    HW227723   4.271   1.919   0.072  2.1654  3.5697 -0.0995
 5364SOL     OW27724   4.442   1.605   5.426 -0.1724 -0.0595 -0.1099
 5364SOL    HW127725   4.489   1.655   5.492 -0.3737 -0.7637  0.5630
 5364SOL    HW227726   4.396   1.542   5.481 -1.3272  1.8906  1.1548
 5365SOL     OW27727   4.246   1.020  10.225  0.2122 -0.4702  0.1209
 5365SOL    HW127728   4.299   1.098  10.240 -2.5347  1.5054 -0.5765
 5365SOL    HW227729   4.194   1.014  10.306  0.1270  0.0024  0.0975
 5366SOL     OW27730   2.784   0.941   2.172  0.2367  0.3026 -0.0611
 5366SOL    HW127731   2.786   0.880   2.098 -2.2251 -1.6257  1.4295
 5366SOL    HW227732   2.874   0.970   2.170  0.1002  0.6953 -0.3607
 5367SOL     OW27733   4.298   0.958  11.038  0.0481 -0.2359 -0.4540
 5367SOL    HW127734   4.307   0.883  10.980  1.3018 -1.7419  1.6856
 5367SOL    HW227735   4.206   0.959  11.064  0.2159  0.3520  0.1142
 5368SOL     OW27736   2.362   0.028   6.801  0.1799  0.1648  0.7439
 5368SOL    HW127737   2.343   0.054   6.892 -0.3831 -2.8300  1.4849
 5368SOL    HW227738   2.297   0.076   6.751 -0.8476  0.3534  2.2365
 5369SOL     OW27739   2.405   3.037   4.475  0.9602  0.3018 -0.2164
 5369SOL    HW127740   2.387   3.009   4.386  1.8696 -1.0713  0.0407
 5369SOL    HW227741   2.340   2.997   4.533 -0.3405 -1.1945 -2.7283
 5370SOL     OW27742   3.601   2.101   4.394 -0.4966  0.1062  0.2802
 5370SOL    HW127743   3.582   2.105   4.488  1.7805 -2.1053  0.8387
 5370SOL    HW227744   3.512   2.114   4.360 -0.8482 -2.0965  0.3109
 5371SOL     OW27745   1.539   1.347   0.762  0.0181  0.1520 -0.2691
 5371SOL    HW127746   1.531   1.302   0.677 -2.6251  1.0874 -0.5084
 5371SOL    HW227747   1.457   1.396   0.758 -0.7233 -1.2769 -3.4535
 5372SOL     OW27748   2.280   3.655   6.430 -0.2652  0.1649  0.4881
 5372SOL    HW127749   2.326   3.727   6.388  0.5252 -0.4855  0.2298
 5372SOL    HW227750   2.236   3.603   6.363 -1.6143  1.2947  0.5001
 5373SOL     OW27751   3.723   4.714   4.947  0.3926 -0.3097 -0.3139
 5373SOL    HW127752   3.715   0.051   4.888  1.8010 -0.3647 -0.5537
 5373SOL    HW227753   3.806   0.002   4.986 -0.5253 -2.1192  2.8682
 5374SOL     OW27754   2.906   2.950  14.677  0.4871 -0.1273 -0.0413
 5374SOL    HW127755   2.880   3.021  14.736  0.8525 -0.4148  0.4735
 5374SOL    HW227756   2.860   2.971  14.596  1.2692 -0.6866 -0.6292
 5375SOL     OW27757   0.259   3.255  14.749 -0.2913 -0.3807  0.5912
 5375SOL    HW127758   0.179   3.212  14.781 -1.4914 -1.1415 -3.5294
 5375SOL    HW227759   0.317   3.224  14.819 -2.2819 -1.5263  1.7729
 5376SOL     OW27760   3.393   4.669  14.705 -0.5966  0.6487 -0.3453
 5376SOL    HW127761   3.332   4.664  14.778 -0.3824  2.3621 -0.0656
 5376SOL    HW227762   3.332   4.692  14.636  0.3609  1.8318 -0.7872
 5377SOL     OW27763   0.477   3.733   7.169 -0.2896  0.0777  0.0175
 5377SOL    HW127764   0.430   3.656   7.136 -0.4784  0.3962 -0.4493
 5377SOL    HW227765   0.411   3.799   7.148 -0.3101  0.1070  0.1728
 5378SOL     OW27766   0.192   0.972  16.959 -0.6155 -0.0501  0.6289
 5378SOL    HW127767   0.107   1.009  16.984 -0.8328 -1.1422  1.5149
 5378SOL    HW227768   0.169   0.909  16.891  0.7826  1.5770 -1.3372
 5379SOL     OW27769   2.810   1.343   7.342 -0.3653  0.5907  0.6870
 5379SOL    HW127770   2.900   1.315   7.326 -1.2447 -2.5122  1.1267
 5379SOL    HW227771   2.769   1.301   7.266 -1.7129 -0.8398  2.1828
 5380SOL     OW27772   2.179   3.881   4.693  0.1740  0.0556 -0.5549
 5380SOL    HW127773   2.189   3.911   4.783 -0.5387  1.5307 -0.9681
 5380SOL    HW227774   2.259   3.921   4.656  0.5673 -1.0238 -0.8788
 5381SOL     OW27775   2.998   1.553  10.477 -0.2201 -0.1042  0.0441
 5381SOL    HW127776   3.058   1.534  10.549 -1.9440 -2.5907  0.8647
 5381SOL    HW227777   3.014   1.647  10.473 -2.1770  0.2424  0.1640
 5382SOL     OW27778   4.589   1.439   7.182  0.1207 -0.1453 -0.0702
 5382SOL    HW127779   4.637   1.359   7.203 -2.6012 -1.3764  1.4982
 5382SOL    HW227780   4.540   1.445   7.264  0.8238  0.0081  0.3476
 5383SOL     OW27781   3.978   0.914  11.367 -0.2416  0.0156  0.1581
 5383SOL    HW127782   3.998   0.831  11.323  2.8545 -0.6955  2.9086
 5383SOL    HW227783   4.067   0.946  11.384  0.5983 -0.5071 -3.2925
 5384SOL     OW27784   0.740   4.042   4.009  0.2963  0.2283  0.0624
 5384SOL    HW127785   0.679   4.014   4.077 -1.3849 -0.8856 -1.8984
 5384SOL    HW227786   0.782   3.955   4.007  0.7812  0.5259 -2.3610
 5385SOL     OW27787   2.598   2.658  16.532 -0.2039  0.7243 -1.0977
 5385SOL    HW127788   2.585   2.604  16.610 -1.3760 -0.0954 -1.8515
 5385SOL    HW227789   2.634   2.736  16.573  2.0660 -0.3571 -1.0267
 5386SOL     OW27790   4.169   2.697  15.488 -0.0370  0.2449  0.5773
 5386SOL    HW127791   4.239   2.761  15.496  0.6448 -0.4239  0.0674
 5386SOL    HW227792   4.202   2.621  15.439  1.3660  0.0515  1.8260
 5387SOL     OW27793   2.685   3.632  14.700 -0.4152  0.1881 -0.3456
 5387SOL    HW127794   2.661   3.723  14.720  0.0578  0.0052  1.0686
 5387SOL    HW227795   2.659   3.582  14.778  0.2704  3.1680  1.7929
 5388SOL     OW27796   4.694   1.380   4.863 -0.1701 -0.3667  0.5969
 5388SOL    HW127797   0.013   1.421   4.799 -1.0434  0.0650  0.1093
 5388SOL    HW227798   4.621   1.364   4.803 -1.3586  1.0599  1.6514
 5389SOL     OW27799   1.926   3.062   3.549 -0.1526  0.0610 -0.4672
 5389SOL    HW127800   1.900   3.071   3.641  2.6422 -1.8753  0.5092
 5389SOL    HW227801   1.865   2.994   3.520  0.3718 -0.7937  0.4083
 5390SOL     OW27802   0.016   0.814   4.268  0.0867 -0.3159  0.1655
 5390SOL    HW127803   4.715   0.852   4.347 -2.8303  1.1771 -1.9903
 5390SOL    HW227804   4.687   0.751   4.239 -2.1687  1.8870  0.5419
 5391SOL     OW27805   3.027   2.279   6.062  0.0840 -0.0578  0.0663
 5391SOL    HW127806   3.082   2.220   6.114  1.3630  0.8375 -0.2784
 5391SOL    HW227807   3.049   2.356   6.114  0.9781 -0.4178  0.2315
 5392SOL     OW27808   3.938   0.008   6.499  0.3002 -0.2785 -0.1096
 5392SOL    HW127809   3.853   0.010   6.456  0.4924  1.9326 -0.4275
 5392SOL    HW227810   3.963   4.655   6.485 -1.6251 -0.2154 -3.6982
 5393SOL     OW27811   3.373   2.950  11.390 -0.0767 -0.3074  0.0667
 5393SOL    HW127812   3.384   2.913  11.478 -1.3862 -1.1459 -0.1433
 5393SOL    HW227813   3.404   2.886  11.326 -0.1522 -1.2060  0.9297
 5394SOL     OW27814   0.246   0.401   6.578  0.1846  0.0393  0.1934
 5394SOL    HW127815   0.264   0.310   6.553 -0.2648 -0.2400  0.8970
 5394SOL    HW227816   0.335   0.434   6.590  0.1369  0.3146 -0.2091
 5395SOL     OW27817   1.951   1.311   5.518  0.1496 -0.1378  0.2148
 5395SOL    HW127818   1.882   1.276   5.461 -0.9210  0.2753  1.2487
 5395SOL    HW227819   1.959   1.241   5.582  1.5471  0.1782  0.3860
 5396SOL     OW27820   1.986   1.044   2.178 -0.2030 -0.2968 -0.6049
 5396SOL    HW127821   1.947   1.131   2.173 -0.0849 -0.2958 -1.4919
 5396SOL    HW227822   2.077   1.064   2.198 -0.4349 -0.7265  0.8608
 5397SOL     OW27823   3.256   3.310   3.025 -0.0228 -0.4402 -0.2254
 5397SOL    HW127824   3.253   3.217   3.044 -1.6084 -0.8484 -2.4730
 5397SOL    HW227825   3.345   3.316   2.992 -0.7874  2.3068 -1.7908
 5398SOL     OW27826   1.114   2.007   9.699  0.3478 -0.6840  0.0818
 5398SOL    HW127827   1.194   1.964   9.670 -1.0105 -1.0984 -3.0527
 5398SOL    HW227828   1.061   2.013   9.620  0.4636  2.0044  0.2030
 5399SOL     OW27829   1.136   0.282   5.969 -0.1116  0.0751  0.5245
 5399SOL    HW127830   1.122   0.189   5.947  0.3609  0.1238  0.0165
 5399SOL    HW227831   1.152   0.318   5.882 -0.3577 -2.7140 -0.6995
 5400SOL     OW27832   3.455   3.675   5.927 -0.7298 -0.5597 -0.3449
 5400SOL    HW127833   3.375   3.708   5.885  0.4725  2.1740 -0.5067
 5400SOL    HW227834   3.416   3.621   5.995  1.3845 -0.3995  0.9893
 5401SOL     OW27835   4.475   1.552  14.587 -0.0977  0.1161 -0.0828
 5401SOL    HW127836   4.477   1.466  14.546 -0.1711  0.6588 -1.2231
 5401SOL    HW227837   4.384   1.563  14.614 -0.0334  1.2919 -0.3354
 5402SOL     OW27838   4.029   1.765   9.231 -0.0343 -0.1130 -0.2253
 5402SOL    HW127839   3.965   1.711   9.278  0.3418  1.5622  2.1886
 5402SOL    HW227840   4.033   1.840   9.290  1.0067 -0.3420 -0.0181
 5403SOL     OW27841   2.015   1.490  17.176  0.2311  0.2211  0.8219
 5403SOL    HW127842   1.997   1.486  17.082 -1.5345 -0.7022  1.1988
 5403SOL    HW227843   2.110   1.486  17.175  0.1957 -0.8590  1.5853
 5404SOL     OW27844   3.794   3.384   1.843 -0.2618  0.5360 -0.4624
 5404SOL    HW127845   3.883   3.417   1.833 -0.3049  0.6320 -0.5402
 5404SOL    HW227846   3.782   3.328   1.766 -2.1506 -1.1991  1.1213
 5405SOL     OW27847   4.101   1.519   2.910  0.0534 -0.2356 -0.2236
 5405SOL    HW127848   4.070   1.603   2.875 -3.0435 -0.5828  1.6511
 5405SOL    HW227849   4.018   1.471   2.920  0.9862 -1.3927  1.7918
 5406SOL     OW27850   1.024   1.546   0.445 -0.2549 -0.0301 -0.0187
 5406SOL    HW127851   0.933   1.529   0.420  0.0926 -0.1207 -1.2192
 5406SOL    HW227852   1.038   1.465   0.495 -0.0501  1.0670  1.6723
 5407SOL     OW27853   2.340   1.436  11.582  0.5628  0.2881 -0.0965
 5407SOL    HW127854   2.420   1.488  11.596  1.1283  0.1154 -2.7417
 5407SOL    HW227855   2.285   1.503  11.542  1.7364  0.4145 -1.5247
 5408SOL     OW27856   0.070   1.095  16.579 -0.5466 -0.3054 -0.3868
 5408SOL    HW127857   0.017   1.022  16.549 -1.3948  0.2763 -0.3076
 5408SOL    HW227858   0.134   1.094  16.509 -0.2579 -0.1375 -0.1262
 5409SOL     OW27859   3.370   2.874   2.324 -0.4140 -0.3821 -0.4809
 5409SOL    HW127860   3.320   2.943   2.369 -0.4692 -1.9120  1.8009
 5409SOL    HW227861   3.400   2.923   2.248 -1.3886  1.7974  0.5475
 5410SOL     OW27862   1.224   3.801   6.212 -0.2617 -0.0935  0.6808
 5410SOL    HW127863   1.273   3.821   6.132  1.1243 -0.0271  1.5513
 5410SOL    HW227864   1.289   3.768   6.275 -0.4186 -0.6267  0.5679
 5411SOL     OW27865   0.869   0.689   9.475  0.1355  0.4788  0.4735
 5411SOL    HW127866   0.814   0.734   9.411 -0.7184  2.3826  2.5216
 5411SOL    HW227867   0.889   0.755   9.542 -0.8482  0.6752  0.5733
 5412SOL     OW27868   4.195   0.750   5.893 -0.4699  0.8005 -0.3017
 5412SOL    HW127869   4.286   0.745   5.864 -0.3416  1.3027 -0.0057
 5412SOL    HW227870   4.201   0.716   5.983  2.2186  0.1502 -0.7311
 5413SOL     OW27871   4.155   4.441   7.005 -0.0152 -0.2072 -0.2912
 5413SOL    HW127872   4.129   4.349   7.011  1.5844 -0.5927  0.6732
 5413SOL    HW227873   4.088   4.479   7.063 -0.8000  0.7455 -1.8269
 5414SOL     OW27874   1.862   2.284   3.067 -0.2607 -0.2692  0.5444
 5414SOL    HW127875   1.818   2.245   3.143 -0.6578 -0.8341  0.0232
 5414SOL    HW227876   1.922   2.214   3.043 -1.0660 -0.7269 -0.1059
 5415SOL     OW27877   1.742   2.009   5.430  0.0440  0.2175 -0.3919
 5415SOL    HW127878   1.785   2.052   5.356 -1.9832  0.1111 -1.6561
 5415SOL    HW227879   1.678   1.959   5.378  1.4106 -0.3263 -1.5549
 5416SOL     OW27880   1.360   2.951   4.935  0.6276  0.0887  0.8440
 5416SOL    HW127881   1.303   2.932   4.861  2.4853 -0.8256 -0.3828
 5416SOL    HW227882   1.444   2.925   4.896  1.4382  1.4642  1.6753
 5417SOL     OW27883   1.625   3.391   3.638 -0.2398 -0.7841 -0.1141
 5417SOL    HW127884   1.640   3.397   3.544 -2.6933  3.1677 -0.2556
 5417SOL    HW227885   1.709   3.396   3.682  0.3157 -0.1391 -1.2519
 5418SOL     OW27886   0.883   1.780   9.023  0.1924  0.2195  0.3276
 5418SOL    HW127887   0.844   1.701   8.986  0.3121  1.0502 -1.5615
 5418SOL    HW227888   0.973   1.772   8.990 -0.3281 -0.1308 -1.0071
 5419SOL     OW27889   4.382   2.259  16.130 -0.1786  0.5684  0.3068
 5419SOL    HW127890   4.377   2.164  16.128 -1.2589  0.6157  0.7703
 5419SOL    HW227891   4.452   2.281  16.191  0.6366  4.1264 -1.8880
 5420SOL     OW27892   3.040   2.132  12.835 -0.2450 -0.5277 -0.3804
 5420SOL    HW127893   3.119   2.091  12.799  0.1152 -0.3011  0.1557
 5420SOL    HW227894   3.063   2.121  12.927  0.0255  1.9086 -0.1556
 5421SOL     OW27895   1.449   3.113   6.612 -0.1795 -0.3022 -0.7622
 5421SOL    HW127896   1.518   3.060   6.651 -0.6056  0.7661  1.4353
 5421SOL    HW227897   1.377   3.050   6.622  0.9267 -1.1937  1.5208
 5422SOL     OW27898   1.288   3.231   8.244 -0.5777  0.1964 -0.1329
 5422SOL    HW127899   1.217   3.295   8.250 -1.2424 -0.4483 -1.1087
 5422SOL    HW227900   1.289   3.205   8.152 -1.6525 -0.7865  0.1352
 5423SOL     OW27901   3.687   2.380  16.459 -0.6574 -0.8924 -0.6574
 5423SOL    HW127902   3.761   2.436  16.440 -0.3828 -0.1664  2.5930
 5423SOL    HW227903   3.727   2.298  16.429  0.2939 -0.7126  0.1106
 5424SOL     OW27904   1.158   4.510  14.603  0.0585  0.0745  0.2565
 5424SOL    HW127905   1.219   4.585  14.604  0.2364 -0.0648 -0.3945
 5424SOL    HW227906   1.123   4.516  14.515 -0.2812  2.9070  0.5652
 5425SOL     OW27907   3.265   3.924   6.682  0.3536  0.6101  0.4871
 5425SOL    HW127908   3.325   3.987   6.642  1.1511 -0.1101  0.5340
 5425SOL    HW227909   3.181   3.969   6.687 -0.8585 -1.5941 -0.1906
 5426SOL     OW27910   1.294   2.240   0.771 -0.1546 -0.0533  0.6482
 5426SOL    HW127911   1.259   2.326   0.795 -3.0209 -1.0098 -0.1542
 5426SOL    HW227912   1.303   2.188   0.851  0.3916 -0.5850  0.2316
 5427SOL     OW27913   1.202   2.972   7.472  0.1750 -0.0425 -0.5505
 5427SOL    HW127914   1.156   2.888   7.476 -0.2237  0.1139 -1.8321
 5427SOL    HW227915   1.282   2.941   7.429  1.6707  3.0293  0.0037
 5428SOL     OW27916   3.450   4.710   5.945  0.2895  0.3008  0.2100
 5428SOL    HW127917   3.451   0.006   6.035  0.4130 -0.8318  0.6323
 5428SOL    HW227918   3.493   0.044   5.898 -0.7170  0.7581 -0.0203
 5429SOL     OW27919   0.755   4.724   8.267 -0.2929  0.3113 -0.3479
 5429SOL    HW127920   0.682   4.663   8.274  0.8107 -0.8060  1.3333
 5429SOL    HW227921   0.767   4.732   8.172 -0.0630  1.9290 -0.1869
 5430SOL     OW27922   1.930   1.741  17.530  0.4052  0.0285 -0.6452
 5430SOL    HW127923   1.940   1.792  17.611  2.6617 -1.5505  0.0711
 5430SOL    HW227924   1.876   1.663  17.541 -1.6603  1.7107  1.1113
 5431SOL     OW27925   2.047   2.611  12.879  0.4286  0.5679 -0.1543
 5431SOL    HW127926   2.115   2.561  12.833 -0.4453 -0.3199 -0.4833
 5431SOL    HW227927   2.105   2.672  12.924  1.9772  0.9166 -2.6160
 5432SOL     OW27928   1.461   0.836   7.389 -0.1172 -0.3211 -0.0723
 5432SOL    HW127929   1.437   0.888   7.466  2.1841  0.4999  0.1117
 5432SOL    HW227930   1.556   0.840   7.399 -0.1184  1.1557 -0.5589
 5433SOL     OW27931   4.284   1.049   6.337  0.0436  0.5520  0.1445
 5433SOL    HW127932   4.196   1.022   6.311 -0.6462  1.6598  1.3015
 5433SOL    HW227933   4.263   1.130   6.384 -0.3135 -0.3363  1.5044
 5434SOL     OW27934   0.748   2.487  12.727 -0.8108  0.2987 -0.1369
 5434SOL    HW127935   0.704   2.427  12.667 -0.4360 -1.7491  1.6284
 5434SOL    HW227936   0.826   2.500  12.674 -1.2711  0.5163 -0.7537
 5435SOL     OW27937   3.698   3.448   5.483 -0.7486  0.2104 -0.3700
 5435SOL    HW127938   3.768   3.384   5.472  0.5140  1.0006  3.1184
 5435SOL    HW227939   3.734   3.520   5.431 -0.1678 -0.4275 -0.8500
 5436SOL     OW27940   0.246   0.678   6.727  0.7665  0.5163  0.7888
 5436SOL    HW127941   0.279   0.649   6.642  0.6006  2.2027  0.1557
 5436SOL    HW227942   0.324   0.732   6.740  0.3194  1.6990 -1.3984
 5437SOL     OW27943   4.690   1.448   0.032  0.3192  0.1197 -0.4072
 5437SOL    HW127944   0.012   1.378   0.005  0.6094  0.0907  0.3003
 5437SOL    HW227945   4.615   1.406   0.076  0.6112 -1.7003 -1.6503
 5438SOL     OW27946   3.141   0.018   6.844  0.2448  0.1309 -0.0834
 5438SOL    HW127947   3.054   0.053   6.820  1.7414  1.4152 -3.6618
 5438SOL    HW227948   3.119   4.722   6.931 -0.7873 -0.3576 -0.5269
 5439SOL     OW27949   0.623   3.441   8.752 -0.0604  0.4923  0.3650
 5439SOL    HW127950   0.703   3.436   8.806  0.4587 -0.7003 -0.5192
 5439SOL    HW227951   0.658   3.432   8.663 -4.4476  0.2143 -1.3094
 5440SOL     OW27952   1.004   4.234   2.746  0.0803  0.1383 -0.0829
 5440SOL    HW127953   0.983   4.207   2.836 -1.7915  0.1005 -0.5150
 5440SOL    HW227954   0.937   4.187   2.695  0.7619  2.3206 -2.9490
 5441SOL     OW27955   1.710   2.299  10.073 -0.1751 -0.3954  0.2438
 5441SOL    HW127956   1.689   2.226  10.131  0.2137  0.0404  0.9277
 5441SOL    HW227957   1.690   2.377  10.125 -0.8159  0.2527 -0.9566
 5442SOL     OW27958   3.082   1.558  14.409 -0.4145 -0.6438 -0.1139
 5442SOL    HW127959   3.111   1.598  14.327 -2.7090 -1.5503 -1.3655
 5442SOL    HW227960   2.990   1.539  14.395 -0.0984 -2.3155  0.0132
 5443SOL     OW27961   3.694   4.188   3.167  0.0978  0.4813  0.1101
 5443SOL    HW127962   3.651   4.249   3.226  1.4014  1.8617 -0.3700
 5443SOL    HW227963   3.621   4.136   3.134 -0.2076  1.5665 -0.8976
 5444SOL     OW27964   4.521   0.678   2.493  0.2102  0.4210 -0.5360
 5444SOL    HW127965   4.508   0.735   2.417  1.5725  1.0293 -0.3140
 5444SOL    HW227966   4.514   0.590   2.454  2.4606 -0.9327  2.0810
 5445SOL     OW27967   0.497   3.678  13.700 -0.2399 -0.2021 -0.2328
 5445SOL    HW127968   0.442   3.647  13.772 -0.8872  0.4398 -0.4563
 5445SOL    HW227969   0.498   3.771  13.722  0.0811 -0.2742  0.0626
 5446SOL     OW27970   0.107   3.257  13.790  0.0134 -0.5768  0.5049
 5446SOL    HW127971   0.105   3.162  13.800 -1.7198 -0.5183  0.7682
 5446SOL    HW227972   0.031   3.270  13.733 -1.1519  1.4723  2.5209
 5447SOL     OW27973   1.816   4.100  11.475 -0.4497 -0.0704 -0.0327
 5447SOL    HW127974   1.746   4.038  11.455  1.1712 -1.8401 -0.2050
 5447SOL    HW227975   1.886   4.062  11.422 -1.2101 -1.2746 -0.1681
 5448SOL     OW27976   1.294   2.558   9.523 -0.2055 -0.5006 -0.4566
 5448SOL    HW127977   1.290   2.498   9.449 -2.1830 -0.8922 -0.0215
 5448SOL    HW227978   1.247   2.502   9.585 -1.4473  1.4716  0.3462
 5449SOL     OW27979   0.086   2.613   9.488  0.1423 -0.1819 -0.1968
 5449SOL    HW127980   0.009   2.669   9.496  0.2974  0.1656 -1.1711
 5449SOL    HW227981   0.149   2.673   9.449 -0.0476 -0.7591 -1.4046
 5450SOL     OW27982   2.249   1.827   3.839  0.1119 -0.1986 -0.5157
 5450SOL    HW127983   2.231   1.916   3.868  3.5151  0.4145 -0.3047
 5450SOL    HW227984   2.196   1.771   3.895  1.1233 -0.8822 -0.2370
 5451SOL     OW27985   1.106   0.503   1.577  0.2848 -0.2680  0.0584
 5451SOL    HW127986   1.187   0.477   1.621  0.3323 -0.8411 -0.3725
 5451SOL    HW227987   1.119   0.453   1.497  3.2918 -1.2730  1.1834
 5452SOL     OW27988   3.701   2.764   1.053 -0.1985  0.3053 -0.1861
 5452SOL    HW127989   3.647   2.779   0.975  0.6469  0.3165 -0.7607
 5452SOL    HW227990   3.660   2.689   1.098  1.1885  0.1133  0.7556
 5453SOL     OW27991   2.828   0.300   2.342  0.0076 -0.3469 -0.6249
 5453SOL    HW127992   2.792   0.389   2.351 -0.2962 -0.5941  0.6839
 5453SOL    HW227993   2.767   0.245   2.391  1.1237 -1.5455 -0.5782
 5454SOL     OW27994   0.474   1.275   1.847 -0.9426  0.5776 -0.0565
 5454SOL    HW127995   0.548   1.310   1.799 -0.3541 -0.1261  0.3295
 5454SOL    HW227996   0.401   1.285   1.786 -1.4562 -1.0724  0.2708
 5455SOL     OW27997   3.638   3.080  16.718  0.1365 -0.3849 -0.3907
 5455SOL    HW127998   3.572   3.035  16.770 -0.7647  1.6648  0.2153
 5455SOL    HW227999   3.602   3.162  16.687  0.7282  0.3942  0.9976
 5456SOL     OW28000   3.278   2.488   4.038 -0.3927  0.0985  0.1253
 5456SOL    HW128001   3.236   2.550   3.979 -1.6387 -0.5570  0.3356
 5456SOL    HW228002   3.311   2.426   3.972  0.4333 -0.3216  0.9424
 5457SOL     OW28003   2.320   2.449  13.488  0.4034  0.2523 -0.2968
 5457SOL    HW128004   2.412   2.429  13.510 -0.5814 -0.9124  2.8394
 5457SOL    HW228005   2.329   2.447  13.393 -2.9992  0.6131 -0.6136
 5458SOL     OW28006   3.553   4.423   4.180  0.2244 -0.1080  0.0328
 5458SOL    HW128007   3.545   4.335   4.143 -1.8939  0.3296 -0.5063
 5458SOL    HW228008   3.521   4.408   4.269 -1.2167  4.4146  0.2531
 5459SOL     OW28009   0.414   0.061  10.923 -0.1920 -0.3925  0.2026
 5459SOL    HW128010   0.335   0.100  10.886 -0.4880 -0.4752  0.7468
 5459SOL    HW228011   0.379   4.722  10.970 -1.4372 -0.1189 -0.2797
 5460SOL     OW28012   1.980   4.211   8.319 -0.1681  0.9402 -0.3358
 5460SOL    HW128013   1.942   4.185   8.234  1.0810  0.8981 -0.8814
 5460SOL    HW228014   1.914   4.273   8.349  1.8277  1.3960  2.9637
 5461SOL     OW28015   2.791   1.233   9.993  0.6142 -0.4413 -0.7070
 5461SOL    HW128016   2.831   1.237  10.079  0.5331 -0.7685 -0.6522
 5461SOL    HW228017   2.753   1.320   9.984 -1.0145 -0.8839  1.8729
 5462SOL     OW28018   2.524   0.424  16.289 -0.1740 -0.2108  0.1032
 5462SOL    HW128019   2.450   0.479  16.316 -1.2712 -1.8514  0.4531
 5462SOL    HW228020   2.515   0.357  16.356  0.0256  0.0970  0.4402
 5463SOL     OW28021   3.922   0.375   6.793  0.3507  0.4599 -0.1653
 5463SOL    HW128022   3.921   0.338   6.881  1.1321 -0.7664 -0.6652
 5463SOL    HW228023   3.927   0.290   6.750 -1.8865  0.7846 -1.0876
 5464SOL     OW28024   1.551   0.530   3.101 -0.7876 -0.6457 -0.1716
 5464SOL    HW128025   1.608   0.469   3.054  0.3758 -0.3625  0.8860
 5464SOL    HW228026   1.563   0.499   3.190  2.9385  2.7761  0.4877
 5465SOL     OW28027   3.508   4.458   8.934 -0.2439 -0.7167 -0.0677
 5465SOL    HW128028   3.599   4.475   8.910  0.0320  0.0401  1.5163
 5465SOL    HW228029   3.516   4.473   9.028 -0.0541  2.1457 -0.5514
 5466SOL     OW28030   4.531   3.157   3.699  0.1575 -0.4741  0.2376
 5466SOL    HW128031   4.552   3.210   3.622  0.9660  0.4023  1.0622
 5466SOL    HW228032   4.436   3.148   3.690  0.3805 -0.6123 -1.9377
 5467SOL     OW28033   3.646   1.283   2.667 -0.4747  0.0286  0.1426
 5467SOL    HW128034   3.565   1.332   2.649 -0.1091  0.4833 -0.2542
 5467SOL    HW228035   3.600   1.205   2.697 -1.6750  1.0866  1.0861
 5468SOL     OW28036   1.645   0.508   5.771  0.3069 -0.3750  0.1915
 5468SOL    HW128037   1.694   0.507   5.853  0.3202  0.8933  0.2001
 5468SOL    HW228038   1.690   0.442   5.720  1.3848  1.0759 -0.7479
 5469SOL     OW28039   2.834   0.429  17.100  0.3823 -0.5181 -0.1406
 5469SOL    HW128040   2.741   0.414  17.113  0.4298 -1.9985 -1.4278
 5469SOL    HW228041   2.847   0.378  17.020  0.3754 -1.7766  0.6764
 5470SOL     OW28042   3.868   3.940  11.742  0.0904  0.4276  0.3098
 5470SOL    HW128043   3.850   4.033  11.725  0.3678  0.3909 -0.1801
 5470SOL    HW228044   3.963   3.938  11.734 -0.1042 -2.0400 -1.2444
 5471SOL     OW28045   1.423   4.392   0.574 -0.1855  0.4102  0.3198
 5471SOL    HW128046   1.352   4.399   0.510  1.0673  0.7161 -1.0320
 5471SOL    HW228047   1.422   4.480   0.612 -1.0478  0.1707  0.8475
 5472SOL     OW28048   1.308   2.756   0.260 -0.0726  0.4256  0.0934
 5472SOL    HW128049   1.242   2.784   0.197  1.1020 -0.7468 -1.6700
 5472SOL    HW228050   1.257   2.754   0.341 -0.5422 -1.1864 -0.2464
 5473SOL     OW28051   1.080   1.640  17.000  0.2405  0.4528 -0.0217
 5473SOL    HW128052   1.147   1.595  16.949 -0.0094  1.7400 -1.4688
 5473SOL    HW228053   1.004   1.584  16.983  1.9320 -1.0133 -2.7011
 5474SOL     OW28054   1.402   4.046   6.276  0.3504  0.3852  0.3976
 5474SOL    HW128055   1.416   3.956   6.307  1.8386  0.1755 -0.8286
 5474SOL    HW228056   1.352   4.041   6.194 -0.0979 -1.0424  0.7520
 5475SOL     OW28057   2.987   0.931   8.330  0.1259  0.1089  0.0427
 5475SOL    HW128058   2.906   0.896   8.367 -0.6528  2.2171  0.3502
 5475SOL    HW228059   3.002   1.011   8.382  0.4791  0.4926 -0.6528
 5476SOL     OW28060   1.750   0.284  11.432  0.1762 -0.5634  0.7200
 5476SOL    HW128061   1.722   0.205  11.386  2.1730 -1.7880  1.6265
 5476SOL    HW228062   1.825   0.262  11.487  2.3733 -1.6701 -2.7056
 5477SOL     OW28063   1.897   1.174  16.361 -0.0990 -0.0649 -0.4196
 5477SOL    HW128064   1.976   1.218  16.331 -0.7440  2.3370  1.3391
 5477SOL    HW228065   1.839   1.227  16.306  0.6216  2.1110  0.8973
 5478SOL     OW28066   0.898   0.567  14.965 -0.0129  0.0231  0.1013
 5478SOL    HW128067   0.918   0.649  15.010 -0.4721  0.6127 -0.7757
 5478SOL    HW228068   0.804   0.580  14.960  0.2468  1.5207 -0.7448
 5479SOL     OW28069   0.238   2.275   1.848  0.2090  0.0880  0.4645
 5479SOL    HW128070   0.195   2.276   1.934  0.4672  2.4286  0.5847
 5479SOL    HW228071   0.171   2.291   1.782  1.3548 -2.4898 -1.3157
 5480SOL     OW28072   0.284   2.132   5.475 -0.2978  0.1371 -0.2960
 5480SOL    HW128073   0.333   2.119   5.394 -0.2501  0.2414 -0.2832
 5480SOL    HW228074   0.327   2.196   5.531 -0.7749  0.7676 -0.6487
 5481SOL     OW28075   0.874   3.309   7.143 -0.0729 -0.0673 -0.1803
 5481SOL    HW128076   0.927   3.231   7.157 -1.9031 -1.4096 -0.7789
 5481SOL    HW228077   0.882   3.346   7.231 -1.4377  3.4715 -1.5502
 5482SOL     OW28078   3.381   3.449   8.669 -0.1183  0.0571  0.1950
 5482SOL    HW128079   3.304   3.444   8.726 -1.7373 -0.6136 -2.0765
 5482SOL    HW228080   3.380   3.358   8.639 -3.6089  0.3666 -0.6342
 5483SOL     OW28081   1.713   3.294   9.687  0.4128 -0.0857  0.3409
 5483SOL    HW128082   1.684   3.317   9.598  0.5997 -2.4906 -0.3544
 5483SOL    HW228083   1.646   3.331   9.744 -0.4250 -0.5803 -0.3155
 5484SOL     OW28084   3.369   0.180   1.528 -0.2460  0.3786 -0.2872
 5484SOL    HW128085   3.465   0.177   1.537 -0.1419  2.4112 -0.7400
 5484SOL    HW228086   3.346   0.230   1.606 -0.7245 -3.6246  2.1696
 5485SOL     OW28087   3.011   1.944  12.616  0.1756  0.6878 -0.3464
 5485SOL    HW128088   2.935   1.991  12.581  0.1653  0.3688 -0.7593
 5485SOL    HW228089   3.049   2.019  12.661  1.9523  0.7106 -1.9286
 5486SOL     OW28090   0.465   1.339   5.942  0.1135  0.5569  0.3360
 5486SOL    HW128091   0.513   1.365   6.021 -0.8761 -0.1246  1.1728
 5486SOL    HW228092   0.509   1.262   5.906 -1.4101 -0.0754 -0.1745
 5487SOL     OW28093   3.639   2.267   9.252  0.2681 -0.3733 -0.1407
 5487SOL    HW128094   3.703   2.338   9.247  1.1307 -0.9341  2.7815
 5487SOL    HW228095   3.683   2.202   9.306 -0.4802 -1.3947 -0.7767
 5488SOL     OW28096   2.795   1.527   0.867 -0.5232 -0.0270  0.4657
 5488SOL    HW128097   2.808   1.609   0.915 -0.7498 -0.1058  0.6635
 5488SOL    HW228098   2.847   1.550   0.791  0.5725  0.2252  1.2899
 5489SOL     OW28099   3.109   1.690   3.343  0.2412 -0.4991 -0.4292
 5489SOL    HW128100   3.158   1.762   3.383 -2.0326  0.6070  0.3964
 5489SOL    HW228101   3.182   1.657   3.290 -0.1456 -0.4495 -0.9901
 5490SOL     OW28102   2.507   2.964   8.081  0.0620  0.0699 -0.1407
 5490SOL    HW128103   2.432   2.907   8.103  1.0209  0.1836  3.4581
 5490SOL    HW228104   2.473   3.053   8.081 -2.9917 -1.0819 -0.3915
 5491SOL     OW28105   4.564   1.125  14.461 -0.5060  0.6281 -0.5034
 5491SOL    HW128106   4.646   1.122  14.411 -1.0084 -0.0405 -1.2881
 5491SOL    HW228107   4.519   1.191  14.409  0.0336  0.0298 -1.7447
 5492SOL     OW28108   4.718   4.665   3.852  0.5948  0.3566  0.0963
 5492SOL    HW128109   0.022   4.730   3.796  0.0257 -0.3160 -1.1000
 5492SOL    HW228110   4.636   4.652   3.803  0.4336  1.3956  0.0986
 5493SOL     OW28111   2.005   1.661  11.466  0.2826 -0.1256  0.8388
 5493SOL    HW128112   1.974   1.718  11.535 -0.7304  1.0004 -0.5526
 5493SOL    HW228113   2.095   1.693  11.470  0.5877 -0.6589 -1.3142
 5494SOL     OW28114   1.579   3.510   2.742  0.0374  0.0364  0.1128
 5494SOL    HW128115   1.618   3.508   2.655  3.5562 -1.9469  1.7439
 5494SOL    HW228116   1.502   3.453   2.735 -1.6626  1.8706  3.9103
 5495SOL     OW28117   1.052   1.001   6.625 -0.2607  0.2120 -0.1285
 5495SOL    HW128118   1.052   1.088   6.664  0.7092  1.3926 -2.7898
 5495SOL    HW228119   1.089   1.024   6.540  0.5598 -0.8424 -0.0494
 5496SOL     OW28120   4.442   1.670   7.106 -0.4720 -0.0333 -0.5240
 5496SOL    HW128121   4.465   1.589   7.152 -0.1368  0.1908 -0.2928
 5496SOL    HW228122   4.469   1.731   7.174 -0.1815 -0.9520  0.1842
 5497SOL     OW28123   4.703   2.495   7.396 -0.1545 -0.4555  0.9942
 5497SOL    HW128124   0.004   2.410   7.375  0.8329  1.0992 -3.4264
 5497SOL    HW228125   4.723   2.512   7.489 -0.7862  0.0350  1.0405
 5498SOL     OW28126   2.377   2.456  11.273  0.2738 -0.4496  0.2418
 5498SOL    HW128127   2.394   2.522  11.341 -1.8792  1.8841 -1.4916
 5498SOL    HW228128   2.465   2.419  11.283  1.2956  2.2144  1.1601
 5499SOL     OW28129   4.168   1.278   7.621 -0.1403 -0.6103  0.2602
 5499SOL    HW128130   4.218   1.355   7.594 -1.1984  0.0156  0.0912
 5499SOL    HW228131   4.084   1.308   7.587  0.0150 -0.6057 -0.1110
 5500SOL     OW28132   0.805   4.263   0.561  0.4264  1.0331  0.0654
 5500SOL    HW128133   0.819   4.332   0.496 -2.7705 -0.1428 -1.8854
 5500SOL    HW228134   0.838   4.311   0.637  0.0348  0.2603  0.7234
 5501SOL     OW28135   3.993   1.934   5.138 -0.6103 -1.1062 -0.0803
 5501SOL    HW128136   3.944   1.959   5.216 -1.3063  0.8298 -1.1335
 5501SOL    HW228137   4.009   1.841   5.157 -1.1687 -1.0975  0.4182
 5502SOL     OW28138   1.267   1.030   4.630  0.0841  0.2062  0.2875
 5502SOL    HW128139   1.289   1.083   4.553 -1.2325  0.4107  0.0493
 5502SOL    HW228140   1.194   1.081   4.665  0.0347  1.4016 -1.5434
 5503SOL     OW28141   2.077   1.654   7.634 -0.2508  0.2382 -0.4450
 5503SOL    HW128142   2.139   1.709   7.682 -1.1860 -1.0885  2.3394
 5503SOL    HW228143   2.095   1.581   7.693 -0.6420 -0.4947 -1.2282
 5504SOL     OW28144   0.279   0.327  10.239 -0.1052 -0.1715  0.6474
 5504SOL    HW128145   0.334   0.283  10.174  2.4207  2.4806  0.9707
 5504SOL    HW228146   0.243   0.389  10.176 -0.9413 -0.3336  0.9759
 5505SOL     OW28147   4.597   1.328   1.716  0.1985  0.0096  0.3137
 5505SOL    HW128148   4.651   1.292   1.645  3.2229  1.2091  2.0141
 5505SOL    HW228149   4.541   1.251   1.724  0.2040 -0.0249  0.0164
 5506SOL     OW28150   1.391   0.472  12.849  0.5931  0.1235 -0.2235
 5506SOL    HW128151   1.441   0.401  12.810  0.2517  1.0815 -2.4604
 5506SOL    HW228152   1.401   0.539  12.781  4.0980  0.3598  0.5217
 5507SOL     OW28153   0.313   1.756   0.869  0.8391  0.2450  0.1346
 5507SOL    HW128154   0.290   1.841   0.905 -3.4914 -1.2787  0.9725
 5507SOL    HW228155   0.407   1.768   0.857  1.1740 -2.7891 -0.2180
 5508SOL     OW28156   2.725   3.196   8.949  0.0872 -0.1603 -0.1320
 5508SOL    HW128157   2.716   3.138   8.873 -0.7920 -1.2393  0.7847
 5508SOL    HW228158   2.771   3.136   9.007  0.2526  1.3793  1.3219
 5509SOL     OW28159   4.079   0.642   9.362 -0.3468 -0.0797 -0.0871
 5509SOL    HW128160   4.086   0.655   9.456 -0.0971 -0.4294 -0.0577
 5509SOL    HW228161   3.992   0.679   9.343 -0.4735 -0.2764  0.0996
 5510SOL     OW28162   3.121   0.013   2.727 -0.0354 -0.2321 -0.2876
 5510SOL    HW128163   3.145   0.053   2.644 -2.2057  1.5486 -0.0329
 5510SOL    HW228164   3.119   0.100   2.767  2.2633 -0.8378  1.1984
 5511SOL     OW28165   0.654   4.643   5.775 -0.6555  0.7537  0.0918
 5511SOL    HW128166   0.593   4.583   5.732 -0.0902  0.0693  0.2605
 5511SOL    HW228167   0.619   4.646   5.864 -0.3375 -0.1280  0.2403
 5512SOL     OW28168   2.158   1.146  10.104  0.2811 -0.1333  0.9241
 5512SOL    HW128169   2.229   1.206  10.126  0.1128  0.5231 -0.3549
 5512SOL    HW228170   2.154   1.092  10.183 -0.5062  0.9896  1.6656
 5513SOL     OW28171   2.412   1.961  15.966 -0.6873 -0.3142  1.0549
 5513SOL    HW128172   2.496   2.006  15.955 -0.6798 -0.4787  0.4147
 5513SOL    HW228173   2.348   2.015  15.921 -1.8450 -2.0593  0.5914
 5514SOL     OW28174   1.003   1.284   2.095  0.0095  0.2859 -0.6929
 5514SOL    HW128175   1.082   1.270   2.043  1.2582  0.3347  1.1655
 5514SOL    HW228176   0.992   1.201   2.142  1.1006  0.7324  0.3473
 5515SOL     OW28177   0.033   2.067   7.504 -0.3083  0.1013 -0.1472
 5515SOL    HW128178   0.082   1.985   7.511 -0.4364  0.2032  1.9540
 5515SOL    HW228179   0.102   2.125   7.534  1.3281 -0.7410 -2.2919
 5516SOL     OW28180   0.230   2.102   3.425 -0.1071 -0.2930 -0.3292
 5516SOL    HW128181   0.187   2.106   3.511  0.4514  0.2450 -0.0701
 5516SOL    HW228182   0.319   2.121   3.455  0.4653  0.0380 -2.2369
 5517SOL     OW28183   0.791   1.901   9.973 -0.0888  0.5036  0.0992
 5517SOL    HW128184   0.876   1.932  10.002  0.7977 -2.9318  1.2417
 5517SOL    HW228185   0.728   1.939  10.035  0.0463  1.1008 -0.1274
 5518SOL     OW28186   4.653   0.927   4.501  0.3677  0.0753  0.2215
 5518SOL    HW128187   4.622   0.851   4.551  0.1127  0.3787  0.5216
 5518SOL    HW228188   4.569   0.971   4.485  0.2004  0.4864  2.1952
 5519SOL     OW28189   2.199   3.299  10.135 -0.5945  0.3564  0.4910
 5519SOL    HW128190   2.129   3.365  10.141 -1.0041  0.0903 -1.1776
 5519SOL    HW228191   2.140   3.226  10.117 -0.1098  0.4647 -1.4952
 5520SOL     OW28192   2.289   2.146  15.623 -0.3175  0.6919 -0.5564
 5520SOL    HW128193   2.240   2.113  15.547 -3.7605 -0.2446  2.0583
 5520SOL    HW228194   2.369   2.150  15.571  0.0023  0.2642 -0.0941
 5521SOL     OW28195   2.824   1.375   9.540  0.2200  0.4918 -0.1029
 5521SOL    HW128196   2.748   1.434   9.539  0.0689  0.2944 -0.6163
 5521SOL    HW228197   2.858   1.399   9.454  0.3984  4.2834  1.0265
 5522SOL     OW28198   2.166   4.055   6.009  0.6646  0.4441 -0.2516
 5522SOL    HW128199   2.114   4.135   5.999 -1.9798 -1.3914 -0.9948
 5522SOL    HW228200   2.195   4.074   6.098  0.0898  0.8142 -0.1457
 5523SOL     OW28201   2.460   0.952  10.585  0.0490  0.4113  0.1473
 5523SOL    HW128202   2.414   1.030  10.554  1.9341  1.6564  0.4917
 5523SOL    HW228203   2.516   0.943  10.507  0.6207  2.3936  0.3232
 5524SOL     OW28204   1.077   0.580   3.329 -0.3232  0.0572 -0.3402
 5524SOL    HW128205   1.032   0.549   3.407 -3.6292  1.1075 -1.8620
 5524SOL    HW228206   1.134   0.643   3.374 -0.4852  0.7739 -1.1395
 5525SOL     OW28207   2.053   2.735   6.618 -0.1281  0.7710  0.4388
 5525SOL    HW128208   2.120   2.687   6.666  0.1077  2.1766  1.5143
 5525SOL    HW228209   1.968   2.690   6.619  0.2036  0.0889 -1.7507
 5526SOL     OW28210   4.440   0.657  10.429  0.1526  0.1469 -0.3779
 5526SOL    HW128211   4.520   0.676  10.380 -0.4395  0.8800 -1.0613
 5526SOL    HW228212   4.442   0.720  10.500 -1.6461  0.2936 -0.4493
 5527SOL     OW28213   0.221   1.216   3.291 -0.1606 -0.4161 -0.0043
 5527SOL    HW128214   0.127   1.198   3.295 -0.1541 -0.5791 -0.6153
 5527SOL    HW228215   0.255   1.157   3.224  0.6628  0.0528  0.0121
 5528SOL     OW28216   3.461   1.342   9.495  0.9550  0.0325 -0.6440
 5528SOL    HW128217   3.454   1.346   9.400  2.6052  2.2678 -0.6604
 5528SOL    HW228218   3.405   1.266   9.514 -0.9828  1.1757 -1.8314
 5529SOL     OW28219   2.241   1.853   3.492  0.3371 -0.1438 -0.5402
 5529SOL    HW128220   2.243   1.895   3.406 -0.1006  1.4276  0.2224
 5529SOL    HW228221   2.300   1.898   3.551 -1.2264 -0.3839  1.2251
 5530SOL     OW28222   3.514   0.856   4.315 -0.3818 -0.5779  0.4071
 5530SOL    HW128223   3.478   0.814   4.393  1.6679 -1.0725  1.1002
 5530SOL    HW228224   3.588   0.905   4.351 -0.4494 -0.7517  0.7825
 5531SOL     OW28225   4.214   0.750  10.286  0.0798  0.2490  0.0178
 5531SOL    HW128226   4.288   0.729  10.343 -0.6749  2.1273  1.6667
 5531SOL    HW228227   4.240   0.836  10.253 -2.5706  1.4953  1.1684
 5532SOL     OW28228   1.014   4.173   3.064 -0.9154 -0.2074 -0.4782
 5532SOL    HW128229   0.949   4.210   3.123 -0.3894  0.6804 -0.4546
 5532SOL    HW228230   1.081   4.240   3.079  0.8737 -2.5723  2.1270
 5533SOL     OW28231   2.948   1.585  16.820  0.1654 -0.1767 -0.0778
 5533SOL    HW128232   2.950   1.525  16.894  1.8318  0.2563  0.2194
 5533SOL    HW228233   3.016   1.542  16.767  0.4208  0.0221  0.0894
 5534SOL     OW28234   1.465   2.898  11.466  0.0759  0.0409 -0.0171
 5534SOL    HW128235   1.487   2.843  11.541 -0.4008 -1.4032 -0.9325
 5534SOL    HW228236   1.412   2.841  11.410 -0.0294 -0.0942  0.2218
 5535SOL     OW28237   0.471   4.504   3.176 -0.5352 -0.1419  0.4937
 5535SOL    HW128238   0.564   4.514   3.197 -0.5296  2.8238 -0.8588
 5535SOL    HW228239   0.449   4.597   3.164 -1.6868 -1.1739 -5.0024
 5536SOL     OW28240   0.768   1.326   4.328 -0.3233 -0.3913 -0.3101
 5536SOL    HW128241   0.797   1.235   4.337  0.1354  0.0070  2.1083
 5536SOL    HW228242   0.678   1.321   4.362 -0.4312 -1.1414 -0.7047
 5537SOL     OW28243   1.695   4.537   5.503  0.1683  0.4180  0.2149
 5537SOL    HW128244   1.761   4.497   5.447 -0.5245  1.1245 -1.1015
 5537SOL    HW228245   1.710   4.630   5.487  2.2397 -0.0040 -0.1903
 5538SOL     OW28246   2.987   3.569   7.627 -0.3195 -0.9979  0.5676
 5538SOL    HW128247   2.929   3.625   7.678  1.4906  1.1474  0.2888
 5538SOL    HW228248   3.055   3.624   7.588 -1.1785  0.3714  1.0257
 5539SOL     OW28249   4.169   1.707   8.658 -0.4541  0.2814  0.2051
 5539SOL    HW128250   4.102   1.768   8.687 -0.1354  1.5248 -1.6621
 5539SOL    HW228251   4.117   1.633   8.627  1.3949 -0.5985 -0.8308
 5540SOL     OW28252   2.506   2.288   7.264  0.0377  0.3165 -0.1851
 5540SOL    HW128253   2.430   2.296   7.206 -0.3806  0.3593  0.3647
 5540SOL    HW228254   2.462   2.277   7.349  0.7798 -3.3209 -0.2797
 5541SOL     OW28255   0.893   0.105   2.043  0.3629  0.1231 -0.3442
 5541SOL    HW128256   0.891   0.045   1.969  2.3796 -0.0512 -0.2596
 5541SOL    HW228257   0.983   0.095   2.076 -0.3168  1.4076  1.9268
 5542SOL     OW28258   4.490   1.978   1.474  0.4624 -0.2677 -0.6124
 5542SOL    HW128259   4.426   2.041   1.441 -2.0713 -1.9177  1.1734
 5542SOL    HW228260   4.514   2.023   1.555 -2.4796  2.4934 -1.2976
 5543SOL     OW28261   2.216   0.378   8.530 -0.3864 -0.1759  0.0106
 5543SOL    HW128262   2.259   0.308   8.580 -3.7829 -0.9228  1.8918
 5543SOL    HW228263   2.215   0.336   8.444 -2.8092  0.7675 -0.4164
 5544SOL     OW28264   4.131   0.385   5.879  0.2706  0.7880 -0.2250
 5544SOL    HW128265   4.209   0.331   5.892 -0.9423 -1.9395 -4.0810
 5544SOL    HW228266   4.142   0.460   5.937 -2.1608  2.9483 -2.5295
 5545SOL     OW28267   2.710   1.345  12.586  0.2554 -0.0084  0.0667
 5545SOL    HW128268   2.741   1.255  12.572 -0.6035 -0.5102  1.3847
 5545SOL    HW228269   2.660   1.355  12.505 -2.4270 -2.1321  1.4555
 5546SOL     OW28270   4.720   2.481   5.913 -0.0662  0.5837  0.1614
 5546SOL    HW128271   0.026   2.420   5.853 -0.7226 -0.1325  0.4068
 5546SOL    HW228272   0.035   2.560   5.901 -0.5081  0.7352 -0.7878
 5547SOL     OW28273   1.052   1.117   5.062 -0.0910  0.2461  0.1963
 5547SOL    HW128274   1.042   1.091   5.153 -0.6691 -2.0912 -0.5274
 5547SOL    HW228275   1.039   1.036   5.014 -2.7689  1.8220 -1.7695
 5548SOL     OW28276   4.643   2.737  16.986  0.0363 -0.0649  0.2736
 5548SOL    HW128277   4.604   2.806  17.040  0.3590  1.5548 -1.5603
 5548SOL    HW228278   4.632   2.659  17.040 -0.5081  0.4145  0.8568
 5549SOL     OW28279   1.542   4.000   7.392  0.0962  0.4321  0.1927
 5549SOL    HW128280   1.593   3.919   7.400  0.4876  0.4527 -2.2941
 5549SOL    HW228281   1.481   3.976   7.322  2.1716  0.6743 -1.6870
 5550SOL     OW28282   2.842   3.881  11.203  0.1399 -0.2219  0.2574
 5550SOL    HW128283   2.935   3.857  11.193 -0.5522 -2.8718  0.2298
 5550SOL    HW228284   2.846   3.976  11.192  0.0767 -0.2564 -0.0535
 5551SOL     OW28285   1.138   3.372   2.979  0.2428  0.7169 -0.6660
 5551SOL    HW128286   1.111   3.427   2.906 -1.6129  1.0992  0.3077
 5551SOL    HW228287   1.079   3.297   2.977  2.2728 -0.8947 -0.1573
 5552SOL     OW28288   3.133   0.450   8.076 -0.2280  0.3011  0.8473
 5552SOL    HW128289   3.186   0.423   8.151  2.1586  0.1987 -0.8840
 5552SOL    HW228290   3.151   0.544   8.074 -0.9550  0.4487  1.0926
 5553SOL     OW28291   2.076   3.105   9.990  0.1223  0.5275  0.3004
 5553SOL    HW128292   2.121   3.062   9.917  1.1995  1.8349  0.1988
 5553SOL    HW228293   1.988   3.118   9.956  0.2094  0.2955 -0.0189
 5554SOL     OW28294   1.642   3.789  16.362 -0.0488  0.7318 -0.0292
 5554SOL    HW128295   1.647   3.694  16.356  0.5708  0.6891  1.1495
 5554SOL    HW228296   1.611   3.810  16.274 -1.5746  1.8361  0.7702
 5555SOL     OW28297   4.080   0.662  17.583  0.3467  0.1358  0.2630
 5555SOL    HW128298   4.098   0.735  17.524  0.4919  1.2166  1.6352
 5555SOL    HW228299   3.986   0.676  17.597  0.2731 -0.2380  0.1334
 5556SOL     OW28300   2.962   0.434   1.614 -0.4525 -0.2835 -0.8364
 5556SOL    HW128301   2.910   0.445   1.535 -1.9271  1.4190  0.3852
 5556SOL    HW228302   3.048   0.474   1.601 -0.6614  0.6997  0.7431
 5557SOL     OW28303   3.195   0.463   1.950 -0.3288 -0.1393 -0.4412
 5557SOL    HW128304   3.269   0.521   1.935  0.3208 -1.0359 -0.7098
 5557SOL    HW228305   3.148   0.509   2.019 -2.0777 -3.0695  0.3324
 5558SOL     OW28306   1.296   4.230   6.031 -0.3217  0.2120 -0.2167
 5558SOL    HW128307   1.218   4.180   6.007 -1.2049  0.6105  1.7892
 5558SOL    HW228308   1.287   4.307   5.975  0.7096 -0.4457 -1.2792
 5559SOL     OW28309   0.278   0.580   7.607 -0.1239  0.9237 -0.0549
 5559SOL    HW128310   0.190   0.542   7.607  0.8808 -1.3675  0.1205
 5559SOL    HW228311   0.317   0.540   7.684 -0.2538 -0.6862 -0.8260
 5560SOL     OW28312   2.745   2.422   1.463  0.1138  0.4948  0.6024
 5560SOL    HW128313   2.684   2.363   1.509 -0.0418 -2.1214 -2.9182
 5560SOL    HW228314   2.718   2.502   1.508  0.7983  1.2187 -0.2989
 5561SOL     OW28315   2.528   3.028   4.216  0.4687 -0.0211 -0.6233
 5561SOL    HW128316   2.584   2.952   4.203 -0.2816 -0.5314 -0.8934
 5561SOL    HW228317   2.451   3.006   4.163  0.7402 -0.0314 -1.0108
 5562SOL     OW28318   3.138   3.977   5.569 -0.1557 -0.4032 -0.8007
 5562SOL    HW128319   3.202   3.907   5.582 -0.7808 -0.7273  0.6508
 5562SOL    HW228320   3.078   3.958   5.642  0.8791  1.9446  0.6594
 5563SOL     OW28321   2.131   4.156   1.307  0.2300 -0.0410 -0.0309
 5563SOL    HW128322   2.055   4.202   1.342  0.5724 -1.4321  2.5320
 5563SOL    HW228323   2.185   4.225   1.268 -1.1662  1.8728  1.4356
 5564SOL     OW28324   3.076   2.915  11.727  0.8349  0.0337  0.3292
 5564SOL    HW128325   3.042   2.911  11.638  1.6242 -1.9178  0.1153
 5564SOL    HW228326   3.028   2.994  11.752 -1.3330 -0.8863 -0.9819
 5565SOL     OW28327   0.896   0.026   8.895 -0.6864 -0.2025 -0.1338
 5565SOL    HW128328   0.875   0.021   8.802  0.1640  0.2537 -0.3526
 5565SOL    HW228329   0.904   0.120   8.909 -1.1159 -0.2752  0.6547
 5566SOL     OW28330   0.193   2.972   3.866 -0.6833 -0.6981 -0.4134
 5566SOL    HW128331   0.127   2.933   3.809 -1.5299  1.1977 -0.7281
 5566SOL    HW228332   0.275   2.926   3.844 -0.5323  0.1926 -1.6929
 5567SOL     OW28333   2.430   1.630  13.142 -0.2074 -0.2708 -0.4299
 5567SOL    HW128334   2.375   1.707  13.154 -1.7875 -1.1605 -1.8868
 5567SOL    HW228335   2.507   1.668  13.099 -2.0538  0.4313 -3.1348
 5568SOL     OW28336   1.187   2.846  11.122 -0.3694  0.3379 -0.0880
 5568SOL    HW128337   1.141   2.865  11.040 -1.5764 -3.8714 -0.4175
 5568SOL    HW228338   1.157   2.756  11.141 -0.1985  0.5612  1.2384
 5569SOL     OW28339   1.556   0.291   0.246 -1.0709 -0.3823 -0.2824
 5569SOL    HW128340   1.472   0.275   0.289 -0.7080  1.7050  1.1915
 5569SOL    HW228341   1.607   0.308   0.325 -1.3671 -1.0163  0.0411
 5570SOL     OW28342   1.400   4.409   7.304 -0.4273 -0.1594  0.6074
 5570SOL    HW128343   1.420   4.476   7.369 -0.0076  0.6844 -0.3997
 5570SOL    HW228344   1.451   4.337   7.343  0.0370  0.6118  1.4263
 5571SOL     OW28345   4.237   2.666   3.322  0.0084 -0.6320  0.0186
 5571SOL    HW128346   4.296   2.677   3.396  2.2362  0.7790 -1.9612
 5571SOL    HW228347   4.293   2.696   3.250  0.7378  3.3858  2.2492
 5572SOL     OW28348   1.419   2.507  13.146  0.0946 -0.6149 -0.1390
 5572SOL    HW128349   1.334   2.508  13.191  0.1665 -1.2965 -0.0009
 5572SOL    HW228350   1.471   2.468  13.216 -0.6674  0.2200  0.8996
 5573SOL     OW28351   4.453   4.100   8.919 -0.3613 -0.6941 -0.3227
 5573SOL    HW128352   4.468   4.049   8.999 -0.4052 -1.1874 -0.6277
 5573SOL    HW228353   4.392   4.160   8.962 -0.4521 -0.4288 -0.8292
 5574SOL     OW28354   2.414   3.327   4.546 -0.1619  0.0734 -0.3005
 5574SOL    HW128355   2.321   3.342   4.566 -0.7846  1.2704 -4.1245
 5574SOL    HW228356   2.415   3.237   4.512  0.8338  0.0169 -0.1190
 5575SOL     OW28357   1.208   1.504   2.403  0.2728 -0.0383  0.5187
 5575SOL    HW128358   1.288   1.499   2.455  0.0425 -0.4493  0.8338
 5575SOL    HW228359   1.154   1.544   2.472  0.6255  1.7504 -0.2501
 5576SOL     OW28360   1.106   1.839   6.729 -0.0545 -0.3587  0.3567
 5576SOL    HW128361   1.089   1.929   6.702 -0.3285 -0.8958 -1.2250
 5576SOL    HW228362   1.199   1.835   6.705  0.1946  1.1418  1.0508
 5577SOL     OW28363   2.715   4.391   8.759 -0.0939  0.4710 -0.0538
 5577SOL    HW128364   2.777   4.464   8.753 -1.0445  1.2083 -0.9441
 5577SOL    HW228365   2.747   4.324   8.700  1.1048  1.0404 -0.0520
 5578SOL     OW28366   3.362   0.893   4.913 -0.5989 -0.1854 -0.2324
 5578SOL    HW128367   3.411   0.844   4.979 -0.5182 -0.0854 -0.2181
 5578SOL    HW228368   3.340   0.821   4.854  1.0063 -1.3866  0.6270
 5579SOL     OW28369   3.446   0.010   5.197  0.4063 -0.8131 -0.2781
 5579SOL    HW128370   3.446   4.717   5.288 -0.7373 -0.2705 -0.0962
 5579SOL    HW228371   3.517   0.074   5.207  0.1539 -0.4633 -0.7219
 5580SOL     OW28372   0.569   0.965  17.723 -0.4681 -0.3200 -0.4024
 5580SOL    HW128373   0.487   1.007   0.001  0.9271  0.9037  2.0886
 5580SOL    HW228374   0.596   1.016  17.647  0.7853  0.4056  0.5151
 5581SOL     OW28375   1.271   3.892  11.741 -0.7882 -0.0737 -0.3557
 5581SOL    HW128376   1.252   3.806  11.703 -2.1201  0.0983 -0.0624
 5581SOL    HW228377   1.201   3.896  11.806  1.6365 -0.5248  2.2573
 5582SOL     OW28378   1.420   0.496   6.203  0.4666  0.0037 -0.2075
 5582SOL    HW128379   1.432   0.536   6.116  1.0693 -0.4438 -0.3273
 5582SOL    HW228380   1.378   0.411   6.189  0.0718 -0.2072  2.2310
 5583SOL     OW28381   2.003   0.781   8.639  0.2613  0.4074 -0.4706
 5583SOL    HW128382   2.030   0.731   8.562 -1.1725 -0.7224 -0.2490
 5583SOL    HW228383   1.908   0.766   8.643  0.2423  0.4813 -0.6420
 5584SOL     OW28384   1.698   0.883   4.070  0.2924 -0.1609 -0.0047
 5584SOL    HW128385   1.722   0.826   3.998  0.1297  2.7277 -2.3272
 5584SOL    HW228386   1.651   0.956   4.029  1.9870  1.0240  0.1711
 5585SOL     OW28387   0.675   3.378   2.283  0.1131  0.2389  0.2328
 5585SOL    HW128388   0.717   3.463   2.264  1.1274 -0.7513 -1.9348
 5585SOL    HW228389   0.693   3.330   2.202 -3.4746  0.0711 -0.4433
 5586SOL     OW28390   1.511   3.694   9.005  0.3816  0.3520  0.1414
 5586SOL    HW128391   1.494   3.767   8.945 -1.6721 -0.2484  0.0048
 5586SOL    HW228392   1.508   3.743   9.087  0.9512 -0.0376  0.3933
 5587SOL     OW28393   3.142   0.879   4.335 -0.3478 -0.4616  0.0626
 5587SOL    HW128394   3.100   0.850   4.254 -0.6541 -2.2964  0.8914
 5587SOL    HW228395   3.091   0.819   4.388 -1.1697  0.1574 -0.0325
 5588SOL     OW28396   3.250   0.228   0.245 -0.6259  0.4490  0.4880
 5588SOL    HW128397   3.243   0.211   0.339 -1.3779 -0.0386  0.3441
 5588SOL    HW228398   3.175   0.282   0.221 -0.4938 -0.0623 -1.0242
 5589SOL     OW28399   3.183   0.446   5.107 -1.3268  0.2709  0.5245
 5589SOL    HW128400   3.176   0.368   5.162 -0.3094 -0.7227 -0.7340
 5589SOL    HW228401   3.269   0.480   5.133 -0.6166 -1.7048  0.8055
 5590SOL     OW28402   3.094   4.647  10.787  0.3699  0.2674 -0.4738
 5590SOL    HW128403   3.125   4.712  10.850  3.0761 -1.6011  0.1361
 5590SOL    HW228404   3.009   4.683  10.762  1.1001  1.6842 -0.9285
 5591SOL     OW28405   0.996   3.213   2.385  0.2026  0.0426  0.3024
 5591SOL    HW128406   0.959   3.153   2.450 -0.4450  1.0942  0.9200
 5591SOL    HW228407   1.023   3.150   2.319 -0.0301  0.9156 -0.6221
 5592SOL     OW28408   0.301   0.280   7.947  0.2144 -0.5160 -0.5635
 5592SOL    HW128409   0.219   0.247   7.984  0.3619 -0.6359 -0.3468
 5592SOL    HW228410   0.303   0.250   7.856 -0.6955  0.0270 -0.7665
 5593SOL     OW28411   3.678   4.533   3.576 -0.1408  0.2293  0.1153
 5593SOL    HW128412   3.712   4.465   3.634 -0.9171 -1.6612 -1.6319
 5593SOL    HW228413   3.748   4.598   3.570  0.0753  0.0611  0.8350
 5594SOL     OW28414   4.225   1.176  15.744  0.0583 -0.2499  0.3548
 5594SOL    HW128415   4.256   1.266  15.754  0.4738 -0.5882  2.2130
 5594SOL    HW228416   4.138   1.183  15.782  0.5153  1.0357  1.1521
 5595SOL     OW28417   4.467   3.270  16.053  0.4133  0.6899 -0.5221
 5595SOL    HW128418   4.401   3.271  16.122 -0.7475 -0.1882 -1.6213
 5595SOL    HW228419   4.444   3.196  15.996  1.0051  1.1994 -1.4208
 5596SOL     OW28420   4.385   0.951  16.304 -0.0064 -0.3102 -0.0558
 5596SOL    HW128421   4.414   0.921  16.217 -2.4575  0.2661 -1.0737
 5596SOL    HW228422   4.451   0.918  16.365 -0.4747  0.2992  0.7737
 5597SOL     OW28423   3.619   0.873   9.475 -0.0792  0.2233  0.4537
 5597SOL    HW128424   3.580   0.930   9.541 -0.0105 -1.4079  1.8930
 5597SOL    HW228425   3.593   0.911   9.391  0.9643 -1.1394 -0.4915
 5598SOL     OW28426   1.376   2.272   5.178  0.0047 -0.1704  0.0150
 5598SOL    HW128427   1.421   2.254   5.095  0.6528 -0.4456  0.4194
 5598SOL    HW228428   1.308   2.336   5.156  0.9455  0.9035  0.2363
 5599SOL     OW28429   0.419   0.940   4.856  0.3154  0.0655  0.0193
 5599SOL    HW128430   0.483   0.885   4.812  0.0644 -0.3899  0.2251
 5599SOL    HW228431   0.477   0.976   4.923 -0.7447 -3.0688  2.5966
 5600SOL     OW28432   1.427   2.959   1.834 -0.1848 -0.0536 -0.9749
 5600SOL    HW128433   1.333   2.971   1.825 -0.3430 -1.5697 -1.3323
 5600SOL    HW228434   1.423   2.865   1.817  2.2451 -0.3236 -0.1746
 5601SOL     OW28435   0.800   1.983   3.943 -0.1511  0.2923  0.0586
 5601SOL    HW128436   0.706   2.001   3.940 -0.6953 -2.4346  0.1290
 5601SOL    HW228437   0.799   1.903   3.891  0.4613  0.4060 -0.1274
 5602SOL     OW28438   4.144   1.588   3.880 -0.1563  0.0874 -0.1169
 5602SOL    HW128439   4.062   1.590   3.930 -0.7006  0.9410 -1.0524
 5602SOL    HW228440   4.173   1.678   3.889 -2.2322  0.8804 -1.3712
 5603SOL     OW28441   2.863   1.644   5.624  0.5543  0.3469  0.1090
 5603SOL    HW128442   2.819   1.662   5.708 -0.8361 -0.2020 -0.5110
 5603SOL    HW228443   2.913   1.725   5.615 -1.2362  1.0355 -3.2666
 5604SOL     OW28444   3.720   4.414   8.067 -0.3854  0.2740 -0.0647
 5604SOL    HW128445   3.721   4.487   8.006 -1.1006  1.8927  1.8410
 5604SOL    HW228446   3.762   4.350   8.010 -1.4945  1.0160 -1.7179
 5605SOL     OW28447   4.171   1.277  14.839  0.8457  0.4313  0.0688
 5605SOL    HW128448   4.146   1.185  14.852 -1.0058  0.9376  0.1184
 5605SOL    HW228449   4.089   1.301  14.795 -0.5591  2.2119  3.6183
 5606SOL     OW28450   4.390   3.351  16.311  0.0413  0.0002 -0.3616
 5606SOL    HW128451   4.361   3.442  16.310  0.6599  0.1919 -0.5665
 5606SOL    HW228452   4.313   3.308  16.349 -0.3055  1.8314  0.9860
 5607SOL     OW28453   0.190   0.855  12.404  0.9009 -0.0975 -0.1289
 5607SOL    HW128454   0.231   0.882  12.486  0.2804  1.4874 -0.3402
 5607SOL    HW228455   0.152   0.936  12.369 -2.2689 -0.1505  3.1355
 5608SOL     OW28456   0.619   0.171   9.274  0.4037  0.2311 -0.1254
 5608SOL    HW128457   0.569   0.091   9.258  0.3417 -0.1911  2.1257
 5608SOL    HW228458   0.558   0.224   9.326  0.0775  1.3104 -1.6281
 5609SOL     OW28459   0.403   2.023  10.876 -0.5464  0.1695  0.1948
 5609SOL    HW128460   0.332   1.969  10.840  0.1902 -1.6341  1.4647
 5609SOL    HW228461   0.355   2.049  10.954 -1.4036  1.9460 -0.9257
 5610SOL     OW28462   0.469   3.460   4.319 -0.3940 -0.4104 -0.1093
 5610SOL    HW128463   0.415   3.493   4.247  0.3134  0.6900 -0.1307
 5610SOL    HW228464   0.475   3.546   4.361 -0.1971  0.0331 -1.0465
 5611SOL     OW28465   3.124   0.729   7.380  0.0376 -0.0928 -0.1845
 5611SOL    HW128466   3.205   0.716   7.331  0.3764  0.0011  0.3451
 5611SOL    HW228467   3.153   0.679   7.456 -0.6969 -1.3126 -0.7098
 5612SOL     OW28468   1.296   3.408  11.756  0.2172 -0.8345  0.2816
 5612SOL    HW128469   1.371   3.351  11.738  0.2045 -1.2934  1.7199
 5612SOL    HW228470   1.317   3.421  11.848 -0.4305 -2.5181  0.6685
 5613SOL     OW28471   1.767   4.179   9.459 -0.0154 -0.6094 -0.6794
 5613SOL    HW128472   1.740   4.270   9.472  0.3679 -0.4320 -1.1125
 5613SOL    HW228473   1.836   4.178   9.525 -0.2024 -0.5882 -0.4821
 5614SOL     OW28474   4.715   1.526   3.779  0.3434 -0.2151  1.0406
 5614SOL    HW128475   0.030   1.500   3.703 -1.4492 -1.3866  0.1943
 5614SOL    HW228476   4.631   1.494   3.747 -0.3855  2.1771  0.5748
 5615SOL     OW28477   0.813   0.684   3.087  0.1668 -0.4086 -0.0993
 5615SOL    HW128478   0.905   0.674   3.063  0.7590 -0.0978  2.0470
 5615SOL    HW228479   0.776   0.658   3.003 -0.6681 -0.6592  0.3480
 5616SOL     OW28480   1.771   1.298   3.809 -0.2504  0.1590  0.1498
 5616SOL    HW128481   1.676   1.310   3.806 -0.2031  0.1697 -1.2767
 5616SOL    HW228482   1.788   1.206   3.829  0.4091  0.5732  1.5027
 5617SOL     OW28483   2.175   4.255   1.919 -0.3490  0.3349  0.2753
 5617SOL    HW128484   2.192   4.272   1.826 -0.3985 -0.3870  0.1343
 5617SOL    HW228485   2.220   4.326   1.965  0.3251  0.4191 -0.5065
 5618SOL     OW28486   2.498   2.627  17.474 -0.1442  0.7313  0.2809
 5618SOL    HW128487   2.423   2.632  17.414 -0.3374  1.2851  0.5689
 5618SOL    HW228488   2.570   2.603  17.416  1.7154  2.9981  1.6792
 5619SOL     OW28489   2.595   3.954   2.742  0.1998 -0.6177 -0.0353
 5619SOL    HW128490   2.527   4.005   2.785 -0.5162  0.1165 -1.9958
 5619SOL    HW228491   2.655   3.938   2.814  1.9592  3.5605 -0.5487
 5620SOL     OW28492   3.063   3.110  17.542 -0.0809  0.0209  0.3364
 5620SOL    HW128493   3.127   3.151  17.600  1.6066 -0.4711 -1.1696
 5620SOL    HW228494   2.983   3.132  17.590 -1.7317 -0.2042 -2.3441
 5621SOL     OW28495   2.181   3.358   7.646  0.0032  0.9567  0.1564
 5621SOL    HW128496   2.236   3.326   7.574  0.0689 -0.4333  0.8152
 5621SOL    HW228497   2.215   3.309   7.721 -1.3259 -0.4669 -0.1663
 5622SOL     OW28498   2.096   2.973   6.499  0.3227  0.5395 -0.1974
 5622SOL    HW128499   2.190   2.987   6.511  0.5934 -0.6381 -1.0041
 5622SOL    HW228500   2.087   2.884   6.532  1.1522  0.5073 -0.0705
 5623SOL     OW28501   2.119   1.851  12.423  0.3764  0.0733 -0.4226
 5623SOL    HW128502   2.172   1.794  12.367 -0.0235  0.5484 -1.2839
 5623SOL    HW228503   2.055   1.793  12.465  1.8401 -1.3536 -0.1461
 5624SOL     OW28504   1.488   3.907   8.845 -0.3851  0.2584 -0.0986
 5624SOL    HW128505   1.511   3.998   8.861 -1.3383  0.4938 -0.0767
 5624SOL    HW228506   1.516   3.897   8.754 -4.2602 -0.4187 -1.1740
 5625SOL     OW28507   2.278   1.760   7.823 -0.0925  0.0143 -0.1187
 5625SOL    HW128508   2.366   1.788   7.798  0.0410  0.1610  0.5014
 5625SOL    HW228509   2.245   1.833   7.875 -0.3784  0.7013 -1.2742
 5626SOL     OW28510   2.655   1.578   7.965  0.6653  0.2226 -0.1250
 5626SOL    HW128511   2.723   1.629   7.920  0.5035 -0.5587 -1.2405
 5626SOL    HW228512   2.605   1.650   8.005  1.3303  0.8453 -0.4115
 5627SOL     OW28513   4.103   3.870   7.609  0.3891 -0.2219 -0.2834
 5627SOL    HW128514   4.058   3.786   7.606 -0.4719  0.2291  0.0763
 5627SOL    HW228515   4.191   3.837   7.625  0.1885 -0.1460  0.9496
 5628SOL     OW28516   4.660   3.899   2.143 -0.7213 -0.1827 -0.3696
 5628SOL    HW128517   0.002   3.851   2.167  0.2369  1.4226 -0.3088
 5628SOL    HW228518   4.605   3.824   2.122  0.2210 -0.4498 -1.8909
 5629SOL     OW28519   4.590   1.988   6.797  0.0972  0.2003  0.4956
 5629SOL    HW128520   4.590   1.916   6.734 -0.9631  1.0859 -0.5187
 5629SOL    HW228521   4.639   2.057   6.752  0.0044  0.5476  0.9218
 5630SOL     OW28522   4.230   1.533   1.681  0.2987 -0.0504  0.8285
 5630SOL    HW128523   4.261   1.604   1.624  1.2572 -1.2094 -0.0827
 5630SOL    HW228524   4.143   1.562   1.711  1.3901  1.6911  2.3759
 5631SOL     OW28525   1.415   4.386   7.947 -0.2351  0.3961  0.0332
 5631SOL    HW128526   1.368   4.303   7.940 -0.5457  1.0241 -5.3022
 5631SOL    HW228527   1.446   4.390   8.038  0.1958 -0.8632 -0.0484
 5632SOL     OW28528   0.781   3.670   3.481 -0.0779 -0.0552  0.0536
 5632SOL    HW128529   0.687   3.671   3.500 -0.0695  3.2253 -0.1066
 5632SOL    HW228530   0.782   3.720   3.399  0.3425  0.1395  0.1797
 5633SOL     OW28531   0.961   2.846   6.629 -0.1698  0.1560 -0.5098
 5633SOL    HW128532   0.873   2.857   6.663  0.0530  0.0181  0.1227
 5633SOL    HW228533   1.003   2.785   6.690 -0.3527 -0.4671 -1.0105
 5634SOL     OW28534   0.940   3.456   2.543 -0.1668 -0.4789  0.0359
 5634SOL    HW128535   0.941   3.386   2.478  1.5735  0.6490 -1.1557
 5634SOL    HW228536   0.847   3.453   2.566 -0.7616  0.3480 -2.1738
 5635SOL     OW28537   0.781   0.409   6.306  0.2348 -0.3471 -0.2424
 5635SOL    HW128538   0.779   0.334   6.246 -0.4016  0.9130 -1.8207
 5635SOL    HW228539   0.815   0.472   6.241 -1.8631 -0.0326 -1.0382
 5636SOL     OW28540   1.535   1.824  16.474 -0.2507  0.5139  0.0108
 5636SOL    HW128541   1.495   1.742  16.502 -2.9187  0.8733 -2.7194
 5636SOL    HW228542   1.538   1.871  16.557  2.0324 -2.0373  1.3514
 5637SOL     OW28543   0.097   0.161   2.504 -0.0184  0.2190  0.3982
 5637SOL    HW128544   0.073   0.253   2.493 -0.0712 -0.0330 -1.6853
 5637SOL    HW228545   0.191   0.161   2.484 -0.6457 -0.6186 -2.6489
 5638SOL     OW28546   2.750   3.971   2.948  0.0620  0.5459 -0.1399
 5638SOL    HW128547   2.819   4.023   2.908  1.2101 -0.1380  0.9234
 5638SOL    HW228548   2.728   4.044   3.006 -1.6422 -1.0585  1.2532
 5639SOL     OW28549   4.460   0.696   5.061 -0.1301  0.3275  0.4782
 5639SOL    HW128550   4.525   0.765   5.049  0.2063 -0.3351 -1.5766
 5639SOL    HW228551   4.387   0.748   5.094 -0.5154  0.8471 -1.1770
 5640SOL     OW28552   2.530   1.074   3.376  0.7627 -0.3472 -0.3212
 5640SOL    HW128553   2.620   1.087   3.349  0.3442 -0.5007 -1.7843
 5640SOL    HW228554   2.531   1.055   3.470  1.5272 -0.0122 -0.2643
 5641SOL     OW28555   1.669   3.062  14.039 -0.2856  0.4358 -0.0784
 5641SOL    HW128556   1.656   3.038  13.948 -1.1655  0.4840  0.0324
 5641SOL    HW228557   1.684   3.156  14.027  0.7226  0.2660 -0.1696
 5642SOL     OW28558   3.020   1.274  10.556  0.5451  0.5996  0.9819
 5642SOL    HW128559   3.000   1.267  10.463 -0.4297  2.2218  1.0640
 5642SOL    HW228560   3.104   1.318  10.547  0.4573  0.2918 -1.3029
 5643SOL     OW28561   3.227   2.331   7.392 -0.0698  0.5096  0.4989
 5643SOL    HW128562   3.164   2.300   7.457 -0.2163 -0.5416 -0.1591
 5643SOL    HW228563   3.306   2.316   7.445 -2.3794 -1.0029  3.5130
 5644SOL     OW28564   1.626   2.098   4.959 -0.0077  0.0349  0.4714
 5644SOL    HW128565   1.536   2.127   4.946 -1.0620 -3.5046 -0.0629
 5644SOL    HW228566   1.643   2.017   4.911 -0.4975 -0.1812  0.6671
 5645SOL     OW28567   1.181   3.000   7.019 -0.3217 -0.3015  0.1952
 5645SOL    HW128568   1.149   3.018   6.931 -1.2978  0.6102  0.7277
 5645SOL    HW228569   1.096   2.982   7.059 -0.4988 -1.2303 -0.6111
 5646SOL     OW28570   1.981   0.937  11.517 -0.1169  0.6373  0.1515
 5646SOL    HW128571   2.031   0.856  11.531  0.5455  1.1718  0.8747
 5646SOL    HW228572   1.932   0.960  11.596 -3.3464  1.7622 -2.2024
 5647SOL     OW28573   4.645   4.640   5.237 -0.0192  0.0713 -0.2930
 5647SOL    HW128574   4.629   4.716   5.181  0.3323  1.0500  0.9324
 5647SOL    HW228575   4.553   4.615   5.245 -0.5118  1.0697 -3.0887
 5648SOL     OW28576   3.574   3.844   7.147  0.2907  0.1676  0.3461
 5648SOL    HW128577   3.524   3.916   7.108 -0.2569  0.6290  1.9230
 5648SOL    HW228578   3.564   3.777   7.079 -1.2098  0.1468  0.5904
 5649SOL     OW28579   1.281   2.885   4.247 -0.6771 -0.3947  0.1728
 5649SOL    HW128580   1.342   2.812   4.237  1.1590  1.3218 -1.0316
 5649SOL    HW228581   1.233   2.890   4.164 -1.2278  0.2493  0.5280
 5650SOL     OW28582   0.326   4.205   7.006 -0.2119 -0.2017 -0.2446
 5650SOL    HW128583   0.327   4.294   6.971  0.2607 -0.1343 -0.0512
 5650SOL    HW228584   0.264   4.182   6.936  2.1638  2.2492 -3.1633
 5651SOL     OW28585   2.885   1.824   0.456 -0.2225  0.3474  0.2645
 5651SOL    HW128586   2.931   1.900   0.492  1.1785  0.0872 -0.9540
 5651SOL    HW228587   2.945   1.818   0.381 -0.6166 -2.0699  0.1473
 5652SOL     OW28588   3.600   1.476  16.163  0.0297 -0.4728  0.1040
 5652SOL    HW128589   3.606   1.566  16.131  0.0142 -0.2591  0.7029
 5652SOL    HW228590   3.505   1.463  16.156  0.2369 -1.9591  0.1624
 5653SOL     OW28591   2.348   3.633   9.850  0.6002 -0.1918  0.2585
 5653SOL    HW128592   2.443   3.625   9.839  0.4544  0.8152 -1.8549
 5653SOL    HW228593   2.339   3.699   9.918 -1.7699 -2.7672  2.4585
 5654SOL     OW28594   3.860   3.531   9.819  0.3813 -0.3295  0.5026
 5654SOL    HW128595   3.769   3.557   9.835  0.7955  1.1786  0.4461
 5654SOL    HW228596   3.901   3.532   9.905  0.0287  1.6482  0.6525
 5655SOL     OW28597   0.622   1.212   7.298 -0.2706  0.3002 -0.3127
 5655SOL    HW128598   0.546   1.260   7.266 -1.8572 -1.6152  0.5924
 5655SOL    HW228599   0.586   1.159   7.370  1.4287 -0.2825  0.1189
 5656SOL     OW28600   1.644   0.041   4.463 -0.4054 -0.0281  0.1572
 5656SOL    HW128601   1.723   0.016   4.511 -1.4238  1.3634  2.6075
 5656SOL    HW228602   1.578   0.013   4.527  0.8387 -1.7526  0.6869
 5657SOL     OW28603   0.854   1.684   7.379  0.1328 -0.2416 -0.2878
 5657SOL    HW128604   0.797   1.684   7.456  0.1999 -0.0018 -0.2371
 5657SOL    HW228605   0.889   1.773   7.380 -2.3082  0.7616 -2.6260
 5658SOL     OW28606   1.171   0.650  10.544 -0.2186 -0.4398 -0.8259
 5658SOL    HW128607   1.103   0.587  10.568 -0.4523 -0.9410 -2.7718
 5658SOL    HW228608   1.188   0.686  10.630 -0.6032  0.6410 -1.2056
 5659SOL     OW28609   3.245   1.487   4.439 -0.1555  0.2733  0.3712
 5659SOL    HW128610   3.276   1.441   4.361 -1.3615 -1.2221  0.7834
 5659SOL    HW228611   3.151   1.482   4.420 -0.6265  3.5894  1.7432
 5660SOL     OW28612   2.772   2.186  12.847  0.8726 -0.2538  0.1904
 5660SOL    HW128613   2.762   2.228  12.762 -0.4874  0.3389  0.6440
 5660SOL    HW228614   2.847   2.128  12.833  0.1575 -1.1054 -0.0929
 5661SOL     OW28615   4.078   3.358  17.127 -0.4619  0.2939 -0.2885
 5661SOL    HW128616   3.991   3.364  17.166 -0.4967 -2.7148  0.1138
 5661SOL    HW228617   4.066   3.329  17.037 -1.3471 -0.7943  0.1840
 5662SOL     OW28618   1.782   3.632   5.325 -0.7165 -0.0824 -0.1785
 5662SOL    HW128619   1.711   3.596   5.378  1.7105  0.0094  3.1863
 5662SOL    HW228620   1.853   3.577   5.359 -0.9651 -0.8111 -0.8404
 5663SOL     OW28621   3.614   4.553   7.643 -0.3283  0.3376  0.0133
 5663SOL    HW128622   3.602   4.641   7.607  1.9344  0.4338 -0.5208
 5663SOL    HW228623   3.662   4.560   7.726  0.5547 -1.4037 -0.3561
 5664SOL     OW28624   3.908   2.670   3.061 -0.3400 -0.5246 -0.1545
 5664SOL    HW128625   3.913   2.762   3.088  0.7338 -0.5547 -0.2363
 5664SOL    HW228626   3.840   2.655   2.996  0.2837  0.1784 -0.9593
 5665SOL     OW28627   0.360   4.333  13.983 -0.1323  0.6406 -0.1058
 5665SOL    HW128628   0.452   4.351  14.002 -0.3531  0.9580  0.6765
 5665SOL    HW228629   0.320   4.419  13.997 -0.8534  0.1024  1.1436
 5666SOL     OW28630   4.119   1.022  16.409 -0.0235 -0.0238  0.1215
 5666SOL    HW128631   4.097   0.967  16.484 -1.7123  1.6567  0.8278
 5666SOL    HW228632   4.195   0.971  16.379 -0.8931 -2.3393  1.9099
 5667SOL     OW28633   4.606   3.088   6.281 -0.1883 -0.3880  0.1113
 5667SOL    HW128634   4.531   3.144   6.304  0.7382  1.3249 -1.0739
 5667SOL    HW228635   4.663   3.147   6.232 -1.6743  1.9830  1.2088
 5668SOL     OW28636   0.818   0.581   5.867 -0.5912 -0.2118 -0.0874
 5668SOL    HW128637   0.763   0.504   5.880  0.5043 -1.3891 -2.3060
 5668SOL    HW228638   0.757   0.651   5.890 -1.5544 -0.6954 -1.1702
 5669SOL     OW28639   1.750   0.733   1.541 -0.3004 -0.6517  0.3691
 5669SOL    HW128640   1.671   0.712   1.491  0.4238  0.0616 -1.0730
 5669SOL    HW228641   1.720   0.778   1.620  1.8488 -0.2539  0.9610
 5670SOL     OW28642   2.921   4.300   0.924 -0.1925  0.2520 -0.1942
 5670SOL    HW128643   2.904   4.207   0.931  2.0361 -0.0740  1.2362
 5670SOL    HW228644   3.012   4.299   0.893 -0.8452 -1.4792 -2.0362
 5671SOL     OW28645   0.376   0.741   5.117  0.2872  0.0989  0.0486
 5671SOL    HW128646   0.431   0.769   5.191  1.5340 -0.1120 -0.8048
 5671SOL    HW228647   0.361   0.823   5.070  0.8921  1.8693  2.9425
 5672SOL     OW28648   0.333   2.430   4.635 -0.5361  0.5050  0.6152
 5672SOL    HW128649   0.259   2.474   4.678 -1.1848 -2.0395  2.0828
 5672SOL    HW228650   0.328   2.344   4.677  3.6133 -0.3888 -0.7315
 5673SOL     OW28651   2.596   1.466   1.117  0.3808 -0.2011  0.6140
 5673SOL    HW128652   2.672   1.481   1.060 -0.0327 -0.8761 -0.1306
 5673SOL    HW228653   2.580   1.552   1.155 -1.9511  0.2545 -1.4082
 5674SOL     OW28654   0.744   3.058   8.314  0.4898  0.5066 -0.5662
 5674SOL    HW128655   0.694   3.124   8.267  0.8865  0.0043 -1.6797
 5674SOL    HW228656   0.794   3.031   8.238  2.9954 -1.3061  1.7309
 5675SOL     OW28657   0.851   4.448   8.435 -0.6976 -0.3073  0.2408
 5675SOL    HW128658   0.782   4.432   8.370 -1.2241 -0.5625  0.8692
 5675SOL    HW228659   0.908   4.372   8.423  2.0141  2.0148 -1.7994
 5676SOL     OW28660   1.356   1.058   4.938 -0.2197  0.4301  0.3822
 5676SOL    HW128661   1.271   1.014   4.935  0.5049 -1.0672  1.7151
 5676SOL    HW228662   1.357   1.092   5.028 -0.7465  2.9843 -0.5824
 5677SOL     OW28663   0.307   2.450   6.291 -0.2166  0.5109 -0.9991
 5677SOL    HW128664   0.315   2.437   6.196 -0.5192 -1.2935 -0.7812
 5677SOL    HW228665   0.347   2.370   6.325  1.0948  1.6368  0.0977
 5678SOL     OW28666   3.897   1.210   2.572 -0.0767 -0.4099  0.1477
 5678SOL    HW128667   3.807   1.226   2.599  0.4381  0.2416  1.4869
 5678SOL    HW228668   3.926   1.128   2.611 -0.7928 -0.4002  0.6837
 5679SOL     OW28669   4.336   2.381   1.644 -0.5784 -0.0051  0.2747
 5679SOL    HW128670   4.295   2.419   1.722  1.1498  1.6108  0.4087
 5679SOL    HW228671   4.356   2.460   1.594  1.7016  0.9638  2.7587
 5680SOL     OW28672   2.116   1.087   9.172  0.1201 -0.1509  0.2056
 5680SOL    HW128673   2.200   1.055   9.206  2.4408  1.6838 -3.8698
 5680SOL    HW228674   2.144   1.179   9.172 -1.3451  0.2912  1.3051
 5681SOL     OW28675   1.418   4.034   4.787 -0.5355  0.3236  0.8255
 5681SOL    HW128676   1.501   4.076   4.811  0.0627  0.2042 -1.0491
 5681SOL    HW228677   1.397   4.071   4.701  1.6056 -0.2032  0.0861
 5682SOL     OW28678   1.733   0.262   6.991  0.4078 -0.2114 -0.0231
 5682SOL    HW128679   1.654   0.282   6.940 -0.4310  1.1656  1.8034
 5682SOL    HW228680   1.712   0.280   7.082  0.2047 -0.5767  0.0059
 5683SOL     OW28681   2.540   4.598   6.399  0.1871  0.1615  0.0468
 5683SOL    HW128682   2.503   4.587   6.486  0.6641  1.3475  0.4020
 5683SOL    HW228683   2.562   4.509   6.371 -0.3208 -0.1619  0.6877
 5684SOL     OW28684   0.023   2.308   4.542  0.3745 -0.1222  0.0249
 5684SOL    HW128685   0.053   2.398   4.552 -0.0617 -0.1445  1.5253
 5684SOL    HW228686   0.039   2.277   4.632  0.4759  1.0062  0.3875
 5685SOL     OW28687   1.243   1.576   8.270  0.1974  0.2457  0.6920
 5685SOL    HW128688   1.168   1.633   8.281 -0.4946 -0.2521 -1.4348
 5685SOL    HW228689   1.306   1.610   8.333  1.9793  2.3451 -2.2289
 5686SOL     OW28690   3.921   0.359  17.019  0.3028  0.0196  0.0633
 5686SOL    HW128691   3.969   0.279  16.995 -1.2485  0.3057 -4.0723
 5686SOL    HW228692   3.832   0.326  17.031  1.7950 -2.6144  3.8796
 5687SOL     OW28693   2.894   3.046   5.861 -0.1886 -0.4897 -0.5625
 5687SOL    HW128694   2.976   3.003   5.882  0.1433  0.9061  1.0329
 5687SOL    HW228695   2.859   3.047   5.950  1.2330 -0.4408 -0.0203
 5688SOL     OW28696   1.943   0.725   9.892 -0.0460  0.0762 -0.1069
 5688SOL    HW128697   2.026   0.770   9.876  0.9515 -1.5719  0.3813
 5688SOL    HW228698   1.949   0.698   9.984  1.0205 -3.4136 -1.1906
 5689SOL     OW28699   2.905   3.311   6.087  0.1154 -0.0765 -0.2743
 5689SOL    HW128700   2.847   3.258   6.142  0.9958 -1.3016 -0.5362
 5689SOL    HW228701   2.841   3.324   6.016 -0.3189  1.2886  0.3535
 5690SOL     OW28702   0.344   0.943   8.009 -0.0915 -0.1140 -0.0101
 5690SOL    HW128703   0.269   0.998   7.986 -0.0911  0.7666  2.0395
 5690SOL    HW228704   0.310   0.860   7.975  0.1967  0.1697 -0.9678
 5691SOL     OW28705   2.040   2.691   1.395  0.4407  0.0076 -0.5176
 5691SOL    HW128706   2.087   2.750   1.453  0.8624  0.8632 -1.7338
 5691SOL    HW228707   1.951   2.717   1.419  0.6965  2.5225 -2.2717
 5692SOL     OW28708   2.089   4.523   8.049 -0.2906 -0.3870  0.4727
 5692SOL    HW128709   2.164   4.554   8.100  0.0927  0.8505 -0.8527
 5692SOL    HW228710   2.135   4.525   7.965 -1.0571  2.8872  0.1167
 5693SOL     OW28711   3.857   3.901  15.532 -0.4380  0.3031  0.3414
 5693SOL    HW128712   3.826   3.847  15.605  1.1595 -1.6773 -0.4506
 5693SOL    HW228713   3.941   3.934  15.567  0.0470 -0.9121  0.3040
 5694SOL     OW28714   4.381   2.654   7.332  0.4549  0.1701 -0.0194
 5694SOL    HW128715   4.434   2.626   7.257  1.5280 -0.2669  0.9069
 5694SOL    HW228716   4.301   2.685   7.289  1.2520  0.5539 -1.2398
 5695SOL     OW28717   2.555   3.814   4.706  0.6756  0.0925  0.2290
 5695SOL    HW128718   2.484   3.754   4.727  0.0440  1.1546  1.1425
 5695SOL    HW228719   2.603   3.810   4.789  1.0434  1.2891  0.0818
 5696SOL     OW28720   4.269   3.299   5.823  0.1011 -0.1629 -0.1685
 5696SOL    HW128721   4.216   3.286   5.902 -1.5508 -1.4641 -1.4999
 5696SOL    HW228722   4.342   3.240   5.843 -1.1291 -0.9750  1.9536
 5697SOL     OW28723   1.390   4.683   9.220  0.0905 -0.7842 -0.0492
 5697SOL    HW128724   1.392   4.675   9.315  1.4606  0.8230  0.0515
 5697SOL    HW228725   1.480   4.701   9.193 -0.1504  2.0889  1.0435
 5698SOL     OW28726   0.763   2.450   6.708 -0.6389  0.3246 -0.0635
 5698SOL    HW128727   0.716   2.380   6.754  0.3773 -0.6124 -0.4645
 5698SOL    HW228728   0.708   2.520   6.744  2.3483  3.0311 -0.8025
 5699SOL     OW28729   4.148   0.834  11.737 -0.1717  0.1810  0.0638
 5699SOL    HW128730   4.150   0.808  11.644  2.1523  0.2463  0.1075
 5699SOL    HW228731   4.238   0.833  11.767 -0.1945 -0.8306  0.1130
 5700SOL     OW28732   1.805   3.832   9.471 -0.3819 -1.0544 -0.6226
 5700SOL    HW128733   1.718   3.854   9.506  0.3922  2.0420 -0.6500
 5700SOL    HW228734   1.781   3.754   9.422 -0.8763 -2.2047  1.4673
 5701SOL     OW28735   2.219   1.157   6.666  0.2569 -0.0952 -0.6115
 5701SOL    HW128736   2.301   1.110   6.656  0.7417  0.3210  1.5232
 5701SOL    HW228737   2.232   1.187   6.756 -1.7649 -0.1337 -0.3002
 5702SOL     OW28738   3.916   4.532   3.974  0.2661 -0.8587  0.1666
 5702SOL    HW128739   3.856   4.488   3.913 -0.6657 -0.2422  0.6391
 5702SOL    HW228740   3.998   4.486   3.956  0.4428 -0.3303 -0.3920
 5703SOL     OW28741   2.756   0.796   4.493  0.4731 -0.2420 -0.0089
 5703SOL    HW128742   2.717   0.848   4.423  0.2875  0.4179  0.5779
 5703SOL    HW228743   2.842   0.772   4.459  1.1560  1.3859  0.5584
 5704SOL     OW28744   1.894   0.971  11.813 -0.7173 -0.5599  0.8296
 5704SOL    HW128745   1.812   0.928  11.786 -0.1704 -1.4648  0.6140
 5704SOL    HW228746   1.933   0.910  11.875  0.2423  0.3146  1.0828
 5705SOL     OW28747   4.363   3.196   1.255  0.6218  0.2093  0.3788
 5705SOL    HW128748   4.312   3.275   1.237  0.9491  0.6174  1.2099
 5705SOL    HW228749   4.318   3.130   1.202 -1.2274  1.7074  0.0624
 5706SOL     OW28750   0.234   3.805   4.496  0.3590  0.3400  0.6983
 5706SOL    HW128751   0.238   3.859   4.574  0.6216  1.5562 -0.1510
 5706SOL    HW228752   0.308   3.831   4.440 -1.2303  0.7834 -1.1987
 5707SOL     OW28753   1.027   1.746  17.308  0.1226 -0.0272  0.3869
 5707SOL    HW128754   1.040   1.700  17.225  2.5599  0.5327  0.4717
 5707SOL    HW228755   0.978   1.824  17.283  0.0308 -0.0736  0.4198
 5708SOL     OW28756   4.228   3.124   6.448  0.3801 -0.1153  0.2464
 5708SOL    HW128757   4.195   3.038   6.419  1.7305 -0.2685 -0.8657
 5708SOL    HW228758   4.293   3.091   6.510  1.3214 -0.9468 -1.1716
 5709SOL     OW28759   0.437   3.617  15.701 -0.1474  0.2556  0.7413
 5709SOL    HW128760   0.425   3.609  15.606  1.6235 -1.5234  0.6736
 5709SOL    HW228761   0.494   3.694  15.705  0.3457 -0.1610  1.5670
 5710SOL     OW28762   0.956   0.977  15.918  0.0845 -0.2752  0.1263
 5710SOL    HW128763   0.956   1.065  15.879  1.3480 -0.7947 -1.0281
 5710SOL    HW228764   1.035   0.977  15.972 -0.8143 -2.0106  1.4378
 5711SOL     OW28765   1.134   4.407   3.370  0.6229  0.3042  0.0115
 5711SOL    HW128766   1.039   4.415   3.379  0.6990  2.7263 -1.2828
 5711SOL    HW228767   1.159   4.496   3.344  2.5038  0.0015  0.8169
 5712SOL     OW28768   1.136   3.577   5.027 -0.0113 -0.4286  0.1004
 5712SOL    HW128769   1.051   3.604   4.992 -1.4413 -1.7794  2.5092
 5712SOL    HW228770   1.185   3.539   4.954  0.8824  1.2250 -0.1741
 5713SOL     OW28771   3.434   0.843  15.606  0.0092  0.1698 -0.5097
 5713SOL    HW128772   3.355   0.788  15.602 -0.3180  0.8020 -2.4172
 5713SOL    HW228773   3.453   0.879  15.520  2.4002  0.7159  0.2398
 5714SOL     OW28774   0.774   3.069   6.652  0.4433 -0.0530  0.5374
 5714SOL    HW128775   0.705   3.094   6.591 -0.6450 -0.5672  1.5385
 5714SOL    HW228776   0.851   3.103   6.608 -1.2168  0.1565 -2.2038
 5715SOL     OW28777   4.395   4.361   5.058  0.3264  0.3658 -0.1137
 5715SOL    HW128778   4.321   4.336   5.114  0.3062  0.1149 -0.2554
 5715SOL    HW228779   4.367   4.452   5.056 -1.3316 -0.1348  0.5549
 5716SOL     OW28780   1.853   1.272   5.852  0.3418  0.3134  0.4341
 5716SOL    HW128781   1.808   1.191   5.829 -0.9989  1.9276 -2.6572
 5716SOL    HW228782   1.789   1.318   5.905  0.0120  0.1769  0.1492
 5717SOL     OW28783   1.163   0.379   5.715 -0.3901  0.1274 -0.2928
 5717SOL    HW128784   1.117   0.377   5.631  0.4671  1.1688 -0.7913
 5717SOL    HW228785   1.251   0.354   5.686 -0.7358  0.2241 -1.4262
 5718SOL     OW28786   2.700   2.985  10.716  0.0890 -0.2646 -0.0679
 5718SOL    HW128787   2.680   3.021  10.630 -1.3769  2.5926  1.4606
 5718SOL    HW228788   2.616   2.964  10.758  0.1866 -1.7656 -0.6271
 5719SOL     OW28789   3.910   4.088   4.857  0.6675  0.1183  0.0773
 5719SOL    HW128790   3.891   4.111   4.766 -0.1714  0.8220  0.4229
 5719SOL    HW228791   3.916   4.176   4.896  2.0882  1.0537 -2.2504
 5720SOL     OW28792   3.318   1.045   6.436  0.4161  0.1747  1.2503
 5720SOL    HW128793   3.407   1.018   6.414 -0.2783 -1.8910  1.0121
 5720SOL    HW228794   3.336   1.139   6.431 -2.9826  0.7738  0.3185
 5721SOL     OW28795   4.166   2.932   4.424 -0.4296 -0.1940  0.3068
 5721SOL    HW128796   4.158   2.892   4.338  1.5887  0.4873 -0.2059
 5721SOL    HW228797   4.255   2.907   4.450 -0.6111 -2.4906 -1.3463
 5722SOL     OW28798   2.781   2.541   4.383 -0.4889  0.1435  0.3201
 5722SOL    HW128799   2.768   2.508   4.472  2.9905 -0.6884  0.5192
 5722SOL    HW228800   2.876   2.535   4.388 -0.4690  1.8759  1.7094
 5723SOL     OW28801   3.633   3.048   3.429 -0.4781  0.0033  0.8086
 5723SOL    HW128802   3.539   3.050   3.413 -0.0692 -1.8848 -1.7878
 5723SOL    HW228803   3.630   3.074   3.521  1.2654  1.8539  0.3372
 5724SOL     OW28804   2.314   1.707   5.975  0.2573 -0.0393  0.1642
 5724SOL    HW128805   2.338   1.614   5.977 -1.8474 -0.5636  0.6940
 5724SOL    HW228806   2.241   1.698   6.036 -0.7011 -1.6353 -1.2358
 5725SOL     OW28807   2.822   0.322   5.929 -0.8802 -0.0572  0.1444
 5725SOL    HW128808   2.800   0.372   5.851 -4.0103 -0.9577  0.4614
 5725SOL    HW228809   2.765   0.245   5.920 -1.3281  0.3284 -0.2935
 5726SOL     OW28810   4.193   3.803   2.012  0.1801 -0.1618  0.3332
 5726SOL    HW128811   4.284   3.780   2.029  0.2071  0.1828  0.6431
 5726SOL    HW228812   4.138   3.779   2.087 -1.7249  2.5275 -0.2053
 5727SOL     OW28813   2.715   4.343   4.935 -0.5291 -0.1268 -0.1402
 5727SOL    HW128814   2.733   4.420   4.880 -0.9934  0.9068  1.1506
 5727SOL    HW228815   2.645   4.310   4.879 -0.8004 -0.5622  0.4514
 5728SOL     OW28816   3.403   4.311   0.977 -0.6558 -0.2535 -0.3447
 5728SOL    HW128817   3.409   4.283   1.068 -0.1472 -2.2237 -0.9938
 5728SOL    HW228818   3.312   4.283   0.963 -0.7193  1.0513 -2.5900
 5729SOL     OW28819   2.529   0.326   6.963 -0.2973  0.1916  0.0960
 5729SOL    HW128820   2.508   0.415   6.935 -1.3396  0.3806  1.5013
 5729SOL    HW228821   2.449   0.285   6.996 -1.2491  2.0801  0.1462
 5730SOL     OW28822   1.067   4.232  10.642  0.2934  0.2876  0.0558
 5730SOL    HW128823   1.076   4.284  10.562  0.2806  0.4126  0.1348
 5730SOL    HW228824   1.055   4.150  10.594  0.0040 -0.3888  1.2886
 5731SOL     OW28825   0.358   2.599   1.430  0.0085  0.2722  0.2131
 5731SOL    HW128826   0.389   2.582   1.519  1.4359 -0.7842 -0.4911
 5731SOL    HW228827   0.394   2.684   1.405  0.3752  0.4206  1.2708
 5732SOL     OW28828   0.709   1.203  15.325  0.2534 -0.2024  0.1697
 5732SOL    HW128829   0.699   1.120  15.371  1.3643 -0.7700 -0.5999
 5732SOL    HW228830   0.782   1.189  15.264  0.2323  1.6996 -0.2842
 5733SOL     OW28831   2.124   2.336  11.287 -0.0022 -0.4335  0.8361
 5733SOL    HW128832   2.211   2.376  11.274 -1.3886  2.2315 -0.2324
 5733SOL    HW228833   2.082   2.366  11.206 -0.6182  0.3866  1.4650
 5734SOL     OW28834   1.453   2.030  13.536  0.1219  0.1530  0.9011
 5734SOL    HW128835   1.414   2.113  13.512  1.4742  0.9428  1.4211
 5734SOL    HW228836   1.539   2.033  13.494 -1.0048  0.3367 -1.4039
 5735SOL     OW28837   4.327   1.447   8.771 -0.1164 -0.3172  0.0454
 5735SOL    HW128838   4.333   1.458   8.866 -1.6148 -2.3786  0.3807
 5735SOL    HW228839   4.234   1.466   8.757 -0.4759 -1.8461  0.4374
 5736SOL     OW28840   0.762   2.158   2.075  0.9296 -0.7564  0.0034
 5736SOL    HW128841   0.714   2.088   2.031 -1.5080  0.6928  0.3548
 5736SOL    HW228842   0.846   2.111   2.076 -0.0179 -2.4009  1.5285
 5737SOL     OW28843   1.354   1.965   4.846 -0.3787 -0.3675 -0.0425
 5737SOL    HW128844   1.377   1.934   4.758  1.2348  1.3274 -0.2090
 5737SOL    HW228845   1.381   1.888   4.895  0.3251 -0.0479  0.0749
 5738SOL     OW28846   4.668   2.542   2.851 -0.2123  0.3685  0.7632
 5738SOL    HW128847   0.019   2.576   2.868  0.9074 -0.9245 -2.3992
 5738SOL    HW228848   4.655   2.602   2.777 -1.4632 -2.6101 -1.4084
 5739SOL     OW28849   1.585   0.468   3.354  0.3657 -0.6766 -0.2531
 5739SOL    HW128850   1.538   0.385   3.348  1.5491 -1.2457 -1.7814
 5739SOL    HW228851   1.668   0.451   3.398  0.8238 -1.1067 -1.2683
 5740SOL     OW28852   0.456   4.620  16.739  0.0025 -0.0260 -0.1340
 5740SOL    HW128853   0.502   4.661  16.666 -0.8162 -1.0087 -1.2263
 5740SOL    HW228854   0.392   4.567  16.690 -1.6784  0.9781  0.9974
 5741SOL     OW28855   2.182   1.579   5.008  0.2017 -0.1982 -0.2820
 5741SOL    HW128856   2.210   1.489   5.023  0.3507 -0.1921 -0.5228
 5741SOL    HW228857   2.151   1.602   5.096 -0.0115  0.8306 -0.6279
 5742SOL     OW28858   4.508   1.256   6.667 -0.3734 -0.4385 -0.2112
 5742SOL    HW128859   4.600   1.275   6.648  0.2642  1.0464  4.4690
 5742SOL    HW228860   4.498   1.330   6.727 -1.4915 -1.3797  0.7706
 5743SOL     OW28861   3.008   1.740  12.073  0.0054 -0.2607  0.1860
 5743SOL    HW128862   3.038   1.702  12.155  0.9849 -1.6407 -0.8186
 5743SOL    HW228863   2.948   1.669  12.049  1.6757 -0.4709 -3.3766
 5744SOL     OW28864   3.936   3.772  16.539  0.0862  0.2254 -1.0267
 5744SOL    HW128865   3.950   3.731  16.453 -0.7987 -1.6458 -0.2800
 5744SOL    HW228866   4.004   3.719  16.582  0.5673  1.6212 -0.0826
 5745SOL     OW28867   2.960   3.462   8.630 -0.0920  0.1082 -0.5843
 5745SOL    HW128868   2.964   3.413   8.713  1.5070 -1.1146 -1.3932
 5745SOL    HW228869   2.937   3.396   8.565 -1.1635 -0.1042  0.0124
 5746SOL     OW28870   2.430   4.514  11.052  0.2079 -0.3408 -0.2079
 5746SOL    HW128871   2.525   4.518  11.051  0.1869  0.5774  0.6968
 5746SOL    HW228872   2.421   4.606  11.024 -1.7937 -0.7045 -0.8070
 5747SOL     OW28873   3.409   4.712   6.441 -0.5394 -0.2335  0.1894
 5747SOL    HW128874   3.321   4.675   6.447 -0.8197  0.1824 -1.3180
 5747SOL    HW228875   3.461   4.638   6.409 -0.7071 -0.2547 -0.0333
 5748SOL     OW28876   0.257   1.293   7.566  0.0084  0.6751 -0.7468
 5748SOL    HW128877   0.322   1.338   7.620  0.5643  0.6966 -1.4401
 5748SOL    HW228878   0.318   1.252   7.505  0.9340  0.8895  0.0272
 5749SOL     OW28879   3.512   1.730   8.199  0.8735 -0.4407 -0.8732
 5749SOL    HW128880   3.485   1.782   8.123 -1.1911 -2.4122 -1.4870
 5749SOL    HW228881   3.594   1.691   8.168 -0.1294 -0.4541 -3.5121
 5750SOL     OW28882   1.473   1.387   6.906  0.5086 -0.3109 -0.1369
 5750SOL    HW128883   1.446   1.394   6.997  0.1008 -0.4571 -0.2469
 5750SOL    HW228884   1.565   1.364   6.921  0.3205  0.2190  1.7134
 5751SOL     OW28885   0.658   1.967   1.915 -0.6220  0.5532 -0.1216
 5751SOL    HW128886   0.578   2.003   1.877 -0.2012 -0.4964 -1.9832
 5751SOL    HW228887   0.620   1.882   1.940  0.8195  0.2754  1.1408
 5752SOL     OW28888   3.507   3.901   8.322  0.1217 -0.4513 -0.1097
 5752SOL    HW128889   3.575   3.835   8.330 -0.6871 -1.1839  0.6090
 5752SOL    HW228890   3.496   3.908   8.227 -0.4872  0.4844  0.0267
 5753SOL     OW28891   2.549   4.091  13.202  0.6079 -0.1715 -0.3013
 5753SOL    HW128892   2.461   4.060  13.178 -0.0066  0.4063  1.2266
 5753SOL    HW228893   2.544   4.109  13.296  0.5676  0.6562 -0.4629
 5754SOL     OW28894   1.618   3.990   7.060  0.5859 -0.3255  0.0953
 5754SOL    HW128895   1.615   4.082   7.035  0.8193 -0.1225  0.8199
 5754SOL    HW228896   1.535   3.983   7.107  0.7229  1.3949  0.5835
 5755SOL     OW28897   3.443   1.155  16.263  0.1056 -0.4464  0.4336
 5755SOL    HW128898   3.425   1.233  16.212 -0.9682 -1.9510 -1.4597
 5755SOL    HW228899   3.419   1.087  16.200 -0.0145  0.1957 -0.2090
 5756SOL     OW28900   0.772   3.776   3.881  0.2432 -0.0372  0.8142
 5756SOL    HW128901   0.731   3.825   3.810 -0.4834 -3.3117 -1.0523
 5756SOL    HW228902   0.690   3.731   3.903  0.1352 -0.3959 -0.2925
 5757SOL     OW28903   4.560   2.923   8.684  0.2519 -0.0212 -0.8527
 5757SOL    HW128904   4.529   2.837   8.656 -1.0227  0.2942 -0.4503
 5757SOL    HW228905   4.541   2.931   8.778 -1.6217  0.3025 -1.2617
 5758SOL     OW28906   1.745   1.952   7.376  0.2352  0.4352  0.0181
 5758SOL    HW128907   1.743   1.866   7.417  1.2037 -0.7522 -2.3987
 5758SOL    HW228908   1.674   1.949   7.312 -1.8254 -0.5967  2.3420
 5759SOL     OW28909   1.512   4.221  13.521  0.1673  0.4528  0.5743
 5759SOL    HW128910   1.551   4.301  13.485  0.6752  0.8289  1.9582
 5759SOL    HW228911   1.438   4.258  13.569  1.9407  1.3527  2.6296
 5760SOL     OW28912   1.583   3.960   6.783 -0.2751 -0.3881 -0.5125
 5760SOL    HW128913   1.568   3.995   6.871  2.2507 -0.1479 -0.1801
 5760SOL    HW228914   1.677   3.945   6.783 -0.1063  0.6891 -0.5291
 5761SOL     OW28915   1.031   1.406   5.045  0.3021 -0.7475 -0.2727
 5761SOL    HW128916   0.989   1.424   5.129  0.7895 -0.0067 -0.1858
 5761SOL    HW228917   0.999   1.317   5.029 -0.4278 -0.2751 -1.5266
 5762SOL     OW28918   2.702   4.365  16.818 -0.6355  0.2509  0.0629
 5762SOL    HW128919   2.649   4.445  16.823 -0.5792  0.2400  0.8080
 5762SOL    HW228920   2.779   4.402  16.773  0.1390 -0.4861  0.7939
 5763SOL     OW28921   1.293   0.357  16.784  0.8264  0.0551  0.1919
 5763SOL    HW128922   1.261   0.326  16.700 -0.9207  0.3097  0.7752
 5763SOL    HW228923   1.323   0.276  16.825  2.2925  0.7234  0.4707
 5764SOL     OW28924   2.938   4.238   7.787  0.5407 -0.0270 -0.2928
 5764SOL    HW128925   2.940   4.302   7.858  2.2780 -0.6897  0.2647
 5764SOL    HW228926   2.884   4.288   7.725  0.3653  0.1215 -0.0207
 5765SOL     OW28927   1.615   0.410   1.893  0.2181 -0.2272 -0.4940
 5765SOL    HW128928   1.540   0.467   1.876 -0.4196 -0.2878  2.0875
 5765SOL    HW228929   1.684   0.438   1.833 -0.5128  2.0991 -0.2547
 5766SOL     OW28930   2.718   0.538  15.771  0.4654  0.2446 -0.4006
 5766SOL    HW128931   2.671   0.560  15.852  1.7917  0.0639  0.4120
 5766SOL    HW228932   2.664   0.585  15.707  0.7597  0.7665 -0.2727
 5767SOL     OW28933   0.473   3.201   5.789 -0.1243  0.5160 -0.0934
 5767SOL    HW128934   0.539   3.221   5.722  1.7523  1.4490  2.0504
 5767SOL    HW228935   0.412   3.156   5.731  1.2244 -2.3390  0.6873
 5768SOL     OW28936   4.281   1.050   9.218  0.1425 -0.3154  0.5877
 5768SOL    HW128937   4.364   1.076   9.258 -1.1997  1.6703  2.0885
 5768SOL    HW228938   4.223   1.058   9.294 -0.5539  2.0883 -0.1886
 5769SOL     OW28939   1.331   2.206  10.682  0.6122  0.2157  0.9133
 5769SOL    HW128940   1.309   2.221  10.590 -1.1367 -0.2772  1.2515
 5769SOL    HW228941   1.260   2.147  10.708  1.4150 -1.0306  0.2784
 5770SOL     OW28942   2.939   2.899   3.307  0.0310 -0.1496  0.1433
 5770SOL    HW128943   2.898   2.966   3.252  1.7060 -1.3837 -2.6073
 5770SOL    HW228944   2.861   2.845   3.322  0.9450 -1.5553 -0.0900
 5771SOL     OW28945   0.648   3.320  11.821  0.4618  0.0605  0.5777
 5771SOL    HW128946   0.715   3.320  11.890  2.0073  1.2826 -0.9347
 5771SOL    HW228947   0.670   3.398  11.770  0.1000 -0.4271 -0.3177
 5772SOL     OW28948   0.167   0.973   6.343 -0.6246  0.3220  0.1707
 5772SOL    HW128949   0.140   0.935   6.427 -0.1473 -1.2575 -0.3958
 5772SOL    HW228950   0.157   0.893   6.291  1.8561 -0.2634  0.5719
 5773SOL     OW28951   1.933   2.340   7.984 -0.2585  0.6069  0.2537
 5773SOL    HW128952   1.900   2.250   7.992  2.6037 -0.6747 -2.0235
 5773SOL    HW228953   1.927   2.357   7.890 -0.2542 -1.8386 -0.2040
 5774SOL     OW28954   1.202   0.276   4.109  0.1290  0.4132  0.4766
 5774SOL    HW128955   1.296   0.278   4.087  0.2672 -0.9353  0.9876
 5774SOL    HW228956   1.170   0.289   4.019 -0.0049  1.3594  0.6599
 5775SOL     OW28957   1.809   0.522   8.820 -0.3289  0.1212  0.1013
 5775SOL    HW128958   1.768   0.440   8.848 -0.0495  0.2044  0.7387
 5775SOL    HW228959   1.881   0.490   8.764  0.3509 -0.6818  1.4521
 5776SOL     OW28960   1.260   0.774   8.930  0.1009  0.1841  0.0530
 5776SOL    HW128961   1.302   0.773   9.016 -2.1768  0.1621  1.1480
 5776SOL    HW228962   1.328   0.791   8.864 -1.7221 -1.3115 -2.1753
 5777SOL     OW28963   2.558   1.069   0.247 -0.1860  0.4619 -0.1975
 5777SOL    HW128964   2.649   1.096   0.261  0.3019 -0.7591 -1.0108
 5777SOL    HW228965   2.518   1.149   0.213 -1.1416  0.0430 -0.0654
 5778SOL     OW28966   0.773   3.961   3.321  0.1790  0.4035  0.1793
 5778SOL    HW128967   0.852   3.960   3.375 -0.1249  0.9039  0.6318
 5778SOL    HW228968   0.807   4.022   3.255 -2.4066  1.1172 -0.4645
 5779SOL     OW28969   3.627   2.043   4.945  0.1064 -0.0937  0.0149
 5779SOL    HW128970   3.699   2.103   4.923 -0.0184  0.3570  0.8370
 5779SOL    HW228971   3.581   2.101   5.006  0.5079  0.4391 -0.1947
 5780SOL     OW28972   1.902   1.754   5.509 -0.2169 -0.6128  0.0194
 5780SOL    HW128973   1.894   1.832   5.563 -0.7212 -1.1217  0.6683
 5780SOL    HW228974   1.879   1.788   5.422 -0.0764  1.0933  0.6384
 5781SOL     OW28975   4.482   1.814   8.365 -0.6153 -0.3659  1.0411
 5781SOL    HW128976   4.429   1.893   8.362 -1.6842 -1.1164  0.1650
 5781SOL    HW228977   4.564   1.862   8.375 -0.1503 -0.4494 -2.2425
 5782SOL     OW28978   1.313   4.231   8.938  0.6950  0.1746 -0.6543
 5782SOL    HW128979   1.404   4.217   8.914  0.6529 -0.0481 -0.6793
 5782SOL    HW228980   1.332   4.288   9.013 -1.2095 -0.6866  0.4917
 5783SOL     OW28981   4.004   0.844   1.112  0.2040 -0.3171 -0.6447
 5783SOL    HW128982   3.988   0.791   1.034 -2.7079  0.3064 -0.4368
 5783SOL    HW228983   4.004   0.776   1.180  2.3116  1.4917  1.1839
 5784SOL     OW28984   4.703   2.378  16.901 -0.4332  0.1127 -0.6151
 5784SOL    HW128985   0.010   2.442  16.957 -0.9762 -1.6289  1.8588
 5784SOL    HW228986   0.006   2.295  16.929  2.0201  1.7264  0.6130
 5785SOL     OW28987   0.626   1.751  14.576 -0.0753  0.3789 -0.0962
 5785SOL    HW128988   0.648   1.838  14.609  0.8255 -0.2783  1.0325
 5785SOL    HW228989   0.617   1.767  14.482  1.5699 -0.3524 -0.3840
 5786SOL     OW28990   0.541   3.451   6.535  0.3041 -0.7541 -0.5222
 5786SOL    HW128991   0.523   3.447   6.629  0.0464 -0.1697 -0.5403
 5786SOL    HW228992   0.519   3.541   6.510 -0.9816 -0.6692  0.9232
 5787SOL     OW28993   1.985   2.422   9.949 -0.3836 -0.0518 -0.3138
 5787SOL    HW128994   1.915   2.458   9.893 -1.3051  1.8193  2.0221
 5787SOL    HW228995   1.943   2.416  10.035 -2.1792 -0.0241 -1.1746
 5788SOL     OW28996   4.159   3.279   4.528 -0.1730  0.2418 -0.4439
 5788SOL    HW128997   4.182   3.361   4.572 -3.2878  0.8206  0.0720
 5788SOL    HW228998   4.110   3.327   4.463 -1.0990  0.4101  0.3778
 5789SOL     OW28999   2.802   2.267   1.201 -0.1075  0.3187 -0.2478
 5789SOL    HW129000   2.779   2.177   1.176 -0.4084  0.1703  0.5503
 5789SOL    HW229001   2.795   2.259   1.296 -0.3704  0.6442 -0.2414
 5790SOL     OW29002   0.649   3.680   5.897 -0.1183  0.1367 -0.8339
 5790SOL    HW129003   0.587   3.608   5.907  0.3152 -0.2690 -1.0537
 5790SOL    HW229004   0.735   3.644   5.921  0.5271  0.9964 -1.8705
 5791SOL     OW29005   4.237   1.440   7.895  0.0045 -0.0961 -0.2724
 5791SOL    HW129006   4.264   1.357   7.856 -1.2753 -0.4473 -0.4230
 5791SOL    HW229007   4.252   1.422   7.988  0.4165  0.9784 -0.1308
 5792SOL     OW29008   1.234   3.344   9.102  0.3066 -0.1153  0.1059
 5792SOL    HW129009   1.172   3.272   9.114 -0.9582  1.1765  1.4058
 5792SOL    HW229010   1.176   3.420   9.113 -0.9642 -1.1683  0.7188
 5793SOL     OW29011   2.764   3.882   6.934  0.0152 -1.1368  1.0425
 5793SOL    HW129012   2.848   3.840   6.952 -0.7857 -3.0069  0.3837
 5793SOL    HW229013   2.705   3.845   6.999 -1.8723 -2.6510 -1.5344
 5794SOL     OW29014   4.726   3.611   8.058 -0.5134  0.7227  0.4192
 5794SOL    HW129015   0.039   3.574   8.130 -2.3930 -1.8992  0.4142
 5794SOL    HW229016   4.639   3.577   8.083 -0.4936  0.6829  0.4344
 5795SOL     OW29017   2.796   4.026   0.609 -0.7765 -0.6186  1.0674
 5795SOL    HW129018   2.744   3.981   0.542 -0.4159  2.0577 -1.0017
 5795SOL    HW229019   2.821   3.941   0.646  2.5620 -0.6605 -1.3312
 5796SOL     OW29020   0.834   1.180  13.177  0.3584  0.1050  0.0085
 5796SOL    HW129021   0.856   1.091  13.149  0.0359 -0.5088  1.6896
 5796SOL    HW229022   0.916   1.228  13.162  0.0292  1.3836  2.2624
 5797SOL     OW29023   2.338   0.432  12.354  1.3830 -0.2744  0.0120
 5797SOL    HW129024   2.431   0.411  12.364  0.4278 -3.7210  1.4804
 5797SOL    HW229025   2.330   0.438  12.259 -1.7654 -2.0475  0.1911
 5798SOL     OW29026   2.281   2.828   4.721  0.0274  0.2983 -0.2824
 5798SOL    HW129027   2.363   2.812   4.674  0.3873  2.4185 -0.4082
 5798SOL    HW229028   2.257   2.743   4.756 -0.4395  1.1279  1.4092
 5799SOL     OW29029   4.506   2.119  15.401 -0.1477 -0.6040 -0.7199
 5799SOL    HW129030   4.521   2.106  15.308 -0.5895  0.0641 -0.8805
 5799SOL    HW229031   4.411   2.126  15.399  0.0780  1.9001 -2.1354
 5800SOL     OW29032   3.427   1.385  10.451 -0.7034 -0.1320  0.3417
 5800SOL    HW129033   3.472   1.342  10.378 -2.5433 -0.1175 -0.7838
 5800SOL    HW229034   3.342   1.383  10.408  0.5128  1.7340 -2.1765
 5801SOL     OW29035   3.049   2.017   9.517 -0.4844  0.3039 -0.1781
 5801SOL    HW129036   3.075   1.996   9.607  0.3684  1.2104 -0.2096
 5801SOL    HW229037   3.109   2.087   9.491 -1.3510  0.9405 -0.4535
 5802SOL     OW29038   3.342   1.080   7.538  0.1769 -0.0798  0.0190
 5802SOL    HW129039   3.390   1.161   7.520 -1.1355  0.4431 -1.1427
 5802SOL    HW229040   3.398   1.033   7.601  0.3367  0.2329  0.1133
 5803SOL     OW29041   4.094   3.318   5.206 -0.4843  0.3722  0.0523
 5803SOL    HW129042   4.160   3.293   5.271 -1.2574  0.1455  0.7460
 5803SOL    HW229043   4.011   3.299   5.249 -1.2080  2.7779 -0.2663
 5804SOL     OW29044   2.290   2.060   4.961 -0.5336 -0.2047  0.1122
 5804SOL    HW129045   2.287   1.967   4.984 -0.8758 -0.4032 -0.7082
 5804SOL    HW229046   2.358   2.051   4.894  0.6842  2.0365  1.0662
 5805SOL     OW29047   1.894   4.237   4.717  0.7919 -0.0999 -0.0516
 5805SOL    HW129048   1.942   4.260   4.797  0.3308  1.9789 -0.3572
 5805SOL    HW229049   1.816   4.196   4.755  1.7012 -0.9509  0.8697
 5806SOL     OW29050   2.191   2.414  15.018  0.0279  0.1482 -0.4298
 5806SOL    HW129051   2.120   2.443  14.960 -0.8130 -1.0831 -0.0138
 5806SOL    HW229052   2.205   2.320  15.008  1.8155  0.5608 -1.8637
 5807SOL     OW29053   1.408   3.420   9.964  0.3077 -0.4109  0.7044
 5807SOL    HW129054   1.452   3.339   9.990  0.1860 -0.2570  1.3920
 5807SOL    HW229055   1.345   3.388   9.900  0.9100  0.2511 -0.2230
 5808SOL     OW29056   2.021   4.449   3.484 -0.2746  0.1497  0.3993
 5808SOL    HW129057   1.988   4.362   3.462 -2.0858  0.8300  0.4112
 5808SOL    HW229058   2.101   4.434   3.533  0.6992 -1.2057 -1.6006
 5809SOL     OW29059   2.942   1.320   6.788 -0.3689  0.2091 -0.2037
 5809SOL    HW129060   2.929   1.362   6.873  0.1840  1.2468 -0.6245
 5809SOL    HW229061   3.009   1.373   6.745 -0.7228 -1.0457 -2.2700
 5810SOL     OW29062   0.720   3.432   1.946 -0.3776  0.0909  0.1595
 5810SOL    HW129063   0.714   3.472   1.859 -0.8883  0.6939  0.4759
 5810SOL    HW229064   0.758   3.501   2.000  0.6529 -0.1045 -0.3217
 5811SOL     OW29065   3.207   3.025   8.981 -0.5825 -0.0669  0.4214
 5811SOL    HW129066   3.127   3.036   8.930  1.4693  1.1877 -2.5331
 5811SOL    HW229067   3.272   3.023   8.910 -1.2383  0.3681 -0.1811
 5812SOL     OW29068   4.660   2.908  14.982 -0.0177  0.2683  0.1520
 5812SOL    HW129069   4.674   2.885  14.890 -0.9750  2.4919 -0.5238
 5812SOL    HW229070   4.713   2.986  14.993  0.1220  0.2823 -0.6258
 5813SOL     OW29071   2.462   0.651  11.207  0.1631  0.0834 -0.1979
 5813SOL    HW129072   2.369   0.654  11.229  0.0332 -0.6320 -0.6674
 5813SOL    HW229073   2.478   0.745  11.215 -3.6857  0.9115 -2.2574
 5814SOL     OW29074   2.612   2.187   5.049 -0.2216  0.0261  0.1885
 5814SOL    HW129075   2.699   2.218   5.075  0.0368 -0.2587 -0.3384
 5814SOL    HW229076   2.565   2.262   5.085 -1.7062  0.0441 -1.8091
 5815SOL     OW29077   0.383   2.324   2.219 -0.1104 -0.0900 -0.1333
 5815SOL    HW129078   0.427   2.389   2.274 -0.0306  0.3424 -0.7123
 5815SOL    HW229079   0.454   2.316   2.155  0.3410  0.0097  0.3517
 5816SOL     OW29080   1.437   3.467   5.768 -0.4976 -0.4521  0.3158
 5816SOL    HW129081   1.502   3.397   5.760  0.1869  0.0721  1.2821
 5816SOL    HW229082   1.356   3.417   5.758 -0.1907 -0.7318 -0.7382
 5817SOL     OW29083   0.054   1.329   6.635  0.4229  0.2246 -0.6761
 5817SOL    HW129084   0.116   1.264   6.604 -0.7674 -1.1205 -0.2454
 5817SOL    HW229085   0.072   1.402   6.575 -1.8044 -0.2263 -1.9175
 5818SOL     OW29086   2.923   2.000   4.632  0.0224  0.4629 -0.2858
 5818SOL    HW129087   3.016   1.977   4.636  0.0900  0.9221  0.7652
 5818SOL    HW229088   2.883   1.933   4.687  0.9675 -0.5350 -0.8056
 5819SOL     OW29089   0.102   0.651  12.272 -0.2517  0.1509  0.1578
 5819SOL    HW129090   0.131   0.570  12.315  2.4139 -0.0062 -1.9231
 5819SOL    HW229091   0.148   0.719  12.321  0.2055  0.2285 -0.3691
 5820SOL     OW29092   2.891   2.556   2.007 -0.0006  0.1840  0.0870
 5820SOL    HW129093   2.883   2.522   2.096 -1.1535 -1.5420 -0.6895
 5820SOL    HW229094   2.852   2.641   2.026  0.3035 -0.1358  2.0720
 5821SOL     OW29095   2.662   1.253   8.934 -0.2218 -0.2997  0.3255
 5821SOL    HW129096   2.654   1.170   8.981 -0.0144 -1.8175 -2.3294
 5821SOL    HW229097   2.757   1.254   8.926 -0.3736 -0.2917 -1.5044
 5822SOL     OW29098   0.391   1.809   7.703 -0.9636 -0.2771  0.6215
 5822SOL    HW129099   0.351   1.735   7.748 -0.3651 -0.1499  1.3694
 5822SOL    HW229100   0.364   1.868   7.773  3.2948  2.0453  0.2855
 5823SOL     OW29101   1.015   4.528   2.854  0.6792 -0.3179 -0.3268
 5823SOL    HW129102   0.980   4.510   2.767  1.9569  2.2121 -1.3663
 5823SOL    HW229103   1.002   4.623   2.850  1.9470 -0.1028  0.5031
 5824SOL     OW29104   0.867   3.432   8.171 -0.0456 -0.1322  0.6853
 5824SOL    HW129105   0.823   3.351   8.196  1.3279  0.1235  4.0263
 5824SOL    HW229106   0.822   3.503   8.219  1.5735  1.4814 -0.1758
 5825SOL     OW29107   2.416   0.686   1.067 -0.0319 -0.6383 -0.6406
 5825SOL    HW129108   2.479   0.635   1.016  1.3745  1.8866 -1.4533
 5825SOL    HW229109   2.388   0.754   1.005  0.1503  2.4480  2.6794
 5826SOL     OW29110   0.345   0.114   2.427  0.6235  0.0956  0.1869
 5826SOL    HW129111   0.416   0.050   2.432  0.2010 -0.4091 -0.2271
 5826SOL    HW229112   0.370   0.164   2.349  2.0390  1.5043  1.5692
 5827SOL     OW29113   4.293   0.698   9.179 -0.9439  0.8863 -0.1700
 5827SOL    HW129114   4.224   0.659   9.233 -0.4251 -0.2353 -0.3166
 5827SOL    HW229115   4.337   0.625   9.135 -2.6393  0.8297 -1.7147
 5828SOL     OW29116   1.575   4.170   8.897  0.7542  0.5014 -0.1728
 5828SOL    HW129117   1.597   4.167   8.990  1.1311 -2.1445 -0.3661
 5828SOL    HW229118   1.656   4.191   8.851  0.6763  2.0128  0.3692
 5829SOL     OW29119   2.923   0.684   7.057 -0.6557 -0.4344  0.1777
 5829SOL    HW129120   2.985   0.672   7.129  0.2673  0.0025 -0.5557
 5829SOL    HW229121   2.979   0.703   6.983 -1.6726 -1.1457 -0.7867
 5830SOL     OW29122   2.783   3.563  12.536 -0.3117  0.0157  0.6430
 5830SOL    HW129123   2.824   3.575  12.622 -2.1899  0.7275  1.4194
 5830SOL    HW229124   2.808   3.471  12.530  1.0090  0.4282 -0.3869
 5831SOL     OW29125   1.830   2.169  17.389  0.2776  0.5098 -0.6164
 5831SOL    HW129126   1.760   2.104  17.382  1.2757 -0.5803 -0.4767
 5831SOL    HW229127   1.818   2.217  17.307 -1.5134  0.7725 -0.2114
 5832SOL     OW29128   0.608   3.321   7.747 -0.9003 -0.2464  0.0906
 5832SOL    HW129129   0.651   3.353   7.667 -1.6756 -1.0372 -0.6407
 5832SOL    HW229130   0.665   3.356   7.816 -1.9578 -0.7802  1.2269
 5833SOL     OW29131   1.033   3.239   7.422  0.1335  0.1784 -0.1169
 5833SOL    HW129132   1.092   3.254   7.348  1.1778 -0.2768  0.6345
 5833SOL    HW229133   1.068   3.156   7.453 -0.2932  0.4048  0.9731
 5834SOL     OW29134   3.103   3.587   3.791  0.3011 -0.1675  0.1497
 5834SOL    HW129135   3.138   3.528   3.725 -3.5878 -1.6624 -0.5596
 5834SOL    HW229136   3.031   3.531   3.819  0.8789 -1.0375 -0.1126
 5835SOL     OW29137   3.835   1.760   6.004  0.3516  0.4845  0.1414
 5835SOL    HW129138   3.887   1.690   6.044 -0.4999  0.5613  1.3887
 5835SOL    HW229139   3.802   1.812   6.077  0.7915 -0.0343  0.7118
 5836SOL     OW29140   3.229   0.535  11.777 -0.9181  0.0790 -0.0272
 5836SOL    HW129141   3.303   0.476  11.789 -0.8737 -0.4908 -3.0681
 5836SOL    HW229142   3.273   0.619  11.766  3.4486 -2.0521  1.1803
 5837SOL     OW29143   4.042   0.825   4.653  0.5396 -0.7134  0.1343
 5837SOL    HW129144   4.103   0.761   4.690 -0.2020 -2.2775 -1.3414
 5837SOL    HW229145   4.100   0.866   4.589  0.3240  0.5501  0.7606
 5838SOL     OW29146   3.190   2.381   9.328  0.2949 -0.3417 -0.3690
 5838SOL    HW129147   3.187   2.330   9.409 -0.6731  0.2934 -0.0012
 5838SOL    HW229148   3.191   2.310   9.264 -0.1906 -0.0146 -0.7426
 5839SOL     OW29149   2.402   4.319   7.705  0.4365  0.1891  0.3102
 5839SOL    HW129150   2.481   4.289   7.659  0.4441 -0.8238  0.9921
 5839SOL    HW229151   2.382   4.397   7.654 -0.1961  0.1854  0.5596
 5840SOL     OW29152   2.333   0.830   5.816 -0.4689 -0.3171  0.0184
 5840SOL    HW129153   2.409   0.801   5.867  0.1761 -0.4962 -1.0211
 5840SOL    HW229154   2.275   0.756   5.829 -0.4533 -0.6169 -1.6233
 5841SOL     OW29155   4.169   1.695   8.344  0.0054  0.4767  0.0719
 5841SOL    HW129156   4.110   1.652   8.406  1.1331 -1.9363 -0.5362
 5841SOL    HW229157   4.242   1.714   8.404  3.0228 -0.0369 -3.4766
 5842SOL     OW29158   1.211   2.284   4.646  0.2978 -0.5434  0.5546
 5842SOL    HW129159   1.260   2.206   4.619 -1.3808 -0.2459 -3.3241
 5842SOL    HW229160   1.121   2.255   4.661 -0.1094 -0.0496 -1.0005
 5843SOL     OW29161   0.326   1.818   9.581  0.2686  0.1692  0.2052
 5843SOL    HW129162   0.344   1.900   9.628  1.3093 -0.9481  1.7121
 5843SOL    HW229163   0.240   1.819   9.539 -0.0377  2.0694  0.8498
 5844SOL     OW29164   2.459   2.885   8.365  0.2980 -0.2280  0.2217
 5844SOL    HW129165   2.426   2.820   8.427  1.5592 -2.8195 -1.7833
 5844SOL    HW229166   2.382   2.935   8.339 -0.8345 -0.9804  2.2210
 5845SOL     OW29167   3.785   4.389   0.137 -0.5558  0.4603 -0.2385
 5845SOL    HW129168   3.846   4.322   0.107 -0.6304  0.8179 -1.1683
 5845SOL    HW229169   3.770   4.455   0.070  1.5460  2.4463  1.2356
 5846SOL     OW29170   1.645   2.413   4.895  0.3219 -0.5810 -0.1235
 5846SOL    HW129171   1.556   2.382   4.906  1.0676 -1.8155  2.5310
 5846SOL    HW229172   1.687   2.336   4.855  1.4324  0.4110 -0.8738
 5847SOL     OW29173   4.395   1.101   5.061 -0.6878  0.4797 -0.0303
 5847SOL    HW129174   4.490   1.111   5.061 -0.6761  0.3721  1.4590
 5847SOL    HW229175   4.364   1.137   5.144 -0.5528 -0.3394  0.3750
 5848SOL     OW29176   4.688   3.966  13.160  0.5320 -0.0445  0.1133
 5848SOL    HW129177   4.594   3.976  13.144  0.5704 -1.5850 -1.0035
 5848SOL    HW229178   4.694   3.994  13.252 -1.7398 -0.9903  0.5570
 5849SOL     OW29179   0.209   4.510  12.577  0.4981  0.0602 -0.2610
 5849SOL    HW129180   0.243   4.427  12.611  2.1262  0.9486  0.2399
 5849SOL    HW229181   0.245   4.573  12.638 -1.2800 -0.6819  1.5711
 5850SOL     OW29182   4.125   2.726   5.391  0.0841  0.2770  0.5231
 5850SOL    HW129183   4.047   2.760   5.436 -0.0929 -2.1345  2.0280
 5850SOL    HW229184   4.111   2.635   5.415  1.9286 -0.7650 -2.3693
 5851SOL     OW29185   4.455   4.264   6.610  0.3599  0.1927 -0.2873
 5851SOL    HW129186   4.425   4.203   6.678  2.8935 -1.7291 -0.9221
 5851SOL    HW229187   4.526   4.307   6.659  0.2065 -0.5033  0.5534
 5852SOL     OW29188   3.508   0.397   8.957 -0.2962  0.1483  0.1590
 5852SOL    HW129189   3.428   0.450   8.953  0.3728  0.9097 -3.0570
 5852SOL    HW229190   3.500   0.337   8.883 -2.9732  3.2588 -2.0761
 5853SOL     OW29191   0.309   4.370   2.978 -0.1674  0.5355 -0.0388
 5853SOL    HW129192   0.255   4.430   2.926 -1.4054 -0.9952 -0.5045
 5853SOL    HW229193   0.358   4.430   3.034  1.4386  1.4518 -2.4754
 5854SOL     OW29194   4.645   4.700  16.350  0.2159  0.8938 -0.2903
 5854SOL    HW129195   4.564   4.700  16.299 -0.8760 -2.1340  1.4245
 5854SOL    HW229196   4.710   4.725  16.285  1.0729 -1.3116 -0.2975
 5855SOL     OW29197   0.716   1.592   4.261 -0.3537  0.3190 -0.1119
 5855SOL    HW129198   0.623   1.573   4.268 -0.1576 -0.8766 -0.8385
 5855SOL    HW229199   0.744   1.500   4.263 -4.0792 -0.7941  0.8846
 5856SOL     OW29200   2.224   1.139  10.473 -0.1604 -0.0611 -0.4306
 5856SOL    HW129201   2.136   1.120  10.442  1.0606  1.6183 -5.0616
 5856SOL    HW229202   2.221   1.218  10.527 -1.2275 -0.2992 -0.1603
 5857SOL     OW29203   1.446   4.176  11.477 -0.2513  0.3471 -0.2030
 5857SOL    HW129204   1.423   4.154  11.387  0.0909  0.6359 -0.3602
 5857SOL    HW229205   1.508   4.245  11.453 -1.2598  1.4512  0.3480
 5858SOL     OW29206   0.107   0.177   9.169  0.7462 -0.2536  0.4774
 5858SOL    HW129207   0.152   0.094   9.157 -0.1898 -0.3466 -2.3976
 5858SOL    HW229208   0.015   0.154   9.183  0.9506 -2.3416 -1.7443
 5859SOL     OW29209   2.389   3.223   6.053 -0.1315  0.4507  0.5287
 5859SOL    HW129210   2.304   3.265   6.037  0.2207  1.7633  2.1193
 5859SOL    HW229211   2.365   3.162   6.123 -0.1239 -0.8451 -0.5954
 5860SOL     OW29212   3.884   1.680   4.298 -0.1644 -0.3240  0.5523
 5860SOL    HW129213   3.886   1.718   4.386  1.6656 -0.6587  0.6418
 5860SOL    HW229214   3.799   1.712   4.267  0.8971  2.1041  0.1092
 5861SOL     OW29215   2.690   0.676   3.173 -0.1595 -0.3242  0.0142
 5861SOL    HW129216   2.728   0.690   3.086  2.8518 -2.4553  1.0019
 5861SOL    HW229217   2.748   0.609   3.208 -0.0411 -1.0642 -1.5978
 5862SOL     OW29218   3.351   2.706  15.815 -0.6640  0.3490 -0.5341
 5862SOL    HW129219   3.391   2.684  15.732  1.1265 -0.8261  0.6474
 5862SOL    HW229220   3.350   2.623  15.863  0.1684  1.3791  1.2627
 5863SOL     OW29221   3.875   1.061   3.418  0.8145 -0.2918  0.0148
 5863SOL    HW129222   3.950   1.093   3.468 -1.3429 -0.2334  3.2061
 5863SOL    HW229223   3.811   1.110   3.469 -3.8222 -2.7881 -3.4382
 5864SOL     OW29224   1.364   4.396   5.587 -0.5555 -0.0337 -0.3135
 5864SOL    HW129225   1.308   4.363   5.516  0.1083  0.3710 -1.0264
 5864SOL    HW229226   1.442   4.339   5.592 -1.2384 -0.9624 -0.1985
 5865SOL     OW29227   1.805   0.232   5.049  0.0485 -0.4145 -0.2477
 5865SOL    HW129228   1.784   0.320   5.080 -1.1528 -0.7510 -0.0916
 5865SOL    HW229229   1.881   0.263   4.999  0.1851 -2.9955 -1.6256
 5866SOL     OW29230   4.011   1.143   7.178  0.6984  0.4923 -0.2089
 5866SOL    HW129231   4.024   1.236   7.199  1.4686  0.4488 -0.5005
 5866SOL    HW229232   4.083   1.107   7.229  0.3968  0.7489  0.3980
 5867SOL     OW29233   1.262   1.701   4.771 -0.2931  0.0352 -0.3166
 5867SOL    HW129234   1.187   1.642   4.779  0.6465 -1.0875  0.3058
 5867SOL    HW229235   1.215   1.767   4.720 -0.5741  1.5465  1.9050
 5868SOL     OW29236   3.149   0.949   4.603 -0.1438  0.0507 -0.2859
 5868SOL    HW129237   3.104   1.032   4.583  2.3420  1.0841 -1.6467
 5868SOL    HW229238   3.177   0.913   4.519 -1.6240  1.8821 -1.5735
 5869SOL     OW29239   0.734   0.544  17.233 -0.1197  0.6402 -0.0141
 5869SOL    HW129240   0.728   0.496  17.316  0.4077 -0.2841 -0.5054
 5869SOL    HW229241   0.661   0.511  17.181  0.3115 -0.8544  0.3343
 5870SOL     OW29242   3.817   1.628   9.306 -0.6605  0.0383 -0.3960
 5870SOL    HW129243   3.768   1.558   9.348  0.0067  0.2913  0.7972
 5870SOL    HW229244   3.748   1.659   9.247  0.1699  0.4023 -1.1923
 5871SOL     OW29245   1.142   0.704  13.161 -0.3446 -0.0728  0.1400
 5871SOL    HW129246   1.223   0.755  13.161  0.1216 -0.8146 -0.4817
 5871SOL    HW229247   1.122   0.702  13.254  1.9508 -2.3533  0.5781
 5872SOL     OW29248   2.780   2.230   4.718 -0.7133 -0.1335 -0.9469
 5872SOL    HW129249   2.861   2.278   4.732 -1.3630  0.6612  0.1248
 5872SOL    HW229250   2.825   2.149   4.694  1.6238  1.2059 -0.9784
 5873SOL     OW29251   3.649   3.996   0.675 -0.5746  0.7858  0.1107
 5873SOL    HW129252   3.696   4.032   0.601 -2.0724 -0.3644 -1.4040
 5873SOL    HW229253   3.602   4.070   0.715 -2.7155 -0.2135 -0.5292
 5874SOL     OW29254   0.597   1.629   8.240  0.5483 -0.3309  0.1348
 5874SOL    HW129255   0.531   1.647   8.172 -0.2906 -1.6687  0.5921
 5874SOL    HW229256   0.603   1.534   8.232 -2.1926 -0.3510 -1.9654
 5875SOL     OW29257   3.296   3.301  10.009  0.0454  0.0336 -0.7732
 5875SOL    HW129258   3.251   3.220  10.029  0.5306 -1.0491 -3.9650
 5875SOL    HW229259   3.318   3.346  10.090 -1.7924 -1.2853  0.4230
 5876SOL     OW29260   4.400   4.366   0.454  0.1162 -0.0309 -0.0297
 5876SOL    HW129261   4.491   4.384   0.475  0.3804 -0.5947 -0.6836
 5876SOL    HW229262   4.393   4.424   0.378  0.7489  0.6500  0.4456
 5877SOL     OW29263   3.233   3.182   6.585 -0.3218 -0.3269  0.1993
 5877SOL    HW129264   3.275   3.104   6.548  0.2387  0.0888 -0.0514
 5877SOL    HW229265   3.260   3.248   6.520  0.6118  0.2207  1.1469
 5878SOL     OW29266   1.395   1.366   8.201 -0.0590  0.7763  0.0654
 5878SOL    HW129267   1.329   1.304   8.171 -1.8019  2.4378  0.4268
 5878SOL    HW229268   1.338   1.440   8.222 -0.3624  0.3349  0.8225
 5879SOL     OW29269   2.447   0.584   6.884 -0.9230 -0.3101  0.6578
 5879SOL    HW129270   2.370   0.535   6.853 -2.8420  0.4424  4.1855
 5879SOL    HW229271   2.404   0.652   6.935 -2.8113 -1.4211  0.5596
 5880SOL     OW29272   0.587   3.243   8.203 -0.3733  0.1450  0.0892
 5880SOL    HW129273   0.541   3.205   8.128  1.5308 -0.3477 -0.8478
 5880SOL    HW229274   0.542   3.321   8.236  3.3552  2.2108  0.2672
 5881SOL     OW29275   0.502   3.037   3.737  0.6512  0.1624 -0.0102
 5881SOL    HW129276   0.547   3.059   3.819  0.3561  2.7220 -0.5228
 5881SOL    HW229277   0.449   3.112   3.710 -0.7923 -1.3260 -1.2584
 5882SOL     OW29278   3.980   2.507   5.815  0.0276  0.0778  0.1013
 5882SOL    HW129279   4.071   2.495   5.842 -0.3405 -1.1060  0.8185
 5882SOL    HW229280   3.980   2.484   5.723  0.8576  0.1268  0.0908
 5883SOL     OW29281   3.123   2.970   2.547  0.4758 -0.2316 -0.9513
 5883SOL    HW129282   3.093   3.047   2.595  1.0181 -0.6322  0.0333
 5883SOL    HW229283   3.050   2.956   2.487  1.6625  2.2605 -3.0047
 5884SOL     OW29284   4.526   2.835   7.923  0.0911 -0.4394 -0.3397
 5884SOL    HW129285   4.446   2.790   7.894 -1.0191  2.6170 -2.0295
 5884SOL    HW229286   4.511   2.829   8.017  1.3156  0.2752 -0.1031
 5885SOL     OW29287   3.302   2.664  12.139  0.1196  0.0895 -0.2079
 5885SOL    HW129288   3.272   2.727  12.074  1.6596  0.1854 -0.8256
 5885SOL    HW229289   3.329   2.721  12.211 -0.3607 -0.1178  0.1418
 5886SOL     OW29290   1.103   1.030  15.288 -0.2572  0.1739  0.0598
 5886SOL    HW129291   1.058   0.947  15.276  0.0739 -0.0697  0.5100
 5886SOL    HW229292   1.043   1.098  15.259 -0.0350  0.9485  1.4435
 5887SOL     OW29293   2.904   0.736  11.852  0.1194 -0.3692 -0.5806
 5887SOL    HW129294   2.835   0.769  11.795 -0.0508 -1.1330 -0.8147
 5887SOL    HW229295   2.884   0.777  11.936  2.0783 -1.5340  0.4592
 5888SOL     OW29296   2.840   1.297   8.481  0.4473 -0.0055 -0.0369
 5888SOL    HW129297   2.799   1.212   8.497  0.2656 -0.0776 -0.9352
 5888SOL    HW229298   2.928   1.266   8.457  1.0226  2.7502 -1.5167
 5889SOL     OW29299   0.180   4.268  12.388  0.1178  0.5718 -0.4179
 5889SOL    HW129300   0.258   4.323  12.398  1.5876 -1.3400 -1.1462
 5889SOL    HW229301   0.224   4.192  12.427  3.2215  2.1011 -0.9472
 5890SOL     OW29302   3.995   0.324  10.296 -0.2658  0.0866 -1.1307
 5890SOL    HW129303   4.045   0.263  10.349 -1.4280  0.0592 -0.0727
 5890SOL    HW229304   4.052   0.323  10.219 -1.1547 -1.5132 -1.7812
 5891SOL     OW29305   3.752   1.533  17.326 -0.0901  0.6096 -0.1580
 5891SOL    HW129306   3.728   1.575  17.409 -0.9848 -0.5612  0.1721
 5891SOL    HW229307   3.716   1.598  17.266 -3.1893 -0.0347  0.9932
 5892SOL     OW29308   1.776   1.575   2.597 -0.1700 -0.2248 -0.0671
 5892SOL    HW129309   1.775   1.632   2.674 -0.6595 -0.1806 -0.1083
 5892SOL    HW229310   1.770   1.630   2.519  0.2581 -0.0044  0.0565
 5893SOL     OW29311   1.700   1.738   0.142  0.1040 -0.3754 -0.2173
 5893SOL    HW129312   1.702   1.822   0.096  1.1235 -1.1166 -1.5130
 5893SOL    HW229313   1.609   1.711   0.144 -0.3752  1.2168 -0.2935
 5894SOL     OW29314   4.101   1.210  13.084 -0.8053  0.2682  0.1879
 5894SOL    HW129315   4.189   1.176  13.096 -1.0084 -0.6238 -0.8882
 5894SOL    HW229316   4.120   1.300  13.113 -0.8179  0.7687 -1.3527
 5895SOL     OW29317   1.961   2.935   2.400 -0.0734 -0.5021 -0.2354
 5895SOL    HW129318   1.895   2.880   2.359 -1.0980  0.2529  0.4132
 5895SOL    HW229319   1.936   2.929   2.492  1.2153  1.5246  0.2556
 5896SOL     OW29320   1.384   2.751   6.418 -0.0253 -0.2264  0.2247
 5896SOL    HW129321   1.370   2.830   6.366 -2.3373 -0.4650  0.5033
 5896SOL    HW229322   1.477   2.737   6.400  0.0236  2.3117 -1.4220
 5897SOL     OW29323   3.458   2.403  10.779 -0.3805  0.1850  0.2676
 5897SOL    HW129324   3.532   2.434  10.725 -1.4068  0.7271 -0.8398
 5897SOL    HW229325   3.465   2.469  10.848 -0.4382  1.8503 -1.3066
 5898SOL     OW29326   1.263   2.279  15.680  0.6140  0.1857 -0.3421
 5898SOL    HW129327   1.341   2.230  15.706 -0.0364 -0.0823  1.1046
 5898SOL    HW229328   1.296   2.354  15.630  1.4592 -1.0001 -1.5724
 5899SOL     OW29329   2.050   2.011   8.379 -0.0534 -0.1868 -0.1139
 5899SOL    HW129330   2.060   1.939   8.317 -1.0800 -1.1564  0.8377
 5899SOL    HW229331   1.963   2.005   8.419 -0.0611  0.5455 -0.0259
 5900SOL     OW29332   2.052   0.010   6.044 -0.6948  0.5675  0.1829
 5900SOL    HW129333   1.966   4.736   6.084  0.0112  2.4277  2.2213
 5900SOL    HW229334   2.034   4.716   5.955  1.4447 -0.7772  0.2256
 5901SOL     OW29335   2.657   3.180   5.118 -0.2139  0.2159  0.4451
 5901SOL    HW129336   2.725   3.235   5.157 -1.4539  0.6139  2.0752
 5901SOL    HW229337   2.642   3.114   5.186 -0.3088 -0.2721 -0.0542
 5902SOL     OW29338   3.197   1.073   3.214 -0.5346  0.2369  0.4502
 5902SOL    HW129339   3.227   0.983   3.221  1.0622  0.6645 -0.7557
 5902SOL    HW229340   3.215   1.100   3.304  0.9323  0.7805  0.0041
 5903SOL     OW29341   3.037   2.885   6.325  0.5756 -0.1889 -0.4852
 5903SOL    HW129342   3.109   2.947   6.333 -0.4036  0.6170  2.2280
 5903SOL    HW229343   3.018   2.907   6.234  0.2852  1.0643 -0.1216
 5904SOL     OW29344   0.287   2.468   8.384  0.1967 -0.6073  0.4198
 5904SOL    HW129345   0.311   2.548   8.431  0.2066 -0.5048  0.2418
 5904SOL    HW229346   0.209   2.446   8.435  0.6520 -1.7016  0.6505
 5905SOL     OW29347   3.379   4.538   9.437 -0.2146 -0.1344 -0.0587
 5905SOL    HW129348   3.353   4.611   9.492 -1.3908  0.0043 -0.7886
 5905SOL    HW229349   3.473   4.557   9.443  0.0073 -1.2824  0.0472
 5906SOL     OW29350   1.894   4.713   3.600 -0.4194 -0.3569 -0.8982
 5906SOL    HW129351   1.946   0.024   3.664 -2.5922 -1.9250  2.0303
 5906SOL    HW229352   1.961   4.651   3.571 -0.0649 -0.9676  1.2332
 5907SOL     OW29353   3.246   3.372   1.665 -0.6862  0.3936  0.0403
 5907SOL    HW129354   3.223   3.298   1.722  2.0065 -0.7894 -0.4167
 5907SOL    HW229355   3.259   3.437   1.735  1.0991 -0.6197  0.6594
 5908SOL     OW29356   1.571   2.845   9.501  0.5006  0.4857 -0.6959
 5908SOL    HW129357   1.627   2.900   9.446 -0.7722  1.8346 -0.6312
 5908SOL    HW229358   1.484   2.873   9.472  0.1228  0.2648  0.2164
 5909SOL     OW29359   2.209   0.733   7.453  0.0034 -0.0667 -0.3195
 5909SOL    HW129360   2.193   0.685   7.534 -1.7898 -0.4826 -0.9289
 5909SOL    HW229361   2.162   0.814   7.475 -2.3643 -2.2160  2.6132
 5910SOL     OW29362   4.622   2.855   1.658 -0.1545  0.0115  0.1658
 5910SOL    HW129363   4.623   2.943   1.623  0.3645 -0.2405 -0.4425
 5910SOL    HW229364   4.611   2.878   1.750 -2.0399 -0.7994  0.1347
 5911SOL     OW29365   2.907   4.572   8.734  0.5394 -0.3087  0.0815
 5911SOL    HW129366   2.967   4.607   8.669 -3.0933 -0.4331 -3.3313
 5911SOL    HW229367   2.964   4.592   8.809 -0.6162  0.8520  0.6548
 5912SOL     OW29368   3.765   3.540  15.563 -0.7040  0.2805  0.1940
 5912SOL    HW129369   3.780   3.616  15.620  3.9459  0.5088 -1.2959
 5912SOL    HW229370   3.793   3.569  15.476  0.8852 -0.7996  0.3429
 5913SOL     OW29371   4.694   2.922   6.777 -0.2908  0.2864  0.1661
 5913SOL    HW129372   4.620   2.869   6.749  0.1778 -1.0608  1.4583
 5913SOL    HW229373   4.659   3.011   6.783 -0.9622  0.0912 -1.0606
 5914SOL     OW29374   2.789   3.180   4.351 -0.2536 -0.0473  0.5175
 5914SOL    HW129375   2.766   3.248   4.415 -0.6993  0.8993 -0.6670
 5914SOL    HW229376   2.856   3.233   4.308  1.2877 -1.8127  0.7065
 5915SOL     OW29377   1.464   2.625   9.276 -0.0095 -0.0102  0.0529
 5915SOL    HW129378   1.439   2.537   9.303 -0.8628  0.1952 -0.0516
 5915SOL    HW229379   1.425   2.681   9.344 -1.0433  1.1384 -1.4703
 5916SOL     OW29380   2.166   2.007  14.099 -0.6119  0.0065 -0.5517
 5916SOL    HW129381   2.105   1.956  14.045  0.3657  1.3369 -2.8983
 5916SOL    HW229382   2.244   1.955  14.079 -0.2226 -0.2594  1.6753
 5917SOL     OW29383   3.603   1.204  11.263  0.1864 -0.1138 -0.2136
 5917SOL    HW129384   3.515   1.229  11.290  1.4853  0.7286  3.2420
 5917SOL    HW229385   3.630   1.143  11.332 -0.9958 -2.5865 -1.9199
 5918SOL     OW29386   0.122   1.955   5.663  0.1976 -0.2502  0.0623
 5918SOL    HW129387   0.172   1.931   5.741  0.1311 -0.1659  0.1301
 5918SOL    HW229388   0.178   2.013   5.611 -1.1983  0.8739 -0.1669
 5919SOL     OW29389   1.241   0.513   2.576  0.0747 -0.3184 -0.4703
 5919SOL    HW129390   1.184   0.584   2.607  0.1268  0.8097 -2.9113
 5919SOL    HW229391   1.181   0.450   2.536 -1.0250 -0.6218  1.6557
 5920SOL     OW29392   4.707   1.907   5.045  0.1336  0.7063 -0.2706
 5920SOL    HW129393   4.633   1.864   5.088 -0.1884 -0.3363 -1.8707
 5920SOL    HW229394   4.716   1.851   4.968 -0.8601 -1.6410  1.3524
 5921SOL     OW29395   0.502   1.133   2.725 -0.0354  0.1077 -0.3457
 5921SOL    HW129396   0.540   1.208   2.679 -0.7428 -0.4965 -1.8911
 5921SOL    HW229397   0.517   1.059   2.666  2.2261  0.5257 -0.2814
 5922SOL     OW29398   4.492   0.594  11.476  0.1259  0.6455  0.1907
 5922SOL    HW129399   4.559   0.532  11.448 -0.9459 -0.1743 -0.5351
 5922SOL    HW229400   4.527   0.673  11.434  2.6880 -1.2666 -1.2421
 5923SOL     OW29401   0.507   1.142   9.205 -0.1227 -0.1495  0.1943
 5923SOL    HW129402   0.555   1.140   9.288 -0.7416 -0.0097  0.5530
 5923SOL    HW229403   0.524   1.050   9.184 -0.6276 -0.3107  0.4857
 5924SOL     OW29404   3.928   0.930  11.928  0.2291 -0.2037  0.4818
 5924SOL    HW129405   3.967   0.904  11.845 -2.8992 -0.6193 -0.8498
 5924SOL    HW229406   3.969   1.012  11.957  0.7642  0.0971 -1.0939
 5925SOL     OW29407   1.863   0.731  13.229  0.0560  0.7227 -0.0902
 5925SOL    HW129408   1.772   0.711  13.249  0.3562  1.0266  1.5782
 5925SOL    HW229409   1.890   0.803  13.286  0.3223 -0.3256  1.1104
 5926SOL     OW29410   4.064   0.027  12.357  0.1162  1.2268  0.0387
 5926SOL    HW129411   4.035   0.068  12.439  1.5535  0.1839  1.0611
 5926SOL    HW229412   4.150   4.729  12.380 -0.4827 -0.7557 -0.7301
 5927SOL     OW29413   3.650   0.238   8.199 -0.0322 -0.4312  0.5689
 5927SOL    HW129414   3.661   0.284   8.115 -1.8290 -1.7030 -0.3665
 5927SOL    HW229415   3.593   0.303   8.239 -0.9128 -0.9117  0.0869
 5928SOL     OW29416   2.057   0.861   8.092 -0.3649  0.3117  0.0253
 5928SOL    HW129417   2.102   0.866   8.008 -0.5783 -0.8220 -0.1511
 5928SOL    HW229418   1.992   0.797   8.065  0.3464 -0.1034 -0.6865
 5929SOL     OW29419   4.257   2.380   3.087  0.0625 -0.1155  0.4336
 5929SOL    HW129420   4.316   2.357   3.015  0.1563  2.0387 -0.1746
 5929SOL    HW229421   4.318   2.402   3.157 -0.6660  0.2678  0.9384
 5930SOL     OW29422   2.605   1.021  15.169 -0.2023  0.1711  0.4188
 5930SOL    HW129423   2.647   0.935  15.158  0.7578  0.5841  0.8604
 5930SOL    HW229424   2.523   1.013  15.120 -0.6305 -0.4918  1.2502
 5931SOL     OW29425   1.035   4.046   0.737 -0.3794  0.3910 -0.0963
 5931SOL    HW129426   1.096   4.004   0.797 -2.3205 -0.8986  0.9483
 5931SOL    HW229427   0.993   3.972   0.694 -0.8925  0.9520 -0.5730
 5932SOL     OW29428   4.469   1.236   7.877 -0.4033  0.2428 -0.3627
 5932SOL    HW129429   4.534   1.174   7.843  0.2561 -0.4923  2.2230
 5932SOL    HW229430   4.473   1.229   7.972 -0.2266 -2.8746 -0.6018
 5933SOL     OW29431   2.787   4.430   2.570 -0.9065 -0.8018  0.4059
 5933SOL    HW129432   2.717   4.413   2.506 -2.6966 -0.0427  2.1729
 5933SOL    HW229433   2.755   4.517   2.595 -1.4729 -1.0473  0.5508
 5934SOL     OW29434   0.119   0.239   7.459 -0.4942 -0.0209  0.4298
 5934SOL    HW129435   0.090   0.161   7.412  0.3858 -0.2691  0.2894
 5934SOL    HW229436   0.186   0.202   7.516 -0.4450 -0.8064 -0.1340
 5935SOL     OW29437   3.024   3.528   1.320 -0.3084 -0.1301 -0.3519
 5935SOL    HW129438   2.954   3.506   1.259  0.8070 -1.9609 -0.9705
 5935SOL    HW229439   3.026   3.449   1.374 -0.5209  1.5649  2.1274
 5936SOL     OW29440   0.580   4.027   4.243 -0.0935 -0.1891  0.0723
 5936SOL    HW129441   0.492   4.047   4.275  0.1705  0.9065  0.1149
 5936SOL    HW229442   0.630   4.077   4.307 -0.9971 -0.8675  1.2951
 5937SOL     OW29443   2.515   1.709   7.481  0.2141 -0.1473 -0.0993
 5937SOL    HW129444   2.566   1.778   7.523  0.8475 -1.0140  0.5511
 5937SOL    HW229445   2.517   1.637   7.544  0.4526  0.2846  0.3847
 5938SOL     OW29446   4.595   2.370  16.661  0.6423  0.1549  0.2338
 5938SOL    HW129447   4.662   2.325  16.609 -0.6362 -0.8004 -0.5785
 5938SOL    HW229448   4.616   2.356  16.753 -1.1322 -0.1929  0.5862
 5939SOL     OW29449   3.660   2.551   8.245 -0.0144  0.1347  0.4452
 5939SOL    HW129450   3.719   2.609   8.198  0.4811  0.6009  1.6454
 5939SOL    HW229451   3.716   2.532   8.320  1.2867  0.5194 -0.4377
 5940SOL     OW29452   1.535   2.212   7.171 -0.0580 -0.2060  0.4782
 5940SOL    HW129453   1.619   2.236   7.209  0.0425 -0.3572  0.3540
 5940SOL    HW229454   1.526   2.117   7.177  1.3060 -0.4762 -1.5483
 5941SOL     OW29455   2.417   2.502  10.980  0.2315  0.0958 -0.3750
 5941SOL    HW129456   2.452   2.591  10.986 -0.6333  0.1882  3.2826
 5941SOL    HW229457   2.422   2.479  11.073  1.7013  0.5873 -0.3388
 5942SOL     OW29458   4.202   2.399   6.429 -0.2973  0.7002  0.4502
 5942SOL    HW129459   4.111   2.401   6.398 -1.1460  1.4085  2.9736
 5942SOL    HW229460   4.195   2.383   6.523 -0.6551 -1.2422  0.0956
 5943SOL     OW29461   0.715   3.569   1.723  0.0397  0.4393 -0.4091
 5943SOL    HW129462   0.758   3.632   1.781 -2.2216  1.0069  0.6456
 5943SOL    HW229463   0.665   3.613   1.655 -0.5836  1.4459  0.7089
 5944SOL     OW29464   3.482   3.707   6.923 -0.0250 -0.0152  0.3457
 5944SOL    HW129465   3.489   3.689   6.829  0.9216 -0.4628  0.5013
 5944SOL    HW229466   3.397   3.750   6.931 -1.3529 -2.3874 -1.1049
 5945SOL     OW29467   3.218   3.057   4.229  0.0977  0.1117  0.7632
 5945SOL    HW129468   3.235   3.030   4.139  1.4163  3.1052  0.1174
 5945SOL    HW229469   3.160   2.989   4.262 -0.0900 -0.7682 -1.4307
 5946SOL     OW29470   1.677   0.380  17.535 -0.5331 -0.3223  0.4100
 5946SOL    HW129471   1.721   0.441  17.594  0.2708 -2.6683  2.2269
 5946SOL    HW229472   1.614   0.437  17.491 -0.6527 -1.9526 -1.5363
 5947SOL     OW29473   1.220   1.667   3.054  0.3318  0.9419 -0.4125
 5947SOL    HW129474   1.206   1.583   3.011  0.9755  0.6267 -0.0058
 5947SOL    HW229475   1.129   1.690   3.071 -0.4158 -1.7738 -0.7104
 5948SOL     OW29476   1.705   0.671   8.491  0.1574  0.0372  0.3022
 5948SOL    HW129477   1.732   0.593   8.442  2.3902  0.3191  1.0802
 5948SOL    HW229478   1.672   0.732   8.426 -0.0147 -0.8940 -0.4837
 5949SOL     OW29479   2.408   0.289   0.853 -0.0871 -0.1417  0.8306
 5949SOL    HW129480   2.392   0.375   0.813  3.7857 -0.1298 -0.6780
 5949SOL    HW229481   2.489   0.310   0.900  1.6481 -0.5692 -2.0034
 5950SOL     OW29482   0.383   2.213   5.088 -0.1018  0.3975  0.4122
 5950SOL    HW129483   0.322   2.275   5.048 -0.0476  0.4021  0.3368
 5950SOL    HW229484   0.328   2.152   5.137  0.7524 -2.0803 -1.6853
 5951SOL     OW29485   2.808   4.496   4.721  0.5700 -0.3904  0.0082
 5951SOL    HW129486   2.813   4.422   4.660 -0.2715  2.9869 -4.2389
 5951SOL    HW229487   2.845   4.560   4.659 -1.7165 -0.2171 -1.2006
 5952SOL     OW29488   2.435   0.322   3.620  0.6025 -0.6057  0.2571
 5952SOL    HW129489   2.405   0.411   3.602  1.7089 -0.2307  0.2648
 5952SOL    HW229490   2.528   0.345   3.621  0.1440  1.1698  1.8513
 5953SOL     OW29491   3.184   2.079   2.572 -0.1463 -0.6214  0.0567
 5953SOL    HW129492   3.217   2.152   2.519 -1.7983 -0.0827 -0.2096
 5953SOL    HW229493   3.211   1.996   2.531  1.5539 -0.4331  0.7881
 5954SOL     OW29494   3.012   0.286   1.851  0.2047 -0.2617  0.5317
 5954SOL    HW129495   3.002   0.299   1.757 -1.7717 -2.1176  0.4958
 5954SOL    HW229496   3.067   0.360   1.876 -1.1651  0.0957  2.4662
 5955SOL     OW29497   2.168   3.130   2.703  0.0855 -0.1036  0.5448
 5955SOL    HW129498   2.164   3.087   2.788  0.3022 -0.2051  0.5044
 5955SOL    HW229499   2.100   3.193   2.727 -0.4931  0.3336 -2.3315
 5956SOL     OW29500   2.063   2.474   8.220  0.5944 -0.5023 -0.0680
 5956SOL    HW129501   2.052   2.448   8.128  0.6865 -2.0813  0.3618
 5956SOL    HW229502   1.974   2.461   8.253  0.2896 -0.5867 -0.9306
 5957SOL     OW29503   2.620   3.529   6.690  0.4514 -0.0054 -0.4861
 5957SOL    HW129504   2.656   3.526   6.779  0.9778  0.2224 -0.6901
 5957SOL    HW229505   2.668   3.605   6.655  2.9291 -2.3520 -2.1989
 5958SOL     OW29506   4.204   0.311  11.863  0.1341  0.3353  0.0497
 5958SOL    HW129507   4.109   0.308  11.859  0.2042 -1.2497 -0.0784
 5958SOL    HW229508   4.220   0.405  11.849 -0.5516  0.3505 -0.6171
 5959SOL     OW29509   0.984   1.331   5.533  0.1010  0.3709 -0.2090
 5959SOL    HW129510   1.063   1.292   5.495 -0.4524 -1.7667  0.7891
 5959SOL    HW229511   1.019   1.329   5.622  1.8125  2.6205 -0.8618
 5960SOL     OW29512   4.365   1.745  10.454  0.0086 -0.0300 -0.3530
 5960SOL    HW129513   4.386   1.656  10.426  2.2737  1.1252 -2.3822
 5960SOL    HW229514   4.293   1.722  10.512  1.4995 -0.8200  1.1551
 5961SOL     OW29515   3.593   2.300   9.538 -0.0114  0.6469 -0.4887
 5961SOL    HW129516   3.605   2.387   9.577  1.5841  0.8623 -1.4511
 5961SOL    HW229517   3.521   2.315   9.477 -0.5995  1.1484  0.3244
 5962SOL     OW29518   3.661   1.714   1.472  0.5642 -0.1075 -0.0149
 5962SOL    HW129519   3.680   1.791   1.418  1.8946 -1.7264 -1.9003
 5962SOL    HW229520   3.710   1.734   1.552 -0.9333 -0.0354  0.8810
 5963SOL     OW29521   2.391   0.104   5.760 -0.3422  0.5055 -0.4130
 5963SOL    HW129522   2.323   0.156   5.804  2.5109  3.2548  0.7091
 5963SOL    HW229523   2.442   0.175   5.721  0.8839  1.0549  2.2599
 5964SOL     OW29524   4.445   3.053  15.892 -0.2327  1.0354  0.0337
 5964SOL    HW129525   4.430   3.051  15.797 -0.5546  0.8441  0.0867
 5964SOL    HW229526   4.374   2.994  15.918  1.4185 -0.9240  0.1152
 5965SOL     OW29527   2.716   0.958   4.258  0.0167 -0.2662  0.6489
 5965SOL    HW129528   2.701   1.052   4.253 -1.9233 -0.5699  0.7983
 5965SOL    HW229529   2.769   0.939   4.180  0.1159 -2.3416  1.2289
 5966SOL     OW29530   3.333   3.591   7.697  0.2426  0.3298 -0.3580
 5966SOL    HW129531   3.344   3.647   7.774 -3.8101 -0.8273  1.0887
 5966SOL    HW229532   3.287   3.513   7.727 -0.7708  0.5149 -1.4195
 5967SOL     OW29533   2.665   3.954  14.519 -0.2634  0.0006 -0.0867
 5967SOL    HW129534   2.622   3.998  14.592 -0.1766 -0.6444  0.3605
 5967SOL    HW229535   2.658   4.021  14.452  1.2367 -0.6673 -0.9007
 5968SOL     OW29536   1.470   1.337   5.804 -0.6709  0.1456 -0.5307
 5968SOL    HW129537   1.523   1.382   5.869 -0.6645 -1.4230  0.5544
 5968SOL    HW229538   1.401   1.315   5.867 -1.3492 -0.0609 -1.3381
 5969SOL     OW29539   0.597   1.606   7.861 -0.3466  0.8165 -0.0795
 5969SOL    HW129540   0.504   1.627   7.859 -0.7916 -1.1364  0.3921
 5969SOL    HW229541   0.630   1.690   7.896 -1.7322  1.6398 -0.7630
 5970SOL     OW29542   2.843   3.164   2.942 -0.2022  0.8751 -0.1312
 5970SOL    HW129543   2.764   3.111   2.928 -0.4383  0.8158  1.3496
 5970SOL    HW229544   2.845   3.165   3.038  0.9719 -2.4309 -0.1315
 5971SOL     OW29545   2.327   2.286   7.476 -0.1336 -0.1893 -0.1438
 5971SOL    HW129546   2.272   2.230   7.531 -1.6838 -1.0758 -2.6053
 5971SOL    HW229547   2.303   2.375   7.499 -2.4672 -1.5146  2.5219
 5972SOL     OW29548   4.253   0.929  11.416  0.9042  0.2352  0.1177
 5972SOL    HW129549   4.319   0.881  11.366 -0.0403 -0.4331 -0.4798
 5972SOL    HW229550   4.289   0.935  11.505  0.9132  0.3434  0.1068
 5973SOL     OW29551   0.700   2.732   7.742  0.0484  0.3035 -0.4381
 5973SOL    HW129552   0.732   2.767   7.825  1.5441 -0.9592 -0.4784
 5973SOL    HW229553   0.709   2.638   7.753  0.0395  0.3600  0.0500
 5974SOL     OW29554   4.449   1.395   0.151  0.3934  0.1215 -0.1135
 5974SOL    HW129555   4.359   1.367   0.134  0.7239 -1.1328  0.1733
 5974SOL    HW229556   4.461   1.351   0.235  2.9278 -0.9893 -1.0740
 5975SOL     OW29557   2.864   2.212   5.183  0.5016  0.1695 -0.1461
 5975SOL    HW129558   2.879   2.140   5.244 -0.4343  1.1617  1.2450
 5975SOL    HW229559   2.909   2.288   5.221 -0.7635  0.8388  0.0195
 5976SOL     OW29560   3.410   1.258   2.264  0.3017  0.5753  0.6595
 5976SOL    HW129561   3.469   1.330   2.289  0.9764  0.2832 -0.0858
 5976SOL    HW229562   3.424   1.204   2.341  1.7285  2.0445  1.4455
 5977SOL     OW29563   4.023   1.832   2.126 -0.2024 -0.5558 -0.0609
 5977SOL    HW129564   4.035   1.916   2.170  1.4646 -0.3435 -0.9432
 5977SOL    HW229565   4.112   1.800   2.116  0.0307  0.6910 -1.9006
 5978SOL     OW29566   1.576   0.410   7.196  0.6552  0.2678 -0.9420
 5978SOL    HW129567   1.537   0.475   7.138 -0.9709 -2.2728 -2.6764
 5978SOL    HW229568   1.498   0.356   7.208  1.6611 -1.1707 -0.8221
 5979SOL     OW29569   1.788   1.659   2.313  0.2531  0.0204 -0.5731
 5979SOL    HW129570   1.873   1.616   2.321  0.4566  0.6076  0.4861
 5979SOL    HW229571   1.804   1.706   2.231 -1.8388 -1.7245 -1.9812
 5980SOL     OW29572   3.666   4.081   0.040 -0.4129  0.4197 -0.1402
 5980SOL    HW129573   3.749   4.128   0.041 -0.1213 -0.0593 -1.9984
 5980SOL    HW229574   3.665   4.042  17.700  2.3352  0.3291 -0.1125
 5981SOL     OW29575   0.965   4.534   6.047 -0.1205  0.3044 -0.1381
 5981SOL    HW129576   0.945   4.480   5.971  0.3662 -3.0918  2.1766
 5981SOL    HW229577   0.987   4.477   6.120 -0.9509  0.4085  0.2047
 5982SOL     OW29578   1.645   4.668   0.025  0.0803 -0.2570 -0.2861
 5982SOL    HW129579   1.566   4.720   0.009  1.0364  0.6405 -2.1489
 5982SOL    HW229580   1.716   4.718  17.733  1.2440  2.1176  4.8457
 5983SOL     OW29581   4.007   1.904   7.553  0.2732  0.3199  0.3996
 5983SOL    HW129582   4.089   1.951   7.542 -0.4588  0.7417 -3.2105
 5983SOL    HW229583   4.024   1.865   7.639 -1.0160  1.9095  1.3703
 5984SOL     OW29584   3.383   2.457   2.424  0.0566  0.4644 -0.1633
 5984SOL    HW129585   3.373   2.540   2.471  0.2620 -0.0713  0.8335
 5984SOL    HW229586   3.469   2.464   2.383  0.1887 -0.5748 -0.0731
 5985SOL     OW29587   2.426   0.158   7.547  0.0873  0.0112  0.4212
 5985SOL    HW129588   2.337   0.184   7.572  0.2338 -0.2043  1.1600
 5985SOL    HW229589   2.469   0.243   7.556 -0.7282  0.6594 -1.7937
 5986SOL     OW29590   4.555   2.885  16.113 -0.6415  0.0783 -0.1506
 5986SOL    HW129591   4.513   2.914  16.031 -0.2198  1.9258  0.2848
 5986SOL    HW229592   4.526   2.956  16.170  0.2127  1.5571 -1.5590
 5987SOL     OW29593   0.727   1.954   2.653 -0.0566 -0.0695 -0.4085
 5987SOL    HW129594   0.745   1.869   2.613 -1.8219 -1.0600  0.9435
 5987SOL    HW229595   0.637   1.965   2.624 -0.4924 -1.6717  0.3195
 5988SOL     OW29596   4.149   3.356   6.296 -0.3225  0.6988  0.4065
 5988SOL    HW129597   4.099   3.400   6.365 -1.9207 -0.8471  0.2259
 5988SOL    HW229598   4.174   3.275   6.341 -0.1891  0.2112 -0.5663
 5989SOL     OW29599   0.779   1.041   3.658  0.3082 -0.0287  0.2879
 5989SOL    HW129600   0.780   1.117   3.600 -3.6366  1.1370  1.7827
 5989SOL    HW229601   0.684   1.033   3.669  0.7667 -1.3632  3.3033
 5990SOL     OW29602   3.909   1.580   4.015 -0.4920 -0.3604  0.6916
 5990SOL    HW129603   3.857   1.500   4.025 -0.4540 -0.1755  2.3475
 5990SOL    HW229604   3.909   1.612   4.105 -0.3286 -1.0622  0.9433
 5991SOL     OW29605   1.895   2.860   4.606 -0.0606 -0.0203 -0.3328
 5991SOL    HW129606   1.958   2.884   4.674  0.5766 -0.2147 -0.8415
 5991SOL    HW229607   1.916   2.929   4.543  1.1654  1.0760  1.2498
 5992SOL     OW29608   4.182   4.350   5.236 -0.3275  0.5137 -0.6814
 5992SOL    HW129609   4.167   4.366   5.329  0.5683 -1.6991 -0.1563
 5992SOL    HW229610   4.144   4.263   5.234 -1.3830  0.9770 -0.7193
 5993SOL     OW29611   4.196   0.131  12.086 -0.0388 -0.0866 -0.0166
 5993SOL    HW129612   4.104   0.116  12.064 -0.1316 -0.2183  0.4563
 5993SOL    HW229613   4.225   0.186  12.014  1.2043  0.2652  0.7473
 5994SOL     OW29614   3.974   3.617   5.117  0.4038 -0.1002  0.0874
 5994SOL    HW129615   3.959   3.668   5.037  1.6215 -0.1918 -0.2052
 5994SOL    HW229616   4.061   3.585   5.092  1.2659  1.1238  1.5640
 5995SOL     OW29617   0.228   1.583   2.613  0.3846 -0.5336  0.1410
 5995SOL    HW129618   0.206   1.490   2.601  1.2426 -0.6557 -0.4618
 5995SOL    HW229619   0.269   1.606   2.530  2.6391 -1.1399  1.0854
 5996SOL     OW29620   3.584   1.919   8.942 -0.0868 -0.2777 -0.4041
 5996SOL    HW129621   3.670   1.910   8.982 -0.3030  0.3077  0.1979
 5996SOL    HW229622   3.553   2.007   8.963 -1.2314 -1.2858  2.1335
 5997SOL     OW29623   3.801   1.881   5.353  0.7927  0.3951 -0.0872
 5997SOL    HW129624   3.753   1.938   5.414 -1.0533  1.6838 -2.7688
 5997SOL    HW229625   3.800   1.800   5.404 -1.4676  0.7726  0.4652
 5998SOL     OW29626   2.107   4.325  10.220 -0.0123 -0.5350  0.2267
 5998SOL    HW129627   2.116   4.411  10.178  0.0995 -1.7396 -2.2482
 5998SOL    HW229628   2.170   4.272  10.171  0.2043 -0.0096 -0.0702
 5999SOL     OW29629   4.409   4.161   5.802 -0.0381  0.1031 -0.7199
 5999SOL    HW129630   4.352   4.226   5.761 -1.0019  0.8332  1.8171
 5999SOL    HW229631   4.337   4.104   5.829  0.1265 -0.0372 -0.5825
 6000SOL     OW29632   4.144   3.676  16.692 -0.2673  0.0259 -0.0291
 6000SOL    HW129633   4.132   3.694  16.786  0.7088 -1.0942  0.3158
 6000SOL    HW229634   4.212   3.740  16.671  1.5615 -1.2002  2.1394
 6001SOL     OW29635   0.147   2.801  14.793  0.2068 -0.0556  0.0233
 6001SOL    HW129636   0.109   2.718  14.763  0.1972  0.3987 -1.2089
 6001SOL    HW229637   0.185   2.822  14.708  2.4058 -2.1322  0.4980
 6002SOL     OW29638   1.649   2.345  12.039  0.1023  0.7410  0.3516
 6002SOL    HW129639   1.580   2.294  12.082  0.2786  0.2662  0.0719
 6002SOL    HW229640   1.661   2.311  11.951 -0.6285  1.6685 -0.0999
 6003SOL     OW29641   4.038   2.576   1.821  0.1164 -0.2682  0.2257
 6003SOL    HW129642   4.119   2.624   1.805 -0.6641  0.6458 -0.9640
 6003SOL    HW229643   4.017   2.546   1.732 -0.4427  3.4552 -0.8956
 6004SOL     OW29644   4.073   2.098   2.214 -0.4120 -0.0328 -0.0216
 6004SOL    HW129645   3.991   2.142   2.191  0.7976  1.6493 -1.0920
 6004SOL    HW229646   4.104   2.149   2.289  0.3757 -2.9886  1.6635
 6005SOL     OW29647   1.179   3.552   4.744  0.0848  0.4746 -0.1515
 6005SOL    HW129648   1.218   3.631   4.706 -1.2287  0.5965 -1.2623
 6005SOL    HW229649   1.085   3.557   4.727  0.2468 -3.9419 -2.3054
 6006SOL     OW29650   4.537   1.336   0.664 -0.4441  0.0697  0.3890
 6006SOL    HW129651   4.568   1.425   0.644 -2.8304  1.0158  0.8833
 6006SOL    HW229652   4.613   1.310   0.716  0.0319 -1.6984 -1.1907
 6007SOL     OW29653   0.811   0.800  17.179 -1.1451  0.4372 -0.2235
 6007SOL    HW129654   0.806   0.707  17.197  1.0568  0.5336  0.8244
 6007SOL    HW229655   0.874   0.802  17.107 -0.0711 -0.1001  0.7148
 6008SOL     OW29656   2.867   1.556   1.664  0.4245 -0.5420  0.0765
 6008SOL    HW129657   2.948   1.536   1.711  0.6490  1.6658  0.6437
 6008SOL    HW229658   2.870   1.651   1.673  0.6538 -0.6524  1.1455
 6009SOL     OW29659   2.065   2.962   5.097  0.7185  0.2344  0.0325
 6009SOL    HW129660   2.146   2.971   5.048 -0.7363  0.5816 -2.3112
 6009SOL    HW229661   2.020   3.047   5.087  0.6802  0.3671  1.3280
 6010SOL     OW29662   2.957   4.211   2.591  0.3815 -0.1753 -0.0775
 6010SOL    HW129663   3.008   4.282   2.551 -0.2437 -0.2199 -0.9466
 6010SOL    HW229664   2.871   4.249   2.605  1.2247  1.5086  0.5040
 6011SOL     OW29665   4.631   4.627   4.303  0.1332 -0.3324  0.0205
 6011SOL    HW129666   4.539   4.614   4.323 -0.1292  0.8656 -0.4010
 6011SOL    HW229667   4.656   4.698   4.362 -0.0469  0.0445 -0.3577
 6012SOL     OW29668   1.964   4.594   1.623 -0.0739 -0.1362 -0.0411
 6012SOL    HW129669   1.903   4.546   1.567  0.4708 -1.5741  0.6008
 6012SOL    HW229670   1.919   4.677   1.640  0.3455 -0.1230  1.0586
 6013SOL     OW29671   1.632   0.359   4.562 -0.3844 -0.1610  0.1039
 6013SOL    HW129672   1.550   0.331   4.603 -0.1062 -1.0212  0.0690
 6013SOL    HW229673   1.652   0.438   4.612 -2.6664 -0.2560  1.1452
 6014SOL     OW29674   4.125   0.600  12.375 -0.0741 -0.3012 -0.0406
 6014SOL    HW129675   4.140   0.691  12.347 -0.1007 -0.7055 -1.3604
 6014SOL    HW229676   4.209   0.564  12.346 -0.7422 -2.3760  0.6094
 6015SOL     OW29677   4.169   0.725   5.375  0.0206  0.4962 -0.4514
 6015SOL    HW129678   4.155   0.668   5.451 -1.2725  0.3372 -0.8185
 6015SOL    HW229679   4.089   0.778   5.376 -0.6479 -0.5422  1.9916
 6016SOL     OW29680   1.677   0.055  11.316 -0.0576  0.0152 -0.3627
 6016SOL    HW129681   1.670   0.083  11.225 -0.4268  1.1720  0.0230
 6016SOL    HW229682   1.750   4.732  11.326 -0.2283 -0.0719  0.3619
 6017SOL     OW29683   2.857   2.832  11.907 -0.0134  0.7511 -0.1488
 6017SOL    HW129684   2.848   2.737  11.917 -2.2473  0.8485 -1.3621
 6017SOL    HW229685   2.947   2.831  11.874 -0.0471 -1.1572 -0.2029
 6018SOL     OW29686   1.199   2.002   8.940 -0.4109 -0.5330 -0.7359
 6018SOL    HW129687   1.266   1.939   8.969 -1.1180 -1.4666 -1.1198
 6018SOL    HW229688   1.138   1.990   9.013  0.5996  0.6394  0.3093
 6019SOL     OW29689   3.772   4.307   9.064 -0.3655 -0.0334 -0.1298
 6019SOL    HW129690   3.862   4.281   9.082 -0.3419 -0.2405 -0.5409
 6019SOL    HW229691   3.745   4.240   9.000 -3.5461 -0.2213  1.4120
 6020SOL     OW29692   1.927   4.674   5.784 -0.2235  0.5291 -0.3302
 6020SOL    HW129693   1.841   4.637   5.805 -0.4171  0.1137 -1.8512
 6020SOL    HW229694   1.966   4.607   5.727 -0.0917  1.6355 -1.5545
 6021SOL     OW29695   1.856   2.105   1.450  0.2477 -0.1856  0.2041
 6021SOL    HW129696   1.908   2.128   1.373  0.6334 -0.0283  0.5110
 6021SOL    HW229697   1.813   2.023   1.426  0.6641 -0.2268 -0.4129
 6022SOL     OW29698   2.247   0.232  14.216 -0.3611  0.1814 -0.3289
 6022SOL    HW129699   2.243   0.143  14.179  3.3950 -0.1023 -0.0228
 6022SOL    HW229700   2.296   0.273  14.145 -0.8232  1.8724  0.3415
 6023SOL     OW29701   4.681   0.847  11.600  0.1496  0.0900  0.1067
 6023SOL    HW129702   4.724   0.901  11.666  1.0891  1.2705 -1.4642
 6023SOL    HW229703   0.004   0.865  11.528  0.0443 -0.0238 -0.0117
 6024SOL     OW29704   3.488   0.277  16.341 -0.7908 -0.1700 -0.6033
 6024SOL    HW129705   3.510   0.272  16.434  0.7618  2.3604 -0.8599
 6024SOL    HW229706   3.399   0.309  16.359 -0.4610 -0.4977  1.6702
 6025SOL     OW29707   2.952   3.646   4.585  0.2507  0.1864 -0.2082
 6025SOL    HW129708   2.950   3.687   4.671  1.4781 -1.3005  0.5186
 6025SOL    HW229709   2.925   3.558   4.611  1.3817 -0.3577 -0.8792
 6026SOL     OW29710   4.659   0.279   3.772 -0.1727 -0.0946 -0.2233
 6026SOL    HW129711   4.578   0.294   3.724  0.0695  0.8194 -0.3627
 6026SOL    HW229712   4.721   0.252   3.704 -0.5579 -0.9685 -0.2143
 6027SOL     OW29713   1.015   2.370   3.544 -0.5734  0.2003  0.4286
 6027SOL    HW129714   1.111   2.369   3.540 -0.5489 -0.3708  1.0748
 6027SOL    HW229715   0.995   2.455   3.504  0.2625 -0.1540 -0.7567
 6028SOL     OW29716   3.345   3.370   5.134 -1.0272 -0.4092 -0.3413
 6028SOL    HW129717   3.360   3.291   5.186  1.3080 -0.1825 -0.6933
 6028SOL    HW229718   3.252   3.381   5.156 -0.7572  0.8677  0.1540
 6029SOL     OW29719   0.203   3.560  15.824  0.2312  0.1427 -0.3368
 6029SOL    HW129720   0.287   3.579  15.783  0.0259 -1.2289 -1.4130
 6029SOL    HW229721   0.209   3.599  15.911 -0.2420  1.0340 -0.7036
 6030SOL     OW29722   0.300   0.156  14.324 -0.4649 -0.0665  0.2709
 6030SOL    HW129723   0.250   0.205  14.259 -1.8826 -1.3025  0.4436
 6030SOL    HW229724   0.238   0.170  14.396  1.6622  1.3611  1.8419
 6031SOL     OW29725   3.449   2.607   2.706 -0.1226 -0.1043 -0.0282
 6031SOL    HW129726   3.422   2.668   2.775 -0.9858 -1.2081  0.5958
 6031SOL    HW229727   3.514   2.662   2.661  0.1427  2.4674  3.5175
 6032SOL     OW29728   0.096   1.515   5.661 -1.1014  0.6178  0.0407
 6032SOL    HW129729   0.028   1.462   5.703 -0.2696  0.0947  0.7148
 6032SOL    HW229730   0.174   1.508   5.716 -0.6276 -0.2206 -0.7300
 6033SOL     OW29731   0.891   4.531   0.511  0.4230  0.1878 -0.3419
 6033SOL    HW129732   0.867   4.571   0.594 -0.5675  1.2507 -1.1447
 6033SOL    HW229733   0.982   4.557   0.499  0.6640  0.0745  1.2458
 6034SOL     OW29734   2.277   2.117   3.932  0.2417 -0.0704  0.3162
 6034SOL    HW129735   2.294   2.208   3.909  1.0541 -0.7888 -1.9185
 6034SOL    HW229736   2.202   2.133   3.989  0.6512  4.3215 -0.3802
 6035SOL     OW29737   1.360   1.530   5.273 -0.1612  0.1893  0.3946
 6035SOL    HW129738   1.277   1.529   5.321  1.4054  1.5099  3.1432
 6035SOL    HW229739   1.424   1.515   5.343  1.6474  2.1964 -0.8567
 6036SOL     OW29740   3.375   4.200   9.005 -0.1662  0.2298  0.3979
 6036SOL    HW129741   3.309   4.154   8.954 -1.3878 -0.2172  2.3969
 6036SOL    HW229742   3.417   4.263   8.946  1.0043  0.6041  1.6161
 6037SOL     OW29743   0.789   0.901   9.863 -0.3919 -0.3870  0.4871
 6037SOL    HW129744   0.728   0.961   9.819  1.1671 -0.1062 -1.2966
 6037SOL    HW229745   0.734   0.855   9.926  0.3624 -0.9572  0.7266
 6038SOL     OW29746   4.621   0.646   2.736 -0.1639 -0.8902 -0.5173
 6038SOL    HW129747   4.595   0.650   2.644  0.5529 -1.1769 -0.7337
 6038SOL    HW229748   4.649   0.736   2.748  0.6807 -1.1817 -0.2586
 6039SOL     OW29749   0.668   3.445   2.577  0.0297  0.0119  0.3303
 6039SOL    HW129750   0.642   3.446   2.485  0.5520 -0.8620  0.1735
 6039SOL    HW229751   0.615   3.515   2.617  1.6216  0.6784  1.2647
 6040SOL     OW29752   3.499   0.702   6.222  0.3219 -0.2433  0.1095
 6040SOL    HW129753   3.560   0.691   6.149 -2.7992 -1.7993 -2.2774
 6040SOL    HW229754   3.437   0.632   6.200 -2.2727  2.0594  0.2248
 6041SOL     OW29755   3.620   4.447   7.364  0.5215  0.1409 -0.2318
 6041SOL    HW129756   3.614   4.457   7.459 -1.2299  1.3859 -0.4594
 6041SOL    HW229757   3.662   4.362   7.352 -0.0178  0.0862 -1.7663
 6042SOL     OW29758   3.870   1.384   4.473  0.0312  0.0521 -0.2467
 6042SOL    HW129759   3.887   1.457   4.531 -1.0537 -0.7631  1.1064
 6042SOL    HW229760   3.775   1.388   4.459 -0.2314 -1.9723  0.9399
 6043SOL     OW29761   2.961   2.840   1.243 -0.0515 -0.2710  0.3926
 6043SOL    HW129762   3.030   2.776   1.225 -0.8162 -0.4339 -1.9814
 6043SOL    HW229763   3.008   2.920   1.265  1.6627 -1.0661 -0.3739
 6044SOL     OW29764   0.662   0.034  16.939  0.8662  0.0978 -0.2034
 6044SOL    HW129765   0.653   0.007  16.848  0.5433  1.7307 -0.6592
 6044SOL    HW229766   0.733   0.098  16.933  1.7231 -0.7705  0.6906
 6045SOL     OW29767   0.964   2.915   4.045 -0.4013 -0.1482  0.0901
 6045SOL    HW129768   0.900   2.852   4.080  0.8741 -1.8742 -0.6812
 6045SOL    HW229769   0.955   2.984   4.110  0.0421 -0.3209  0.3378
 6046SOL     OW29770   2.739   4.158   5.681 -0.2283 -0.4144 -0.2203
 6046SOL    HW129771   2.652   4.128   5.657 -0.4937 -0.7225  1.1106
 6046SOL    HW229772   2.767   4.097   5.749  0.4445 -0.0112 -0.1301
 6047SOL     OW29773   2.840   3.431   1.147  0.0758  0.1532  0.0954
 6047SOL    HW129774   2.920   3.382   1.126 -0.9892 -1.4560 -0.2817
 6047SOL    HW229775   2.777   3.359   1.141  1.0400 -1.0215  4.3050
 6048SOL     OW29776   4.458   3.459   5.677 -0.2388 -0.1000  0.1517
 6048SOL    HW129777   4.408   3.415   5.746  0.9052 -1.5044  0.0936
 6048SOL    HW229778   4.400   3.522   5.635  1.0437  0.5016 -0.7349
 6049SOL     OW29779   1.025   3.099  12.943  0.5362 -0.3011 -0.3748
 6049SOL    HW129780   0.993   3.170  12.887 -0.9529 -0.9324 -0.3125
 6049SOL    HW229781   1.020   3.138  13.030  1.0895 -0.8189 -0.1062
 6050SOL     OW29782   4.143   1.765   3.550 -0.3354  0.0745  0.5161
 6050SOL    HW129783   4.071   1.781   3.490 -0.2665  0.1655  0.4568
 6050SOL    HW229784   4.138   1.847   3.599  0.9866  0.8475 -0.6482
 6051SOL     OW29785   3.618   2.745   8.599  0.1639 -0.4249 -0.0752
 6051SOL    HW129786   3.593   2.828   8.560 -0.2728  0.0101  1.1362
 6051SOL    HW229787   3.698   2.719   8.553 -0.4398 -2.4932  0.0314
 6052SOL     OW29788   0.796   2.041  10.558 -0.7876  0.0839  0.2710
 6052SOL    HW129789   0.714   2.055  10.606  0.1920 -0.4459  2.1077
 6052SOL    HW229790   0.780   1.957  10.515 -1.0981 -1.0719  2.6127
 6053SOL     OW29791   3.422   0.854   4.587  0.2659  0.1120 -0.0862
 6053SOL    HW129792   3.331   0.863   4.616 -0.8805 -2.3474 -2.9063
 6053SOL    HW229793   3.456   0.943   4.599  2.6984 -0.8527  0.1595
 6054SOL     OW29794   1.982   2.081   1.715  0.3943 -0.3369  0.3692
 6054SOL    HW129795   1.948   2.093   1.627 -0.0289  1.7058  0.8246
 6054SOL    HW229796   2.029   2.161   1.737  3.5639 -1.5548 -1.8191
 6055SOL     OW29797   2.224   1.062   4.583 -1.0750 -0.1891  0.3344
 6055SOL    HW129798   2.191   0.979   4.615  2.4777 -2.6759 -2.3816
 6055SOL    HW229799   2.155   1.096   4.527  0.4038 -0.3741 -1.5950
 6056SOL     OW29800   1.746   4.262  17.176 -0.2187  0.1598  0.3593
 6056SOL    HW129801   1.811   4.292  17.113  0.5890  3.0493  2.5822
 6056SOL    HW229802   1.675   4.231  17.120 -0.9799  2.7002 -0.0573
 6057SOL     OW29803   0.251   2.004   4.161  0.6446  0.7063  0.5167
 6057SOL    HW129804   0.202   2.039   4.235 -0.7019 -2.0126  0.8909
 6057SOL    HW229805   0.183   2.016   4.095 -0.4496 -0.3540  1.4409
 6058SOL     OW29806   1.622   1.997   4.023 -0.0074  0.2915 -0.3550
 6058SOL    HW129807   1.633   2.027   3.933 -0.9530 -2.4734 -1.3837
 6058SOL    HW229808   1.659   1.911   4.004  2.6273  0.8615  2.1518
 6059SOL     OW29809   2.729   3.695  14.408 -0.2966 -0.1507  1.1162
 6059SOL    HW129810   2.695   3.775  14.449 -2.9512 -0.3965 -0.5918
 6059SOL    HW229811   2.765   3.653  14.486 -1.1787 -0.7494  1.1984
 6060SOL     OW29812   2.463   1.852   6.619  0.4418  0.2949 -0.6644
 6060SOL    HW129813   2.516   1.823   6.693 -1.1960  1.0256  0.7924
 6060SOL    HW229814   2.530   1.898   6.567  1.9596  1.3498  2.2374
 6061SOL     OW29815   3.577   2.909  17.522  0.2268 -0.2892 -0.1165
 6061SOL    HW129816   3.572   2.826  17.569 -0.1425 -0.4164 -0.3802
 6061SOL    HW229817   3.519   2.887  17.450  0.6600 -0.6555 -0.3493
 6062SOL     OW29818   3.581   2.166   1.295  0.4452  0.2333 -0.1134
 6062SOL    HW129819   3.609   2.237   1.352 -1.4081  0.0508  1.0030
 6062SOL    HW229820   3.539   2.209   1.221 -0.5506 -1.3021 -0.4413
 6063SOL     OW29821   2.382   0.701   5.042  0.6125 -0.0686  0.5967
 6063SOL    HW129822   2.316   0.642   5.077  1.1550 -1.2623 -0.3749
 6063SOL    HW229823   2.348   0.782   5.081 -0.7213  1.7407 -4.2923
 6064SOL     OW29824   3.104   2.208   9.815  0.4333 -0.2512 -0.0435
 6064SOL    HW129825   3.102   2.282   9.876 -3.0052  0.1779 -0.6908
 6064SOL    HW229826   3.013   2.200   9.789 -0.1125 -1.9465  2.3539
 6065SOL     OW29827   0.805   0.355   7.301 -0.6170 -0.0467  0.4822
 6065SOL    HW129828   0.785   0.335   7.210 -0.8882 -0.1551  0.5646
 6065SOL    HW229829   0.800   0.451   7.294 -0.9704 -0.0529  0.6065
 6066SOL     OW29830   1.678   2.679   2.595  0.7880  0.6354  0.0784
 6066SOL    HW129831   1.738   2.666   2.521  0.0438  2.7338 -0.8907
 6066SOL    HW229832   1.618   2.744   2.559 -0.6937 -0.5318  0.4435
 6067SOL     OW29833   4.154   2.702   3.853  0.3191 -0.2431  0.0381
 6067SOL    HW129834   4.192   2.619   3.881 -0.2033 -0.9586 -1.3335
 6067SOL    HW229835   4.107   2.678   3.773 -1.1366 -1.2481  1.1956
 6068SOL     OW29836   1.543   4.685  14.854 -0.5909  0.4811 -0.3688
 6068SOL    HW129837   1.477   4.620  14.828  0.3992 -0.8822  0.5370
 6068SOL    HW229838   1.486   0.023  14.873  0.0656  0.8050  0.2984
 6069SOL     OW29839   3.588   3.321   1.211 -0.6184  0.2067 -0.2493
 6069SOL    HW129840   3.680   3.294   1.210 -1.2788 -2.0623 -0.1495
 6069SOL    HW229841   3.594   3.413   1.233 -2.5427 -0.1595  1.8213
 6070SOL     OW29842   1.732   2.587   9.488  0.2063  0.1109 -0.2847
 6070SOL    HW129843   1.796   2.657   9.497 -0.4668  0.4695  1.7234
 6070SOL    HW229844   1.652   2.640   9.492  0.1287 -0.0822  0.7300
 6071SOL     OW29845   1.077   3.029   8.208 -0.3322  0.2176 -0.0560
 6071SOL    HW129846   1.046   2.963   8.270 -0.8460 -1.0442 -1.6572
 6071SOL    HW229847   1.148   3.068   8.258 -0.2613  2.2188 -1.7180
 6072SOL     OW29848   2.447   3.274   6.357 -0.6355 -0.3593 -0.2866
 6072SOL    HW129849   2.355   3.263   6.333 -0.9601  0.5589  0.5329
 6072SOL    HW229850   2.444   3.356   6.406  1.2611  0.2791 -1.2582
 6073SOL     OW29851   1.303   4.571   3.204 -0.3289  0.4730 -0.0511
 6073SOL    HW129852   1.285   4.656   3.165  1.5096  0.1724 -1.5242
 6073SOL    HW229853   1.274   4.515   3.132  0.3962  0.4203 -0.3013
 6074SOL     OW29854   2.789   0.551   1.811 -0.4351  0.1537  0.3192
 6074SOL    HW129855   2.862   0.515   1.763  0.8428  3.1865 -0.0407
 6074SOL    HW229856   2.753   0.474   1.854  1.6154 -1.9919 -1.8383
 6075SOL     OW29857   0.111   3.539   6.135 -0.5071  0.1893  0.2812
 6075SOL    HW129858   0.088   3.530   6.043  2.9092 -0.9432 -0.4893
 6075SOL    HW229859   0.135   3.631   6.146 -0.7627  0.2342  0.4726
 6076SOL     OW29860   1.040   0.802   2.954 -0.0518  0.0461  0.2373
 6076SOL    HW129861   1.060   0.759   2.870  0.7219  1.3978 -0.2709
 6076SOL    HW229862   1.045   0.896   2.936 -3.0680  0.2506  0.5763
 6077SOL     OW29863   2.726   1.641   8.812 -0.0612  0.6654  0.0179
 6077SOL    HW129864   2.738   1.730   8.778  1.3540  0.2825 -0.4789
 6077SOL    HW229865   2.649   1.658   8.866 -1.1660 -0.1139 -1.3416
 6078SOL     OW29866   3.079   1.232  14.667  0.7175 -0.0510 -0.7429
 6078SOL    HW129867   3.062   1.237  14.761 -2.4475  1.8850 -1.4378
 6078SOL    HW229868   2.996   1.219  14.622 -0.4679  0.9557  1.1546
 6079SOL     OW29869   3.940   3.676   1.546  0.2989  0.3083  0.2145
 6079SOL    HW129870   3.934   3.685   1.641  3.9658 -2.4573  0.7182
 6079SOL    HW229871   3.872   3.740   1.523  1.2532  2.5995  3.8150
 6080SOL     OW29872   2.230   4.567   2.460  0.9558 -0.0260 -0.0118
 6080SOL    HW129873   2.216   4.617   2.540  0.2592 -0.0870 -0.0911
 6080SOL    HW229874   2.288   4.621   2.407 -1.9044  0.0638 -3.0754
 6081SOL     OW29875   0.755   3.626  13.632 -0.0562 -0.1746 -0.1835
 6081SOL    HW129876   0.669   3.650  13.666  0.2542 -0.6839  0.9635
 6081SOL    HW229877   0.751   3.676  13.551  0.3099  0.9143  0.4750
 6082SOL     OW29878   1.792   2.471   9.775  0.8467  0.3859 -0.2517
 6082SOL    HW129879   1.767   2.556   9.809  0.3352  1.4753 -3.3874
 6082SOL    HW229880   1.802   2.498   9.684  2.6438 -0.5992 -0.3476
 6083SOL     OW29881   3.992   0.043   8.556 -0.3003 -0.0836  0.0930
 6083SOL    HW129882   3.913   4.726   8.559  1.2156 -2.2740 -0.0569
 6083SOL    HW229883   3.957   0.121   8.512 -1.0665 -0.5373 -0.1075
 6084SOL     OW29884   3.203   4.127   9.979  0.0557 -0.0638  0.3847
 6084SOL    HW129885   3.230   4.215  10.005  0.3450 -0.0776  0.1268
 6084SOL    HW229886   3.230   4.122   9.887 -1.3509 -0.2191 -0.0283
 6085SOL     OW29887   1.475   0.236   9.709 -0.1538 -0.5717 -0.4781
 6085SOL    HW129888   1.508   0.284   9.785  0.1399 -2.2870  0.4927
 6085SOL    HW229889   1.497   0.147   9.738  1.4712 -0.3345 -0.9861
 6086SOL     OW29890   4.280   1.770   2.127  0.4511 -0.0039  0.0220
 6086SOL    HW129891   4.313   1.681   2.139  1.1885  0.2277 -0.3459
 6086SOL    HW229892   4.316   1.792   2.042 -1.9109 -0.4369 -1.0957
 6087SOL     OW29893   0.363   3.170   0.516 -0.3752  0.3336  0.0694
 6087SOL    HW129894   0.421   3.119   0.573 -0.1605  0.9280  0.3771
 6087SOL    HW229895   0.326   3.096   0.468 -0.0341 -1.0217  1.9040
 6088SOL     OW29896   2.644   3.828  13.382  0.2956  0.2819  0.7232
 6088SOL    HW129897   2.649   3.747  13.332  1.1941  1.5548 -1.2371
 6088SOL    HW229898   2.723   3.878  13.363 -1.0321  2.0625 -0.1920
 6089SOL     OW29899   0.686   0.018  17.235 -0.4493  0.0725  0.0200
 6089SOL    HW129900   0.683   0.014  17.139  5.5361 -1.2385 -0.0947
 6089SOL    HW229901   0.623   0.089  17.247  0.3393  0.2757  2.9654
 6090SOL     OW29902   3.923   3.284   5.440 -0.5995 -0.0344 -0.2862
 6090SOL    HW129903   3.967   3.343   5.501 -2.2234  2.8904 -1.9539
 6090SOL    HW229904   3.962   3.209   5.484  0.3635  0.6269 -0.0011
 6091SOL     OW29905   4.576   4.268   5.317 -0.1603  0.8414 -0.0808
 6091SOL    HW129906   4.554   4.320   5.240 -1.1395  1.1167  0.3917
 6091SOL    HW229907   4.576   4.185   5.268 -1.9096  1.3589 -0.9478
 6092SOL     OW29908   0.693   1.307   2.289  0.8102 -0.6561 -0.0606
 6092SOL    HW129909   0.629   1.325   2.357  0.8317 -2.4860  0.4491
 6092SOL    HW229910   0.660   1.223   2.256 -1.3501  1.3402 -2.9883
 6093SOL     OW29911   1.861   0.423  17.295 -0.0356  0.5707  0.5186
 6093SOL    HW129912   1.816   0.387  17.218  2.8947 -2.8978  0.4320
 6093SOL    HW229913   1.800   0.411  17.368 -0.0133 -1.8906  0.1205
 6094SOL     OW29914   1.577   2.194  16.868  0.6531 -0.0481  0.1877
 6094SOL    HW129915   1.485   2.169  16.868  0.7871 -0.5516 -0.1179
 6094SOL    HW229916   1.627   2.115  16.887 -0.8649 -1.5403 -1.9383
 6095SOL     OW29917   1.437   2.561  15.127 -0.4200 -0.0701 -0.0200
 6095SOL    HW129918   1.383   2.527  15.056 -3.6905  2.3916  1.2687
 6095SOL    HW229919   1.374   2.547  15.198 -0.2630 -0.4220  0.0457
 6096SOL     OW29920   3.845   4.397   1.178  0.0737 -0.5836  0.2367
 6096SOL    HW129921   3.918   4.365   1.231  0.4562 -0.3469 -0.1442
 6096SOL    HW229922   3.879   4.385   1.089  0.3977  0.6682  0.2008
 6097SOL     OW29923   2.031   2.358   2.437  0.1115 -0.5402 -0.4339
 6097SOL    HW129924   1.964   2.298   2.402 -2.3970  1.1704  1.4043
 6097SOL    HW229925   2.094   2.297   2.476  1.9677  0.8468 -1.2663
 6098SOL     OW29926   0.353   2.024   3.698 -0.1375 -0.2084  0.0980
 6098SOL    HW129927   0.270   1.979   3.706 -0.3154 -0.0580 -0.8622
 6098SOL    HW229928   0.359   2.067   3.783 -0.6117  1.6684 -0.8132
 6099SOL     OW29929   0.511   2.683  16.808  0.4290 -0.8355  0.1461
 6099SOL    HW129930   0.540   2.657  16.895 -0.2876 -1.4230  0.2117
 6099SOL    HW229931   0.421   2.651  16.804  0.2295 -0.0170 -1.7901
 6100SOL     OW29932   2.732   1.841   1.645 -0.3990  0.2639 -0.1378
 6100SOL    HW129933   2.699   1.843   1.555 -1.0725 -1.7408  0.0691
 6100SOL    HW229934   2.728   1.936   1.656 -0.4960  0.2567 -0.1056
 6101SOL     OW29935   2.757   2.627   6.886 -0.7446 -0.2449 -0.0171
 6101SOL    HW129936   2.821   2.631   6.957 -1.4870 -2.2671  0.7582
 6101SOL    HW229937   2.759   2.537   6.853 -1.4344  0.0333 -0.8369
 6102SOL     OW29938   4.307   4.695   8.114  0.1840 -0.2386 -0.0781
 6102SOL    HW129939   4.393   4.723   8.142  0.0015  1.0147 -0.7397
 6102SOL    HW229940   4.319   4.706   8.019 -1.8988 -0.2035 -0.3536
 6103SOL     OW29941   4.014   2.245   7.970  0.0944  0.8188  0.0714
 6103SOL    HW129942   3.985   2.309   8.035  0.7312  0.8208  0.3480
 6103SOL    HW229943   4.106   2.230   7.991  0.6762  1.4684 -1.9721
 6104SOL     OW29944   1.700   1.196   8.537  0.2870 -0.0953  0.5053
 6104SOL    HW129945   1.779   1.222   8.584  0.2836 -1.7679  1.4215
 6104SOL    HW229946   1.682   1.272   8.480 -0.2351 -0.6962 -0.1310
 6105SOL     OW29947   4.302   3.568   5.305 -0.3438 -0.1562 -0.1480
 6105SOL    HW129948   4.210   3.555   5.328 -0.4753  0.3288 -0.4026
 6105SOL    HW229949   4.340   3.481   5.292 -0.0679 -0.2605  1.3591
 6106SOL     OW29950   3.375   1.777  17.284 -0.5583  0.3141  0.1024
 6106SOL    HW129951   3.468   1.792  17.265 -0.3598 -0.4020  0.5069
 6106SOL    HW229952   3.364   1.701  17.227 -1.3623  1.6643 -1.5272
 6107SOL     OW29953   1.999   2.100   6.153 -0.9427  0.1633 -0.3822
 6107SOL    HW129954   1.984   2.043   6.077 -1.9739 -1.2768  0.9070
 6107SOL    HW229955   2.078   2.066   6.194 -0.0616  2.0802 -0.4939
 6108SOL     OW29956   1.330   0.066  11.686 -0.1085 -0.2484  0.0170
 6108SOL    HW129957   1.400   0.042  11.625  0.2055 -0.3243  0.4063
 6108SOL    HW229958   1.353   0.152  11.719  1.5966 -1.3714  1.7989
 6109SOL     OW29959   1.520   2.612   6.158  0.1506  0.0467 -0.5664
 6109SOL    HW129960   1.484   2.590   6.072 -3.2839  2.8940  0.1247
 6109SOL    HW229961   1.445   2.668   6.181  0.0967  0.0243 -0.6885
 6110SOL     OW29962   2.189   1.690   0.368 -0.9203 -0.1790  0.1759
 6110SOL    HW129963   2.095   1.673   0.370 -0.7194 -1.2612  0.4704
 6110SOL    HW229964   2.223   1.608   0.333  1.1627  0.4693  0.7078
 6111SOL     OW29965   0.394   1.961   2.152  0.7127  0.9105  0.9319
 6111SOL    HW129966   0.332   2.025   2.186  0.2992  0.8938  0.2099
 6111SOL    HW229967   0.362   1.960   2.062 -1.4340  1.4040  1.7004
 6112SOL     OW29968   0.404   2.737   6.287  0.2993 -0.2744  0.1705
 6112SOL    HW129969   0.424   2.748   6.194  0.0919  0.7385  0.2377
 6112SOL    HW229970   0.355   2.657   6.303  0.6555  0.1553  3.4176
 6113SOL     OW29971   3.127   3.791   7.524  0.3221  0.2930 -0.1561
 6113SOL    HW129972   3.208   3.822   7.564 -0.4115  0.2453  1.3610
 6113SOL    HW229973   3.072   3.865   7.548 -0.2060 -0.1606  0.0231
 6114SOL     OW29974   2.647   1.101   3.673  0.2487  0.5431  0.1622
 6114SOL    HW129975   2.735   1.062   3.668  1.0194  2.2975 -0.0691
 6114SOL    HW229976   2.668   1.193   3.655  0.7277  0.3910 -0.0564
 6115SOL     OW29977   0.742   2.718   8.293 -0.3123  0.0628 -0.0100
 6115SOL    HW129978   0.725   2.625   8.278 -0.7474 -0.1882  2.1129
 6115SOL    HW229979   0.719   2.752   8.206 -0.0710  0.6426  0.1490
 6116SOL     OW29980   4.173   1.458   5.915  0.5593  0.4094 -0.4746
 6116SOL    HW129981   4.247   1.516   5.893 -0.5070  1.8251 -0.3619
 6116SOL    HW229982   4.227   1.394   5.962 -0.5405 -0.5368 -0.5140
 6117SOL     OW29983   4.420   3.207   4.462  0.3339 -0.1332  0.1470
 6117SOL    HW129984   4.420   3.189   4.556  1.0346 -0.6271  0.0538
 6117SOL    HW229985   4.331   3.227   4.434  0.4864  2.2866  1.4261
 6118SOL     OW29986   4.071   0.501   4.209  0.0271 -0.1339 -0.3484
 6118SOL    HW129987   4.018   0.576   4.182  2.4916  1.5546 -0.4758
 6118SOL    HW229988   4.035   0.436   4.149 -1.4977  2.5342 -2.3118
 6119SOL     OW29989   3.387   1.424   7.999  0.6531 -0.0021  0.3446
 6119SOL    HW129990   3.482   1.437   7.997  0.7787 -1.1938 -1.1581
 6119SOL    HW229991   3.383   1.393   7.909  2.3486  1.7827 -0.3411
 6120SOL     OW29992   1.001   2.614  15.306 -0.2307 -0.2738 -0.3878
 6120SOL    HW129993   1.094   2.593  15.303  0.1345  1.2005  0.6173
 6120SOL    HW229994   0.970   2.541  15.253 -0.9468  1.6478 -2.6394
 6121SOL     OW29995   3.742   1.096   2.887 -0.0045 -0.1763 -0.5848
 6121SOL    HW129996   3.821   1.083   2.940 -1.6227 -0.9381  1.6037
 6121SOL    HW229997   3.683   1.151   2.937 -0.1036 -0.3330 -0.5308
 6122SOL     OW29998   2.170   1.232   3.984  0.3137 -0.0852  0.3620
 6122SOL    HW129999   2.113   1.160   3.958 -0.1108  0.2002  0.5110
 6122SOL    HW230000   2.246   1.219   3.927  0.7201  0.7045  0.7289
 6123SOL     OW30001   2.323   4.027   4.408 -0.2546 -0.0143  0.1673
 6123SOL    HW130002   2.282   3.944   4.386 -1.4736  0.9156 -1.0497
 6123SOL    HW230003   2.400   4.035   4.352 -0.2183 -0.0770  0.2087
 6124SOL     OW30004   2.905   3.980   6.149  0.0334  0.0350  0.3148
 6124SOL    HW130005   2.991   3.968   6.190  0.5205 -0.8948 -0.9673
 6124SOL    HW230006   2.885   3.887   6.137 -1.9076  0.2265  2.0987
 6125SOL     OW30007   1.798   1.919   4.831  0.5744 -0.0200 -0.1893
 6125SOL    HW130008   1.891   1.938   4.817  0.1631  0.8687 -1.6605
 6125SOL    HW230009   1.767   1.881   4.749  1.6175  0.6698 -0.8969
 6126SOL     OW30010   1.821   3.105   7.404 -0.3230  0.2670  0.3709
 6126SOL    HW130011   1.867   3.098   7.488  1.6490  0.5837 -0.6891
 6126SOL    HW230012   1.873   3.170   7.356  0.0085 -1.2997 -1.3862
 6127SOL     OW30013   3.564   0.124  16.128  0.0420  0.2288 -0.1131
 6127SOL    HW130014   3.628   0.188  16.098 -1.1628  0.3556 -2.4410
 6127SOL    HW230015   3.532   0.154  16.213 -0.2423  0.4553 -0.3040
 6128SOL     OW30016   4.198   3.501   4.686 -0.0521 -0.0934  0.3135
 6128SOL    HW130017   4.213   3.454   4.768 -2.0959 -0.8207  0.2725
 6128SOL    HW230018   4.283   3.546   4.679 -0.1677  0.4832  2.4576
 6129SOL     OW30019   2.006   4.093  16.983  0.0307  0.7536 -0.2844
 6129SOL    HW130020   2.046   4.045  17.055  0.0720  0.8911 -0.2147
 6129SOL    HW230021   2.040   4.181  17.000  1.9323  0.2174 -1.2825
 6130SOL     OW30022   4.151   2.999   5.173  0.1322 -0.1475  0.3706
 6130SOL    HW130023   4.155   2.958   5.260 -0.8614  0.2294  0.6062
 6130SOL    HW230024   4.074   2.960   5.132  0.4537 -1.3638  0.9282
 6131SOL     OW30025   3.325   4.301  13.156  0.6224 -0.2952 -0.2362
 6131SOL    HW130026   3.341   4.374  13.096  1.2828  0.7817  1.2307
 6131SOL    HW230027   3.418   4.289  13.178  0.8963  2.2077 -0.0594
 6132SOL     OW30028   4.122   3.315   4.939  0.0777  0.4731  0.2873
 6132SOL    HW130029   4.119   3.324   5.034  1.6170  2.1985  0.1801
 6132SOL    HW230030   4.066   3.238   4.933  0.8634 -0.0986  0.2085
 6133SOL     OW30031   2.686   2.186  10.246  0.1537 -0.6407 -0.2546
 6133SOL    HW130032   2.717   2.277  10.246  0.3502 -0.7162 -2.2789
 6133SOL    HW230033   2.636   2.192  10.328  0.5867 -0.7505  0.0191
 6134SOL     OW30034   0.521   0.854  12.597  0.6321 -0.0186  0.6161
 6134SOL    HW130035   0.552   0.943  12.578 -0.6153 -0.2487 -2.3839
 6134SOL    HW230036   0.487   0.836  12.510  2.1313 -0.1300  0.0508
 6135SOL     OW30037   3.706   3.549   9.560  0.9077 -0.0253 -0.1723
 6135SOL    HW130038   3.632   3.527   9.616  1.5152  1.3021  1.1468
 6135SOL    HW230039   3.768   3.600   9.613  1.5374 -0.0605 -0.8767
 6136SOL     OW30040   3.471   0.211   0.704  0.2942  0.2516  0.2979
 6136SOL    HW130041   3.380   0.237   0.715 -0.1957 -1.6259  0.6953
 6136SOL    HW230042   3.507   0.245   0.786 -2.3649  1.0082  1.1532
 6137SOL     OW30043   1.969   4.596   2.359  0.0688 -0.8055  0.4270
 6137SOL    HW130044   1.988   4.675   2.309 -1.3274 -1.2241 -0.7688
 6137SOL    HW230045   2.054   4.583   2.402  0.6024 -2.1673 -1.0135
 6138SOL     OW30046   3.054   1.969   8.847 -0.0124 -0.0115 -0.0877
 6138SOL    HW130047   3.067   2.064   8.853  1.2065 -0.1943  0.0925
 6138SOL    HW230048   3.136   1.938   8.810 -0.2476 -1.3736  0.5574
 6139SOL     OW30049   1.678   2.688   4.360  0.4169  0.2724 -0.1916
 6139SOL    HW130050   1.597   2.697   4.310  0.0652  1.5644  0.6206
 6139SOL    HW230051   1.677   2.594   4.377 -0.4195 -0.0149 -1.8140
 6140SOL     OW30052   4.438   0.408   4.954 -0.5449  0.3361 -0.2167
 6140SOL    HW130053   4.433   0.504   4.956  1.1671  0.4434 -0.4727
 6140SOL    HW230054   4.429   0.389   5.047  1.0347  1.9560  0.2806
 6141SOL     OW30055   4.164   3.715   3.911 -0.0897 -0.0219  0.3356
 6141SOL    HW130056   4.176   3.761   3.828  1.3408  2.6694  2.0188
 6141SOL    HW230057   4.246   3.731   3.957  0.0551  0.2661 -0.0294
 6142SOL     OW30058   0.853   1.925   6.243  0.4322  0.0371 -0.3074
 6142SOL    HW130059   0.782   1.862   6.250  1.1253 -0.7053 -0.0306
 6142SOL    HW230060   0.925   1.865   6.261 -1.4575 -1.0318  3.6131
 6143SOL     OW30061   0.255   2.371  13.679 -0.1836  0.4561 -0.2086
 6143SOL    HW130062   0.310   2.378  13.601  0.5357 -0.4009  0.2261
 6143SOL    HW230063   0.303   2.435  13.731 -0.5230  1.1304 -0.7156
 6144SOL     OW30064   3.338   2.755  12.424 -0.2550 -0.4486 -0.1177
 6144SOL    HW130065   3.259   2.801  12.454  1.3422  1.9035  0.4586
 6144SOL    HW230066   3.350   2.696  12.499  0.8321  0.4736  0.4148
 6145SOL     OW30067   2.138   3.935   6.349 -0.2494 -0.3356  0.3821
 6145SOL    HW130068   2.191   3.990   6.408  0.6915 -0.8490  0.0216
 6145SOL    HW230069   2.151   3.977   6.264 -2.4050 -1.7823 -0.6444
 6146SOL     OW30070   4.431   3.071   8.380 -0.4339  1.0373  0.7744
 6146SOL    HW130071   4.336   3.073   8.395 -0.2688  2.3962  1.7103
 6146SOL    HW230072   4.478   3.047   8.460 -1.6858  0.2846  1.2861
 6147SOL     OW30073   2.992   2.260  11.962 -0.3452 -0.5907 -0.6770
 6147SOL    HW130074   3.046   2.332  11.930  1.9319 -0.8438  2.6100
 6147SOL    HW230075   3.062   2.199  11.985 -0.5714 -0.9346 -0.8935
 6148SOL     OW30076   3.891   1.819   3.421  0.0634 -0.4980 -0.1566
 6148SOL    HW130077   3.823   1.797   3.357  0.2298 -3.5229  0.6881
 6148SOL    HW230078   3.873   1.907   3.454 -1.2332 -0.0235 -2.1170
 6149SOL     OW30079   3.753   3.646   2.023  0.3279  0.3760 -0.5467
 6149SOL    HW130080   3.777   3.658   2.115 -0.7166 -0.1912 -0.1921
 6149SOL    HW230081   3.728   3.553   2.019  1.3632  0.1017 -0.5957
 6150SOL     OW30082   2.295   1.617   8.173 -0.6105 -0.3553 -0.4199
 6150SOL    HW130083   2.335   1.584   8.254  2.2203 -0.5892 -1.9130
 6150SOL    HW230084   2.212   1.637   8.215  0.2936  3.4683 -0.4802
 6151SOL     OW30085   2.423   1.138   1.400  0.3160  0.4425 -0.2072
 6151SOL    HW130086   2.491   1.163   1.337  0.5791  0.2494  0.0019
 6151SOL    HW230087   2.479   1.083   1.454 -1.1682 -2.3848 -1.5508
 6152SOL     OW30088   4.577   2.006   3.323  0.4061 -0.4213  0.1298
 6152SOL    HW130089   4.572   2.067   3.250 -1.0361 -1.4113 -0.6174
 6152SOL    HW230090   4.646   1.943   3.301 -0.5211 -1.4523  0.1642
 6153SOL     OW30091   1.571   0.093   5.616  0.3432  0.0483  0.1284
 6153SOL    HW130092   1.602   0.060   5.531 -0.0676  2.0716 -0.8248
 6153SOL    HW230093   1.487   0.050   5.633  1.3912 -1.2268  2.0325
 6154SOL     OW30094   3.207   4.356   9.179 -0.2955 -0.0387 -0.7963
 6154SOL    HW130095   3.168   4.269   9.174 -1.3471  0.2370  2.1059
 6154SOL    HW230096   3.289   4.339   9.132  1.7497  1.7634  2.0318
 6155SOL     OW30097   0.284   1.794   2.405 -0.0961 -0.6626 -0.3132
 6155SOL    HW130098   0.308   1.867   2.347 -1.1434  0.3209  0.4872
 6155SOL    HW230099   0.190   1.788   2.389  0.0444 -2.9771 -0.2312
 6156SOL     OW30100   3.987   1.792   1.416 -0.1678  0.7378  0.1125
 6156SOL    HW130101   3.932   1.858   1.374  2.0218  2.3155 -0.2729
 6156SOL    HW230102   4.037   1.843   1.480 -0.9384 -1.0766  2.1752
 6157SOL     OW30103   2.567   1.962   2.029 -0.6197 -0.5700 -0.0891
 6157SOL    HW130104   2.529   2.016   1.960 -0.9232  0.5936  1.0000
 6157SOL    HW230105   2.548   1.877   1.988 -0.0575 -0.6873 -0.1073
 6158SOL     OW30106   3.377   3.639   6.389 -0.0220 -0.0878 -0.7215
 6158SOL    HW130107   3.347   3.593   6.311 -0.0013 -0.1699 -0.6818
 6158SOL    HW230108   3.445   3.691   6.347  1.4959 -0.1636  1.6486
 6159SOL     OW30109   2.150   2.553   9.780  0.2160 -0.1476  0.0640
 6159SOL    HW130110   2.222   2.496   9.753 -0.2510 -1.2543  1.1753
 6159SOL    HW230111   2.089   2.499   9.829  1.3264 -0.5751  0.9936
 6160SOL     OW30112   3.648   4.609  11.158 -0.2456  0.4246 -0.1355
 6160SOL    HW130113   3.588   4.658  11.214 -0.7340  0.8220 -1.0119
 6160SOL    HW230114   3.587   4.585  11.089 -0.2002  1.2755 -0.4635
 6161SOL     OW30115   3.804   3.738   2.267  0.7133  0.1585 -0.6148
 6161SOL    HW130116   3.750   3.717   2.344  1.2473  0.0961 -0.2574
 6161SOL    HW230117   3.786   3.832   2.264 -0.7945 -0.1717 -1.9844
 6162SOL     OW30118   2.201   4.309   1.632 -0.1160 -0.5728 -0.2232
 6162SOL    HW130119   2.266   4.318   1.562  0.1101 -0.5279 -0.0087
 6162SOL    HW230120   2.123   4.296   1.579  0.5199  1.7991 -1.7375
 6163SOL     OW30121   2.747   3.550   7.940  0.7085 -0.8100 -0.3150
 6163SOL    HW130122   2.656   3.545   7.912  0.8765  0.4669 -1.0543
 6163SOL    HW230123   2.779   3.619   7.883 -0.6782  1.3128  1.4731
 6164SOL     OW30124   0.905   1.419   6.510  0.0212 -0.3622  0.4256
 6164SOL    HW130125   0.968   1.347   6.505  0.4193 -0.0714  1.1204
 6164SOL    HW230126   0.892   1.425   6.605 -3.0944 -3.2114  0.1601
 6165SOL     OW30127   4.264   3.567  16.261  0.1395 -0.1622 -0.3602
 6165SOL    HW130128   4.282   3.654  16.224  0.8210  0.3520  1.1826
 6165SOL    HW230129   4.172   3.563  16.233  0.0547  1.4014 -0.3153
 6166SOL     OW30130   4.244   2.508   6.922 -0.5685 -0.5913 -0.1749
 6166SOL    HW130131   4.198   2.585   6.888  0.2427 -0.9998 -2.1644
 6166SOL    HW230132   4.182   2.479   6.990  0.1877  2.9219  2.0130
 6167SOL     OW30133   3.242   0.093  10.968 -0.6906  0.5715  0.4816
 6167SOL    HW130134   3.274   0.179  10.995  1.7689 -0.6492  1.4726
 6167SOL    HW230135   3.241   0.107  10.874 -1.5793  0.3015  0.4490
 6168SOL     OW30136   1.334   0.197   9.171  0.2339  0.2463  0.7347
 6168SOL    HW130137   1.252   0.174   9.128  0.0043  1.1983  0.6853
 6168SOL    HW230138   1.355   0.118   9.221  0.8759 -0.6364 -0.9432
 6169SOL     OW30139   3.406   1.808  15.878 -0.1622  0.3648  0.2519
 6169SOL    HW130140   3.343   1.751  15.922  0.2348  0.3375  0.7938
 6169SOL    HW230141   3.471   1.798  15.948 -0.4072  0.3280  0.4737
 6170SOL     OW30142   0.889   1.293  17.393  0.0170  0.0317  0.2840
 6170SOL    HW130143   0.888   1.216  17.336 -0.6637  0.2192  0.0375
 6170SOL    HW230144   0.811   1.344  17.372  0.9898  1.5157  0.2957
 6171SOL     OW30145   0.442   4.451   1.436 -0.6378 -0.2852 -0.0445
 6171SOL    HW130146   0.364   4.398   1.450  0.1447 -1.6858 -1.0109
 6171SOL    HW230147   0.421   4.503   1.358 -0.1472 -2.2333 -1.4764
 6172SOL     OW30148   4.086   3.232   8.228 -0.3152 -0.3049  0.0580
 6172SOL    HW130149   4.110   3.194   8.143  0.7818 -1.0049  0.6944
 6172SOL    HW230150   4.049   3.318   8.210  0.3275 -0.5714 -2.6321
 6173SOL     OW30151   2.019   3.646   8.353 -0.7565  0.8901  0.2610
 6173SOL    HW130152   2.096   3.686   8.392  0.5262 -1.2114 -0.1032
 6173SOL    HW230153   1.976   3.618   8.434  1.9836 -2.9787  0.3890
 6174SOL     OW30154   0.998   2.867   5.489 -0.9618 -0.1930 -0.1405
 6174SOL    HW130155   1.075   2.855   5.433 -0.1296 -0.9584  1.1546
 6174SOL    HW230156   0.963   2.779   5.504 -2.9894  0.4570 -1.1328
 6175SOL     OW30157   3.773   4.603   4.223 -0.5890 -0.5504 -0.1121
 6175SOL    HW130158   3.844   4.591   4.160 -0.2549 -0.4486  0.2489
 6175SOL    HW230159   3.742   4.512   4.223  2.0528 -1.4544  2.4934
 6176SOL     OW30160   0.809   0.112   2.733  0.5223  0.1325 -0.3314
 6176SOL    HW130161   0.733   0.167   2.754 -1.5670 -2.4616 -1.0067
 6176SOL    HW230162   0.881   0.167   2.762  0.3024 -0.6010  1.6399
 6177SOL     OW30163   2.865   2.468   5.610 -0.8741  0.2199 -0.1797
 6177SOL    HW130164   2.824   2.531   5.670  0.1510  1.4842 -0.8186
 6177SOL    HW230165   2.938   2.519   5.575  0.3927 -0.5397  1.3296
 6178SOL     OW30166   1.549   1.667   7.348 -0.2258  0.2913 -0.4943
 6178SOL    HW130167   1.491   1.592   7.347 -0.8893  0.8290 -1.9557
 6178SOL    HW230168   1.505   1.728   7.289 -1.2690  1.3798  1.4244
 6179SOL     OW30169   2.068   0.464   0.600 -0.5525 -0.2049  0.4673
 6179SOL    HW130170   2.044   0.440   0.689 -0.8384  0.7952  0.6529
 6179SOL    HW230171   2.163   0.464   0.610 -0.5738  0.0227  0.6599
 6180SOL     OW30172   1.340   2.484  10.740  0.8040 -0.0074  0.1028
 6180SOL    HW130173   1.327   2.389  10.734 -1.8879  0.3400  0.4710
 6180SOL    HW230174   1.336   2.502  10.834  2.0827  0.5272  0.0627
 6181SOL     OW30175   1.490   0.426   8.167  0.0236  0.1626 -0.2210
 6181SOL    HW130176   1.506   0.501   8.110 -0.1612 -0.4957 -1.1551
 6181SOL    HW230177   1.574   0.380   8.168  1.2938  2.5227 -0.0064
 6182SOL     OW30178   2.488   4.296   4.104 -0.0559 -0.4010  0.0579
 6182SOL    HW130179   2.467   4.383   4.138  1.5179  0.1424 -0.3863
 6182SOL    HW230180   2.581   4.307   4.088  0.3914 -0.9399  2.3619
 6183SOL     OW30181   0.350   4.317   2.308  0.1883  0.1924  0.4951
 6183SOL    HW130182   0.260   4.290   2.326  0.4471 -0.5331  0.6892
 6183SOL    HW230183   0.401   4.251   2.356 -2.9956 -1.3558  1.7159
 6184SOL     OW30184   4.200   1.971  10.386 -0.0663 -0.2997 -0.1572
 6184SOL    HW130185   4.275   1.933  10.432  0.6667  1.7577  0.3241
 6184SOL    HW230186   4.127   1.951  10.445  0.0505  3.1413  1.1390
 6185SOL     OW30187   2.982   2.411   8.265  0.2057 -0.5042  0.3786
 6185SOL    HW130188   2.981   2.337   8.204  2.5931 -1.3083  1.3134
 6185SOL    HW230189   2.891   2.440   8.265  0.7350  1.1522  0.0610
 6186SOL     OW30190   2.601   3.464   5.350 -0.0155 -0.4373  0.0220
 6186SOL    HW130191   2.593   3.399   5.420  1.3662 -0.1118  0.4800
 6186SOL    HW230192   2.695   3.463   5.333  0.0242  1.2342  0.1803
 6187SOL     OW30193   2.523   3.624   7.600  0.1873 -0.2659 -0.0099
 6187SOL    HW130194   2.431   3.644   7.581  0.2115 -0.4856 -0.3525
 6187SOL    HW230195   2.517   3.557   7.668 -2.7180 -0.3859 -0.3820
 6188SOL     OW30196   2.765   2.885   2.744 -0.6543  0.2409 -0.5917
 6188SOL    HW130197   2.715   2.919   2.670 -0.1421  1.5799 -0.3105
 6188SOL    HW230198   2.725   2.941   2.810  1.4174  1.6435 -0.5155
 6189SOL     OW30199   1.857   4.505   1.360  0.0807 -1.0740 -0.0633
 6189SOL    HW130200   1.930   4.478   1.305  0.7145 -2.4905  1.4559
 6189SOL    HW230201   1.828   4.587   1.321  0.9986 -1.3959 -1.4195
 6190SOL     OW30202   4.692   3.255   6.806  0.3427 -0.0806  0.3548
 6190SOL    HW130203   4.635   3.294   6.739 -0.1036  2.0551  1.9717
 6190SOL    HW230204   0.029   3.236   6.749 -0.2974 -1.3872 -0.0495
 6191SOL     OW30205   3.158   1.389  10.343  0.0027 -0.0912 -0.9767
 6191SOL    HW130206   3.179   1.419  10.255  0.5772  0.9633 -0.4767
 6191SOL    HW230207   3.104   1.459  10.379 -0.8511 -0.8247 -0.8179
 6192SOL     OW30208   3.560   2.583   1.180  0.1930 -0.3460 -0.1098
 6192SOL    HW130209   3.553   2.620   1.268 -3.7389  0.1424 -0.6403
 6192SOL    HW230210   3.514   2.502   1.201  0.4300 -0.3344  0.4591
 6193SOL     OW30211   1.165   2.644   2.318 -0.2981  0.3960 -0.2773
 6193SOL    HW130212   1.093   2.587   2.344  1.3116 -0.5655  2.1510
 6193SOL    HW230213   1.136   2.728   2.352  0.9996 -0.1543  2.2471
 6194SOL     OW30214   1.983   3.047   4.412 -0.2330  0.3300 -0.4229
 6194SOL    HW130215   2.024   3.054   4.326  0.6228 -1.0142 -0.1370
 6194SOL    HW230216   1.895   3.020   4.385 -0.4299 -1.3242  1.8585
 6195SOL     OW30217   1.540   3.616   8.633 -0.3976  0.2338  0.0629
 6195SOL    HW130218   1.448   3.615   8.660 -0.4054 -2.3537 -0.0671
 6195SOL    HW230219   1.560   3.703   8.597  1.5103  0.5183  1.7856
 6196SOL     OW30220   4.103   4.109   4.461  0.0152  0.1316  0.2810
 6196SOL    HW130221   4.109   4.178   4.395  0.4502  0.3231  0.5201
 6196SOL    HW230222   4.020   4.071   4.431 -0.0061  0.3808  0.0203
 6197SOL     OW30223   0.314   2.525   2.815 -0.0070 -0.4352  0.5406
 6197SOL    HW130224   0.313   2.457   2.882 -3.2015 -0.1265  0.8090
 6197SOL    HW230225   0.295   2.473   2.737  0.3166 -1.1307  0.9273
 6198SOL     OW30226   2.849   0.003   1.780  0.1896  0.1441 -0.9790
 6198SOL    HW130227   2.857   0.025   1.687  1.0080  1.8460 -0.4948
 6198SOL    HW230228   2.754   0.006   1.790  0.4869  0.1772  1.7297
 6199SOL     OW30229   2.530   2.106   0.681 -0.0907 -0.3037 -0.0724
 6199SOL    HW130230   2.454   2.113   0.738  1.1933 -0.4361  1.6691
 6199SOL    HW230231   2.530   2.011   0.672 -0.7290 -0.5633  2.5684
 6200SOL     OW30232   3.231   0.166   0.524 -0.4427 -0.3391  0.3665
 6200SOL    HW130233   3.228   0.124   0.611 -1.9422 -0.0654  0.4395
 6200SOL    HW230234   3.301   0.107   0.497  0.3274  0.6910  0.0993
 6201SOL     OW30235   3.350   1.090   8.684  0.2420 -0.4139 -0.3782
 6201SOL    HW130236   3.336   0.995   8.684 -2.8930  0.0542 -1.5405
 6201SOL    HW230237   3.331   1.129   8.770 -2.8163 -0.3817 -1.0603
 6202SOL     OW30238   1.126   2.615   1.113  0.3008 -0.7476 -0.0575
 6202SOL    HW130239   1.040   2.608   1.154 -0.1855 -0.7893 -1.0717
 6202SOL    HW230240   1.123   2.709   1.094  1.1083 -0.7067  0.0233
 6203SOL     OW30241   0.026   3.892   5.733 -0.2566 -0.0299 -0.2927
 6203SOL    HW130242   0.019   3.851   5.647  1.4008  1.1424 -0.9968
 6203SOL    HW230243   4.720   3.972   5.703 -1.8263 -0.9536 -0.4596
 6204SOL     OW30244   2.125   0.047   5.468  0.9271  0.0246 -0.5510
 6204SOL    HW130245   2.043   0.070   5.425  1.9807  0.4519 -2.2979
 6204SOL    HW230246   2.101   4.735   5.547  0.0923  1.0875 -0.1184
 6205SOL     OW30247   0.910   0.769   3.666  0.4117  0.1406 -0.0525
 6205SOL    HW130248   0.991   0.768   3.614  0.3246  0.8284 -0.1951
 6205SOL    HW230249   0.884   0.861   3.663  2.3654  0.7674  1.7210
 6206SOL     OW30250   1.302   4.571   3.888  0.1398  0.0664  0.0539
 6206SOL    HW130251   1.398   4.573   3.881  0.2643 -1.8067  1.0570
 6206SOL    HW230252   1.279   4.588   3.797 -0.2885 -1.5555 -0.1476
 6207SOL     OW30253   2.634   2.670   2.909 -0.4611  0.0352  0.0648
 6207SOL    HW130254   2.546   2.673   2.871 -0.2618  2.0157 -0.2460
 6207SOL    HW230255   2.642   2.763   2.931 -0.8278  0.5377 -1.9098
 6208SOL     OW30256   4.191   1.532  13.435  0.1197  0.6605  0.2620
 6208SOL    HW130257   4.226   1.580  13.510 -2.7979 -0.2899  2.2563
 6208SOL    HW230258   4.123   1.475  13.473  0.1655 -0.5085 -1.4163
 6209SOL     OW30259   0.233   0.773  15.724 -0.0925 -0.0700  0.0860
 6209SOL    HW130260   0.312   0.720  15.735 -0.8623 -1.5778 -1.7260
 6209SOL    HW230261   0.233   0.801  15.815 -1.1884  0.3592 -0.0423
 6210SOL     OW30262   1.551   3.545   5.474 -0.3097  0.2371  0.4665
 6210SOL    HW130263   1.503   3.618   5.436  1.3007  0.1897 -1.6550
 6210SOL    HW230264   1.507   3.532   5.558 -0.1000  1.2724  0.7265
 6211SOL     OW30265   2.065   0.828   6.760 -0.5918  0.1935  0.4886
 6211SOL    HW130266   2.071   0.857   6.669 -0.3648 -1.3253  0.0230
 6211SOL    HW230267   1.989   0.771   6.773 -0.0841 -0.4417  0.6397
 6212SOL     OW30268   3.823   4.568   3.034  0.6793 -0.1890 -0.4628
 6212SOL    HW130269   3.762   4.541   2.966 -1.1427 -0.0352  1.1229
 6212SOL    HW230270   3.813   4.662   3.028  1.1711 -0.1588 -0.8069
 6213SOL     OW30271   2.908   4.731  15.385 -0.3260 -0.0874  0.2726
 6213SOL    HW130272   2.876   4.732  15.295  0.8798  0.1295 -0.1444
 6213SOL    HW230273   3.003   0.000  15.379 -0.5424  1.3297 -1.4897
 6214SOL     OW30274   4.068   3.446   9.093  0.0791 -0.1158 -0.3752
 6214SOL    HW130275   3.973   3.438   9.104  0.2755  0.0137  1.4876
 6214SOL    HW230276   4.102   3.376   9.149  0.9924  0.4192 -0.2599
 6215SOL     OW30277   3.815   4.158  12.736  0.0368  0.8079  0.1077
 6215SOL    HW130278   3.792   4.116  12.654  0.0611  0.1575  0.4360
 6215SOL    HW230279   3.899   4.191  12.703  0.7799  0.6620  1.8379
 6216SOL     OW30280   1.326   1.882  14.031  0.4056  0.1755 -0.5333
 6216SOL    HW130281   1.259   1.896  13.965 -0.2531  2.3273  0.5862
 6216SOL    HW230282   1.366   1.966  14.055  1.0900 -0.2026 -0.3644
 6217SOL     OW30283   2.632   4.132  14.301 -0.0157 -0.1721  0.6788
 6217SOL    HW130284   2.556   4.113  14.246 -0.1284 -1.6108  1.3375
 6217SOL    HW230285   2.696   4.105  14.236 -2.1523  1.3495 -2.0654
 6218SOL     OW30286   2.420   2.636  11.467  0.3752  0.5210 -0.4819
 6218SOL    HW130287   2.459   2.685  11.395  3.6015 -0.8610  0.3227
 6218SOL    HW230288   2.369   2.708  11.505  3.7871  1.4084  2.3725
 6219SOL     OW30289   3.458   2.954  12.090  0.3451  0.0360 -0.8964
 6219SOL    HW130290   3.417   2.900  12.022 -1.3961  0.5196 -0.2267
 6219SOL    HW230291   3.396   3.027  12.084  0.9053  0.6355  0.7298
 6220SOL     OW30292   2.000   0.328   9.121  0.4056  0.3807  0.0598
 6220SOL    HW130293   2.012   0.284   9.205  0.7885 -0.2775 -0.3332
 6220SOL    HW230294   2.023   0.418   9.143  0.2087  0.1521  1.1799
 6221SOL     OW30295   2.867   2.182  11.478 -0.0690  0.0454  0.1649
 6221SOL    HW130296   2.830   2.139  11.400 -0.6852  1.7083 -0.4541
 6221SOL    HW230297   2.797   2.151  11.536  2.0843 -1.3580  1.9958
 6222SOL     OW30298   3.978   4.472   6.495 -0.2556 -0.1109 -0.0911
 6222SOL    HW130299   4.063   4.454   6.535 -0.6812 -2.3086 -0.1667
 6222SOL    HW230300   3.975   4.420   6.415 -1.6563  1.3592 -0.9873
 6223SOL     OW30301   1.110   1.845   6.330 -0.0619 -1.0657  0.3401
 6223SOL    HW130302   1.121   1.752   6.309 -0.0867 -0.9072 -0.3614
 6223SOL    HW230303   1.163   1.859   6.408 -0.5052 -0.1142  0.4648
 6224SOL     OW30304   3.863   0.239   9.245  0.2110  0.3050  0.5667
 6224SOL    HW130305   3.918   0.164   9.226 -0.4653 -0.2089  0.6238
 6224SOL    HW230306   3.883   0.311   9.184  1.4657  0.3299  1.0123
 6225SOL     OW30307   0.659   0.119   3.899  0.5841 -0.3041 -0.1371
 6225SOL    HW130308   0.624   0.086   3.982  0.5766 -1.8753 -0.7633
 6225SOL    HW230309   0.750   0.098   3.917  0.0473 -1.5353  1.1827
 6226SOL     OW30310   1.538   0.071  16.712 -0.0682  0.0817  0.4098
 6226SOL    HW130311   1.509   0.114  16.793  3.1428  1.8304  0.5885
 6226SOL    HW230312   1.451   0.072  16.672 -0.3057  2.4127  0.9657
 6227SOL     OW30313   3.152   4.165   0.406  0.4084  0.3008 -0.5336
 6227SOL    HW130314   3.202   4.201   0.480  0.5786  0.4929 -0.7430
 6227SOL    HW230315   3.209   4.180   0.331 -0.2277 -1.2664 -1.3205
 6228SOL     OW30316   2.008   0.251   1.943 -0.0323  0.4177 -0.3683
 6228SOL    HW130317   1.915   0.236   1.964  0.0120  0.0688 -0.4229
 6228SOL    HW230318   2.028   0.322   2.004 -0.0971  0.4499 -0.3845
 6229SOL     OW30319   2.618   4.419   6.023  0.4372  0.0453  0.1310
 6229SOL    HW130320   2.670   4.339   6.021 -0.8650 -0.8076  0.6203
 6229SOL    HW230321   2.680   4.486   5.993  0.3051 -0.1824 -0.6264
 6230SOL     OW30322   4.572   4.076   6.443  0.1560  0.1325  0.2518
 6230SOL    HW130323   4.505   4.009   6.444  0.8359 -0.5530  0.0658
 6230SOL    HW230324   4.535   4.135   6.509 -0.7658  0.7484 -0.8171
 6231SOL     OW30325   4.552   2.160   2.791 -0.2310  0.1221  0.3358
 6231SOL    HW130326   4.570   2.147   2.698 -1.5189 -1.9945  0.3729
 6231SOL    HW230327   4.546   2.068   2.819 -2.0134 -0.0506 -0.5907
 6232SOL     OW30328   1.502   3.437   4.065  0.1552 -0.1990 -0.1338
 6232SOL    HW130329   1.509   3.347   4.033  0.3551  0.5019 -2.0475
 6232SOL    HW230330   1.458   3.472   3.988  0.3200  1.4867  0.5478
 6233SOL     OW30331   1.891   3.372   3.749 -0.3057  0.0579 -0.4375
 6233SOL    HW130332   1.949   3.443   3.775  2.5475 -1.9462 -1.3124
 6233SOL    HW230333   1.871   3.347   3.839  1.7555 -1.3023 -0.3662
 6234SOL     OW30334   2.576   1.875   3.674  0.2333 -0.1662  0.1856
 6234SOL    HW130335   2.623   1.859   3.756 -1.1795  1.9791  1.4156
 6234SOL    HW230336   2.524   1.795   3.667  0.1581 -0.0829 -0.2440
 6235SOL     OW30337   3.447   4.264   2.574 -0.1222 -0.1111 -0.2369
 6235SOL    HW130338   3.375   4.252   2.512 -1.9593  0.1820  1.8219
 6235SOL    HW230339   3.513   4.292   2.511  1.0856  0.6135  1.3774
 6236SOL     OW30340   3.273   1.866   3.046  0.4334  0.4794 -0.1183
 6236SOL    HW130341   3.304   1.799   3.108  0.1775  0.0128 -0.4930
 6236SOL    HW230342   3.341   1.868   2.979  1.9537 -0.9260  1.3478
 6237SOL     OW30343   1.114   3.764  15.116 -0.1788 -0.1678 -0.1450
 6237SOL    HW130344   1.045   3.725  15.062 -2.5602  1.2072  1.8842
 6237SOL    HW230345   1.063   3.788  15.194  0.4590  0.7193  0.0027
 6238SOL     OW30346   3.579   0.229   5.575 -0.4169 -0.3954  0.0976
 6238SOL    HW130347   3.515   0.176   5.527 -0.8783  1.1536 -0.9746
 6238SOL    HW230348   3.638   0.160   5.608  1.3652  1.6979  1.3027
 6239SOL     OW30349   1.684   0.135  16.482  0.2930 -1.1086  0.2188
 6239SOL    HW130350   1.666   0.042  16.465  1.1253 -1.3427  0.6434
 6239SOL    HW230351   1.632   0.135  16.563 -0.0320 -1.5463  0.0105
 6240SOL     OW30352   0.327   0.122   4.037 -0.4810 -0.0497  0.2884
 6240SOL    HW130353   0.253   0.086   4.085 -0.9472 -0.1644 -0.5101
 6240SOL    HW230354   0.318   0.211   4.071  1.3984  0.7663 -1.3270
 6241SOL     OW30355   2.789   3.738   3.955 -0.5020  0.7285  0.0992
 6241SOL    HW130356   2.873   3.784   3.950 -1.4955  2.3916 -1.5115
 6241SOL    HW230357   2.750   3.783   4.031 -1.4668  0.0780 -0.0100
 6242SOL     OW30358   0.373   3.253   6.724  0.2144  0.0904 -0.5627
 6242SOL    HW130359   0.449   3.311   6.735  0.9948 -0.3968 -3.3404
 6242SOL    HW230360   0.307   3.300   6.776 -0.3477 -0.4804 -0.7721
 6243SOL     OW30361   1.799   0.886  12.814  0.2232 -0.1050 -0.2167
 6243SOL    HW130362   1.882   0.881  12.861  0.4855  1.2631 -0.5267
 6243SOL    HW230363   1.804   0.850  12.726 -0.4805 -0.9371  0.0786
 6244SOL     OW30364   2.639   1.953   1.403 -0.3262  0.1333  0.4466
 6244SOL    HW130365   2.575   2.024   1.395 -1.3997 -0.7641  1.1616
 6244SOL    HW230366   2.601   1.889   1.343 -0.4802  0.0850  0.5966
 6245SOL     OW30367   2.953   0.235   2.795 -0.0766  0.5236  0.0578
 6245SOL    HW130368   2.886   0.251   2.862 -0.0537 -0.0289  0.2071
 6245SOL    HW230369   3.018   0.304   2.812  0.4704 -0.0472  0.2864
 6246SOL     OW30370   3.396   2.297   3.883 -0.0007 -0.5060  0.2908
 6246SOL    HW130371   3.434   2.378   3.848 -2.8206  0.5171 -0.3595
 6246SOL    HW230372   3.452   2.234   3.838 -0.1872 -2.5573  2.9242
 6247SOL     OW30373   1.388   0.149   2.970  0.7183  0.0857 -0.2969
 6247SOL    HW130374   1.417   0.239   2.980  1.8805 -0.2909 -0.2203
 6247SOL    HW230375   1.421   0.113   2.887 -1.5126 -0.0701 -1.1267
 6248SOL     OW30376   0.522   2.037   9.026  0.0389 -0.1971  0.0368
 6248SOL    HW130377   0.476   2.106   8.978 -0.0501  1.7147  2.8350
 6248SOL    HW230378   0.590   2.011   8.965 -0.9610  0.1322 -1.2208
 6249SOL     OW30379   4.674   0.859   4.962 -0.1076 -0.1872  0.2414
 6249SOL    HW130380   0.004   0.818   4.907  0.0037 -1.6683  1.5132
 6249SOL    HW230381   4.711   0.948   4.955 -0.7178  0.0985  0.7136
 6250SOL     OW30382   4.552   0.070   6.255  1.0717 -0.5270 -0.1234
 6250SOL    HW130383   4.618   0.029   6.310  2.2385  1.2982 -0.1593
 6250SOL    HW230384   4.480   0.007   6.263  1.0932 -0.6905 -1.1765
 6251SOL     OW30385   2.923   2.293   4.159  0.0079  0.3315  0.3001
 6251SOL    HW130386   3.001   2.314   4.211  1.7327  0.7450 -2.4805
 6251SOL    HW230387   2.860   2.270   4.228  1.0694 -2.1692  0.4317
 6252SOL     OW30388   1.235   3.378   6.175  0.5981 -0.2301 -0.2271
 6252SOL    HW130389   1.172   3.442   6.210  0.6974 -1.3665  2.0386
 6252SOL    HW230390   1.200   3.357   6.089 -0.0127 -1.3880  0.3099
 6253SOL     OW30391   0.188   0.331  15.472  0.3098  0.0548 -0.6854
 6253SOL    HW130392   0.169   0.239  15.454 -0.5456  0.1873 -0.4283
 6253SOL    HW230393   0.109   0.360  15.518  0.5391  0.9841 -0.8646
 6254SOL     OW30394   4.415   3.746   4.068  0.3091 -0.1789 -0.4175
 6254SOL    HW130395   4.493   3.732   4.121 -0.0535  1.3860  0.5322
 6254SOL    HW230396   4.372   3.817   4.117  0.6957  0.4209 -0.9455
 6255SOL     OW30397   2.419   1.448   7.980  0.2089 -0.8259 -0.7102
 6255SOL    HW130398   2.514   1.460   7.982  0.3013 -1.5189 -0.7458
 6255SOL    HW230399   2.399   1.467   8.072 -0.7141 -0.2171 -1.0441
 6256SOL     OW30400   4.293   4.479   2.561 -0.4561 -0.9230  0.0899
 6256SOL    HW130401   4.337   4.491   2.477 -0.1651  0.4109  0.4335
 6256SOL    HW230402   4.316   4.561   2.604 -1.5467 -0.4688 -0.1786
 6257SOL     OW30403   3.244   4.226   8.628  0.7154 -0.3753 -0.5514
 6257SOL    HW130404   3.228   4.133   8.615 -1.0694 -0.3425  1.4322
 6257SOL    HW230405   3.185   4.251   8.699  1.4531  0.3879 -0.2041
 6258SOL     OW30406   3.999   3.266  16.871 -0.6762  0.1909 -0.0612
 6258SOL    HW130407   4.005   3.211  16.793  1.0424 -2.2986  1.8048
 6258SOL    HW230408   3.936   3.331  16.841 -1.2109 -0.1074  0.4158
 6259SOL     OW30409   2.153   4.619   1.856  0.1498  0.1080  0.1741
 6259SOL    HW130410   2.215   4.653   1.792 -1.9307 -1.2254 -2.5472
 6259SOL    HW230411   2.076   4.607   1.801 -0.5937 -1.4133  1.5534
 6260SOL     OW30412   2.146   3.132   8.658  0.5848 -0.1589 -0.4741
 6260SOL    HW130413   2.134   3.203   8.595 -2.2373 -1.2838 -1.2176
 6260SOL    HW230414   2.052   3.125   8.673  0.9755 -2.4927  0.9389
 6261SOL     OW30415   2.129   1.925   0.906  0.2237  0.3695  0.3648
 6261SOL    HW130416   2.145   1.851   0.964 -0.1507  0.7260  0.9287
 6261SOL    HW230417   2.039   1.907   0.879  0.7849 -1.9295  0.0323
 6262SOL     OW30418   0.189   3.181   4.375  0.2816  0.2414 -0.0756
 6262SOL    HW130419   0.173   3.174   4.281 -0.2556  0.4902 -0.0022
 6262SOL    HW230420   0.284   3.193   4.375  0.5007 -1.4131  2.0004
 6263SOL     OW30421   0.691   0.990  11.784 -0.1664  0.1935 -0.1673
 6263SOL    HW130422   0.696   1.056  11.716  2.1750 -0.9861 -1.1501
 6263SOL    HW230423   0.729   0.916  11.736  1.3747  0.4018  0.7498
 6264SOL     OW30424   4.680   3.993   8.241 -0.3491 -0.3074 -0.1524
 6264SOL    HW130425   4.607   3.997   8.179  1.0572 -1.0032 -1.8462
 6264SOL    HW230426   4.643   4.055   8.305  1.3307 -1.6622  2.1091
 6265SOL     OW30427   2.353   4.020   0.210  0.9499  0.0673  0.3483
 6265SOL    HW130428   2.287   4.077   0.171  1.2136 -0.1180 -0.3606
 6265SOL    HW230429   2.438   4.057   0.185  2.0266 -1.4166  1.8159
 6266SOL     OW30430   3.951   1.291   2.148  0.1603  0.2584  0.1892
 6266SOL    HW130431   3.932   1.332   2.232 -2.3341  0.0351 -0.2756
 6266SOL    HW230432   4.030   1.239   2.159  1.0176  1.2701 -1.1336
 6267SOL     OW30433   0.167   1.786  15.325  0.3058  0.1010 -0.8273
 6267SOL    HW130434   0.077   1.785  15.358  0.3928  2.0678 -0.5777
 6267SOL    HW230435   0.197   1.876  15.330  1.7321 -0.2899 -2.0972
 6268SOL     OW30436   4.709   1.223  15.039  0.5718 -0.0583  0.6913
 6268SOL    HW130437   4.618   1.194  15.031  0.6445  0.8286 -3.4879
 6268SOL    HW230438   4.695   1.317  15.027  1.4600 -0.0607 -0.4332
 6269SOL     OW30439   1.815   0.628   3.970 -0.2941  0.5886  0.2414
 6269SOL    HW130440   1.842   0.540   3.943  2.0058  1.5459 -0.5602
 6269SOL    HW230441   1.773   0.616   4.055  2.3072 -2.8345  1.0282
 6270SOL     OW30442   2.951   2.428   6.402 -0.4726  0.0263  0.2517
 6270SOL    HW130443   2.932   2.337   6.428 -0.2028  0.0982  0.7078
 6270SOL    HW230444   2.920   2.477   6.478  0.7722  1.5995 -0.2625
 6271SOL     OW30445   4.372   3.540  16.997  0.8567 -0.2787  0.6294
 6271SOL    HW130446   4.372   3.619  16.943  0.3708 -0.9475 -0.3393
 6271SOL    HW230447   4.277   3.542  17.003  0.9637 -0.3239  2.2793
 6272SOL     OW30448   3.177   0.232   7.865 -0.5545  0.0985  0.5165
 6272SOL    HW130449   3.179   0.310   7.920 -0.2825 -0.0272  0.6877
 6272SOL    HW230450   3.239   0.169   7.901 -1.2211 -1.1638 -0.5207
 6273SOL     OW30451   4.732   3.310  14.156 -0.4059 -0.1933 -0.0826
 6273SOL    HW130452   4.719   3.343  14.245  0.5681  0.6272 -0.2482
 6273SOL    HW230453   4.641   3.301  14.126  0.2496 -2.5641 -1.4061
 6274SOL     OW30454   2.657   0.656  15.500 -0.5403  0.1028  0.1049
 6274SOL    HW130455   2.663   0.584  15.438  0.7397 -1.2459  1.7707
 6274SOL    HW230456   2.563   0.673  15.496 -0.7395 -1.0854 -0.3091
 6275SOL     OW30457   3.279   1.455   5.849 -0.1992 -0.1117  0.5547
 6275SOL    HW130458   3.311   1.374   5.809 -2.9727 -0.1460 -1.5779
 6275SOL    HW230459   3.259   1.415   5.934  0.7818  0.9273  1.2703
 6276SOL     OW30460   3.112   2.627   5.937  0.3767 -0.3573 -0.5854
 6276SOL    HW130461   3.125   2.597   6.027 -1.7758  1.1624  0.2396
 6276SOL    HW230462   3.145   2.552   5.887  3.3844  1.5856 -1.5742
 6277SOL     OW30463   0.813   2.533   7.146  0.0828 -0.4665 -0.3181
 6277SOL    HW130464   0.745   2.559   7.208  0.2814  1.4951 -0.9313
 6277SOL    HW230465   0.806   2.438   7.154 -0.6723 -0.3876 -0.0527
 6278SOL     OW30466   1.364   0.818   7.936 -0.1539 -0.1368  0.5605
 6278SOL    HW130467   1.385   0.892   7.878  0.5123 -0.2141  0.7020
 6278SOL    HW230468   1.373   0.865   8.020 -1.9997  4.2770 -1.7009
 6279SOL     OW30469   3.333   2.356   3.313 -0.5054  0.4442 -0.2839
 6279SOL    HW130470   3.270   2.302   3.361  0.6475  0.5988  1.3859
 6279SOL    HW230471   3.327   2.316   3.226 -0.5434  1.3073 -0.6781
 6280SOL     OW30472   3.541   1.961   8.555 -0.2558 -0.1829 -0.4317
 6280SOL    HW130473   3.540   2.020   8.480 -2.3319  0.3971  0.0521
 6280SOL    HW230474   3.527   2.023   8.627 -1.7220 -3.5844  2.2193
 6281SOL     OW30475   2.507   2.066   3.230 -0.0021 -0.6335 -0.0773
 6281SOL    HW130476   2.505   2.160   3.248  0.3636 -0.2445 -2.0546
 6281SOL    HW230477   2.571   2.044   3.298 -0.1423  0.3588  0.3851
 6282SOL     OW30478   0.528   0.165  14.449  0.0919  0.0825 -0.2166
 6282SOL    HW130479   0.462   0.158  14.380  0.4445 -2.3769 -0.3221
 6282SOL    HW230480   0.496   0.096  14.508 -1.0168  0.7894 -0.0125
 6283SOL     OW30481   0.124   0.915   7.249 -0.9662  0.6262 -0.2216
 6283SOL    HW130482   0.038   0.901   7.209 -0.7627 -1.4949  0.0951
 6283SOL    HW230483   0.171   0.833   7.232 -1.8259 -0.3862  2.3813
 6284SOL     OW30484   3.911   1.790   9.651 -0.0398 -0.4000  0.2767
 6284SOL    HW130485   3.829   1.741   9.649 -1.3337  1.8019  0.0831
 6284SOL    HW230486   3.970   1.716   9.635 -0.6663 -0.5854 -1.1717
 6285SOL     OW30487   0.814   0.512   1.529  0.1103  0.6486 -0.3758
 6285SOL    HW130488   0.903   0.475   1.522  0.2149  0.8455 -0.0871
 6285SOL    HW230489   0.754   0.447   1.492  0.1937 -0.0558  0.7084
 6286SOL     OW30490   2.225   4.607   4.192 -0.4349 -0.2466 -0.0669
 6286SOL    HW130491   2.180   4.691   4.180  0.4815  0.1595 -0.7135
 6286SOL    HW230492   2.312   4.636   4.220 -0.3520 -1.6599  1.1146
 6287SOL     OW30493   3.170   2.291   1.192  0.6446  0.6288  0.5870
 6287SOL    HW130494   3.102   2.359   1.200 -1.0442 -0.9734 -0.0353
 6287SOL    HW230495   3.121   2.236   1.131 -2.6982  4.3846 -0.1560
 6288SOL     OW30496   2.449   2.880  15.953 -0.1024  0.7195 -0.5412
 6288SOL    HW130497   2.532   2.834  15.958 -0.1945  0.5555 -0.5184
 6288SOL    HW230498   2.382   2.815  15.976 -0.2855  2.2806  3.4308
 6289SOL     OW30499   1.343   4.096   3.579  0.1467 -0.6726  0.3793
 6289SOL    HW130500   1.253   4.070   3.600  0.1056  0.8987  2.2285
 6289SOL    HW230501   1.388   4.097   3.664 -1.6886  0.3024  1.3541
 6290SOL     OW30502   1.759   2.390   5.191  0.1656 -0.8603 -0.2932
 6290SOL    HW130503   1.835   2.426   5.236  0.8426 -1.2819 -1.0900
 6290SOL    HW230504   1.783   2.410   5.100 -0.1645 -0.0460 -0.2012
 6291SOL     OW30505   3.775   1.808   8.639  0.3352  0.1364 -0.3893
 6291SOL    HW130506   3.817   1.816   8.553 -1.9254  1.3614 -1.3803
 6291SOL    HW230507   3.684   1.828   8.616  0.1543 -0.9806 -0.6533
 6292SOL     OW30508   3.061   1.447   5.467  0.7147 -0.2606  0.1735
 6292SOL    HW130509   3.044   1.532   5.426 -0.8723 -1.1257 -0.9711
 6292SOL    HW230510   2.979   1.403   5.448 -0.2648  1.4565  0.4586
 6293SOL     OW30511   1.328   4.080   7.567 -0.2761 -0.4280 -0.0339
 6293SOL    HW130512   1.373   4.057   7.648 -0.6294 -0.0901  0.2516
 6293SOL    HW230513   1.395   4.132   7.521 -0.0348  0.4962  1.3786
 6294SOL     OW30514   4.523   3.093   7.566  0.5244 -0.8290  0.2118
 6294SOL    HW130515   4.553   3.099   7.476  0.6500 -1.9408  0.1731
 6294SOL    HW230516   4.513   2.998   7.573 -1.7041 -0.5707  0.5774
 6295SOL     OW30517   0.312   0.168   7.217  0.7808 -0.4721  0.1385
 6295SOL    HW130518   0.403   0.196   7.224  0.4827  0.3085  0.8035
 6295SOL    HW230519   0.298   0.085   7.262  1.6439 -0.5955  0.1767
 6296SOL     OW30520   0.713   3.688  13.927  0.0345  0.2023 -0.0449
 6296SOL    HW130521   0.721   3.616  13.990 -1.6187  0.4848  0.5063
 6296SOL    HW230522   0.718   3.640  13.844  0.0621 -0.4357  0.3287
 6297SOL     OW30523   4.121   4.047   0.490  0.0775 -0.6173  0.4201
 6297SOL    HW130524   4.197   4.032   0.433 -1.0132 -1.0175 -0.9233
 6297SOL    HW230525   4.069   3.967   0.483 -1.1193  0.2288 -0.2076
 6298SOL     OW30526   2.796   2.516   4.018  0.1042  0.3000 -0.7059
 6298SOL    HW130527   2.723   2.465   4.053  1.8486 -2.2833 -0.7925
 6298SOL    HW230528   2.863   2.451   4.042 -1.0566 -0.9056 -0.7573
 6299SOL     OW30529   2.058   1.486   5.751 -0.1784  0.3925  0.1243
 6299SOL    HW130530   2.086   1.412   5.804  2.4299  0.3347 -1.3558
 6299SOL    HW230531   2.036   1.449   5.665 -2.0275  0.9170  0.3739
 6300SOL     OW30532   4.439   1.995   3.716  0.3257 -0.1997  0.3874
 6300SOL    HW130533   4.423   2.049   3.793  0.5246 -0.1054  0.3620
 6300SOL    HW230534   4.407   1.908   3.738  0.6829 -0.8378 -1.6138
 6301SOL     OW30535   1.183   3.600   2.394  0.3635  0.2018  0.3305
 6301SOL    HW130536   1.231   3.640   2.467 -0.1086  1.5256 -0.0866
 6301SOL    HW230537   1.205   3.508   2.413 -1.6299 -0.6658 -1.6096
 6302SOL     OW30538   4.127   1.571   4.333 -0.2384  0.2683 -0.1497
 6302SOL    HW130539   4.116   1.482   4.299  1.7384 -0.0215 -0.0301
 6302SOL    HW230540   4.039   1.606   4.317 -0.3413  0.4238  0.7285
 6303SOL     OW30541   2.235   3.799   0.855  0.8675 -0.2617  0.1573
 6303SOL    HW130542   2.234   3.862   0.783  0.3726 -1.2777 -0.7287
 6303SOL    HW230543   2.176   3.842   0.917  0.0211 -1.7012  0.3671
 6304SOL     OW30544   2.972   3.454   6.776 -0.2475 -0.5322  0.1670
 6304SOL    HW130545   2.963   3.360   6.758  0.3893 -0.0700 -2.5587
 6304SOL    HW230546   3.065   3.454   6.799 -0.1914  0.4114 -0.0541
 6305SOL     OW30547   0.816   3.328   7.547  0.3199  0.0858  0.1764
 6305SOL    HW130548   0.900   3.294   7.518 -0.5279  1.1162 -3.5734
 6305SOL    HW230549   0.828   3.423   7.540 -1.4215  0.3605  0.9188
 6306SOL     OW30550   3.758   3.250  15.571  1.0295  0.8980 -0.1115
 6306SOL    HW130551   3.741   3.344  15.564 -0.4120  0.6598  0.2052
 6306SOL    HW230552   3.853   3.256  15.582  1.1165 -0.5957 -0.0290
 6307SOL     OW30553   0.779   1.946   9.202 -0.8565  0.3397  0.6059
 6307SOL    HW130554   0.732   1.875   9.245 -1.1743 -0.0150 -0.3403
 6307SOL    HW230555   0.811   1.895   9.128  2.1909  1.5359  1.0749
 6308SOL     OW30556   2.343   3.203   7.885 -0.6191  0.5070  0.3235
 6308SOL    HW130557   2.405   3.143   7.843 -2.2055  0.0620 -1.3935
 6308SOL    HW230558   2.353   3.191   7.979 -2.5231  3.5523  0.9063
 6309SOL     OW30559   0.514   1.615   3.655 -0.0674  0.0134  0.0483
 6309SOL    HW130560   0.471   1.536   3.621  1.1493 -1.1396  1.1781
 6309SOL    HW230561   0.602   1.578   3.667  0.4112  0.5243 -1.7639
 6310SOL     OW30562   2.612   3.098   8.425 -0.0298  1.0390 -0.3099
 6310SOL    HW130563   2.548   3.165   8.448 -1.5411  0.0799 -1.7640
 6310SOL    HW230564   2.559   3.021   8.404 -0.5877  1.2742  0.2226
 6311SOL     OW30565   0.015   2.178   7.868  0.1005 -0.0647 -0.0688
 6311SOL    HW130566   4.693   2.168   7.794 -0.1178 -0.1372  0.1137
 6311SOL    HW230567   0.058   2.094   7.853  0.7680  0.5454 -1.5890
 6312SOL     OW30568   1.266   1.823   2.377  0.0033 -0.4921 -0.2992
 6312SOL    HW130569   1.198   1.862   2.431  0.5408 -1.7843  1.3242
 6312SOL    HW230570   1.245   1.856   2.290  0.2279 -0.9708 -0.5350
 6313SOL     OW30571   3.190   1.046  11.644 -0.6464  0.3729  0.2199
 6313SOL    HW130572   3.106   1.002  11.648 -0.7543  0.4676 -0.9676
 6313SOL    HW230573   3.175   1.118  11.582 -0.9544 -0.2697 -0.4544
 6314SOL     OW30574   1.572   0.803   0.529 -0.0956 -0.2606  0.2866
 6314SOL    HW130575   1.604   0.745   0.460  1.9217  0.3391  0.7146
 6314SOL    HW230576   1.629   0.880   0.525 -1.6055  0.7842 -1.1678
 6315SOL     OW30577   3.369   1.689   2.262  0.2599 -0.0238  0.0476
 6315SOL    HW130578   3.324   1.706   2.345 -1.9440  0.6569 -1.2774
 6315SOL    HW230579   3.390   1.776   2.228 -0.0775 -0.6630 -1.7751
 6316SOL     OW30580   2.408   0.274   5.296  0.3255  0.2083  0.3430
 6316SOL    HW130581   2.441   0.185   5.310  1.0130  0.2972 -0.6211
 6316SOL    HW230582   2.479   0.326   5.334  1.5694 -1.9169  0.9271
 6317SOL     OW30583   2.775   0.121   1.535  0.2415  0.0401  0.4879
 6317SOL    HW130584   2.753   0.044   1.483  0.5883 -0.3312  0.8940
 6317SOL    HW230585   2.695   0.173   1.535  0.6464  0.6602 -0.9148
 6318SOL     OW30586   0.166   4.012   4.680  0.3374  0.3943 -0.3310
 6318SOL    HW130587   0.102   4.059   4.626  0.7078 -1.9056 -2.7564
 6318SOL    HW230588   0.120   4.001   4.763 -2.0901 -1.5704 -1.9699
 6319SOL     OW30589   4.446   4.659   3.714 -0.2977  0.5926  0.0599
 6319SOL    HW130590   4.427   4.661   3.621  1.4736  3.1590 -0.2478
 6319SOL    HW230591   4.410   4.572   3.729  2.5159 -0.4839  0.5577
 6320SOL     OW30592   3.620   3.799   5.636  0.1618  0.1221  0.4239
 6320SOL    HW130593   3.633   3.745   5.558 -2.1897  0.3460 -0.1197
 6320SOL    HW230594   3.529   3.829   5.632  0.1291 -0.1283 -0.7839
 6321SOL     OW30595   0.680   0.725  13.837 -0.2924  0.0425  0.5579
 6321SOL    HW130596   0.632   0.791  13.887 -0.2159  0.2835  0.3162
 6321SOL    HW230597   0.767   0.761  13.853  0.1800 -0.1209 -1.5935
 6322SOL     OW30598   0.702   2.884   5.735  0.0920 -0.4763  0.0419
 6322SOL    HW130599   0.662   2.895   5.649  1.8694  3.2939 -0.3131
 6322SOL    HW230600   0.739   2.970   5.753 -1.3941  0.3254 -0.7101
 6323SOL     OW30601   3.420   2.821   5.982 -0.0832  0.3030  0.8826
 6323SOL    HW130602   3.433   2.815   5.887  1.0192 -0.8499  1.1116
 6323SOL    HW230603   3.464   2.739   6.004  0.2262  0.8834  2.3733
 6324SOL     OW30604   4.333   2.648  17.026  0.1355 -0.6205 -0.4719
 6324SOL    HW130605   4.319   2.580  17.091  1.7380  0.2911  0.8521
 6324SOL    HW230606   4.266   2.714  17.044  1.0195  0.1064  0.2104
 6325SOL     OW30607   3.304   1.932   8.740 -0.7337  0.4137 -0.3118
 6325SOL    HW130608   3.341   1.878   8.670 -0.7099 -0.3081  0.2513
 6325SOL    HW230609   3.357   2.010   8.755  0.7078 -1.0094  2.0149
 6326SOL     OW30610   1.259   0.597  16.909  0.4509  0.3216  0.3175
 6326SOL    HW130611   1.264   0.510  16.869  0.5563  0.3008  0.3760
 6326SOL    HW230612   1.227   0.642  16.831  0.1960 -1.2862 -0.5152
 6327SOL     OW30613   3.922   1.661  14.834  0.5045  0.0611 -0.4627
 6327SOL    HW130614   3.937   1.591  14.771  4.1271  1.9550 -1.7066
 6327SOL    HW230615   3.958   1.626  14.915 -0.3014  1.7548  0.6238
 6328SOL     OW30616   3.407   3.095   7.832 -0.4862  0.2976  0.3197
 6328SOL    HW130617   3.455   3.024   7.875 -0.9430  0.5343  1.2318
 6328SOL    HW230618   3.339   3.111   7.898 -1.5438 -2.1757 -0.1841
 6329SOL     OW30619   3.590   2.498   6.998  0.2082 -0.4808  0.4041
 6329SOL    HW130620   3.543   2.419   6.972  1.4816 -1.3618  0.7852
 6329SOL    HW230621   3.531   2.558   6.953  1.1738  0.6128  0.5994
 6330SOL     OW30622   2.006   0.349   0.119  0.2176  0.2290  0.1512
 6330SOL    HW130623   1.982   0.404   0.193  1.0979 -2.1777  2.2130
 6330SOL    HW230624   2.079   0.301   0.157  0.8763 -0.7177 -2.2895
 6331SOL     OW30625   0.871   3.836   2.519 -0.6245  0.4031 -0.0715
 6331SOL    HW130626   0.882   3.928   2.546  1.2647  0.6649 -1.7317
 6331SOL    HW230627   0.859   3.792   2.603  1.0805 -0.4189 -0.2459
 6332SOL     OW30628   0.350   0.404   3.538  0.2513 -0.4469  0.1136
 6332SOL    HW130629   0.365   0.474   3.602  1.1481 -1.4525  0.9987
 6332SOL    HW230630   0.382   0.331   3.590 -0.0770 -0.0546  0.8701
 6333SOL     OW30631   3.007   1.319   0.215  0.0641 -0.1070  0.4003
 6333SOL    HW130632   3.073   1.300   0.148  1.2546 -2.0232  2.1307
 6333SOL    HW230633   3.064   1.352   0.284 -0.5354  0.8575  0.4386
 6334SOL     OW30634   3.914   3.333   4.034 -0.3281  0.0421 -0.3589
 6334SOL    HW130635   4.001   3.372   4.036 -1.1368  1.8892 -0.9421
 6334SOL    HW230636   3.938   3.244   4.061 -1.8761 -0.2459  0.0512
 6335SOL     OW30637   3.917   0.435   3.611 -0.6986 -0.0626 -0.1611
 6335SOL    HW130638   3.913   0.421   3.705 -0.5805 -2.6762 -0.5413
 6335SOL    HW230639   3.852   0.505   3.601 -0.8377  0.1172  2.1299
 6336SOL     OW30640   3.119   2.995  10.757 -0.3138  0.6127 -0.0595
 6336SOL    HW130641   3.182   2.923  10.759 -0.1373  0.6808 -2.9705
 6336SOL    HW230642   3.156   3.061  10.817  1.3228  0.1409 -0.5657
 6337SOL     OW30643   2.563   1.964   4.340  0.0017 -0.1769  0.1619
 6337SOL    HW130644   2.635   2.018   4.373  1.1357 -1.6926  0.1575
 6337SOL    HW230645   2.512   1.940   4.417  0.7432  0.0864  0.7316
 6338SOL     OW30646   0.472   4.181   8.884 -0.0707  0.7999 -0.3815
 6338SOL    HW130647   0.381   4.188   8.855  0.6649  0.4861 -2.7401
 6338SOL    HW230648   0.514   4.171   8.798 -2.6117  1.5233 -1.7103
 6339SOL     OW30649   2.753   4.161   7.260 -0.4222 -0.5682 -0.3692
 6339SOL    HW130650   2.722   4.120   7.180 -0.7610 -1.9448  0.4604
 6339SOL    HW230651   2.810   4.225   7.218 -1.5944  0.3554 -0.5517
 6340SOL     OW30652   3.476   4.201   7.767 -0.6073 -0.1328 -0.0920
 6340SOL    HW130653   3.457   4.293   7.786 -2.5740 -0.2387 -1.5685
 6340SOL    HW230654   3.414   4.173   7.700 -2.3299 -0.4736  1.6423
 6341SOL     OW30655   1.597   0.042   7.399  0.2142  0.7500 -0.3741
 6341SOL    HW130656   1.613   4.698   7.446 -2.4145  0.8772  0.7629
 6341SOL    HW230657   1.613   0.109   7.465  1.8801  1.0042 -1.0419
 6342SOL     OW30658   3.917   2.929   8.300 -0.0082 -0.1900  0.2058
 6342SOL    HW130659   3.917   3.009   8.248  2.4152  1.5322  2.8665
 6342SOL    HW230660   3.863   2.867   8.250  0.4585  0.0178 -0.5531
 6343SOL     OW30661   1.439   1.703   8.449  0.2407  0.1908 -0.0867
 6343SOL    HW130662   1.458   1.754   8.528 -0.2418  1.9563 -1.1297
 6343SOL    HW230663   1.514   1.731   8.397  1.7863 -0.6784  1.6339
 6344SOL     OW30664   4.560   2.686   6.307 -0.1653 -0.3236  0.0436
 6344SOL    HW130665   4.646   2.650   6.329 -0.4770 -0.0143  1.7411
 6344SOL    HW230666   4.568   2.696   6.212  0.0450 -0.6608  0.0257
 6345SOL     OW30667   4.552   2.499   8.448  0.6587 -0.3033  0.3650
 6345SOL    HW130668   4.571   2.462   8.362 -0.1042  1.7669 -0.7036
 6345SOL    HW230669   4.517   2.427   8.500 -0.1143 -0.7247 -0.7274
 6346SOL     OW30670   4.669   1.262  16.738 -0.0893  0.3250  0.6032
 6346SOL    HW130671   4.598   1.254  16.675 -0.8515 -0.0314  1.4965
 6346SOL    HW230672   4.721   1.186  16.711  1.5826  0.0564  4.4556
 6347SOL     OW30673   3.570   2.191   8.986 -0.3855  0.3326 -0.1403
 6347SOL    HW130674   3.585   2.286   8.988 -1.8756  0.5626 -0.4219
 6347SOL    HW230675   3.602   2.176   9.075  1.8046 -0.4590 -1.0471
 6348SOL     OW30676   1.818   0.033   1.788  0.4540 -0.3784  0.1365
 6348SOL    HW130677   1.842   0.071   1.872  1.2826  0.0129 -0.2715
 6348SOL    HW230678   1.762   4.702   1.824 -1.9759  1.2089 -0.6695
 6349SOL     OW30679   3.492   3.597  13.171 -1.0609  0.6022  0.4887
 6349SOL    HW130680   3.561   3.649  13.129 -0.4486 -1.1951 -0.7315
 6349SOL    HW230681   3.459   3.660  13.235 -2.6073 -1.1635  1.4179
 6350SOL     OW30682   1.856   0.474   1.641  0.2734 -0.1080 -0.3867
 6350SOL    HW130683   1.790   0.406   1.629 -2.4941  2.3503  0.9481
 6350SOL    HW230684   1.809   0.550   1.606  0.5115 -0.0795 -0.6477
 6351SOL     OW30685   1.589   4.734  12.177 -0.3998 -0.3248 -0.0649
 6351SOL    HW130686   1.507   0.041  12.155 -2.0748 -2.9651  0.9826
 6351SOL    HW230687   1.560   4.644  12.165 -1.7854  0.4536 -2.6251
 6352SOL     OW30688   1.969   4.684   4.993 -0.8879  0.0864  0.0057
 6352SOL    HW130689   2.029   4.726   4.931  1.1243 -1.9192  0.5882
 6352SOL    HW230690   1.889   4.661   4.946 -1.0979 -1.0227  0.9022
 6353SOL     OW30691   2.153   1.198   8.113 -0.7810  0.0425 -0.1029
 6353SOL    HW130692   2.070   1.225   8.153 -0.4281  1.1388 -0.1349
 6353SOL    HW230693   2.210   1.187   8.189 -0.4395 -1.1999 -0.5368
 6354SOL     OW30694   0.998   3.913   2.966 -0.4210  0.0228 -0.0164
 6354SOL    HW130695   0.994   3.998   3.010 -0.2643 -0.0252  0.0902
 6354SOL    HW230696   1.052   3.944   2.894 -1.5395  0.6315 -0.5991
 6355SOL     OW30697   0.596   1.916   5.901 -0.4586  0.1792 -0.2501
 6355SOL    HW130698   0.650   1.944   5.827  0.5649 -0.7559  0.1484
 6355SOL    HW230699   0.625   1.827   5.922 -0.5752  0.2200  0.0818
 6356SOL     OW30700   2.035   0.572  17.440 -0.2146  0.1306 -0.5313
 6356SOL    HW130701   1.986   0.632  17.496  0.2101 -1.0369  1.0520
 6356SOL    HW230702   1.973   0.556  17.368 -0.5275  1.3724 -0.5499
 6357SOL     OW30703   3.283   4.179   4.180  0.2707 -0.4421 -0.2014
 6357SOL    HW130704   3.307   4.179   4.088 -4.8106  1.5472 -1.5247
 6357SOL    HW230705   3.359   4.136   4.219  0.5450  0.6729  0.5076
 6358SOL     OW30706   1.632   3.800  12.592  0.7086 -0.3755  0.0574
 6358SOL    HW130707   1.548   3.758  12.611 -0.4778  2.0984  0.3098
 6358SOL    HW230708   1.588   3.875  12.551  0.0408 -0.0395  1.4016
 6359SOL     OW30709   2.827   0.646   5.270  0.5097  0.3390  0.1698
 6359SOL    HW130710   2.780   0.730   5.267 -1.1961 -0.6132 -0.0314
 6359SOL    HW230711   2.864   0.633   5.183  1.1715  1.3639  0.3020
 6360SOL     OW30712   3.476   2.065   9.656  0.3323 -0.5185 -0.4997
 6360SOL    HW130713   3.393   2.094   9.619 -0.2151 -0.1904  1.0073
 6360SOL    HW230714   3.536   2.139   9.640  0.7248 -0.9948 -1.2145
 6361SOL     OW30715   4.558   2.148   1.695  0.4582 -0.2005 -0.0846
 6361SOL    HW130716   4.496   2.221   1.698  0.5874 -0.0787 -0.3303
 6361SOL    HW230717   4.635   2.205   1.686  1.0814 -0.9415  0.5600
 6362SOL     OW30718   3.842   3.014   2.324  0.1846  0.4352 -0.1401
 6362SOL    HW130719   3.834   3.080   2.393  1.3167 -0.8710  1.2700
 6362SOL    HW230720   3.864   2.936   2.376 -0.1908 -0.6983 -1.6749
 6363SOL     OW30721   2.436   3.790   3.168  0.3201 -0.3511 -0.0119
 6363SOL    HW130722   2.369   3.735   3.209  0.2998 -1.1264 -1.0887
 6363SOL    HW230723   2.391   3.807   3.085  1.0223  1.0297 -0.0992
 6364SOL     OW30724   0.129   0.272  11.967  0.4814  0.3444  0.2236
 6364SOL    HW130725   0.155   0.193  11.920  0.7499  0.7147 -0.2450
 6364SOL    HW230726   0.211   0.318  11.986  0.0867  1.1986 -0.1608
 6365SOL     OW30727   3.257   0.362   4.819 -0.0480 -0.0203  0.4048
 6365SOL    HW130728   3.262   0.267   4.821  0.6342  0.0284  0.9637
 6365SOL    HW230729   3.220   0.375   4.907 -1.9434  0.5662 -0.4733
 6366SOL     OW30730   0.655   3.712   9.893 -0.0501  0.0187  0.4391
 6366SOL    HW130731   0.668   3.775   9.964  2.2825  0.2338 -0.1796
 6366SOL    HW230732   0.641   3.636   9.950 -2.1528  0.3447  0.3503
 6367SOL     OW30733   1.541   0.589   9.003  0.0937 -0.0640 -0.1699
 6367SOL    HW130734   1.579   0.657   8.948 -0.2629  0.4543  0.2220
 6367SOL    HW230735   1.586   0.598   9.088 -1.3878  3.1234  0.2962
 6368SOL     OW30736   1.921   1.500   7.983  0.3500  0.5366  0.3011
 6368SOL    HW130737   1.871   1.515   7.903  0.0313 -1.4833  0.1109
 6368SOL    HW230738   2.007   1.514   7.944  0.1723 -2.4273 -1.1420
 6369SOL     OW30739   2.294   4.090   6.499  0.3493 -0.6762  0.1777
 6369SOL    HW130740   2.330   4.150   6.435 -1.1334  0.4251  0.3730
 6369SOL    HW230741   2.371   4.052   6.542  0.4980  0.2851  0.7667
 6370SOL     OW30742   1.157   0.511   3.879 -0.1045  0.1823 -0.4053
 6370SOL    HW130743   1.210   0.579   3.838 -0.1361  1.1224  1.0968
 6370SOL    HW230744   1.104   0.568   3.934 -0.3815 -1.0246  0.5649
 6371SOL     OW30745   3.559   2.555   4.976 -0.3822 -0.5170 -0.3325
 6371SOL    HW130746   3.472   2.596   4.974  0.6546  1.7016  0.7306
 6371SOL    HW230747   3.576   2.556   5.070  0.3060  0.2818 -0.4639
 6372SOL     OW30748   2.674   1.098   4.926 -0.0643 -0.4012 -0.1829
 6372SOL    HW130749   2.744   1.035   4.944  2.0046  2.0204  0.2357
 6372SOL    HW230750   2.663   1.075   4.834  0.7375  0.4473 -0.4935
 6373SOL     OW30751   3.477   1.436   8.535 -0.0394 -0.4840  0.2062
 6373SOL    HW130752   3.439   1.521   8.513  0.9381 -0.2046 -0.4064
 6373SOL    HW230753   3.571   1.450   8.550 -0.2293 -1.0228  1.8493
 6374SOL     OW30754   1.494   3.363   7.929 -0.0688 -0.7369 -0.2916
 6374SOL    HW130755   1.535   3.342   8.013  4.3460  1.4958 -1.9289
 6374SOL    HW230756   1.572   3.378   7.877  0.0756 -2.3363 -0.5180
 6375SOL     OW30757   3.072   0.115  10.486  0.2374  0.5212 -0.4964
 6375SOL    HW130758   3.041   0.026  10.502  0.8998  0.5626  1.0924
 6375SOL    HW230759   3.104   0.135  10.574  1.9577  2.0786 -1.4740
 6376SOL     OW30760   0.425   2.239   8.869  0.5308 -0.0145  0.2062
 6376SOL    HW130761   0.436   2.331   8.846  1.4463 -0.7713 -2.3941
 6376SOL    HW230762   0.448   2.195   8.787 -0.6490  4.3016 -2.4468
 6377SOL     OW30763   0.551   4.156   8.625  0.5744 -0.1221  0.1718
 6377SOL    HW130764   0.485   4.127   8.561  0.8873  1.4080 -0.8476
 6377SOL    HW230765   0.563   4.247   8.595  0.0492  0.0347  0.4240
 6378SOL     OW30766   3.354   1.101   7.919 -0.2837 -0.6419 -0.1424
 6378SOL    HW130767   3.407   1.124   7.994 -1.6780 -0.0703  0.6689
 6378SOL    HW230768   3.335   1.188   7.885 -2.0257 -0.4829  1.2341
 6379SOL     OW30769   0.413   2.032  16.196  0.0207  0.2287  0.0444
 6379SOL    HW130770   0.465   2.033  16.116 -1.8527  1.9586 -1.1647
 6379SOL    HW230771   0.473   1.992  16.259  1.2861  2.7547  0.4242
 6380SOL     OW30772   3.547   2.675   4.721  0.0113  0.6893 -0.3160
 6380SOL    HW130773   3.530   2.760   4.681  1.1931  0.9394 -0.2936
 6380SOL    HW230774   3.548   2.703   4.813  0.5117  0.0787 -0.1261
 6381SOL     OW30775   0.916   3.091  11.040  0.4715 -0.3556  0.0076
 6381SOL    HW130776   0.962   3.053  11.115  1.5616 -1.0746 -1.0138
 6381SOL    HW230777   0.955   3.050  10.962  2.2941 -0.3344  0.9039
 6382SOL     OW30778   2.888   0.905   7.387 -0.2301  0.5569 -0.0907
 6382SOL    HW130779   2.955   0.839   7.402 -0.2745  0.5896  0.2596
 6382SOL    HW230780   2.924   0.979   7.437  0.5168  1.0711 -1.3960
 6383SOL     OW30781   1.218   0.639   5.494 -0.0161  0.6693 -0.3303
 6383SOL    HW130782   1.148   0.583   5.462 -0.6656  1.3489 -0.0932
 6383SOL    HW230783   1.187   0.652   5.583 -0.1803 -0.2829 -0.2578
 6384SOL     OW30784   0.521   3.407   0.655  0.1967 -0.0111 -0.3082
 6384SOL    HW130785   0.565   3.363   0.582 -0.4337 -0.2678 -0.5337
 6384SOL    HW230786   0.428   3.393   0.637 -0.2279  1.1572  0.9995
 6385SOL     OW30787   1.304   0.915   3.149  0.1753 -0.3429 -0.2555
 6385SOL    HW130788   1.341   0.926   3.061 -0.5243  0.4066 -0.4548
 6385SOL    HW230789   1.284   0.822   3.147 -0.4958 -0.1983 -0.2180
 6386SOL     OW30790   3.012   1.569   3.686 -0.6758 -0.5189 -0.0952
 6386SOL    HW130791   2.987   1.608   3.770 -0.6279  0.3055 -0.4605
 6386SOL    HW230792   2.940   1.595   3.629 -0.6582 -0.6675 -0.1844
 6387SOL     OW30793   1.553   1.708  17.610 -0.3010 -0.0638 -0.0174
 6387SOL    HW130794   1.458   1.704  17.598 -0.3327 -1.6918  0.7943
 6387SOL    HW230795   1.566   1.616  17.588 -2.3439 -0.2834 -0.3152
 6388SOL     OW30796   0.461   4.318   1.842  0.1900  0.1831 -0.3749
 6388SOL    HW130797   0.451   4.406   1.806  0.2538  0.7004  0.8958
 6388SOL    HW230798   0.373   4.281   1.837  0.5983 -0.5043 -2.6198
 6389SOL     OW30799   3.348   3.617   5.031 -0.4217 -0.2914 -0.2536
 6389SOL    HW130800   3.372   3.532   5.068 -1.5950  0.3277  1.9653
 6389SOL    HW230801   3.286   3.586   4.965 -0.7725  1.2631 -0.6502
 6390SOL     OW30802   0.582   2.428   3.119  0.2858  0.3485  0.0476
 6390SOL    HW130803   0.638   2.435   3.042 -0.9875 -2.3340 -1.1047
 6390SOL    HW230804   0.564   2.520   3.140  2.8125  0.2929  2.4909
 6391SOL     OW30805   4.034   4.279  15.372  0.2160 -0.1041 -0.4538
 6391SOL    HW130806   4.107   4.218  15.377  0.0017 -0.1419  2.7833
 6391SOL    HW230807   4.001   4.261  15.284 -0.9601  0.9091 -0.2219
 6392SOL     OW30808   0.301   4.534   4.783  0.0870  0.0145 -0.4496
 6392SOL    HW130809   0.299   4.483   4.702  0.0938 -0.6175 -0.0475
 6392SOL    HW230810   0.235   4.488   4.835  0.6449  0.7630  0.9216
 6393SOL     OW30811   3.009   3.752   0.111  0.2333  0.2458 -0.3227
 6393SOL    HW130812   3.099   3.769   0.135 -0.5605  2.4045  1.0886
 6393SOL    HW230813   2.980   3.700   0.186 -0.6410 -1.3268 -1.7422
 6394SOL     OW30814   1.590   4.334   5.129  0.1935  0.1283  0.0567
 6394SOL    HW130815   1.595   4.240   5.148 -2.3634  0.0478  0.3690
 6394SOL    HW230816   1.567   4.361   5.218  1.3313 -2.0881  1.0217
 6395SOL     OW30817   0.675   2.042  13.465  0.3819 -0.0250  0.6361
 6395SOL    HW130818   0.715   2.105  13.405 -0.6886 -0.3902 -0.4578
 6395SOL    HW230819   0.585   2.026  13.435 -0.4403  1.2267  2.4063
 6396SOL     OW30820   0.069   4.153   0.401  0.6968  0.2167  0.1733
 6396SOL    HW130821   0.132   4.095   0.358 -2.2757 -0.9651 -2.5768
 6396SOL    HW230822   0.121   4.217   0.449 -1.2525  1.6177  0.3994
 6397SOL     OW30823   3.483   4.024   3.896 -0.2482 -0.0075  0.1041
 6397SOL    HW130824   3.532   4.034   3.814 -0.3402 -1.3757 -0.1187
 6397SOL    HW230825   3.509   3.938   3.930  1.1687  0.3992  0.0548
 6398SOL     OW30826   0.409   2.007  13.239  0.2086  0.5958 -0.3327
 6398SOL    HW130827   0.436   2.046  13.157 -0.4690  0.2188 -0.7323
 6398SOL    HW230828   0.456   1.924  13.252 -0.8550  0.3720  2.0710
 6399SOL     OW30829   3.942   2.183   5.881  0.1009 -0.4523  0.2491
 6399SOL    HW130830   3.908   2.182   5.971  1.1991 -2.4604  0.6653
 6399SOL    HW230831   4.012   2.246   5.894  0.0706 -0.6085  1.2089
 6400SOL     OW30832   3.014   3.707   5.451 -0.0453 -0.2522 -0.2356
 6400SOL    HW130833   3.075   3.743   5.516 -2.8417 -0.2776  2.3688
 6400SOL    HW230834   3.014   3.615   5.477 -0.9456 -0.2822 -0.3562
 6401SOL     OW30835   2.640   2.754   3.309  0.4379 -0.1027  0.2705
 6401SOL    HW130836   2.693   2.678   3.284  0.5229  0.0214  0.0697
 6401SOL    HW230837   2.552   2.728   3.282 -0.0751  0.4605  1.3897
 6402SOL     OW30838   0.835   0.582   7.146  0.2330 -0.4588  0.1078
 6402SOL    HW130839   0.930   0.577   7.148  0.3271  2.6644  2.4473
 6402SOL    HW230840   0.832   0.660   7.091 -1.8804  0.7939  2.0197
 6403SOL     OW30841   2.841   4.455   7.092  0.2609 -0.2394 -0.0137
 6403SOL    HW130842   2.801   4.490   7.172  1.0314  1.4683 -0.3813
 6403SOL    HW230843   2.912   4.516   7.070 -1.7272  1.9019 -0.5552
 6404SOL     OW30844   2.207   3.324  13.725 -0.2816 -0.1424  0.3141
 6404SOL    HW130845   2.143   3.309  13.795 -0.9208 -1.4307 -0.5446
 6404SOL    HW230846   2.270   3.385  13.765  1.4236 -2.0712  0.6049
 6405SOL     OW30847   2.367   0.028   7.875  0.4713  0.0844  0.1128
 6405SOL    HW130848   2.285   0.040   7.828 -0.5782 -3.5746  1.0154
 6405SOL    HW230849   2.376   4.670   7.877  1.4036  0.1502 -0.9493
 6406SOL     OW30850   4.681   0.853  11.054 -0.5747 -0.1593  0.2445
 6406SOL    HW130851   0.037   0.846  11.075  0.2366  1.0542 -2.9973
 6406SOL    HW230852   4.689   0.829  10.962 -1.4635  0.4563  0.0122
 6407SOL     OW30853   4.580   2.212   5.725 -0.0468  0.2722 -0.3540
 6407SOL    HW130854   4.668   2.248   5.714 -0.0560 -0.0482 -1.4843
 6407SOL    HW230855   4.521   2.287   5.721  1.0354  1.1519  0.2331
 6408SOL     OW30856   2.994   1.541   8.022 -0.1360 -0.6533  0.4227
 6408SOL    HW130857   3.076   1.570   8.061  0.0429 -0.7032  0.0805
 6408SOL    HW230858   2.931   1.603   8.058  3.4314  2.7964  0.6229
 6409SOL     OW30859   0.954   0.482   7.597  0.7382 -0.2031  0.3111
 6409SOL    HW130860   0.918   0.395   7.577 -1.9317  0.8095  0.7054
 6409SOL    HW230861   0.973   0.472   7.690  0.9005  2.2860  0.5292
 6410SOL     OW30862   2.966   3.223   0.912  0.3144 -0.3346  0.1096
 6410SOL    HW130863   2.895   3.217   0.976  0.5090 -0.0843  0.3451
 6410SOL    HW230864   3.036   3.231   0.976  0.3958  2.5148 -0.3337
 6411SOL     OW30865   3.089   1.456  13.470  0.0328  0.5023  0.2713
 6411SOL    HW130866   3.163   1.484  13.524  1.6423 -1.5721 -0.8343
 6411SOL    HW230867   3.044   1.540  13.468  1.5191  1.2798 -1.1571
 6412SOL     OW30868   2.410   0.235   4.478  0.0181 -0.0299 -0.8856
 6412SOL    HW130869   2.409   0.251   4.572 -0.4019 -0.5376 -0.8021
 6412SOL    HW230870   2.494   0.268   4.446 -0.0251  0.2901 -0.6671
 6413SOL     OW30871   0.220   3.036   8.361  0.6033 -0.3167  0.5976
 6413SOL    HW130872   0.167   3.044   8.281  1.2486  0.6970  0.2698
 6413SOL    HW230873   0.165   2.999   8.430  3.2847  0.0630  2.9110
 6414SOL     OW30874   4.016   0.659   2.925 -0.2600 -0.1703  0.3289
 6414SOL    HW130875   4.058   0.575   2.942 -0.7078 -1.0683 -3.0355
 6414SOL    HW230876   4.065   0.683   2.846  0.0737 -1.9371  0.0075
 6415SOL     OW30877   0.048   1.536   7.537 -0.5201 -0.4526  0.2976
 6415SOL    HW130878   0.040   1.519   7.443  1.9730 -0.3826  0.0755
 6415SOL    HW230879   0.080   1.453   7.572 -2.5247 -0.7061  1.5253
 6416SOL     OW30880   4.119   3.700   6.416  0.2986  0.2608 -0.2410
 6416SOL    HW130881   4.143   3.783   6.458 -0.5128  0.7395 -0.7365
 6416SOL    HW230882   4.112   3.722   6.324 -1.3541  1.2155  0.1111
 6417SOL     OW30883   0.768   0.772  12.771 -0.3941  0.5398  0.1254
 6417SOL    HW130884   0.824   0.822  12.830  0.0208  0.5509 -0.2788
 6417SOL    HW230885   0.802   0.785  12.683  0.9308  0.6908  0.6624
 6418SOL     OW30886   2.150   3.776   8.551 -0.1011  0.1421 -0.0385
 6418SOL    HW130887   2.096   3.854   8.535 -0.5318 -0.1812 -0.1589
 6418SOL    HW230888   2.105   3.745   8.630  1.0939 -2.5939 -0.4584
 6419SOL     OW30889   1.668   2.872   7.382  0.5822 -0.3354  0.3144
 6419SOL    HW130890   1.727   2.946   7.397 -2.9153  2.8314 -1.7856
 6419SOL    HW230891   1.614   2.901   7.309  1.6951  0.5219 -0.1713
 6420SOL     OW30892   0.081   0.915  11.376 -0.0693  0.1885 -0.2649
 6420SOL    HW130893   0.143   0.957  11.435 -1.6307  2.5724 -0.3204
 6420SOL    HW230894   0.122   0.932  11.291 -0.0113 -4.8822 -1.2509
 6421SOL     OW30895   2.415   4.193  12.629 -0.3156  0.0966 -0.1117
 6421SOL    HW130896   2.334   4.244  12.628  0.2197  0.9954  1.6381
 6421SOL    HW230897   2.468   4.267  12.597 -1.3944  1.2589  0.7612
 6422SOL     OW30898   2.779   1.361   3.001  0.3334  0.3057 -0.1751
 6422SOL    HW130899   2.860   1.408   3.021  1.6622 -2.1174  0.1258
 6422SOL    HW230900   2.757   1.389   2.912  0.3480  0.2544 -0.1949
 6423SOL     OW30901   4.472   3.781  16.358 -0.0036  0.3946 -0.4730
 6423SOL    HW130902   4.437   3.800  16.271  1.3864  1.7011 -0.7292
 6423SOL    HW230903   4.566   3.772  16.341  0.5972  3.4652  1.3314
 6424SOL     OW30904   1.853   3.464   9.910  0.4577  0.1641  0.4445
 6424SOL    HW130905   1.888   3.485   9.823 -0.4595 -0.4638 -0.0746
 6424SOL    HW230906   1.776   3.520   9.919  0.3325  0.5099 -2.4862
 6425SOL     OW30907   2.539   1.839   8.129 -0.2467  0.0439 -0.1217
 6425SOL    HW130908   2.551   1.765   8.188  2.4311  2.2645  2.1034
 6425SOL    HW230909   2.445   1.832   8.115 -0.0637  0.9632 -1.8200
 6426SOL     OW30910   0.457   3.148   4.350 -0.2400  0.1331 -0.3156
 6426SOL    HW130911   0.488   3.236   4.326  1.1187  0.4247  2.5332
 6426SOL    HW230912   0.497   3.094   4.281  1.4075 -1.2582  1.7523
 6427SOL     OW30913   3.212   0.466   6.819  0.2933  0.1118 -0.1425
 6427SOL    HW130914   3.150   0.453   6.747  0.0939 -0.7968  0.2012
 6427SOL    HW230915   3.151   0.447   6.889 -0.7205  0.6372 -0.8786
 6428SOL     OW30916   2.773   2.176   3.688  0.0978  0.3187  0.0047
 6428SOL    HW130917   2.728   2.238   3.745  0.2990 -0.0942  0.6126
 6428SOL    HW230918   2.706   2.171   3.621  1.3644  0.6949 -1.2883
 6429SOL     OW30919   2.158   2.414  12.238  0.2973  0.2694  0.0155
 6429SOL    HW130920   2.066   2.417  12.212  0.8252  2.3735 -1.6422
 6429SOL    HW230921   2.195   2.332  12.205 -1.3960  0.1263 -1.5280
 6430SOL     OW30922   4.663   2.061  16.352  0.1610  0.6609  0.0040
 6430SOL    HW130923   4.693   2.137  16.303  1.5789  0.6515  0.8793
 6430SOL    HW230924   4.605   2.023  16.286 -1.6121 -0.0364  1.9699
 6431SOL     OW30925   2.688   1.126   2.990  0.1310 -0.2081 -0.0244
 6431SOL    HW130926   2.769   1.084   3.017  1.1085  2.3598  1.0713
 6431SOL    HW230927   2.709   1.219   3.001 -0.1882 -0.3469  1.7064
 6432SOL     OW30928   4.088   1.947  12.912  0.1678  0.4302 -0.2561
 6432SOL    HW130929   4.128   1.861  12.927 -0.2359  0.2050 -0.4614
 6432SOL    HW230930   4.060   1.948  12.820  2.2309 -1.0444 -0.9087
 6433SOL     OW30931   0.908   2.395   4.255  0.5567 -0.1673 -0.1506
 6433SOL    HW130932   0.953   2.375   4.173  0.3641  2.0343 -0.8062
 6433SOL    HW230933   0.839   2.330   4.245  0.1671 -0.1808  2.5034
 6434SOL     OW30934   3.837   4.319  12.220  0.1606  0.1805  0.5701
 6434SOL    HW130935   3.755   4.369  12.221  0.2038  0.2627  0.1275
 6434SOL    HW230936   3.856   4.309  12.126  0.4101  0.3673  0.6023
 6435SOL     OW30937   3.116   3.325   3.668  0.0285 -0.6447 -0.1832
 6435SOL    HW130938   3.077   3.253   3.618  1.3778  0.0766 -2.3171
 6435SOL    HW230939   3.150   3.270   3.739  3.0209 -0.3530 -1.3799
 6436SOL     OW30940   0.929   4.520   3.738  0.0890  0.1879 -0.5753
 6436SOL    HW130941   0.868   4.562   3.678  0.3903  0.4743 -0.6803
 6436SOL    HW230942   0.879   4.439   3.752 -0.4254  0.4019 -1.1684
 6437SOL     OW30943   3.939   3.174   8.606  0.0055  0.1596 -0.2815
 6437SOL    HW130944   3.938   3.263   8.640 -0.8245  0.7226 -1.7677
 6437SOL    HW230945   3.969   3.126   8.683  0.2564 -0.1728 -0.5846
 6438SOL     OW30946   4.484   2.961   9.270 -0.9722  0.0044  0.2385
 6438SOL    HW130947   4.475   2.872   9.234 -5.0649  0.5345 -0.0005
 6438SOL    HW230948   4.529   3.014   9.204 -0.2125  2.6233  2.9144
 6439SOL     OW30949   1.687   4.523   3.639  0.2387  0.1932  0.4107
 6439SOL    HW130950   1.617   4.584   3.661 -1.0111 -0.9205 -0.5685
 6439SOL    HW230951   1.756   4.589   3.631 -1.9205  2.4059  0.0914
 6440SOL     OW30952   3.220   2.249   9.566 -0.1355  0.0422  0.1892
 6440SOL    HW130953   3.263   2.332   9.588  0.4448 -0.3645  0.6235
 6440SOL    HW230954   3.197   2.213   9.652 -1.1992 -1.7829 -0.8564
 6441SOL     OW30955   0.641   1.210   0.392 -0.2299  0.1695  0.4105
 6441SOL    HW130956   0.687   1.139   0.438 -1.4573 -0.0845  1.2552
 6441SOL    HW230957   0.660   1.187   0.302  1.1474 -2.7762  1.4467
 6442SOL     OW30958   1.659   2.978   6.756  0.0476 -0.3555  0.7067
 6442SOL    HW130959   1.652   2.888   6.787 -4.8312 -0.3504 -0.3166
 6442SOL    HW230960   1.753   2.997   6.757 -0.2598  1.2385 -2.4900
 6443SOL     OW30961   4.582   2.981   8.968 -0.1137  0.3320 -0.5675
 6443SOL    HW130962   4.672   2.952   8.982 -0.9989 -1.0217  2.1718
 6443SOL    HW230963   4.588   3.066   9.012 -2.7292  1.6273 -2.6705
 6444SOL     OW30964   2.735   2.956   1.194  0.5487  0.4480  0.0152
 6444SOL    HW130965   2.802   2.888   1.202  0.3217  0.2301  0.0654
 6444SOL    HW230966   2.729   2.940   1.100 -0.4191  0.3400  0.1034
 6445SOL     OW30967   0.956   3.632   3.066  0.0219 -0.0795  0.1817
 6445SOL    HW130968   0.948   3.720   3.030  1.0366  0.1907  0.6140
 6445SOL    HW230969   1.039   3.606   3.027 -0.3581 -0.9691 -0.0452
 6446SOL     OW30970   0.628   2.272   6.854 -0.2712 -0.0541  0.4534
 6446SOL    HW130971   0.596   2.277   6.944 -2.9575 -0.4710 -0.4993
 6446SOL    HW230972   0.600   2.184   6.829  2.0496 -0.4863 -0.7027
 6447SOL     OW30973   0.948   1.992  17.209  0.0137 -0.0544 -0.2532
 6447SOL    HW130974   0.955   2.071  17.263  1.6418 -0.3565 -0.0031
 6447SOL    HW230975   0.884   2.016  17.143  0.7073 -0.1669 -0.9715
 6448SOL     OW30976   2.552   0.318   1.600  0.1579 -0.1146  0.1256
 6448SOL    HW130977   2.459   0.301   1.613 -0.2317  2.7942  1.0714
 6448SOL    HW230978   2.584   0.312   1.691  0.6082 -1.6009 -0.1319
 6449SOL     OW30979   0.303   3.200   3.645  0.0227 -0.1747  0.1201
 6449SOL    HW130980   0.230   3.203   3.706  0.6053 -1.2775  0.8704
 6449SOL    HW230981   0.308   3.285   3.601  0.3839 -0.1393  0.2253
 6450SOL     OW30982   2.615   4.656   2.716  0.1835  0.3356  0.5617
 6450SOL    HW130983   2.538   4.701   2.683 -0.0725  0.9303  1.9853
 6450SOL    HW230984   2.577   4.621   2.797 -0.4796 -1.2128 -0.4138
 6451SOL     OW30985   2.040   2.265   3.665  0.2174  0.1669 -0.4079
 6451SOL    HW130986   2.006   2.330   3.727 -1.8642 -0.5698 -0.7799
 6451SOL    HW230987   2.133   2.285   3.658  0.3702 -0.5176 -0.3501
 6452SOL     OW30988   1.741   4.024   5.895 -0.3045 -0.2985  0.7505
 6452SOL    HW130989   1.708   4.073   5.971  3.2617  2.3726  0.5372
 6452SOL    HW230990   1.771   4.098   5.844  0.8370 -1.4884 -0.2780
 6453SOL     OW30991   0.160   2.714   4.131 -0.3064 -0.0139  0.5647
 6453SOL    HW130992   0.120   2.631   4.156 -2.4884  1.1291  0.8751
 6453SOL    HW230993   0.091   2.763   4.174 -1.0349 -0.4525 -0.0977
 6454SOL     OW30994   4.705   1.185   3.228  0.0928 -0.7391 -0.0613
 6454SOL    HW130995   4.711   1.142   3.143 -1.7023 -0.3848 -0.3510
 6454SOL    HW230996   4.712   1.278   3.205  0.5736 -0.2050  2.1794
 6455SOL     OW30997   0.842   1.457   7.896 -0.5892  0.1357  0.2688
 6455SOL    HW130998   0.766   1.508   7.869 -1.2608 -0.6828  0.6021
 6455SOL    HW230999   0.801   1.392   7.953  0.1573  0.9655  1.7595
 6456SOL     OW31000   2.340   2.617   4.526 -0.1789  0.2617  0.1927
 6456SOL    HW131001   2.370   2.650   4.441 -2.0841 -0.0955 -0.6181
 6456SOL    HW231002   2.419   2.646   4.573  0.6556 -1.3912 -0.2176
 6457SOL     OW31003   0.513   0.815   4.138 -0.9127  0.5860 -0.1682
 6457SOL    HW131004   0.544   0.874   4.069 -2.2763  0.3823 -0.9605
 6457SOL    HW231005   0.431   0.780   4.102  0.2360 -1.5302 -0.7275
 6458SOL     OW31006   2.908   2.213   6.549 -0.0121  0.3996 -0.5275
 6458SOL    HW131007   2.995   2.182   6.576  0.3077  0.6067 -1.3347
 6458SOL    HW231008   2.873   2.133   6.510  0.3474 -0.8805  1.7496
 6459SOL     OW31009   1.683   1.634   4.922 -0.3368 -0.5921  0.0654
 6459SOL    HW131010   1.600   1.612   4.965 -0.3364  0.8568  0.7868
 6459SOL    HW231011   1.735   1.558   4.950  0.0332  0.3374  1.8685
 6460SOL     OW31012   3.932   3.475   7.127  0.5523  0.0167  0.2497
 6460SOL    HW131013   3.989   3.490   7.051  0.5616 -2.0232 -0.1394
 6460SOL    HW231014   3.986   3.407   7.166  1.2235 -0.1131 -0.8861
 6461SOL     OW31015   3.646   3.229  13.781  0.0670  0.0234  0.0345
 6461SOL    HW131016   3.563   3.263  13.747 -0.6191 -1.7340 -0.0568
 6461SOL    HW231017   3.674   3.159  13.722 -2.4408 -1.0363  0.1020
 6462SOL     OW31018   4.281   4.489   8.297 -0.0834 -0.3715 -0.3316
 6462SOL    HW131019   4.194   4.494   8.338 -0.6973  0.5838 -1.7375
 6462SOL    HW231020   4.273   4.568   8.243 -0.3845 -1.3798 -1.7443
 6463SOL     OW31021   2.588   3.780  14.171 -0.4563 -0.4887 -0.2598
 6463SOL    HW131022   2.534   3.859  14.180  1.8891  1.4157 -3.1472
 6463SOL    HW231023   2.678   3.809  14.183 -0.1528 -0.9097 -1.6194
 6464SOL     OW31024   4.079   3.660   9.696  0.1715  0.2794 -0.4386
 6464SOL    HW131025   4.046   3.585   9.746 -2.9245  0.9136 -1.4920
 6464SOL    HW231026   3.996   3.706   9.685 -0.4186 -0.6398  0.1620
 6465SOL     OW31027   1.755   0.109  11.735  0.1155 -0.1801  0.1802
 6465SOL    HW131028   1.849   0.104  11.718 -0.1298 -0.2380 -1.1608
 6465SOL    HW231029   1.762   0.154  11.819 -0.6598 -1.0024  0.6944
 6466SOL     OW31030   2.119   1.079   1.435 -0.2351 -0.1780 -0.8051
 6466SOL    HW131031   2.185   1.143   1.406  1.1883 -0.4250  1.9203
 6466SOL    HW231032   2.170   0.998   1.433 -0.3138 -0.2664  1.0589
 6467SOL     OW31033   3.995   0.471   5.444  0.3212  0.4811 -0.1689
 6467SOL    HW131034   4.033   0.383   5.452  1.0854  0.8454  0.2491
 6467SOL    HW231035   4.021   0.504   5.531  0.2854 -1.9833  0.7873
 6468SOL     OW31036   1.893   1.642   0.735 -0.6283  0.0498 -0.1444
 6468SOL    HW131037   1.828   1.590   0.783 -0.4716  0.2197  0.2547
 6468SOL    HW231038   1.881   1.727   0.777  2.3956  1.5595 -2.3257
 6469SOL     OW31039   1.986   2.517  17.138  0.2318 -0.0090 -0.5213
 6469SOL    HW131040   1.991   2.611  17.155 -0.9739 -0.0102 -0.1775
 6469SOL    HW231041   1.896   2.504  17.168  0.6054 -5.5971 -1.7053
 6470SOL     OW31042   3.760   0.693   9.958  0.1899 -0.1995 -0.2124
 6470SOL    HW131043   3.737   0.735  10.041  1.7816 -1.3189  0.7866
 6470SOL    HW231044   3.681   0.648   9.929  0.7117 -0.8505 -0.6130
 6471SOL     OW31045   0.932   0.579   4.670 -0.5010  0.6276  0.3227
 6471SOL    HW131046   0.913   0.549   4.759  0.1840  0.1295  0.2978
 6471SOL    HW231047   0.875   0.516   4.626  2.1318 -1.4827 -0.0153
 6472SOL     OW31048   1.950   1.184   7.745  0.6260  0.2423 -0.2505
 6472SOL    HW131049   2.010   1.236   7.799 -1.1952  2.3911 -0.3098
 6472SOL    HW231050   1.931   1.113   7.806 -1.3645 -0.4376 -1.6638
 6473SOL     OW31051   4.019   0.990  11.095 -0.0612  0.5102 -0.1511
 6473SOL    HW131052   3.932   1.020  11.069 -1.2720 -0.3343  2.8455
 6473SOL    HW231053   3.999   0.946  11.178  1.4250  0.6482  0.2917
 6474SOL     OW31054   3.429   1.863   7.672 -0.4849  0.6220 -0.0136
 6474SOL    HW131055   3.365   1.795   7.652  0.9552 -1.8449  3.7266
 6474SOL    HW231056   3.391   1.947   7.644  2.1506  1.3629 -1.3596
 6475SOL     OW31057   0.624   0.032   7.704  0.0314 -0.0202  0.3057
 6475SOL    HW131058   0.596   0.039   7.795  0.4359 -0.2864  0.4521
 6475SOL    HW231059   0.681   4.693   7.716  0.1575 -0.0173 -0.2774
 6476SOL     OW31060   3.124   3.168   5.125  0.2618  0.0498  0.4097
 6476SOL    HW131061   3.208   3.128   5.149 -0.4713 -1.8455 -0.1518
 6476SOL    HW231062   3.075   3.087   5.109  0.4825  0.2450 -1.3017
 6477SOL     OW31063   0.232   0.655  11.839  0.0043 -0.7023 -0.2781
 6477SOL    HW131064   0.307   0.692  11.793  0.9520 -1.3569  0.7321
 6477SOL    HW231065   0.171   0.625  11.772 -0.1774  0.2388 -0.5341
 6478SOL     OW31066   2.033   4.123   4.328  0.2879 -0.6150 -0.1257
 6478SOL    HW131067   2.112   4.133   4.382 -0.8020 -1.0835  1.5695
 6478SOL    HW231068   2.033   4.031   4.302  2.3059 -0.6417 -0.0386
 6479SOL     OW31069   3.238   0.177   7.231  0.7172 -0.7795  0.6732
 6479SOL    HW131070   3.272   0.221   7.152  1.6343  1.6127  2.4027
 6479SOL    HW231071   3.305   0.226   7.279 -0.2402  1.8227 -0.6157
 6480SOL     OW31072   0.353   1.614   8.381 -0.2126  0.4710  0.3981
 6480SOL    HW131073   0.444   1.610   8.353 -0.8892  1.2494 -1.8750
 6480SOL    HW231074   0.342   1.546   8.448 -1.7990  0.8490  0.5206
 6481SOL     OW31075   1.151   4.438  14.322  0.0186 -0.7664  0.5350
 6481SOL    HW131076   1.154   4.530  14.298 -1.0953 -0.2439  2.4670
 6481SOL    HW231077   1.243   4.417  14.303  0.8728 -0.1438  4.0614
 6482SOL     OW31078   2.673   3.353   1.815  0.2689 -0.2030 -0.9903
 6482SOL    HW131079   2.713   3.274   1.777  1.8481  1.0012 -1.7909
 6482SOL    HW231080   2.596   3.367   1.759 -0.4931  1.2305  0.4376
 6483SOL     OW31081   0.386   0.225   3.310  0.0861  0.4830  0.2558
 6483SOL    HW131082   0.407   0.275   3.230  0.4103  0.9286  0.6173
 6483SOL    HW231083   0.401   0.287   3.381  1.3019  0.2835  0.1772
 6484SOL     OW31084   1.219   2.272   4.008  0.0062  0.0450  0.0894
 6484SOL    HW131085   1.179   2.218   4.077 -2.2035 -1.4503 -2.3810
 6484SOL    HW231086   1.150   2.338   4.000  3.3270  3.3819 -1.2899
 6485SOL     OW31087   0.509   0.512   4.407  0.0376  0.0130 -0.6584
 6485SOL    HW131088   0.462   0.584   4.449  2.4142  0.4773  1.1760
 6485SOL    HW231089   0.589   0.558   4.381 -0.1125  0.8199  0.2998
 6486SOL     OW31090   2.936   3.378   4.192  0.2655  0.2176 -0.0197
 6486SOL    HW131091   2.865   3.398   4.131 -1.4870 -1.7633  1.4104
 6486SOL    HW231092   2.992   3.334   4.128  2.4065  0.0956  1.9330
 6487SOL     OW31093   1.278   2.857   5.873 -0.2569 -0.1391  0.2272
 6487SOL    HW131094   1.267   2.771   5.832 -1.7400  1.1104 -1.9778
 6487SOL    HW231095   1.186   2.882   5.880 -1.1034 -3.7492  2.6232
 6488SOL     OW31096   4.545   4.036   8.697  0.4664 -0.3123  0.0133
 6488SOL    HW131097   4.498   4.057   8.778 -1.5709 -0.0348 -1.2407
 6488SOL    HW231098   4.483   4.070   8.632 -0.1186 -1.3727  0.0253
 6489SOL     OW31099   3.387   2.751  14.165 -0.5415  0.2125  0.0049
 6489SOL    HW131100   3.338   2.817  14.214 -0.0518 -0.6072  1.5875
 6489SOL    HW231101   3.324   2.698  14.117 -2.2668 -0.0561  2.6113
 6490SOL     OW31102   1.655   3.442   5.135 -0.2608  0.3429  0.1661
 6490SOL    HW131103   1.689   3.515   5.187  1.3837 -3.4966  4.5787
 6490SOL    HW231104   1.602   3.490   5.072  1.8313  0.0917 -1.8011
 6491SOL     OW31105   4.110   3.978  13.552  0.0630 -0.2385 -0.4932
 6491SOL    HW131106   4.189   4.032  13.548  1.3581 -2.1064 -0.3504
 6491SOL    HW231107   4.090   3.985  13.645 -1.5888 -0.8813 -0.7903
 6492SOL     OW31108   0.370   1.999   7.206  0.6928 -0.3100  0.2314
 6492SOL    HW131109   0.434   1.931   7.187  1.1544  0.3050 -0.4064
 6492SOL    HW231110   0.358   1.981   7.300  0.7110  0.9837  0.4820
 6493SOL     OW31111   4.584   0.781  11.312 -0.5208  0.5168  0.4945
 6493SOL    HW131112   4.631   0.845  11.365  0.4428 -0.6219  1.0054
 6493SOL    HW231113   4.623   0.784  11.225  1.4567 -1.1754  1.3190
 6494SOL     OW31114   1.923   3.426   7.614  0.4736  0.2903 -0.9120
 6494SOL    HW131115   2.010   3.391   7.635 -0.1303 -1.1173 -0.7043
 6494SOL    HW231116   1.935   3.468   7.529  1.4614  1.3805 -0.2294
 6495SOL     OW31117   2.718   3.399   9.269 -0.2402  0.4708 -0.4539
 6495SOL    HW131118   2.736   3.402   9.363  1.2338  2.3912 -0.7938
 6495SOL    HW231119   2.773   3.324   9.245 -2.8280 -1.3909 -0.5645
 6496SOL     OW31120   4.633   4.477   2.796 -0.0364  0.1485 -0.5188
 6496SOL    HW131121   4.640   4.522   2.712 -0.2107 -1.1116 -1.2145
 6496SOL    HW231122   4.604   4.392   2.762 -3.0656  0.6741  0.7603
 6497SOL     OW31123   1.387   3.750   5.348 -0.4034 -0.2447  0.4434
 6497SOL    HW131124   1.401   3.771   5.256  3.5672  1.7020  1.5094
 6497SOL    HW231125   1.432   3.830   5.375  0.7008 -1.1352  1.2063
 6498SOL     OW31126   3.576   2.941  12.359 -0.3430 -0.2260  0.1357
 6498SOL    HW131127   3.561   2.955  12.266  0.3672  1.4250  0.2749
 6498SOL    HW231128   3.503   2.885  12.388 -0.7372  0.9730  1.4844
 6499SOL     OW31129   0.697   0.970   6.088  0.1484 -0.0523 -0.2133
 6499SOL    HW131130   0.769   0.974   6.151 -0.5727 -0.9466  0.6596
 6499SOL    HW231131   0.626   0.994   6.147 -0.3562  1.5186 -1.4692
 6500SOL     OW31132   3.985   2.680   5.155  0.5219  0.0325 -0.5051
 6500SOL    HW131133   3.945   2.765   5.170 -0.8774 -0.8800  0.9255
 6500SOL    HW231134   4.017   2.662   5.243  1.5619  1.0629 -0.6744
 6501SOL     OW31135   0.341   1.134  15.383 -0.2859  0.1397  0.1835
 6501SOL    HW131136   0.260   1.123  15.432  1.3704 -1.3130  2.5952
 6501SOL    HW231137   0.392   1.057  15.410  0.3127  0.1818 -0.8264
 6502SOL     OW31138   1.524   4.116  15.025  0.4071  0.1435 -0.0704
 6502SOL    HW131139   1.527   4.206  15.057 -1.8836  0.4506 -0.7364
 6502SOL    HW231140   1.457   4.082  15.085  0.1220 -0.5406 -0.7719
 6503SOL     OW31141   1.274   4.064   3.943  0.2633 -0.1631  0.0605
 6503SOL    HW131142   1.239   4.016   4.018  3.4518  1.2037  2.4082
 6503SOL    HW231143   1.270   4.158   3.963  0.7104 -0.7067  2.6181
 6504SOL     OW31144   1.918   1.047  11.261 -0.1550 -0.5039 -0.1064
 6504SOL    HW131145   1.931   1.012  11.349 -1.5783 -1.2699 -0.1982
 6504SOL    HW231146   1.992   1.021  11.206 -0.1603 -2.9874  1.0714
 6505SOL     OW31147   1.029   0.212   8.091 -0.0301 -0.3931 -0.1761
 6505SOL    HW131148   1.062   0.250   8.172 -1.2535 -0.7398  0.4817
 6505SOL    HW231149   1.095   0.144   8.080  0.1003 -0.1045 -1.1921
 6506SOL     OW31150   0.842   3.227   0.822  0.1190 -0.0822  0.2430
 6506SOL    HW131151   0.889   3.185   0.749  0.6740 -0.4861  0.8340
 6506SOL    HW231152   0.790   3.152   0.851  1.2704 -1.1144 -0.3382
 6507SOL     OW31153   3.538   4.381   0.284  0.2228 -0.2468 -0.5525
 6507SOL    HW131154   3.547   4.476   0.278  2.1087 -0.5794 -3.1627
 6507SOL    HW231155   3.609   4.346   0.230  0.0908  0.5179 -1.2318
 6508SOL     OW31156   3.016   2.151   2.760 -0.2608 -0.3222  0.1380
 6508SOL    HW131157   3.092   2.119   2.712 -0.5958 -0.9619  0.0312
 6508SOL    HW231158   3.000   2.084   2.826 -1.0369  0.9318  1.2359
 6509SOL     OW31159   3.508   4.052   6.838 -0.0581 -0.0439  0.7645
 6509SOL    HW131160   3.426   4.004   6.855 -0.5429  0.0112 -1.2924
 6509SOL    HW231161   3.476   4.142   6.843 -0.7264 -0.3015  1.1851
 6510SOL     OW31162   4.657   3.467   5.517 -0.3502  0.6727 -0.4932
 6510SOL    HW131163   4.580   3.450   5.572 -0.2828 -3.3086 -1.6282
 6510SOL    HW231164   4.720   3.401   5.547 -0.5028  0.2250 -1.1514
 6511SOL     OW31165   0.516   3.256  15.512  0.3651  0.3128 -0.0297
 6511SOL    HW131166   0.592   3.200  15.526 -0.3168 -0.7912 -0.7539
 6511SOL    HW231167   0.511   3.289  15.602 -2.0225 -1.0756  0.3407
 6512SOL     OW31168   3.233   1.504  10.614  1.0073  0.3083 -0.2972
 6512SOL    HW131169   3.322   1.477  10.595  2.0596  2.4754  1.5155
 6512SOL    HW231170   3.251   1.540  10.701 -0.9607 -2.8453  1.4100
 6513SOL     OW31171   2.891   0.701   6.625 -0.7099 -0.3881 -0.0906
 6513SOL    HW131172   2.922   0.612   6.609  0.0233 -0.3566  1.1746
 6513SOL    HW231173   2.918   0.716   6.715  0.4267  2.0440 -0.8390
 6514SOL     OW31174   0.786   3.414  13.326  0.6013  0.0211  0.5535
 6514SOL    HW131175   0.707   3.389  13.279  1.0245  0.6962 -0.5266
 6514SOL    HW231176   0.813   3.495  13.282  0.8429 -0.0406  0.5861
 6515SOL     OW31177   4.147   0.339  10.029 -0.2996 -0.0526 -0.4753
 6515SOL    HW131178   4.189   0.420  10.000 -1.5259 -0.0492 -2.2814
 6515SOL    HW231179   4.078   0.340   9.962 -1.2328  0.5132  0.4727
 6516SOL     OW31180   0.216   1.966   7.811 -0.2965  0.0966  0.0603
 6516SOL    HW131181   0.172   1.901   7.756  0.8655  0.7535 -1.6312
 6516SOL    HW231182   0.189   1.932   7.897  0.3483  0.3208  0.3464
 6517SOL     OW31183   3.375   2.839   5.304 -0.6949 -0.4299 -0.0617
 6517SOL    HW131184   3.362   2.755   5.261 -0.9266  0.4389 -1.6941
 6517SOL    HW231185   3.299   2.855   5.360 -0.7251 -1.3475  0.1490
 6518SOL     OW31186   2.775   1.755   9.677 -0.4116  0.2903  0.2448
 6518SOL    HW131187   2.765   1.841   9.637  0.0964 -0.4946 -1.5714
 6518SOL    HW231188   2.864   1.737   9.647 -0.6209  0.5051 -0.5064
 6519SOL     OW31189   3.332   2.223   4.159  0.5796  0.3599  0.0771
 6519SOL    HW131190   3.393   2.296   4.162 -0.5034  1.3061 -0.9008
 6519SOL    HW231191   3.313   2.221   4.065  2.9076  0.2179 -0.3805
 6520SOL     OW31192   0.024   1.128   4.985 -0.5068  0.0754 -0.8989
 6520SOL    HW131193   4.703   1.203   4.984 -0.6584 -0.0209 -0.0604
 6520SOL    HW231194   0.101   1.165   4.942  0.1241  1.5811  1.5366
 6521SOL     OW31195   1.479   3.490   4.651 -0.1025 -0.4061 -0.0569
 6521SOL    HW131196   1.477   3.463   4.559  0.5943 -2.3346  0.4917
 6521SOL    HW231197   1.456   3.410   4.697  0.1724  0.1694  1.0800
 6522SOL     OW31198   2.310   2.263  10.280 -0.1014  0.1077  0.5327
 6522SOL    HW131199   2.349   2.193  10.333 -0.5986  0.7396  1.7261
 6522SOL    HW231200   2.354   2.332  10.330  1.1249 -0.1075 -0.2349
 6523SOL     OW31201   1.587   0.323  14.674 -0.2476  0.1011  0.1843
 6523SOL    HW131202   1.584   0.293  14.584  1.4355 -0.5876  0.3637
 6523SOL    HW231203   1.500   0.289  14.697 -1.1446  2.2400 -0.0245
 6524SOL     OW31204   0.617   2.484   1.654  0.1335  0.0003  0.2248
 6524SOL    HW131205   0.696   2.445   1.689  0.1008 -1.0616 -0.8936
 6524SOL    HW231206   0.556   2.413   1.674 -0.8297  0.7616  0.0099
 6525SOL     OW31207   0.977   3.336  12.763 -0.9024 -0.2008  0.5386
 6525SOL    HW131208   0.977   3.398  12.690 -0.0353  0.1195  0.8071
 6525SOL    HW231209   0.907   3.371  12.817 -2.3978 -0.8525 -0.9727
 6526SOL     OW31210   2.329   2.640   8.534  0.1690 -0.1532 -0.5531
 6526SOL    HW131211   2.331   2.561   8.480 -0.7858 -1.6133  1.5380
 6526SOL    HW231212   2.243   2.679   8.519  0.3274  0.4610  0.1230
 6527SOL     OW31213   0.135   1.875   6.607 -0.1996  0.2499 -0.3837
 6527SOL    HW131214   0.209   1.909   6.656  1.7887  0.8898 -3.8836
 6527SOL    HW231215   0.112   1.950   6.553  1.5024  1.7646  1.0389
 6528SOL     OW31216   3.379   1.577   7.517 -0.4725 -0.0067  0.6987
 6528SOL    HW131217   3.392   1.641   7.447 -0.6573 -2.1607 -1.3379
 6528SOL    HW231218   3.284   1.576   7.526 -0.3710  0.5896  1.7494
 6529SOL     OW31219   0.140   3.251   7.186 -0.2811  0.6318  0.0532
 6529SOL    HW131220   0.191   3.257   7.267 -0.1649  0.9439 -0.0434
 6529SOL    HW231221   0.048   3.253   7.214 -0.4331 -1.4799 -0.2893
 6530SOL     OW31222   1.355   3.287   6.845  0.4413 -0.0974 -0.3231
 6530SOL    HW131223   1.346   3.300   6.751  4.0796 -2.5377 -1.0068
 6530SOL    HW231224   1.289   3.222   6.871 -0.1046  0.3869 -0.5202
 6531SOL     OW31225   0.956   0.927   5.715 -0.4181 -0.2903  0.2675
 6531SOL    HW131226   0.984   0.843   5.752 -0.3503 -0.8315 -1.0054
 6531SOL    HW231227   1.015   0.929   5.639  0.8686  0.3976  1.2907
 6532SOL     OW31228   1.251   0.441   6.702  0.1784 -0.5336 -0.6608
 6532SOL    HW131229   1.257   0.439   6.606  0.9672  0.6343 -0.6278
 6532SOL    HW231230   1.175   0.383   6.706 -0.2217  0.2708  2.9751
 6533SOL     OW31231   2.823   0.991   0.049  0.2425  0.0791  0.5241
 6533SOL    HW131232   2.802   1.061   0.110  0.5258  0.8281 -0.2346
 6533SOL    HW231233   2.906   0.966   0.089  0.7252  1.2196  0.2493
 6534SOL     OW31234   0.066   3.773   9.861  0.4696  0.4786  0.0548
 6534SOL    HW131235   4.721   3.766   9.814 -0.2517 -0.1086  1.4011
 6534SOL    HW231236   0.072   3.690   9.909  1.4125  0.8561  0.5993
 6535SOL     OW31237   4.469   3.331  14.175 -0.1228 -0.5765  0.4320
 6535SOL    HW131238   4.441   3.403  14.232 -0.2628  0.9567 -1.5731
 6535SOL    HW231239   4.384   3.294  14.150 -0.2573  0.1978 -0.2541
 6536SOL     OW31240   3.673   0.845  16.288  0.0579  0.3357 -0.2032
 6536SOL    HW131241   3.746   0.905  16.302  0.1494 -0.4110  2.6728
 6536SOL    HW231242   3.646   0.859  16.197 -1.0980 -1.4842 -0.1518
 6537SOL     OW31243   4.263   3.054  14.963 -0.0205 -0.4870 -0.6342
 6537SOL    HW131244   4.227   3.127  15.014  1.1809  0.5305 -1.2679
 6537SOL    HW231245   4.296   3.098  14.885  1.2843 -0.5679 -0.1279
 6538SOL     OW31246   0.044   1.957   3.946  0.2484 -0.1019  0.0770
 6538SOL    HW131247   0.079   1.873   3.975  3.1841  2.0174  2.7904
 6538SOL    HW231248   0.028   1.943   3.853  0.0857  0.8130 -0.0302
 6539SOL     OW31249   3.106   2.174   3.405  0.1955  0.5303 -0.7222
 6539SOL    HW131250   3.153   2.198   3.484 -3.2265  0.0984  1.4664
 6539SOL    HW231251   3.122   2.081   3.420 -3.0109  0.1754  0.5176
 6540SOL     OW31252   0.154   2.917   6.373 -0.1834 -0.0576  0.0832
 6540SOL    HW131253   0.137   2.942   6.464 -0.3894 -2.6126  0.7588
 6540SOL    HW231254   0.213   2.842   6.381 -1.6546 -1.3073 -0.6454
 6541SOL     OW31255   1.724   0.039   3.162  0.0361  0.0851 -0.1749
 6541SOL    HW131256   1.662   0.066   3.230  0.6996  2.5886 -0.5376
 6541SOL    HW231257   1.707   4.683   3.152 -1.7655  0.4592 -0.7190
 6542SOL     OW31258   4.315   3.004   7.208 -0.2135  0.1562  0.4604
 6542SOL    HW131259   4.409   3.017   7.202 -0.2251  0.4062  0.8777
 6542SOL    HW231260   4.295   2.990   7.116 -2.1196 -1.1281  1.0622
 6543SOL     OW31261   4.159   1.161   5.255  0.0420 -0.2056  0.4400
 6543SOL    HW131262   4.073   1.127   5.279 -0.7392  1.6940  0.3201
 6543SOL    HW231263   4.210   1.141   5.334 -0.1217  0.8669  0.8210
 6544SOL     OW31264   2.024   4.278   5.962  0.4295  0.0566 -0.3868
 6544SOL    HW131265   2.088   4.346   5.987 -0.8379  1.3255 -0.5878
 6544SOL    HW231266   1.947   4.331   5.942  0.8203  0.9494  0.4679
 6545SOL     OW31267   4.272   0.777  12.007 -0.2931 -0.4894  0.3034
 6545SOL    HW131268   4.212   0.718  11.962  0.4060  0.2331 -1.5753
 6545SOL    HW231269   4.355   0.753  11.964 -0.4605 -1.4173  0.5017
 6546SOL     OW31270   0.082   1.744   8.430 -0.0438 -0.4076  0.2632
 6546SOL    HW131271   0.076   1.824   8.377  2.7494  1.6996  3.1225
 6546SOL    HW231272   0.176   1.730   8.418  0.1361  0.0151  1.1924
 6547SOL     OW31273   3.803   2.061   7.984  0.0771  0.2390  0.2597
 6547SOL    HW131274   3.834   1.984   7.936  2.7281  1.7253 -0.3780
 6547SOL    HW231275   3.890   2.099   7.985  1.2851 -2.5669  1.1554
 6548SOL     OW31276   2.043   2.010   4.259 -0.5069  0.0988 -0.1311
 6548SOL    HW131277   2.127   1.984   4.222 -0.8896  1.8254 -2.1975
 6548SOL    HW231278   2.058   1.985   4.350  0.4012  0.2693 -0.2314
 6549SOL     OW31279   3.905   0.806   5.428 -0.1912  0.3105 -0.0205
 6549SOL    HW131280   3.839   0.763   5.373 -1.2844  1.2634  0.5603
 6549SOL    HW231281   3.851   0.827   5.504  0.4820 -0.5810  0.7047
 6550SOL     OW31282   4.541   1.377  16.998 -0.0006  0.1020 -0.3718
 6550SOL    HW131283   4.549   1.464  17.036 -2.1943 -0.0289  0.3782
 6550SOL    HW231284   4.610   1.378  16.931 -1.5666 -1.9965 -2.0193
 6551SOL     OW31285   0.686   3.950   8.710  0.5062 -0.1787 -0.5282
 6551SOL    HW131286   0.723   3.981   8.793 -0.6831  0.4938 -0.2548
 6551SOL    HW231287   0.648   4.033   8.681  0.9805  0.2208 -0.0054
 6552SOL     OW31288   0.065   2.924   8.541  0.1630  0.0631  0.0341
 6552SOL    HW131289   4.727   2.932   8.600 -1.4074  0.9613 -2.0825
 6552SOL    HW231290   0.016   2.859   8.490  0.0257 -0.1503  0.4310
 6553SOL     OW31291   2.771   1.337   3.748 -0.0441 -0.2005  0.3486
 6553SOL    HW131292   2.778   1.426   3.783  1.6737 -0.5501  0.8593
 6553SOL    HW231293   2.829   1.287   3.805 -0.1358  1.5579  1.9665
 6554SOL     OW31294   3.837   3.227   4.648 -0.0026  0.0526  0.2098
 6554SOL    HW131295   3.857   3.185   4.565 -2.6613 -0.5167 -0.1215
 6554SOL    HW231296   3.743   3.220   4.635 -0.1251  0.5874  0.7673
 6555SOL     OW31297   0.127   2.115  13.711 -0.7371  0.1584  0.3055
 6555SOL    HW131298   0.160   2.201  13.684  0.0013 -0.3588 -0.4253
 6555SOL    HW231299   0.133   2.068  13.628  0.4113 -0.0646  0.5164
 6556SOL     OW31300   3.679   2.374  13.357 -0.4801 -0.3521 -0.1456
 6556SOL    HW131301   3.716   2.356  13.271 -1.4139  1.5595 -0.9307
 6556SOL    HW231302   3.672   2.288  13.400  2.1097  0.2592  1.5236
 6557SOL     OW31303   1.086   4.096   6.601 -0.2748  0.3086  0.2192
 6557SOL    HW131304   1.180   4.087   6.618 -0.6431 -0.3494  1.9289
 6557SOL    HW231305   1.083   4.057   6.514 -0.6883  2.2335 -0.6170
 6558SOL     OW31306   3.726   3.087   6.692 -0.2937  0.0052  0.2134
 6558SOL    HW131307   3.635   3.068   6.713 -0.2483 -0.3418  0.1011
 6558SOL    HW231308   3.728   3.163   6.750 -0.0528  0.1482  0.0161
 6559SOL     OW31309   2.248   0.923   4.126  0.0064  0.3558 -0.1827
 6559SOL    HW131310   2.315   0.894   4.188 -0.2078  1.1266  0.4041
 6559SOL    HW231311   2.288   0.889   4.046 -0.1733  1.1238 -0.6018
 6560SOL     OW31312   3.915   0.540   0.125  0.2665  0.2107  0.0321
 6560SOL    HW131313   3.896   0.475   0.192  0.8769 -0.7272 -0.7143
 6560SOL    HW231314   3.849   0.514   0.061  1.1776 -1.3196 -0.2663
 6561SOL     OW31315   1.313   2.823   2.591  0.0348  0.2540  0.1827
 6561SOL    HW131316   1.234   2.832   2.538  0.5045 -0.6535 -0.6792
 6561SOL    HW231317   1.384   2.855   2.534 -0.5176  2.0103  0.4817
 6562SOL     OW31318   1.770   1.745   3.449  0.3513  0.3276  0.4578
 6562SOL    HW131319   1.750   1.677   3.514 -1.5898 -0.2431 -0.7272
 6562SOL    HW231320   1.862   1.759   3.470  0.1936  0.6983  0.8862
 6563SOL     OW31321   1.400   2.689   9.000  0.3323  0.0937  0.5702
 6563SOL    HW131322   1.407   2.769   9.053  0.4343  0.7877 -0.4989
 6563SOL    HW231323   1.395   2.625   9.071 -1.8091  0.0140  0.3248
 6564SOL     OW31324   2.594   2.908   3.818 -0.7915 -0.0594 -0.1456
 6564SOL    HW131325   2.564   2.952   3.738 -1.8806 -2.4014 -1.0078
 6564SOL    HW231326   2.665   2.865   3.770  0.3891  1.0284  0.6034
 6565SOL     OW31327   0.143   3.495   8.244  0.1870 -0.4311  0.2156
 6565SOL    HW131328   0.170   3.535   8.327  1.0005  0.7588 -0.6258
 6565SOL    HW231329   0.070   3.439   8.271 -0.9558  0.7058 -0.5340
 6566SOL     OW31330   1.223   4.128   8.430 -0.6353 -0.2553  0.1380
 6566SOL    HW131331   1.196   4.037   8.442  0.5080 -0.7996 -1.4423
 6566SOL    HW231332   1.261   4.150   8.515  0.1204 -1.0646  0.0042
 6567SOL     OW31333   4.468   3.754  17.385  0.0803 -0.3312 -0.5553
 6567SOL    HW131334   4.557   3.765  17.419  0.1971  1.8215 -1.6145
 6567SOL    HW231335   4.481   3.791  17.298  0.5820 -0.0537 -0.3641
 6568SOL     OW31336   2.279   2.399  10.741  0.4986 -0.3538  0.2548
 6568SOL    HW131337   2.302   2.451  10.818 -0.8222  2.0808 -0.9748
 6568SOL    HW231338   2.369   2.368  10.729  1.1641  0.5929  2.7228
 6569SOL     OW31339   4.308   3.848   3.430 -0.2605 -0.0231  0.5490
 6569SOL    HW131340   4.353   3.930   3.450  1.3840 -1.3521  2.3717
 6569SOL    HW231341   4.336   3.830   3.340  0.0128 -1.5075  0.9253
 6570SOL     OW31342   2.366   1.193   6.399  0.1837  0.0602 -0.0799
 6570SOL    HW131343   2.428   1.123   6.419 -1.0637 -1.4879 -1.6031
 6570SOL    HW231344   2.315   1.208   6.479 -0.1200 -1.6149  0.0390
 6571SOL     OW31345   2.949   3.682   4.874  0.2689  0.2831  0.3052
 6571SOL    HW131346   2.991   3.596   4.879 -0.0559  0.1348  0.4836
 6571SOL    HW231347   2.969   3.718   4.960 -2.9232  1.3865  0.6097
 6572SOL     OW31348   1.237   4.586   6.115 -0.6048 -0.2589 -0.3395
 6572SOL    HW131349   1.194   4.605   6.198 -1.9169 -1.8177 -0.6793
 6572SOL    HW231350   1.168   4.608   6.052 -1.6753 -1.2124  0.5081
 6573SOL     OW31351   2.258   1.629   7.058 -0.2887  0.5690 -0.0485
 6573SOL    HW131352   2.163   1.626   7.046 -0.3140 -0.9558  0.4287
 6573SOL    HW231353   2.269   1.661   7.147 -0.1957 -0.5308  0.3408
 6574SOL     OW31354   0.055   4.195   6.329 -0.1856  0.1178  0.0112
 6574SOL    HW131355   0.070   4.254   6.402  0.8277 -0.5596  0.3413
 6574SOL    HW231356   4.720   4.160   6.381  0.4847 -2.3592 -0.7230
 6575SOL     OW31357   3.070   4.353   4.604 -0.0764  0.0276  0.2444
 6575SOL    HW131358   3.138   4.399   4.555 -1.1610  0.2678 -1.0356
 6575SOL    HW231359   3.121   4.330   4.682  1.3511  0.2652 -0.6349
 6576SOL     OW31360   1.647   4.406   9.523 -0.1777 -0.0733 -0.0753
 6576SOL    HW131361   1.672   4.498   9.524 -2.5849  0.5923 -0.1801
 6576SOL    HW231362   1.554   4.416   9.504  0.2177  3.5097  0.0164
 6577SOL     OW31363   3.545   2.648   4.383  0.0311 -0.0915 -0.2434
 6577SOL    HW131364   3.634   2.662   4.416 -0.3337 -0.3512  0.8237
 6577SOL    HW231365   3.505   2.733   4.402  0.8049  0.0746  0.6213
 6578SOL     OW31366   0.075   1.107  14.340 -0.2774 -0.1871 -0.2666
 6578SOL    HW131367   0.148   1.166  14.325  1.1897 -1.4142  2.0947
 6578SOL    HW231368   0.120   1.029  14.371  1.2680  0.4696 -0.8491
 6579SOL     OW31369   4.197   1.579   6.999 -1.3625  0.0987  0.0189
 6579SOL    HW131370   4.292   1.586   7.015 -1.4597 -0.8196  0.9498
 6579SOL    HW231371   4.161   1.553   7.083  0.7145  0.4694  1.0198
 6580SOL     OW31372   1.000   2.428   2.399  0.5619 -0.3677  0.0634
 6580SOL    HW131373   0.964   2.428   2.487  0.9794  1.6639  0.2336
 6580SOL    HW231374   1.054   2.350   2.410 -0.2098 -1.0705 -1.0803
 6581SOL     OW31375   0.459   1.944   2.639  0.4153  0.0774 -0.4740
 6581SOL    HW131376   0.452   2.017   2.701  0.4050  0.5092 -0.9912
 6581SOL    HW231377   0.400   1.878   2.676 -0.3609 -0.0594 -1.9554
 6582SOL     OW31378   4.520   0.422   9.022 -0.0978 -0.0431 -0.3650
 6582SOL    HW131379   4.596   0.480   9.017  0.3361 -0.5247  0.6147
 6582SOL    HW231380   4.515   0.408   9.117  0.6776 -1.9155 -0.6099
 6583SOL     OW31381   1.864   3.809   6.241  0.1164 -0.0602  0.3811
 6583SOL    HW131382   1.950   3.830   6.276  0.3400 -0.1654 -0.0954
 6583SOL    HW231383   1.895   3.801   6.150 -2.4293  2.5855 -0.7310
 6584SOL     OW31384   3.510   2.551   3.788  0.5069 -0.1088  0.8625
 6584SOL    HW131385   3.489   2.525   3.698 -4.2020 -2.2446  2.5894
 6584SOL    HW231386   3.492   2.644   3.776  1.4684  0.0019  0.2230
 6585SOL     OW31387   1.394   1.006   6.657 -0.1868 -0.3026 -0.6048
 6585SOL    HW131388   1.484   1.039   6.656  0.6439 -2.4749  1.4516
 6585SOL    HW231389   1.357   1.080   6.610 -0.5413  0.0048  0.1567
 6586SOL     OW31390   0.633   4.288   7.709 -0.3233 -0.2649  0.1171
 6586SOL    HW131391   0.696   4.220   7.733 -0.8786 -0.4103  1.1395
 6586SOL    HW231392   0.554   4.261   7.756 -1.0622  1.4978 -0.1193
 6587SOL     OW31393   3.156   3.488   3.234 -0.0152 -0.6555 -0.2933
 6587SOL    HW131394   3.180   3.436   3.157  1.4315  1.9692 -1.6359
 6587SOL    HW231395   3.221   3.558   3.231 -1.9625  1.2356  1.1082
 6588SOL     OW31396   3.265   0.414   3.888 -0.2230  0.3798 -0.4544
 6588SOL    HW131397   3.232   0.395   3.976 -0.1179 -0.5555 -0.6116
 6588SOL    HW231398   3.359   0.403   3.905  0.4331 -1.4085 -5.2190
 6589SOL     OW31399   2.914   1.707   2.519 -0.4090 -0.5045  0.6079
 6589SOL    HW131400   2.982   1.761   2.479  1.5096 -1.6658  2.2618
 6589SOL    HW231401   2.944   1.708   2.610 -1.2503  0.3201  0.8710
 6590SOL     OW31402   0.936   3.965   4.287 -0.0672 -0.4432 -0.0981
 6590SOL    HW131403   0.896   4.047   4.259  0.4934 -0.2611 -0.3698
 6590SOL    HW231404   0.884   3.954   4.366 -2.6495 -0.6928 -1.8500
 6591SOL     OW31405   2.793   1.207   7.102  0.2568 -0.0815 -0.5495
 6591SOL    HW131406   2.822   1.115   7.097 -0.6858 -0.4553  0.8260
 6591SOL    HW231407   2.752   1.222   7.017  0.5407 -1.3299 -0.9196
 6592SOL     OW31408   1.960   3.507  16.177 -0.3924 -0.9437  0.3120
 6592SOL    HW131409   1.990   3.594  16.151 -0.7279 -0.7149  0.6825
 6592SOL    HW231410   2.033   3.471  16.229  0.6346 -2.0288 -1.8907
 6593SOL     OW31411   3.059   0.397   9.834 -0.5769  0.2286 -0.2025
 6593SOL    HW131412   3.071   0.347   9.915  1.9918 -1.0884 -1.3776
 6593SOL    HW231413   2.966   0.398   9.814 -0.7080 -0.7775  0.3283
 6594SOL     OW31414   1.242   1.354   6.093  0.2798 -0.2525  0.4377
 6594SOL    HW131415   1.148   1.346   6.110  0.7318 -2.1523  2.0394
 6594SOL    HW231416   1.258   1.272   6.046  0.6520 -0.6622  1.2860
 6595SOL     OW31417   3.472   1.296   3.922 -0.0167  0.1683  0.2940
 6595SOL    HW131418   3.394   1.338   3.886 -0.0940  2.0924  2.7579
 6595SOL    HW231419   3.431   1.259   4.000 -1.1487  0.1721 -0.3029
 6596SOL     OW31420   4.376   4.592   7.683  0.1442 -0.4721  0.3839
 6596SOL    HW131421   4.326   4.654   7.736 -1.0671 -2.1993  1.2644
 6596SOL    HW231422   4.431   4.658   7.640  0.5778  0.2950  2.1168
 6597SOL     OW31423   3.071   2.994   6.681  0.2314 -0.1343  0.1214
 6597SOL    HW131424   2.982   3.028   6.694 -0.2483 -1.5341  0.5108
 6597SOL    HW231425   3.120   3.072   6.654 -0.7683  0.7879  0.9723
 6598SOL     OW31426   0.551   0.456  17.035 -0.1302  0.7240 -0.1091
 6598SOL    HW131427   0.563   0.435  16.942  2.1130  1.2142  0.0728
 6598SOL    HW231428   0.456   0.470  17.041 -0.0148  1.2490  0.4766
 6599SOL     OW31429   0.632   1.470   2.779 -0.7851 -0.4531 -0.0268
 6599SOL    HW131430   0.584   1.520   2.845 -1.3671 -1.4184  0.2739
 6599SOL    HW231431   0.714   1.455   2.826 -0.7320  0.7621  0.2642
 6600SOL     OW31432   4.056   3.582   5.389 -0.1401 -0.6908 -0.5184
 6600SOL    HW131433   4.018   3.619   5.310 -0.3883  1.3879  0.5558
 6600SOL    HW231434   4.028   3.644   5.457  0.0993  1.1928 -2.1302
 6601SOL     OW31435   3.641   0.328   2.340 -0.0317 -0.3350 -0.3902
 6601SOL    HW131436   3.706   0.372   2.285  0.1203 -1.9703 -1.5163
 6601SOL    HW231437   3.563   0.381   2.323 -0.0317 -0.4945 -0.9082
 6602SOL     OW31438   4.150   2.863   8.027  0.1523 -0.4396 -0.2443
 6602SOL    HW131439   4.196   2.939   8.064  0.6333 -0.4533 -0.8022
 6602SOL    HW231440   4.090   2.895   7.959 -1.9283 -0.3962  1.6294
 6603SOL     OW31441   0.922   3.398   5.735 -0.2860 -0.0011 -0.3106
 6603SOL    HW131442   0.936   3.492   5.726 -0.3389  0.0223 -0.1610
 6603SOL    HW231443   0.932   3.377   5.642  0.1014  0.4212 -0.3602
 6604SOL     OW31444   1.399   2.515   6.955 -0.1164 -0.7890  0.0433
 6604SOL    HW131445   1.409   2.607   6.931 -0.8209 -1.5156 -3.0101
 6604SOL    HW231446   1.366   2.526   7.044 -0.1342 -0.7400  0.0307
 6605SOL     OW31447   0.647   3.128   3.935 -0.5875  0.0614  0.2275
 6605SOL    HW131448   0.741   3.144   3.939 -0.6194  0.3560 -0.2594
 6605SOL    HW231449   0.635   3.096   4.025  1.3350  2.8331  1.4571
 6606SOL     OW31450   2.134   0.169   6.718  0.1894 -0.5210 -0.0823
 6606SOL    HW131451   2.074   0.147   6.789 -1.6869 -2.1955 -2.2013
 6606SOL    HW231452   2.081   0.163   6.639 -0.4457  0.6878  0.2534
 6607SOL     OW31453   0.276   1.342   1.393 -0.6733  0.8444 -0.2448
 6607SOL    HW131454   0.233   1.311   1.312  0.9459  0.1126 -0.8130
 6607SOL    HW231455   0.263   1.437   1.396 -3.2235  0.4304  1.6786
 6608SOL     OW31456   3.887   2.433   1.219 -0.0584 -0.1649  0.4476
 6608SOL    HW131457   3.869   2.369   1.288  1.6528 -0.1527  0.9150
 6608SOL    HW231458   3.830   2.505   1.249  1.2644  0.5265  1.3276
 6609SOL     OW31459   1.606   2.842   4.078 -0.2439 -0.1464  0.0831
 6609SOL    HW131460   1.539   2.909   4.061 -2.2031 -2.1129 -0.0397
 6609SOL    HW231461   1.661   2.856   4.001 -1.2247  0.4337 -0.5183
 6610SOL     OW31462   3.028   1.714   5.344  0.2652 -0.4396  0.3211
 6610SOL    HW131463   3.056   1.789   5.290 -1.8528  0.1678  0.0561
 6610SOL    HW231464   2.934   1.728   5.331  0.7001  0.2761 -2.1705
 6611SOL     OW31465   2.310   2.087  16.219 -0.1164  0.3025  0.1160
 6611SOL    HW131466   2.276   1.998  16.231 -1.6344  1.2687  2.9966
 6611SOL    HW231467   2.376   2.073  16.151 -0.4193  0.5991 -0.2359
 6612SOL     OW31468   4.549   1.413   8.166  0.0179  0.8701  0.3218
 6612SOL    HW131469   4.615   1.350   8.139  0.6546  2.0644 -0.9462
 6612SOL    HW231470   4.570   1.439   8.256 -1.8620  2.8167  0.2139
 6613SOL     OW31471   1.881   3.204   8.511  0.0379 -0.1934  0.1649
 6613SOL    HW131472   1.837   3.285   8.488  1.5178  0.5575  0.0022
 6613SOL    HW231473   1.812   3.171   8.568  1.6090 -2.5839  0.6835
 6614SOL     OW31474   2.525   0.796   7.668  0.0572 -0.0382  0.2594
 6614SOL    HW131475   2.526   0.853   7.591 -1.3431  0.4892  0.6314
 6614SOL    HW231476   2.575   0.835   7.739 -0.0114  0.1845  0.1855
 6615SOL     OW31477   2.480   4.717   4.331  0.0607  0.4095 -0.1569
 6615SOL    HW131478   2.532   0.002   4.254  1.0498 -1.3287  0.0159
 6615SOL    HW231479   2.483   0.056   4.389  0.3618  1.4487 -1.5314
 6616SOL     OW31480   1.315   2.630   7.608  0.0412 -0.1424 -0.2260
 6616SOL    HW131481   1.380   2.660   7.671 -0.2692 -0.4167  0.2352
 6616SOL    HW231482   1.366   2.569   7.555  0.8886  2.1407 -2.0105
 6617SOL     OW31483   3.730   0.328  14.368 -0.3135  0.4897  0.4491
 6617SOL    HW131484   3.820   0.296  14.368  0.2296  2.0041  0.0785
 6617SOL    HW231485   3.724   0.322  14.464  0.1677  1.1550  0.5193
 6618SOL     OW31486   1.105   1.872   5.015  0.3505 -0.2797 -0.3359
 6618SOL    HW131487   1.119   1.897   4.924  3.4227  0.4896  0.3512
 6618SOL    HW231488   1.191   1.869   5.056 -0.5729 -0.8881  1.6053
 6619SOL     OW31489   2.712   2.026   1.069 -0.1027  0.2516 -0.3338
 6619SOL    HW131490   2.625   2.014   1.107 -0.3121 -0.1225 -0.9395
 6619SOL    HW231491   2.674   2.096   1.016  0.1998 -0.3212 -1.3082
 6620SOL     OW31492   1.351   4.506   0.067  0.0330  0.6741  0.3517
 6620SOL    HW131493   1.318   4.452  17.742 -2.4735  2.0169  0.4842
 6620SOL    HW231494   1.431   4.457   0.085  0.1266  1.0208  0.8711
 6621SOL     OW31495   3.112   2.666   7.333  0.2661  0.0195 -0.0898
 6621SOL    HW131496   3.050   2.600   7.363  1.1302 -1.4884 -1.6123
 6621SOL    HW231497   3.122   2.720   7.411  0.0690 -0.9987  0.6369
 6622SOL     OW31498   3.389   1.494   5.101 -0.4419 -0.7960 -0.0659
 6622SOL    HW131499   3.344   1.505   5.017 -1.0478  0.7629  0.4767
 6622SOL    HW231500   3.358   1.412   5.140 -2.5844  0.4665  0.8741
 6623SOL     OW31501   4.399   3.502   7.647  0.1199  0.0771  0.8495
 6623SOL    HW131502   4.427   3.427   7.596 -0.2640 -0.6960  1.7629
 6623SOL    HW231503   4.328   3.465   7.700 -1.0976 -0.0102 -0.8398
 6624SOL     OW31504   3.724   2.993   2.771  0.1490  0.4450 -0.2930
 6624SOL    HW131505   3.711   2.906   2.735 -1.0878  0.5559 -0.0954
 6624SOL    HW231506   3.697   2.986   2.862 -0.6791 -0.2869 -0.6020
 6625SOL     OW31507   4.376   3.485   6.469  0.4432 -0.1065 -0.3163
 6625SOL    HW131508   4.288   3.521   6.461  0.5757  0.2502 -0.1826
 6625SOL    HW231509   4.432   3.556   6.501  2.6307 -2.0052  0.0326
 6626SOL     OW31510   0.055   4.099   5.415 -0.3594  0.4508  0.0959
 6626SOL    HW131511   4.723   4.166   5.407 -0.9761 -0.4180 -1.7381
 6626SOL    HW231512   0.030   4.069   5.503 -0.1280 -2.1659 -0.7429
 6627SOL     OW31513   2.012   1.678   5.940  0.4647  0.0565 -0.0282
 6627SOL    HW131514   2.022   1.596   5.890  1.5376  0.7680 -0.9850
 6627SOL    HW231515   2.093   1.721   5.915  0.6297  0.2150  0.7936
 6628SOL     OW31516   0.300   4.475  16.579  0.4171  0.3816 -0.0563
 6628SOL    HW131517   0.260   4.472  16.492  0.7347  0.5234 -0.2056
 6628SOL    HW231518   0.389   4.479  16.544  0.5536 -1.9477  0.0237
 6629SOL     OW31519   1.915   4.445   5.357 -0.2544  0.1084  0.2703
 6629SOL    HW131520   1.963   4.442   5.274 -0.6993  0.5136 -0.0046
 6629SOL    HW231521   1.888   4.354   5.370  0.7728 -0.2086  0.1801
 6630SOL     OW31522   0.152   4.596   2.893 -0.0569  0.3806  0.3168
 6630SOL    HW131523   0.185   4.636   2.813 -2.2292  0.8450 -0.3440
 6630SOL    HW231524   0.059   4.619   2.893 -0.2064 -0.2186  0.0809
 6631SOL     OW31525   1.738   0.787   8.851  0.5937 -0.1618  0.3707
 6631SOL    HW131526   1.778   0.701   8.849  1.0723  0.0535  1.1678
 6631SOL    HW231527   1.817   0.840   8.850 -0.3012  1.1769  0.1444
 6632SOL     OW31528   4.411   3.310   6.266  0.5861 -0.4072  0.3584
 6632SOL    HW131529   4.318   3.334   6.265  0.7463  0.1156 -2.8773
 6632SOL    HW231530   4.443   3.377   6.326 -2.7726  0.9199  0.6983
 6633SOL     OW31531   1.606   0.332   4.278 -0.5042  0.5537  0.2433
 6633SOL    HW131532   1.601   0.321   4.373  1.3102 -1.3825  0.1165
 6633SOL    HW231533   1.654   0.415   4.281 -2.5358  1.6736  1.7778
 6634SOL     OW31534   1.814   0.128   3.858 -0.7737  0.3369  0.0163
 6634SOL    HW131535   1.781   0.135   3.769  1.1695 -0.6001 -0.7737
 6634SOL    HW231536   1.829   0.221   3.875  1.6326  0.1163 -0.9501
 6635SOL     OW31537   3.846   3.767   2.678 -0.5131 -0.5356 -0.3848
 6635SOL    HW131538   3.766   3.742   2.632 -3.0937  1.2627  3.1137
 6635SOL    HW231539   3.912   3.718   2.629  0.0510  1.0924 -1.2608
 6636SOL     OW31540   0.137   2.139   6.398 -0.0112  0.0534 -0.9154
 6636SOL    HW131541   0.111   2.204   6.333  0.2761  1.5475  0.4588
 6636SOL    HW231542   0.077   2.066   6.379 -0.4864  0.7404 -2.0317
 6637SOL     OW31543   0.251   1.002   5.825  0.4693  0.1976  0.1490
 6637SOL    HW131544   0.158   1.007   5.846  0.6489  2.1576  0.4331
 6637SOL    HW231545   0.264   1.036   5.736  2.7027  1.6243  1.0286
 6638SOL     OW31546   3.339   2.033   4.885  0.4919  0.4931  0.1402
 6638SOL    HW131547   3.326   2.117   4.930  1.0012  1.3183 -1.2580
 6638SOL    HW231548   3.420   1.999   4.923  0.8175 -0.9455 -1.8539
 6639SOL     OW31549   1.504   3.873   1.205  0.1117 -0.2874  0.2348
 6639SOL    HW131550   1.469   3.784   1.195  0.3526  0.0856 -4.3487
 6639SOL    HW231551   1.594   3.850   1.227 -0.3593 -0.8621  1.5224
 6640SOL     OW31552   0.303   2.932   1.438  0.0150 -0.0556  0.3522
 6640SOL    HW131553   0.232   2.979   1.395 -0.1554 -0.4947  0.1487
 6640SOL    HW231554   0.267   2.872   1.505 -0.6407 -0.3042 -0.2277
 6641SOL     OW31555   0.937   4.191   8.355  0.0647  0.4620 -0.3992
 6641SOL    HW131556   1.025   4.165   8.385 -0.1475 -2.0480 -1.9607
 6641SOL    HW231557   0.938   4.174   8.261 -1.8272  1.1094 -0.5371
 6642SOL     OW31558   1.907   0.002   9.053 -0.0803  0.3126 -0.4750
 6642SOL    HW131559   1.958   4.661   9.032  0.5489  0.4148  0.6620
 6642SOL    HW231560   1.983   0.055   9.028  0.7465 -0.1790  0.9481
 6643SOL     OW31561   4.588   1.984   6.111 -0.1509  0.1986  0.1273
 6643SOL    HW131562   4.591   1.962   6.018  2.0247 -2.0444  0.7238
 6643SOL    HW231563   4.620   2.074   6.110  1.1330 -0.2742 -0.4062
 6644SOL     OW31564   2.324   2.861  11.574  0.2771  0.0275  0.1436
 6644SOL    HW131565   2.303   2.928  11.509 -0.1326  0.3829  0.6368
 6644SOL    HW231566   2.239   2.864  11.619  0.1362  1.4888 -0.2088
 6645SOL     OW31567   2.144   4.518  13.640  0.2605  0.0249 -0.8835
 6645SOL    HW131568   2.141   4.538  13.546 -0.6872  1.3063 -0.5728
 6645SOL    HW231569   2.139   4.422  13.644  0.0462  0.0768 -0.0822
 6646SOL     OW31570   0.532   1.910   1.601 -0.1909  0.0041  0.4352
 6646SOL    HW131571   0.553   1.985   1.546  1.0782 -1.2056 -0.7401
 6646SOL    HW231572   0.612   1.858   1.594 -0.4733 -0.2483 -1.0115
 6647SOL     OW31573   1.658   4.620   5.839 -0.2609 -0.5218 -0.0806
 6647SOL    HW131574   1.576   4.605   5.886 -0.1659 -1.3125 -0.1556
 6647SOL    HW231575   1.634   4.695   5.785 -2.2015 -2.1755 -1.5329
 6648SOL     OW31576   1.522   1.463   4.208  0.4474  0.0212 -0.1922
 6648SOL    HW131577   1.558   1.402   4.273  0.3793  0.3191  0.1283
 6648SOL    HW231578   1.599   1.514   4.184 -0.1237  0.4188 -1.1907
 6649SOL     OW31579   0.228   2.127  13.456  0.2459  0.6897  0.5713
 6649SOL    HW131580   0.284   2.204  13.451 -0.5909  1.3398  1.2556
 6649SOL    HW231581   0.285   2.065  13.411 -1.7640  0.8803 -2.2676
 6650SOL     OW31582   2.489   4.040   4.178 -0.2072 -0.1376  0.0073
 6650SOL    HW131583   2.418   4.000   4.128  1.6077 -1.6160 -1.4017
 6650SOL    HW231584   2.492   4.133   4.155  1.7583 -0.5768 -1.5075
 6651SOL     OW31585   1.395   4.122  11.208  0.0523 -0.9192 -0.1738
 6651SOL    HW131586   1.306   4.156  11.214  0.9044  1.3538 -0.3086
 6651SOL    HW231587   1.422   4.142  11.118  0.7732  1.2851  0.5311
 6652SOL     OW31588   3.153   0.452  13.442 -0.0213  0.1085 -0.0795
 6652SOL    HW131589   3.207   0.457  13.363 -0.3681  0.6696 -0.2813
 6652SOL    HW231590   3.208   0.498  13.506 -1.3300 -3.1093  3.4131
 6653SOL     OW31591   3.893   1.123   1.146 -0.2844 -0.0014  0.1703
 6653SOL    HW131592   3.924   1.032   1.145  1.5075  0.6302 -0.8605
 6653SOL    HW231593   3.970   1.179   1.155  0.2554 -0.5313 -1.3137
 6654SOL     OW31594   0.036   3.029   3.443  0.2251  0.4316  0.5575
 6654SOL    HW131595   0.004   3.017   3.532 -0.6876  0.6116  0.2519
 6654SOL    HW231596   0.131   3.024   3.453  0.6132  3.0018 -1.7169
 6655SOL     OW31597   3.707   2.776   7.868 -0.6335 -0.3098  0.1787
 6655SOL    HW131598   3.724   2.708   7.803 -0.3705  0.5443 -0.6510
 6655SOL    HW231599   3.613   2.768   7.882 -0.1343 -3.5852  1.6513
 6656SOL     OW31600   0.825   3.961  15.792 -0.7168 -0.2610 -0.7087
 6656SOL    HW131601   0.845   3.977  15.700  0.3656 -0.6896 -0.5480
 6656SOL    HW231602   0.803   3.868  15.786 -1.9620  0.0334 -0.6286
 6657SOL     OW31603   1.605   4.194   6.076 -0.0755  0.3709 -0.0278
 6657SOL    HW131604   1.512   4.203   6.094 -0.0789 -0.1000  0.1782
 6657SOL    HW231605   1.646   4.200   6.162  1.8622  2.8260 -1.1329
 6658SOL     OW31606   1.948   0.521   7.162  0.4452 -0.1877 -0.0064
 6658SOL    HW131607   1.902   0.572   7.095 -1.0340 -0.8494  0.5065
 6658SOL    HW231608   1.897   0.442   7.179  1.2522 -1.0011 -1.3680
 6659SOL     OW31609   2.910   4.615   5.400  0.2250 -0.8628  0.1647
 6659SOL    HW131610   2.883   4.530   5.364  0.1430 -1.0184  0.5918
 6659SOL    HW231611   2.829   4.640   5.444  0.9616 -0.3303  1.2270
 6660SOL     OW31612   3.008   0.660   4.467 -0.1580 -0.2907 -0.1024
 6660SOL    HW131613   2.981   0.588   4.411 -1.1667  0.2534 -0.3232
 6660SOL    HW231614   3.041   0.609   4.541 -0.1023  1.5589  1.1372
 6661SOL     OW31615   0.116   0.464   2.264 -0.1517  0.4725  0.4911
 6661SOL    HW131616   0.082   0.525   2.199 -2.2241 -0.4258  0.7171
 6661SOL    HW231617   0.209   0.470   2.244 -0.3663 -2.1820 -1.3661
 6662SOL     OW31618   0.383   0.883   3.742 -0.2038 -0.0741  0.6294
 6662SOL    HW131619   0.460   0.839   3.778  1.7130  1.6399 -1.3823
 6662SOL    HW231620   0.355   0.828   3.670  0.8560 -0.5409  0.5770
 6663SOL     OW31621   3.829   1.878   6.254  0.0551 -0.5347 -0.7070
 6663SOL    HW131622   3.763   1.946   6.260 -0.5433 -1.1860  0.1658
 6663SOL    HW231623   3.808   1.836   6.338 -0.9953  0.4864 -0.4637
 6664SOL     OW31624   2.042   0.461  16.757 -0.1354 -0.0334 -0.3118
 6664SOL    HW131625   2.040   0.449  16.852 -3.9432 -3.2944 -0.7981
 6664SOL    HW231626   1.973   0.526  16.739  0.8018  0.3050 -2.7545
 6665SOL     OW31627   1.374   2.621  17.320 -0.2275 -0.4561  0.1387
 6665SOL    HW131628   1.310   2.679  17.278 -0.2560 -0.1106  0.6469
 6665SOL    HW231629   1.433   2.604  17.247  1.1809 -0.7986  1.3544
 6666SOL     OW31630   1.347   2.103   5.683  0.2472  0.3511  0.0643
 6666SOL    HW131631   1.372   2.192   5.709 -0.8687  0.4817  0.6937
 6666SOL    HW231632   1.288   2.091   5.757 -0.3206  0.9307 -0.2985
 6667SOL     OW31633   2.764   1.648   3.601 -0.3423 -0.3338  0.6376
 6667SOL    HW131634   2.706   1.658   3.677  1.2363 -0.2507  1.8527
 6667SOL    HW231635   2.699   1.654   3.531 -0.4101  2.0153  0.8959
 6668SOL     OW31636   3.630   0.868   7.715 -0.0256  0.0243  0.1346
 6668SOL    HW131637   3.701   0.818   7.674 -0.9430  0.4801 -1.9514
 6668SOL    HW231638   3.647   0.955   7.679 -0.3414  0.0260 -0.0065
 6669SOL     OW31639   1.918   0.951   9.031 -0.3601 -0.1280 -0.2813
 6669SOL    HW131640   1.954   0.863   9.018  0.3762  0.5863 -3.1749
 6669SOL    HW231641   1.996   0.989   9.070 -0.8505 -0.1408  0.7040
 6670SOL     OW31642   0.762   3.033  13.475  0.3773 -0.0118  0.6431
 6670SOL    HW131643   0.690   3.051  13.415 -0.0354 -1.0728  0.8292
 6670SOL    HW231644   0.746   2.940  13.488  0.5550 -0.1104  0.1507
 6671SOL     OW31645   1.298   2.646   4.554 -0.1579  0.6104 -0.0247
 6671SOL    HW131646   1.292   2.600   4.471 -0.1264 -0.8904  0.8023
 6671SOL    HW231647   1.361   2.585   4.592 -1.2120  1.4296  3.0235
 6672SOL     OW31648   0.961   0.602   2.021  0.1367 -0.4628  0.3515
 6672SOL    HW131649   0.969   0.651   1.939  2.3616 -0.0897  0.7936
 6672SOL    HW231650   0.891   0.659   2.051 -0.6771 -2.7988  2.9112
 6673SOL     OW31651   1.986   4.726   4.073  0.5218  0.0308 -0.4106
 6673SOL    HW131652   1.932   4.719   4.151  0.5832 -1.2080 -0.4672
 6673SOL    HW231653   1.950   0.059   4.019  1.5636  0.7512 -0.1625
 6674SOL     OW31654   3.947   2.490   9.871 -0.6975  0.2689  0.7313
 6674SOL    HW131655   3.946   2.433   9.948 -0.5757  0.0836  0.5976
 6674SOL    HW231656   4.021   2.460   9.818 -1.1016 -0.5804  0.6380
 6675SOL     OW31657   0.208   4.553  17.446 -0.2882 -0.4892  0.6545
 6675SOL    HW131658   0.219   4.577  17.354 -0.0414  0.6674  0.9896
 6675SOL    HW231659   0.126   4.601  17.459  0.0279  0.2356 -0.0313
 6676SOL     OW31660   3.662   3.349   4.157 -0.4704 -0.1975 -0.5268
 6676SOL    HW131661   3.752   3.333   4.127 -0.4084  1.8661 -1.4448
 6676SOL    HW231662   3.670   3.436   4.198 -2.1803 -0.1528 -0.2933
 6677SOL     OW31663   4.213   3.070   1.977 -0.1282  0.0540  0.3724
 6677SOL    HW131664   4.150   3.119   1.923  1.1407  0.1398 -1.0512
 6677SOL    HW231665   4.158   3.027   2.042  0.3212 -1.7877 -0.4567
 6678SOL     OW31666   1.307   0.439   9.011  0.4142 -0.2325 -0.1472
 6678SOL    HW131667   1.303   0.419   9.105 -3.2779  0.9563 -0.0374
 6678SOL    HW231668   1.395   0.472   8.997  0.2064  0.3825 -0.0115
 6679SOL     OW31669   0.074   3.080  14.793 -0.2000  0.0696  0.4910
 6679SOL    HW131670   4.726   3.048  14.764  1.4879 -2.4019 -1.7401
 6679SOL    HW231671   0.131   3.003  14.785 -2.5448 -1.4723 -1.6359
 6680SOL     OW31672   4.372   1.874  10.141 -0.0370  0.0253 -0.1526
 6680SOL    HW131673   4.436   1.852  10.209 -1.4603 -0.7620  0.9386
 6680SOL    HW231674   4.330   1.789  10.125  0.0250 -0.1950  0.8351
 6681SOL     OW31675   1.448   1.177  13.044  0.0017 -0.3140 -0.2267
 6681SOL    HW131676   1.455   1.113  13.115  0.2404 -0.3543 -0.2869
 6681SOL    HW231677   1.535   1.218  13.046 -0.5419  1.0692 -3.5286
 6682SOL     OW31678   4.105   0.385  15.460  0.1362  0.3510  0.3986
 6682SOL    HW131679   4.042   0.331  15.509  2.0867 -0.5467  1.9085
 6682SOL    HW231680   4.109   0.336  15.378 -1.0682 -0.0886  0.5911
 6683SOL     OW31681   1.228   2.548   6.398  0.3156 -0.0529 -0.0939
 6683SOL    HW131682   1.262   2.485   6.462 -0.4021  0.4265  0.7685
 6683SOL    HW231683   1.279   2.626   6.418 -0.1426 -0.4795  2.7616
 6684SOL     OW31684   0.779   1.998   7.034  0.2335 -0.4723 -0.0166
 6684SOL    HW131685   0.875   1.992   7.036  0.2180 -0.7642 -0.1864
 6684SOL    HW231686   0.749   1.933   7.097 -0.8165 -0.5246 -0.5802
 6685SOL     OW31687   1.142   3.826  10.621 -0.7325 -0.0287  0.2940
 6685SOL    HW131688   1.085   3.751  10.611  1.0825 -1.1562 -1.5896
 6685SOL    HW231689   1.104   3.890  10.561  0.4406  1.0968  0.7315
 6686SOL     OW31690   3.923   1.302   5.818  0.0210 -0.0305 -0.2818
 6686SOL    HW131691   3.878   1.222   5.847  1.0618 -1.1119 -1.6574
 6686SOL    HW231692   4.008   1.306   5.862  0.3288  1.9408 -1.0726
 6687SOL     OW31693   1.791   1.176   9.454 -0.0445 -0.6199 -0.8001
 6687SOL    HW131694   1.701   1.150   9.474 -0.2255  0.1876 -0.5779
 6687SOL    HW231695   1.825   1.197   9.541 -3.1029  3.5481 -0.5945
 6688SOL     OW31696   1.991   2.132   9.297  0.4762 -0.5990 -0.1169
 6688SOL    HW131697   1.933   2.162   9.367 -0.7905 -0.0378 -1.4071
 6688SOL    HW231698   1.933   2.100   9.228  0.8222  0.0670 -0.7228
 6689SOL     OW31699   1.298   2.011   7.595 -0.3311 -0.4352 -0.2515
 6689SOL    HW131700   1.253   1.977   7.673 -0.7130 -1.2159 -0.8087
 6689SOL    HW231701   1.362   1.942   7.576  2.4473  1.8781  0.7602
 6690SOL     OW31702   2.491   1.709   5.557  0.3470  0.4383  0.4124
 6690SOL    HW131703   2.533   1.623   5.562 -1.0861 -0.1049  2.8944
 6690SOL    HW231704   2.401   1.676   5.558  0.8524 -0.8934  1.4940
 6691SOL     OW31705   1.780   4.207  16.095  0.5815  0.4580 -0.0362
 6691SOL    HW131706   1.816   4.119  16.107 -2.2958 -0.6306  0.6330
 6691SOL    HW231707   1.861   4.246  16.063 -0.7202  2.4160 -0.9219
 6692SOL     OW31708   2.202   2.075   5.329  0.6203 -0.1607  0.5184
 6692SOL    HW131709   2.250   1.994   5.345  2.1713  0.4753 -0.9080
 6692SOL    HW231710   2.128   2.067   5.389  2.1773 -2.3168  2.1428
 6693SOL     OW31711   3.909   0.447   8.793 -0.1014 -0.5482  0.1467
 6693SOL    HW131712   3.992   0.492   8.781 -2.0354  2.6865 -1.3123
 6693SOL    HW231713   3.871   0.496   8.866 -1.3104  1.1485 -1.6131
 6694SOL     OW31714   1.022   4.130  15.302 -0.3202  0.4304  0.9950
 6694SOL    HW131715   0.989   4.158  15.216 -0.4292 -1.2311  0.4873
 6694SOL    HW231716   1.104   4.090  15.271 -1.1400 -0.3429 -0.1888
 6695SOL     OW31717   0.658   0.599   9.801 -0.1282 -0.1279 -0.1748
 6695SOL    HW131718   0.654   0.628   9.893 -0.2366  1.9204 -0.8185
 6695SOL    HW231719   0.749   0.615   9.777 -0.4488  1.1035 -0.5682
 6696SOL     OW31720   4.569   0.392   5.950 -0.2234  0.0634  0.5275
 6696SOL    HW131721   4.476   0.382   5.968 -0.2640 -2.0956 -0.8207
 6696SOL    HW231722   4.609   0.339   6.020  2.0017  1.0212 -0.0081
 6697SOL     OW31723   4.490   3.589   2.569  0.4029  0.5759 -0.5658
 6697SOL    HW131724   4.444   3.658   2.617  1.2516 -0.0854  1.2016
 6697SOL    HW231725   4.507   3.516   2.628 -0.0322  1.0385  0.1228
 6698SOL     OW31726   3.665   2.515   9.015 -0.2052  0.1041 -0.6109
 6698SOL    HW131727   3.650   2.570   9.092 -0.8464  0.0691 -0.7104
 6698SOL    HW231728   3.757   2.491   9.029 -1.6026 -3.0991  3.0641
 6699SOL     OW31729   0.555   0.166   0.838 -0.0038 -0.4005  0.4218
 6699SOL    HW131730   0.573   0.147   0.931 -1.6275  1.3886  1.1053
 6699SOL    HW231731   0.501   0.245   0.849 -0.8652 -1.0512  0.8478
 6700SOL     OW31732   2.130   1.721   7.365 -0.4614  0.1149 -0.3847
 6700SOL    HW131733   2.084   1.708   7.448 -2.5557  1.4086 -1.3392
 6700SOL    HW231734   2.063   1.713   7.297  0.2733 -0.8072 -0.9998
 6701SOL     OW31735   4.063   3.415   5.661 -0.1053  0.3856 -0.5698
 6701SOL    HW131736   4.121   3.369   5.721 -0.6576  1.4255  0.7506
 6701SOL    HW231737   4.129   3.470   5.619  1.1019 -0.9570 -0.4003
 6702SOL     OW31738   4.264   1.271   6.476 -0.0595 -0.1212  0.3924
 6702SOL    HW131739   4.181   1.314   6.494  1.3591  2.4980  0.6980
 6702SOL    HW231740   4.313   1.290   6.556 -0.9369  0.8990  0.6923
 6703SOL     OW31741   0.754   4.669   6.161  0.6161  0.1314  0.3336
 6703SOL    HW131742   0.831   4.641   6.112 -0.1488  0.1155 -0.8930
 6703SOL    HW231743   0.707   4.586   6.164  1.2285 -0.2171  0.1851
 6704SOL     OW31744   3.677   2.091   5.527  0.0160  0.1356  0.0827
 6704SOL    HW131745   3.642   2.032   5.593 -0.1287  1.1084  0.8823
 6704SOL    HW231746   3.752   2.117   5.581 -1.3190 -1.2688  2.6158
 6705SOL     OW31747   0.555   3.473  12.820  0.3046 -0.0422  0.1365
 6705SOL    HW131748   0.483   3.527  12.788  0.8417 -0.3006 -1.5411
 6705SOL    HW231749   0.627   3.501  12.763  0.8420 -2.4876 -0.4205
 6706SOL     OW31750   2.499   0.944   2.935 -0.1908 -0.2690 -0.6722
 6706SOL    HW131751   2.557   1.021   2.943 -0.1578 -0.1538 -1.9501
 6706SOL    HW231752   2.494   0.919   3.027 -0.0977  0.4261 -0.4779
 6707SOL     OW31753   3.456   2.000   3.465 -0.2509  0.7897  0.1588
 6707SOL    HW131754   3.482   2.092   3.464 -1.6331  1.2027  0.8864
 6707SOL    HW231755   3.502   1.967   3.541 -0.6620 -0.8943 -0.3289
 6708SOL     OW31756   0.810   4.388  13.267  0.3750 -0.2047 -0.2737
 6708SOL    HW131757   0.835   4.335  13.342  0.7799 -2.0069 -1.6702
 6708SOL    HW231758   0.833   4.476  13.297 -1.0263 -0.2168  0.8108
 6709SOL     OW31759   4.125   2.835   2.830  0.0385  0.5842  0.0180
 6709SOL    HW131760   4.122   2.755   2.881  3.9638 -1.1321 -2.5010
 6709SOL    HW231761   4.210   2.817   2.790  0.0602 -2.2214  1.3311
 6710SOL     OW31762   2.697   3.820   4.224  0.5037  0.0257  0.6189
 6710SOL    HW131763   2.661   3.739   4.260 -0.8315  0.7014  0.7992
 6710SOL    HW231764   2.629   3.886   4.215  1.9146  1.4096  0.2578
 6711SOL     OW31765   2.184   0.300  12.738 -0.0144  0.3400  0.2240
 6711SOL    HW131766   2.269   0.310  12.695 -0.8233  0.0447 -1.4276
 6711SOL    HW231767   2.194   0.243  12.814 -1.2811  1.7310  1.4280
 6712SOL     OW31768   1.749   1.336   2.917 -0.2886  0.5826 -0.4865
 6712SOL    HW131769   1.835   1.304   2.945 -0.4901 -0.8698 -1.5246
 6712SOL    HW231770   1.759   1.375   2.830 -1.6102  0.4785 -0.6782
 6713SOL     OW31771   3.766   4.158  15.516 -0.5177  0.5922  0.6661
 6713SOL    HW131772   3.743   4.184  15.426  1.4808  1.1803  0.3338
 6713SOL    HW231773   3.773   4.063  15.514 -0.6147  0.6497 -2.4331
 6714SOL     OW31774   1.972   0.977  16.664  0.6091  0.0994 -0.0987
 6714SOL    HW131775   1.940   0.913  16.601 -2.1582  1.7203 -0.3226
 6714SOL    HW231776   1.995   1.041  16.597 -0.0319 -1.6433 -1.9850
 6715SOL     OW31777   4.380   4.131   5.531  0.3440 -0.2831 -0.1995
 6715SOL    HW131778   4.442   4.189   5.486  0.2319 -0.6086 -0.7815
 6715SOL    HW231779   4.447   4.094   5.589  0.5038 -0.1095 -0.2723
 6716SOL     OW31780   2.691   1.168   5.639  0.1211 -0.3297 -1.0706
 6716SOL    HW131781   2.691   1.098   5.705  1.0690 -0.4339 -1.1812
 6716SOL    HW231782   2.619   1.135   5.585 -1.3398  3.3608 -1.3892
 6717SOL     OW31783   1.997   3.225   4.650  0.5081  0.3555 -0.1429
 6717SOL    HW131784   1.995   3.178   4.567  1.0780 -0.1698  0.1360
 6717SOL    HW231785   1.910   3.200   4.683  0.9602 -0.5616  0.3578
 6718SOL     OW31786   1.792   1.375   1.892  0.1832  0.1834 -0.5980
 6718SOL    HW131787   1.854   1.389   1.821 -1.2446 -0.3835 -1.9808
 6718SOL    HW231788   1.848   1.345   1.962  1.1015 -0.3264 -1.5526
 6719SOL     OW31789   2.165   3.371   5.003  0.0232  0.4289  0.0765
 6719SOL    HW131790   2.180   3.384   5.097  0.4582  0.3049  0.0244
 6719SOL    HW231791   2.253   3.361   4.968  0.4726  1.6432  0.8442
 6720SOL     OW31792   1.274   0.010   1.613 -0.2309  0.8527 -0.5118
 6720SOL    HW131793   1.344   0.072   1.636 -0.0397  0.0900  0.9540
 6720SOL    HW231794   1.277   4.689   1.688  1.9915 -0.1111 -1.3451
 6721SOL     OW31795   2.651   0.515   9.504  0.4854  0.5317  0.3042
 6721SOL    HW131796   2.642   0.610   9.512 -1.6106  0.2941  0.6087
 6721SOL    HW231797   2.587   0.498   9.436  0.9217  0.7941 -0.1737
 6722SOL     OW31798   4.708   0.484  12.751  0.3240  0.0944  0.2769
 6722SOL    HW131799   0.065   0.497  12.752  0.8188 -3.3871 -2.9555
 6722SOL    HW231800   4.687   0.576  12.732  0.8022 -0.3929 -2.5565
 6723SOL     OW31801   0.762   4.035   5.319  0.3308 -0.1640  0.4334
 6723SOL    HW131802   0.847   4.075   5.299 -0.9747  1.6701 -1.3740
 6723SOL    HW231803   0.719   4.103   5.371 -0.9533 -0.9355  0.3880
 6724SOL     OW31804   2.774   3.424   5.860  0.8325 -0.2764  0.2729
 6724SOL    HW131805   2.765   3.493   5.794  0.3411 -1.2055 -0.6318
 6724SOL    HW231806   2.694   3.372   5.854  1.6593 -1.2847 -1.8347
 6725SOL     OW31807   1.861   1.386   3.409  1.0261 -0.0142 -0.6825
 6725SOL    HW131808   1.903   1.301   3.414  2.7718  0.9545  0.6915
 6725SOL    HW231809   1.926   1.441   3.365  0.8322  0.7685  0.0038
 6726SOL     OW31810   4.125   2.997   9.298  0.0838  0.0893  0.2682
 6726SOL    HW131811   4.164   2.912   9.320 -0.9815 -0.9758 -1.9182
 6726SOL    HW231812   4.202   3.054   9.300 -0.5605  0.9304  0.9762
 6727SOL     OW31813   0.615   2.802   6.722  0.2638  0.2908 -0.0210
 6727SOL    HW131814   0.666   2.790   6.802 -0.8867  0.2447  0.7198
 6727SOL    HW231815   0.561   2.878   6.746  0.6946 -0.7747  4.3433
 6728SOL     OW31816   2.146   1.573   5.344  0.0482 -0.8857  0.8232
 6728SOL    HW131817   2.154   1.595   5.437  2.7488 -0.3481  0.4723
 6728SOL    HW231818   2.190   1.651   5.310 -0.5049 -1.0765 -0.3306
 6729SOL     OW31819   0.272   3.409   8.000 -0.2106 -0.4765 -0.2875
 6729SOL    HW131820   0.237   3.394   8.088 -1.3968 -0.5754 -0.7790
 6729SOL    HW231821   0.330   3.333   7.994  0.9869  0.4081  0.0626
 6730SOL     OW31822   2.026   3.572   4.911  0.3557 -0.0003  0.6829
 6730SOL    HW131823   2.087   3.503   4.937 -0.5596 -1.6472 -1.4976
 6730SOL    HW231824   1.956   3.517   4.875  1.0785  0.3616 -1.2971
 6731SOL     OW31825   1.452   0.511   3.818 -0.3211 -0.7187  0.3821
 6731SOL    HW131826   1.447   0.606   3.810  1.0263 -0.7191 -0.3824
 6731SOL    HW231827   1.421   0.487   3.730  1.1590  0.8129 -0.5469
 6732SOL     OW31828   2.760   4.181  12.319  0.7104  0.2734 -0.6574
 6732SOL    HW131829   2.678   4.139  12.292 -0.8676  2.9469 -0.0726
 6732SOL    HW231830   2.786   4.127  12.393 -1.3569  0.9983  0.5994
 6733SOL     OW31831   2.631   2.996   2.550 -0.0452 -0.1511 -0.0420
 6733SOL    HW131832   2.659   3.053   2.478 -1.2917  1.2061  0.5501
 6733SOL    HW231833   2.540   3.024   2.558 -0.0683 -0.4773  0.7997
 6734SOL     OW31834   1.900   1.583   8.684 -0.2995 -0.3355  0.1672
 6734SOL    HW131835   1.987   1.543   8.690  0.8324  1.7988 -2.0256
 6734SOL    HW231836   1.920   1.671   8.653  0.5763 -0.5654  0.0568
 6735SOL     OW31837   4.576   2.937   5.850 -0.1785  0.2191  0.1658
 6735SOL    HW131838   4.666   2.959   5.826 -0.3169  0.3891 -0.1956
 6735SOL    HW231839   4.557   3.018   5.897 -0.5503  0.3559 -0.2232
 6736SOL     OW31840   1.206   0.224   8.323  0.5368  0.2479 -0.3562
 6736SOL    HW131841   1.214   0.250   8.415 -0.9342  2.0630 -0.7635
 6736SOL    HW231842   1.200   0.128   8.319 -2.7391  0.3690  1.2576
 6737SOL     OW31843   3.379   4.067   5.701 -0.1316 -0.0608 -0.7236
 6737SOL    HW131844   3.297   4.057   5.652 -0.2304 -0.8100 -0.4005
 6737SOL    HW231845   3.432   4.101   5.629  0.8749  0.2938  0.1707
 6738SOL     OW31846   3.253   4.388   7.084  0.0947  0.2271 -0.0655
 6738SOL    HW131847   3.348   4.388   7.097  0.0848  0.5450  0.0225
 6738SOL    HW231848   3.226   4.309   7.131  2.3840 -0.9913 -0.7867
 6739SOL     OW31849   0.566   2.218   7.658  0.5507 -0.1982 -0.2099
 6739SOL    HW131850   0.472   2.239   7.659  0.9360  1.4963  0.3945
 6739SOL    HW231851   0.590   2.309   7.676 -1.2388  0.2370 -0.0310
 6740SOL     OW31852   2.290   4.001   6.919  0.4559 -0.2344  0.1937
 6740SOL    HW131853   2.306   3.975   7.009  1.5893 -1.4340 -0.3589
 6740SOL    HW231854   2.339   3.935   6.870 -0.5984 -0.0016 -1.1685
 6741SOL     OW31855   1.668   3.083   3.404  0.1302 -0.0816 -0.7883
 6741SOL    HW131856   1.651   3.125   3.320 -0.4668  0.9002 -0.1723
 6741SOL    HW231857   1.616   3.003   3.400  1.1803 -0.7171 -2.0166
 6742SOL     OW31858   2.260   2.370  10.023 -0.0299  0.4072  0.5451
 6742SOL    HW131859   2.177   2.338   9.987  0.8973 -1.7423  0.2925
 6742SOL    HW231860   2.253   2.327  10.108  0.1275  0.3905  0.5504
 6743SOL     OW31861   0.905   1.358  12.945 -0.0987 -0.0324  0.4931
 6743SOL    HW131862   0.921   1.449  12.969 -0.0817 -0.2173  1.1993
 6743SOL    HW231863   0.946   1.356  12.859  0.5839  0.6582  0.8003
 6744SOL     OW31864   4.073   0.645  15.429  0.0625  0.2672  0.4346
 6744SOL    HW131865   3.981   0.639  15.455 -0.0314  1.9661  0.5201
 6744SOL    HW231866   4.090   0.551  15.432  0.8971  0.3661 -1.6293
 6745SOL     OW31867   1.419   4.566   6.415 -0.5459  0.4141 -0.1942
 6745SOL    HW131868   1.433   4.479   6.379  1.9606  0.4146  0.8322
 6745SOL    HW231869   1.469   4.566   6.497  0.8801 -1.2103 -1.0895
 6746SOL     OW31870   1.951   4.550   6.846  0.0105  0.5371 -0.1328
 6746SOL    HW131871   1.970   4.549   6.940 -0.8569 -0.1422  0.0359
 6746SOL    HW231872   1.894   4.626   6.839 -0.7741  0.1686  2.1610
 6747SOL     OW31873   4.103   0.215   7.718  0.1019 -0.6486  0.1910
 6747SOL    HW131874   4.091   0.310   7.722  1.7367 -0.4370 -0.1169
 6747SOL    HW231875   4.167   0.211   7.647  0.5842  0.4643  0.5734
 6748SOL     OW31876   0.599   1.521   4.805 -0.3900 -0.7172  0.3300
 6748SOL    HW131877   0.630   1.445   4.757 -0.0741 -0.3984  0.0268
 6748SOL    HW231878   0.566   1.476   4.882 -3.2920 -0.4277 -0.7406
 6749SOL     OW31879   0.241   3.017   7.061 -0.2216  0.5003 -0.2623
 6749SOL    HW131880   0.312   3.025   7.125  1.5572 -1.7718 -1.9583
 6749SOL    HW231881   0.197   3.102   7.067 -1.8444 -0.5433  3.0106
 6750SOL     OW31882   3.771   3.667  11.748 -0.1734  0.0870 -0.3742
 6750SOL    HW131883   3.811   3.754  11.743 -1.2375  0.4550 -2.4882
 6750SOL    HW231884   3.830   3.603  11.709  1.1092  0.4889  0.9240
 6751SOL     OW31885   4.215   3.805   8.713  0.1590 -0.0316  0.1542
 6751SOL    HW131886   4.236   3.891   8.750 -0.5916  0.5138 -0.6657
 6751SOL    HW231887   4.128   3.817   8.675  1.3322  1.4122 -2.1051
 6752SOL     OW31888   3.836   4.295   8.708  0.1063 -0.5957 -1.0820
 6752SOL    HW131889   3.779   4.236   8.758 -0.4115  1.2408  0.5082
 6752SOL    HW231890   3.903   4.240   8.667  0.7899 -1.2478  0.9139
 6753SOL     OW31891   4.375   3.480   3.077  0.6067  0.0134  0.1516
 6753SOL    HW131892   4.422   3.397   3.078 -1.9592 -1.4498  0.8139
 6753SOL    HW231893   4.287   3.443   3.088 -0.1641  2.2407  1.4269
 6754SOL     OW31894   0.962   4.253  14.282  0.6598  0.1618  0.2808
 6754SOL    HW131895   1.002   4.338  14.300 -0.9629  1.0651 -0.4622
 6754SOL    HW231896   1.028   4.203  14.331  1.5480  1.3586  0.3053
 6755SOL     OW31897   1.353   4.573   8.366  0.0474 -0.6392 -0.2556
 6755SOL    HW131898   1.266   4.533   8.365 -0.9153  1.4818 -0.2722
 6755SOL    HW231899   1.354   4.649   8.425 -1.3993 -0.6008 -0.2835
 6756SOL     OW31900   0.211   4.311   1.509  0.4100  0.1873  0.1296
 6756SOL    HW131901   0.213   4.288   1.602 -1.2363  0.0222  0.1265
 6756SOL    HW231902   0.121   4.343   1.500 -0.5872 -1.8100  2.8402
 6757SOL     OW31903   1.118   3.972   3.744 -0.1096  0.5460  0.4315
 6757SOL    HW131904   1.087   3.889   3.779 -0.2189  0.3561 -0.1150
 6757SOL    HW231905   1.180   4.009   3.806  0.7263 -1.2130  0.6538
 6758SOL     OW31906   2.627   2.397   4.187  0.7938 -0.5020 -0.0255
 6758SOL    HW131907   2.579   2.340   4.247  5.1507 -0.7293  3.1818
 6758SOL    HW231908   2.692   2.440   4.242 -0.1667 -0.0766  0.7816
 6759SOL     OW31909   2.933   3.908   4.348 -0.0324  0.0188 -0.1420
 6759SOL    HW131910   2.982   3.915   4.265 -0.3594  2.6310 -0.1079
 6759SOL    HW231911   2.853   3.867   4.315  0.9761 -0.8316 -1.5742
 6760SOL     OW31912   3.216   4.265   3.198  0.2912  0.2397  0.0476
 6760SOL    HW131913   3.248   4.219   3.121  1.3908 -1.5354  1.5574
 6760SOL    HW231914   3.291   4.297   3.247  1.1794 -3.2440  0.9775
 6761SOL     OW31915   2.559   2.982   1.625  0.1383  0.0275 -0.7981
 6761SOL    HW131916   2.508   2.999   1.546  0.2612  2.2060 -0.3831
 6761SOL    HW231917   2.534   3.052   1.684  2.0247  0.0381 -0.0147
 6762SOL     OW31918   4.421   1.237   5.508  0.0903  0.3350 -0.0003
 6762SOL    HW131919   4.392   1.146   5.514  0.5105  0.0693 -1.9113
 6762SOL    HW231920   4.470   1.229   5.426 -2.1962  1.7598 -1.5147
 6763SOL     OW31921   0.841   1.865   3.582 -0.1234 -0.2524 -0.4327
 6763SOL    HW131922   0.881   1.839   3.664  0.9875  1.7674 -0.3391
 6763SOL    HW231923   0.860   1.959   3.590  2.0167 -0.7205 -0.0804
 6764SOL     OW31924   1.081   4.626  10.046  0.4651 -0.2061  0.6900
 6764SOL    HW131925   1.116   4.538  10.065  0.3492 -0.0877  1.4416
 6764SOL    HW231926   0.988   4.611  10.028 -0.0519  3.3487  0.4141
 6765SOL     OW31927   0.845   0.813   6.999  0.4389  0.1426  0.2916
 6765SOL    HW131928   0.829   0.804   6.905 -0.5941  0.7767  0.4047
 6765SOL    HW231929   0.910   0.881   6.986  0.7080 -0.5233 -1.8450
 6766SOL     OW31930   3.404   1.808  10.534 -0.2815 -0.4218 -0.0799
 6766SOL    HW131931   3.367   1.848  10.612 -1.1742  0.0458 -0.7382
 6766SOL    HW231932   3.451   1.738  10.580  0.2370  0.6881  1.0773
 6767SOL     OW31933   1.074   3.606  16.704 -0.6827 -0.4132  0.2606
 6767SOL    HW131934   1.049   3.693  16.733 -0.7435 -0.5285  0.5621
 6767SOL    HW231935   1.108   3.641  16.622 -1.0606 -0.1426  0.2256
 6768SOL     OW31936   0.737   4.412  15.250 -0.1229  0.2250 -0.2518
 6768SOL    HW131937   0.832   4.402  15.239 -0.2307  0.1520 -1.1342
 6768SOL    HW231938   0.724   4.495  15.203 -1.9148  0.3295  0.4305
 6769SOL     OW31939   3.819   3.458  16.754  0.6868  1.0903 -0.5572
 6769SOL    HW131940   3.888   3.452  16.687  1.3730  0.5401  0.1956
 6769SOL    HW231941   3.785   3.547  16.749 -0.5109  0.7659  2.1736
 6770SOL     OW31942   3.033   1.498   1.889  0.3895  0.1097 -0.2746
 6770SOL    HW131943   3.083   1.499   1.971  0.4387 -0.5636 -0.3010
 6770SOL    HW231944   3.090   1.556   1.838  2.0090  1.1641  2.6834
 6771SOL     OW31945   0.643   0.710   2.383  0.2906  0.0096  0.6262
 6771SOL    HW131946   0.737   0.709   2.401  0.0395  0.1088  2.0051
 6771SOL    HW231947   0.632   0.651   2.309  0.5395 -0.5334  1.0286
 6772SOL     OW31948   4.615   2.486   9.368 -0.7355 -0.1996  0.1445
 6772SOL    HW131949   4.561   2.432   9.426 -0.3095 -0.9123 -0.1208
 6772SOL    HW231950   4.698   2.489   9.417 -0.6338  1.8783 -0.1637
 6773SOL     OW31951   0.044   1.247   0.833 -0.7856  0.5317 -0.3954
 6773SOL    HW131952   0.051   1.342   0.827 -1.6176  0.6216  0.0712
 6773SOL    HW231953   0.087   1.224   0.751  0.4610  0.1655  0.3633
 6774SOL     OW31954   0.293   1.251  14.300 -0.3537  0.3605  0.0936
 6774SOL    HW131955   0.282   1.326  14.242 -0.2484 -0.0631 -0.4802
 6774SOL    HW231956   0.388   1.260  14.311 -0.1529 -1.2036 -0.2650
 6775SOL     OW31957   0.581   1.106  10.879 -0.0177  0.6254 -0.4327
 6775SOL    HW131958   0.645   1.166  10.918  0.5696 -0.8496  0.8742
 6775SOL    HW231959   0.613   1.025  10.919 -2.7077 -0.7620 -1.1028
 6776SOL     OW31960   3.502   3.281   2.413  0.0694  0.4399  0.1514
 6776SOL    HW131961   3.429   3.236   2.371  1.0292  0.0062 -1.0511
 6776SOL    HW231962   3.551   3.205   2.446 -0.1251  0.3656  0.2675
 6777SOL     OW31963   4.316   3.449   3.640  0.1116 -0.6218  0.0214
 6777SOL    HW131964   4.260   3.375   3.662  0.0886 -1.1668 -1.9028
 6777SOL    HW231965   4.348   3.475   3.726 -0.2115  0.6501 -0.2310
 6778SOL     OW31966   3.566   0.882  13.670  0.0000  0.4882  0.0977
 6778SOL    HW131967   3.591   0.974  13.665  0.9255  0.2689  0.5501
 6778SOL    HW231968   3.471   0.888  13.668  0.0297  1.4685  1.7258
 6779SOL     OW31969   1.315   4.717   2.023  0.4071  0.1604  0.9180
 6779SOL    HW131970   1.248   0.008   2.085 -0.4524 -1.9048  0.9245
 6779SOL    HW231971   1.261   4.674   1.957  2.6824 -0.7307 -0.3423
 6780SOL     OW31972   1.784   1.112   6.340  0.1215 -0.1364 -0.1485
 6780SOL    HW131973   1.801   1.192   6.291  2.7163 -0.7659 -0.2690
 6780SOL    HW231974   1.862   1.102   6.394 -0.1066  0.3528  0.2748
 6781SOL     OW31975   2.823   3.382   4.545 -0.0918 -0.0454  0.9913
 6781SOL    HW131976   2.836   3.304   4.599  0.0321 -1.9913 -1.8719
 6781SOL    HW231977   2.744   3.411   4.590 -0.8215 -0.1777 -0.2168
 6782SOL     OW31978   2.148   2.588   4.800 -0.2060 -0.7408 -0.4324
 6782SOL    HW131979   2.163   2.613   4.708 -0.9521  0.7464 -0.1589
 6782SOL    HW231980   2.052   2.581   4.805 -0.3086 -0.8700 -2.3684
 6783SOL     OW31981   2.911   2.023   0.691 -0.2835 -0.2786 -0.0604
 6783SOL    HW131982   2.993   1.983   0.663 -0.9542 -1.2646 -0.6127
 6783SOL    HW231983   2.933   2.112   0.665  1.8997 -0.7856  0.1107
 6784SOL     OW31984   0.692   3.625   5.242 -0.4919  0.0549  0.1201
 6784SOL    HW131985   0.634   3.687   5.285 -1.9517 -0.6565 -0.8036
 6784SOL    HW231986   0.767   3.672   5.206 -1.1278  0.4174 -0.7180
 6785SOL     OW31987   3.170   1.566  15.714  0.1359  0.2458  0.3411
 6785SOL    HW131988   3.191   1.483  15.670  0.2431 -1.0719  2.8869
 6785SOL    HW231989   3.206   1.548  15.801 -2.1881  1.7548  1.6002
 6786SOL     OW31990   1.053   0.754   1.582 -0.0806  0.3798  0.8795
 6786SOL    HW131991   0.992   0.773   1.653 -1.9466 -0.7457 -0.4390
 6786SOL    HW231992   1.060   0.659   1.585 -0.2934  0.4018  2.1559
 6787SOL     OW31993   1.521   0.828   4.464 -0.0287 -0.2267 -0.5385
 6787SOL    HW131994   1.434   0.791   4.451  0.9811 -1.9715 -2.3265
 6787SOL    HW231995   1.518   0.851   4.557 -1.8777 -1.1979 -0.3426
 6788SOL     OW31996   1.221   0.343   4.899 -0.0363  0.1361 -0.0427
 6788SOL    HW131997   1.235   0.274   4.835 -0.8747 -0.0108 -0.0743
 6788SOL    HW231998   1.189   0.295   4.975  1.3814  0.5468  0.8160
 6789SOL     OW31999   0.901   1.105   5.325  1.0358  0.8608  0.1685
 6789SOL    HW132000   0.939   1.018   5.338 -1.0993  0.0029  0.6777
 6789SOL    HW232001   0.883   1.124   5.417 -0.6643  1.4805 -0.2851
 6790SOL     OW32002   4.539   2.930   4.412  0.0608  0.5084  0.2843
 6790SOL    HW132003   4.591   2.918   4.491  0.4424  2.5454  0.3509
 6790SOL    HW232004   4.488   3.008   4.435  2.1169  1.5824  1.2328
 6791SOL     OW32005   3.364   1.770  15.437 -0.0971  0.2573  0.0541
 6791SOL    HW132006   3.346   1.815  15.519  0.5217 -0.3766  0.5384
 6791SOL    HW232007   3.390   1.685  15.472 -0.8979 -0.0770 -0.1815
 6792SOL     OW32008   2.099   1.189   3.680  0.0833  0.1433 -0.1616
 6792SOL    HW132009   2.133   1.135   3.608 -2.8379 -1.5757 -0.2465
 6792SOL    HW232010   2.035   1.125   3.711  0.0961  0.5537  0.7128
 6793SOL     OW32011   2.570   2.737   5.501  0.3894  0.6484  0.4823
 6793SOL    HW132012   2.497   2.779   5.456  0.4499  0.8869  0.6076
 6793SOL    HW232013   2.558   2.646   5.473 -0.8616  0.5324  1.4574
 6794SOL     OW32014   2.140   2.244   0.233  0.6054 -0.4695 -0.2482
 6794SOL    HW132015   2.222   2.201   0.254  0.5608  0.2199  1.3315
 6794SOL    HW232016   2.154   2.300   0.156 -2.4552  1.2373  0.4190
 6795SOL     OW32017   4.563   2.135   7.647  0.1333 -0.2320  0.1150
 6795SOL    HW132018   4.634   2.128   7.583 -0.1467  0.1470 -0.2383
 6795SOL    HW232019   4.502   2.075   7.604  2.9790 -1.2725 -2.4113
 6796SOL     OW32020   0.457   2.672   3.069  0.2673 -0.1953 -0.0093
 6796SOL    HW132021   0.482   2.761   3.046  0.5801  0.1111  1.5218
 6796SOL    HW232022   0.463   2.677   3.164 -1.2229 -2.1261  0.1736
 6797SOL     OW32023   1.207   1.380   3.095 -0.1357 -0.4676  1.0152
 6797SOL    HW132024   1.286   1.326   3.085  0.5514  0.3889  1.8140
 6797SOL    HW232025   1.160   1.360   3.014 -0.6147  0.5611  1.0360
 6798SOL     OW32026   2.194   2.928   3.204 -0.0191  0.1321  0.1222
 6798SOL    HW132027   2.200   2.966   3.292  0.8352 -0.3491  0.2723
 6798SOL    HW232028   2.128   2.861   3.221 -1.4355  1.7314  0.8974
 6799SOL     OW32029   2.129   3.120   2.988 -0.1005  0.1732  0.3521
 6799SOL    HW132030   2.115   3.178   3.063  2.8412  1.4128 -0.0527
 6799SOL    HW232031   2.185   3.052   3.026 -1.4506 -0.2118  1.6107
 6800SOL     OW32032   0.094   0.442   2.542 -0.5314  0.1485  0.2405
 6800SOL    HW132033   0.107   0.473   2.452 -0.2825  0.5024  0.3954
 6800SOL    HW232034   0.127   0.514   2.597  2.0732 -0.3642 -0.6253
 6801SOL     OW32035   1.543   4.532   6.658  0.0009 -0.1387 -0.4399
 6801SOL    HW132036   1.607   4.465   6.680  0.5071  0.2119 -0.8565
 6801SOL    HW232037   1.556   4.587   6.736 -1.2765  0.4672 -0.6376
 6802SOL     OW32038   2.017   0.344   4.159  0.1715  0.5863 -0.4148
 6802SOL    HW132039   2.065   0.381   4.233  0.6769 -2.7727  0.9339
 6802SOL    HW232040   1.931   0.334   4.201 -0.1460 -1.6644 -1.5918
 6803SOL     OW32041   0.325   3.950   7.067 -0.7802 -0.3737  0.4279
 6803SOL    HW132042   0.333   4.043   7.047 -0.0200 -0.5843 -0.2477
 6803SOL    HW232043   0.273   3.944   7.147  1.4515  0.6645  1.9463
 6804SOL     OW32044   3.820   3.459   3.806  0.6471 -0.0379 -0.2607
 6804SOL    HW132045   3.841   3.401   3.879 -0.5746 -0.2841 -0.1045
 6804SOL    HW232046   3.726   3.441   3.799  0.8048 -0.5678 -0.9856
 6805SOL     OW32047   3.840   2.863   6.488  0.5221 -0.2525  0.7594
 6805SOL    HW132048   3.871   2.797   6.550 -0.0384 -0.4004  0.8783
 6805SOL    HW232049   3.852   2.821   6.403 -1.4949 -0.0775  0.3815
 6806SOL     OW32050   2.894   2.388   0.344  0.5651 -0.2347  0.4276
 6806SOL    HW132051   2.892   2.292   0.347  2.0774 -0.2025  2.4101
 6806SOL    HW232052   2.868   2.419   0.430 -3.2196 -2.6089  0.1504
 6807SOL     OW32053   0.548   1.290   3.644 -0.4747 -0.1909  0.2476
 6807SOL    HW132054   0.481   1.295   3.576 -0.5474 -3.6629  0.0712
 6807SOL    HW232055   0.629   1.283   3.593 -1.2397 -1.6321 -0.7639
 6808SOL     OW32056   2.984   1.617   9.987 -0.2547 -0.1251  0.0433
 6808SOL    HW132057   3.076   1.619  10.013 -0.0644  2.3312 -0.8132
 6808SOL    HW232058   2.981   1.581   9.898 -1.0366 -0.6302  0.2781
 6809SOL     OW32059   0.764   4.105   7.969 -0.1082 -0.4809  0.2490
 6809SOL    HW132060   0.778   4.041   7.899 -0.1982 -0.1152 -0.0989
 6809SOL    HW232061   0.679   4.077   8.004 -1.0913 -0.3160 -1.9687
 6810SOL     OW32062   3.508   0.895   7.354  0.4253 -0.7207  0.6307
 6810SOL    HW132063   3.476   0.963   7.295 -0.6534  0.0123  2.0610
 6810SOL    HW232064   3.591   0.873   7.311 -1.3244 -1.5513 -2.3421
 6811SOL     OW32065   0.016   1.923   1.680 -0.7628  0.0323 -0.7057
 6811SOL    HW132066   0.098   1.941   1.634 -0.2925  1.5493  0.7006
 6811SOL    HW232067   4.717   2.011   1.688 -0.1853  0.2646 -0.6849
 6812SOL     OW32068   2.424   2.129   5.875 -0.1180 -0.0908  0.3812
 6812SOL    HW132069   2.475   2.159   5.800 -2.1576  2.1785 -0.0795
 6812SOL    HW232070   2.469   2.054   5.915  1.1041  0.0810 -0.6772
 6813SOL     OW32071   0.280   2.195   7.670 -0.0326 -0.1130 -0.4410
 6813SOL    HW132072   0.220   2.270   7.669  0.4178  0.2004 -3.2165
 6813SOL    HW232073   0.239   2.138   7.735 -2.2976  0.5790 -1.2679
 6814SOL     OW32074   1.573   3.644   6.605  0.4775 -0.6466  0.8563
 6814SOL    HW132075   1.562   3.603   6.691 -2.4217 -0.7751  0.4254
 6814SOL    HW232076   1.666   3.625   6.595  1.2422  2.2237  2.4151
 6815SOL     OW32077   3.152   4.541   7.774  0.4975  0.3055  0.5123
 6815SOL    HW132078   3.246   4.525   7.768 -0.2455 -2.6193 -3.2494
 6815SOL    HW232079   3.145   4.560   7.868 -1.0593  3.0223 -0.1172
 6816SOL     OW32080   1.688   3.209   4.135 -0.3333  0.3410 -0.1917
 6816SOL    HW132081   1.597   3.187   4.116 -1.1201  2.3153  1.1908
 6816SOL    HW232082   1.693   3.142   4.204  0.8030  0.0149 -0.5984
 6817SOL     OW32083   1.854   0.560  13.949 -0.4652  0.4636 -0.3862
 6817SOL    HW132084   1.929   0.527  13.901  0.8925  3.0114  0.0172
 6817SOL    HW232085   1.798   0.593  13.879 -0.5212 -0.3410 -0.7216
 6818SOL     OW32086   1.852   3.048  10.362  0.4176 -0.3265  0.0489
 6818SOL    HW132087   1.795   2.975  10.388 -2.6803  1.4144 -1.9654
 6818SOL    HW232088   1.889   3.013  10.281 -0.7030 -1.7722  0.1462
 6819SOL     OW32089   2.933   1.620   4.160  0.5192  0.0516  0.1849
 6819SOL    HW132090   2.949   1.609   4.253  1.3759  1.0005  0.1570
 6819SOL    HW232091   2.900   1.710   4.164 -0.2269 -0.1723 -0.8994
 6820SOL     OW32092   2.170   2.786   9.335 -0.3767  0.2314 -0.1894
 6820SOL    HW132093   2.154   2.709   9.389 -0.4518  0.0860 -0.4219
 6820SOL    HW232094   2.191   2.749   9.249  0.9879  0.1178  0.1849
 6821SOL     OW32095   3.513   1.015  14.075 -0.4915  0.0594  0.2777
 6821SOL    HW132096   3.550   1.005  14.163  0.1922 -1.3792 -0.1577
 6821SOL    HW232097   3.589   1.004  14.018 -1.6033 -2.8396 -0.6522
 6822SOL     OW32098   3.540   1.411   6.387  0.7192 -0.4129  0.0254
 6822SOL    HW132099   3.585   1.395   6.470  2.5300  1.6832 -0.5565
 6822SOL    HW232100   3.596   1.373   6.319 -0.1542 -1.7355  0.0435
 6823SOL     OW32101   1.366   2.953  15.781 -0.0897 -0.1267  0.2355
 6823SOL    HW132102   1.342   2.997  15.863  0.0215  1.1082 -0.4028
 6823SOL    HW232103   1.424   2.883  15.810 -2.8438 -2.2150  0.7810
 6824SOL     OW32104   4.013   0.661   8.563 -0.2143  0.3797 -0.3854
 6824SOL    HW132105   3.946   0.726   8.584  1.1736  0.6093  3.3985
 6824SOL    HW232106   4.085   0.721   8.542 -2.1575  3.1257  0.6723
 6825SOL     OW32107   3.945   3.683   0.595 -0.2244  0.1187 -0.5483
 6825SOL    HW132108   3.856   3.702   0.623  0.5443  0.8940  1.3810
 6825SOL    HW232109   3.967   3.757   0.539  0.9134  0.5059  0.4041
 6826SOL     OW32110   4.102   0.694   5.034 -0.1925 -0.5239 -0.1690
 6826SOL    HW132111   4.131   0.703   4.944  0.8726  2.0735  0.4312
 6826SOL    HW232112   4.146   0.766   5.079  0.0270 -0.1833 -0.9373
 6827SOL     OW32113   1.951   0.196   5.308  0.3058  0.0601 -0.2867
 6827SOL    HW132114   1.932   0.219   5.217  0.9191 -0.1215 -0.4627
 6827SOL    HW232115   1.996   0.273   5.343 -1.6286  0.8290  0.5060
 6828SOL     OW32116   1.932   1.908   9.137 -0.3618  0.2889 -0.2581
 6828SOL    HW132117   1.875   1.835   9.158  2.9884 -1.5675  2.4104
 6828SOL    HW232118   2.020   1.869   9.132 -1.7739 -2.5819 -2.7816
 6829SOL     OW32119   1.777   3.287   2.936 -0.2900 -0.3437  0.0170
 6829SOL    HW132120   1.683   3.280   2.919  0.0826  0.4745 -2.4607
 6829SOL    HW232121   1.807   3.200   2.909 -3.6248 -0.8736 -2.0433
 6830SOL     OW32122   4.305   1.899   9.404  0.2018 -0.5578  0.0401
 6830SOL    HW132123   4.215   1.933   9.402  0.5841  0.3561 -1.3682
 6830SOL    HW232124   4.301   1.804   9.401 -1.2147 -0.5301  1.1441
 6831SOL     OW32125   3.895   4.626   1.738  0.0975  0.0388  0.2463
 6831SOL    HW132126   3.877   4.607   1.646 -0.0440 -1.5995  0.6121
 6831SOL    HW232127   3.979   4.587   1.760  0.5985  0.6329 -0.6099
 6832SOL     OW32128   0.184   2.290   7.375  0.3349 -0.4278  0.1689
 6832SOL    HW132129   0.234   2.209   7.374 -1.2606 -1.4106 -0.9962
 6832SOL    HW232130   0.250   2.358   7.387  0.1822 -0.4820  1.3285
 6833SOL     OW32131   2.286   1.887   0.205 -0.1941  0.2079  0.2086
 6833SOL    HW132132   2.348   1.814   0.194 -0.4020  0.1820 -0.7778
 6833SOL    HW232133   2.230   1.851   0.274 -0.7015 -2.2699 -1.4915
 6834SOL     OW32134   0.866   3.185   6.059 -0.4312  0.1809 -0.2213
 6834SOL    HW132135   0.816   3.267   6.057 -1.6290 -0.5511 -0.6906
 6834SOL    HW232136   0.799   3.125   6.093  0.7964 -1.3898 -0.5997
 6835SOL     OW32137   2.189   2.112   1.497  0.1352  0.0938 -0.6315
 6835SOL    HW132138   2.131   2.051   1.452 -2.1459  0.9295  1.1438
 6835SOL    HW232139   2.156   2.198   1.472 -0.0158  0.2972  0.2712
 6836SOL     OW32140   3.715   2.480   5.922  0.0294  0.1448  0.1680
 6836SOL    HW132141   3.806   2.492   5.895 -0.7329  1.8088 -1.6722
 6836SOL    HW232142   3.679   2.475   5.833  1.0494  1.6350 -0.3411
 6837SOL     OW32143   0.495   3.614   5.639 -0.2820 -0.0592  0.3739
 6837SOL    HW132144   0.497   3.653   5.552 -2.1399 -1.6684 -0.3747
 6837SOL    HW232145   0.586   3.583   5.636 -0.2812 -0.1281  1.1107
 6838SOL     OW32146   0.131   3.247   7.704 -0.0184  0.2698  0.3515
 6838SOL    HW132147   0.194   3.180   7.729 -0.7455 -1.8389 -3.5090
 6838SOL    HW232148   0.056   3.215   7.755  0.2459  0.4697  0.8678
 6839SOL     OW32149   2.664   0.151   2.550 -0.4632 -0.0200  0.7264
 6839SOL    HW132150   2.574   0.124   2.566 -0.9874 -1.3855 -4.5291
 6839SOL    HW232151   2.698   0.175   2.637 -1.4980  1.4841  0.7161
 6840SOL     OW32152   2.870   1.280   1.947  0.6100  0.0957 -0.5144
 6840SOL    HW132153   2.930   1.300   2.019 -0.2762  1.7540 -0.2444
 6840SOL    HW232154   2.902   1.354   1.896 -0.0313  1.3432  0.8816
 6841SOL     OW32155   0.346   3.618  11.528 -0.0203 -0.3713  0.3502
 6841SOL    HW132156   0.429   3.666  11.520  0.1564 -0.2353  2.9430
 6841SOL    HW232157   0.331   3.634  11.621  1.4031  1.6840  0.2431
 6842SOL     OW32158   0.559   3.041   1.658  0.8701 -0.4028 -0.1201
 6842SOL    HW132159   0.586   3.082   1.740  0.3784  2.0262 -1.1796
 6842SOL    HW232160   0.527   2.956   1.688 -0.5149  0.1253 -0.0882
 6843SOL     OW32161   3.116   1.393   2.980  0.7018  0.1922 -0.0155
 6843SOL    HW132162   3.105   1.306   3.018 -0.4709  0.5256  0.4182
 6843SOL    HW232163   3.076   1.453   3.042  0.4029 -0.7971  0.7342
 6844SOL     OW32164   1.626   4.281   0.706 -0.4048 -0.2090  0.3864
 6844SOL    HW132165   1.568   4.315   0.638  0.6858 -0.7676 -0.8122
 6844SOL    HW232166   1.588   4.306   0.790 -1.2099 -0.3877  0.0731
 6845SOL     OW32167   4.144   1.608  12.605  0.2321 -0.0749 -0.2388
 6845SOL    HW132168   4.083   1.663  12.555  1.6320  0.5526 -1.2406
 6845SOL    HW232169   4.173   1.540  12.544  1.2357  0.0986  0.0538
 6846SOL     OW32170   0.533   1.211   2.985 -0.2296 -0.2089  0.0632
 6846SOL    HW132171   0.500   1.207   2.895  1.2289  1.8855 -0.5480
 6846SOL    HW232172   0.619   1.174   2.969  0.3656 -0.2915  3.4819
 6847SOL     OW32173   1.608   3.595   9.937  0.0667 -0.1349  0.2594
 6847SOL    HW132174   1.595   3.658  10.007  0.2473  0.2756 -0.0789
 6847SOL    HW232175   1.524   3.551   9.948 -2.1931  3.7706 -1.2643
 6848SOL     OW32176   3.094   4.286  16.122 -0.4555 -0.8360 -0.1105
 6848SOL    HW132177   3.113   4.215  16.061  2.3230  0.5437 -0.8571
 6848SOL    HW232178   3.066   4.356  16.063 -0.1240 -0.3364  0.3229
 6849SOL     OW32179   2.242   2.611   9.120  0.0741 -0.3886 -0.5384
 6849SOL    HW132180   2.295   2.604   9.041 -1.2240 -1.3218 -1.3229
 6849SOL    HW232181   2.204   2.524   9.131 -0.1451 -0.3272 -0.8183
 6850SOL     OW32182   4.079   1.426   6.608  0.0498  0.2687 -0.2340
 6850SOL    HW132183   4.045   1.509   6.640  0.9232  0.3983  0.3562
 6850SOL    HW232184   4.038   1.367   6.672  0.1104  0.0216 -0.4208
 6851SOL     OW32185   3.534   0.279  11.463  0.1610 -0.2486 -0.5004
 6851SOL    HW132186   3.548   0.265  11.370 -1.5331  2.2143 -1.1323
 6851SOL    HW232187   3.612   0.334  11.470  0.5825 -0.9963  0.7748
 6852SOL     OW32188   0.356   2.255   3.836 -0.1265 -0.5210  0.5466
 6852SOL    HW132189   0.270   2.274   3.798  0.2725  0.4323  0.1283
 6852SOL    HW232190   0.381   2.345   3.858 -1.4793 -0.2568  0.9945
 6853SOL     OW32191   3.380   0.566  11.225 -0.1414 -0.1422 -0.3666
 6853SOL    HW132192   3.374   0.661  11.233  1.2103  0.0119 -1.2523
 6853SOL    HW232193   3.389   0.539  11.317  2.3745 -1.9592 -1.1491
 6854SOL     OW32194   1.436   0.725   5.342 -0.4420  0.1486 -0.6973
 6854SOL    HW132195   1.368   0.671   5.383  0.2048  0.3203  0.6141
 6854SOL    HW232196   1.374   0.788   5.307 -0.5368  0.2785 -0.2957
 6855SOL     OW32197   4.429   2.370  16.908 -0.0477  0.4479  0.2747
 6855SOL    HW132198   4.518   2.374  16.944 -0.0240 -1.6059  0.4962
 6855SOL    HW232199   4.427   2.451  16.858  1.8827  0.0939 -0.3778
 6856SOL     OW32200   2.287   3.758   9.085  0.3108  0.2454  0.2650
 6856SOL    HW132201   2.245   3.764   8.999 -0.6777 -3.6178  0.4833
 6856SOL    HW232202   2.285   3.665   9.106  2.5025  0.6286  2.1718
 6857SOL     OW32203   2.734   2.612   8.615  0.0447  0.2213 -0.2655
 6857SOL    HW132204   2.740   2.619   8.520 -1.6607  0.1965 -0.3679
 6857SOL    HW232205   2.648   2.648   8.636 -0.5608 -0.8689 -0.8601
 6858SOL     OW32206   1.930   2.075   8.026  0.6528 -0.2387  0.0969
 6858SOL    HW132207   1.933   1.987   7.990 -1.5577  0.3214 -1.4757
 6858SOL    HW232208   2.021   2.101   8.013  0.3335  2.0098  2.3478
 6859SOL     OW32209   1.586   0.341  12.754 -0.2998 -0.1817 -0.0618
 6859SOL    HW132210   1.617   0.305  12.837  1.2417 -0.8357 -0.9245
 6859SOL    HW232211   1.646   0.299  12.692 -1.2765 -0.9688 -0.4587
 6860SOL     OW32212   3.976   2.237   2.628  0.2475  0.5596  0.3113
 6860SOL    HW132213   3.950   2.207   2.716 -0.9329 -0.5161 -0.3986
 6860SOL    HW232214   4.057   2.188   2.615  0.7652  1.4560  0.2043
 6861SOL     OW32215   3.614   0.228   2.020  0.8323 -0.6077 -0.0216
 6861SOL    HW132216   3.651   0.180   1.947  1.8211  1.2340 -0.7344
 6861SOL    HW232217   3.542   0.168   2.039 -0.1447  0.2877 -0.8726
 6862SOL     OW32218   1.258   4.354   0.934  0.4766  0.2421 -0.1627
 6862SOL    HW132219   1.322   4.285   0.949 -1.2225 -1.0963  0.9745
 6862SOL    HW232220   1.209   4.347   1.016 -0.5305 -0.8285 -0.8469
 6863SOL     OW32221   3.480   1.775  12.637 -0.0266 -0.1637 -0.3118
 6863SOL    HW132222   3.469   1.821  12.720  0.5438  0.5146 -0.6118
 6863SOL    HW232223   3.539   1.704  12.665  3.4057  2.2302 -1.4831
 6864SOL     OW32224   1.674   1.666   5.796  0.3043 -0.5764  0.2323
 6864SOL    HW132225   1.659   1.748   5.749  0.9727 -0.0149  1.0036
 6864SOL    HW232226   1.750   1.625   5.754  0.3600  0.2346 -0.4784
 6865SOL     OW32227   3.936   2.769   6.261 -0.2867  0.0988  0.5979
 6865SOL    HW132228   3.996   2.799   6.329  0.4975  1.2156 -0.6099
 6865SOL    HW232229   3.974   2.686   6.232  0.8461  0.6952  0.3865
 6866SOL     OW32230   2.497   1.377   2.015  0.3086 -0.1197 -0.0633
 6866SOL    HW132231   2.577   1.428   2.026 -0.0694  0.2345  1.0372
 6866SOL    HW232232   2.533   1.295   1.981 -0.6834 -0.2722 -0.7519
 6867SOL     OW32233   0.129   0.087  10.770 -0.3866 -0.0466 -0.4136
 6867SOL    HW132234   0.113   0.078  10.676  0.0560  2.2256 -0.7020
 6867SOL    HW232235   0.044   0.108  10.808  0.3208  0.4308  0.8981
 6868SOL     OW32236   3.432   0.841   1.961  0.2028  0.3463  0.0001
 6868SOL    HW132237   3.433   0.936   1.972  0.3221  0.6627 -2.9129
 6868SOL    HW232238   3.517   0.821   2.000  0.3718 -0.0025 -0.5567
 6869SOL     OW32239   1.935   3.355   8.766 -0.8964 -0.0457  0.1636
 6869SOL    HW132240   1.845   3.329   8.786 -0.8818 -0.0835  0.1792
 6869SOL    HW232241   1.959   3.421   8.832  0.3178 -0.7639  0.4327
 6870SOL     OW32242   1.970   3.654   5.731 -0.0159  0.0694  0.3767
 6870SOL    HW132243   2.066   3.663   5.736 -0.0254  0.1417  0.4297
 6870SOL    HW232244   1.967   3.561   5.756  0.7145 -0.0035  0.1953
 6871SOL     OW32245   2.471   1.932   9.142  0.1402  0.0735 -0.5949
 6871SOL    HW132246   2.461   1.937   9.237  0.0399  0.0441 -0.6043
 6871SOL    HW232247   2.381   1.912   9.119  0.4688 -0.4300 -1.4200
 6872SOL     OW32248   2.100   4.088  14.762  0.2674  0.5313 -0.0742
 6872SOL    HW132249   2.076   4.013  14.817 -0.4001 -0.0477 -1.1553
 6872SOL    HW232250   2.071   4.157  14.822  1.1112  1.7224 -1.0403
 6873SOL     OW32251   1.322   2.368   8.156  0.3095 -0.8622  0.2577
 6873SOL    HW132252   1.415   2.378   8.175  1.0917 -4.3285 -1.5845
 6873SOL    HW232253   1.330   2.355   8.062 -2.1291 -1.7765  0.1695
 6874SOL     OW32254   1.528   2.673   2.170  0.9776 -0.2133  0.3111
 6874SOL    HW132255   1.536   2.767   2.189  1.4981 -0.1779 -0.1068
 6874SOL    HW232256   1.457   2.664   2.106  0.2578  1.3330  0.8970
 6875SOL     OW32257   2.001   1.164   3.347 -0.3291 -0.0519 -0.2190
 6875SOL    HW132258   2.077   1.169   3.405 -0.3555 -1.6765 -0.0399
 6875SOL    HW232259   2.036   1.123   3.269 -0.6540  0.6044 -0.7054
 6876SOL     OW32260   1.167   2.908  13.721  0.0346 -0.4097  0.7330
 6876SOL    HW132261   1.160   2.827  13.670 -0.0186 -0.5085  0.8960
 6876SOL    HW232262   1.077   2.915  13.754  0.9151 -2.4798  3.6146
 6877SOL     OW32263   0.998   1.327   8.263  0.3754  0.3980 -0.5641
 6877SOL    HW132264   1.037   1.406   8.226  4.0705 -0.5972  1.2459
 6877SOL    HW232265   0.995   1.359   8.353 -1.0775 -0.4522 -0.2996
 6878SOL     OW32266   4.603   0.763   7.807 -0.4858 -0.6089  0.3180
 6878SOL    HW132267   4.507   0.761   7.797 -0.4278 -1.2092 -0.1276
 6878SOL    HW232268   4.608   0.690   7.869  0.7478 -0.4348  0.4182
 6879SOL     OW32269   4.415   4.684  17.524  0.7001 -0.6310  0.3044
 6879SOL    HW132270   4.392   4.663  17.434 -2.7496  0.4846  0.9066
 6879SOL    HW232271   4.337   4.715  17.571  1.8124  2.7085 -0.0517
 6880SOL     OW32272   3.719   1.361  13.128  0.1638 -0.3662  0.3479
 6880SOL    HW132273   3.728   1.412  13.210  1.6918 -0.7059  0.3996
 6880SOL    HW232274   3.743   1.272  13.151  0.5928 -0.2266  0.4503
 6881SOL     OW32275   2.615   0.594   4.255 -0.4377 -0.0048 -0.2909
 6881SOL    HW132276   2.703   0.587   4.292 -0.7072  2.8569  0.9347
 6881SOL    HW232277   2.615   0.553   4.169 -2.1810 -1.2346  0.2884
 6882SOL     OW32278   4.100   2.753  15.796  0.0020  0.5123 -0.1348
 6882SOL    HW132279   4.073   2.720  15.710  0.9531 -1.6945  0.4052
 6882SOL    HW232280   4.084   2.672  15.844  1.8098  0.2403  0.0203
 6883SOL     OW32281   1.334   0.761   4.718 -0.3531 -0.0082  0.1362
 6883SOL    HW132282   1.300   0.731   4.634  0.5397 -0.3222 -0.1217
 6883SOL    HW232283   1.325   0.854   4.694  3.2105  0.2740 -0.1432
 6884SOL     OW32284   1.377   1.496   8.634 -0.4862  0.3955 -0.0112
 6884SOL    HW132285   1.440   1.428   8.609  1.0151  0.7004  2.8979
 6884SOL    HW232286   1.395   1.567   8.573  1.3812 -0.7027 -0.7316
 6885SOL     OW32287   3.746   3.610   4.206 -0.1096 -0.1007 -0.4842
 6885SOL    HW132288   3.794   3.646   4.131  0.8160  0.6858  0.4872
 6885SOL    HW232289   3.677   3.675   4.219  0.0048 -0.0448 -0.1749
 6886SOL     OW32290   4.371   0.071   0.912 -0.0087  0.5325 -0.8412
 6886SOL    HW132291   4.326   0.024   0.842  1.0039 -0.8044 -0.6230
 6886SOL    HW232292   4.451   0.018   0.914 -0.7448 -0.5512  0.1207
 6887SOL     OW32293   1.497   3.306  11.440  0.6364  0.1589  0.6070
 6887SOL    HW132294   1.563   3.237  11.433  0.5782  0.2931 -1.2421
 6887SOL    HW232295   1.456   3.280  11.523 -0.7426  1.6878  0.4112
 6888SOL     OW32296   3.940   2.179   3.277 -0.1157  0.1270 -1.1337
 6888SOL    HW132297   3.957   2.117   3.206  0.7994  1.9922 -2.5454
 6888SOL    HW232298   3.881   2.235   3.226 -0.2315  1.1576  0.1466
 6889SOL     OW32299   2.626   3.991   7.776  0.0332  0.0836 -0.5530
 6889SOL    HW132300   2.596   4.016   7.688  2.9892 -0.5533 -1.7410
 6889SOL    HW232301   2.550   4.015   7.829 -0.3160 -0.7596 -0.6682
 6890SOL     OW32302   3.059   3.842  12.603  0.0996  0.5999  0.0983
 6890SOL    HW132303   2.983   3.784  12.593 -0.7162  1.4925  1.1365
 6890SOL    HW232304   3.034   3.883  12.686  1.3883  2.1713 -0.2867
 6891SOL     OW32305   4.320   4.059   3.248 -0.6577  0.1625 -0.2430
 6891SOL    HW132306   4.344   3.973   3.215 -1.2063  0.0544 -0.3598
 6891SOL    HW232307   4.251   4.085   3.186 -1.0807  1.6997  0.8543
 6892SOL     OW32308   0.305   1.454   4.461 -0.2623 -0.1843 -0.8736
 6892SOL    HW132309   0.220   1.414   4.479  0.5849 -1.0557  1.2759
 6892SOL    HW232310   0.324   1.496   4.546 -1.3799  1.2421 -1.3304
 6893SOL     OW32311   1.034   4.213   8.907  0.5278 -0.4082  0.5455
 6893SOL    HW132312   1.126   4.239   8.902  0.3606 -0.8562 -4.6945
 6893SOL    HW232313   1.006   4.287   8.961  0.2397 -0.6774  0.7642
 6894SOL     OW32314   1.771   2.002   6.674 -0.1697  0.0563  0.3385
 6894SOL    HW132315   1.856   1.978   6.712  0.7589  0.1869 -1.6544
 6894SOL    HW232316   1.712   1.980   6.746 -0.1879  0.2670  0.3894
 6895SOL     OW32317   4.300   3.007   6.152  0.2681 -0.1792 -0.1330
 6895SOL    HW132318   4.372   3.045   6.103 -0.3866 -0.1603 -1.0751
 6895SOL    HW232319   4.321   3.031   6.242 -2.0295  1.8366 -0.1153
 6896SOL     OW32320   1.046   2.269   7.091 -0.2249  0.5711  0.2678
 6896SOL    HW132321   0.974   2.274   7.154 -2.1776  0.4540 -1.9526
 6896SOL    HW232322   1.000   2.289   7.009  0.7213  0.2726 -0.3280
 6897SOL     OW32323   4.350   3.888   7.079 -0.1164  0.5530  0.3780
 6897SOL    HW132324   4.282   3.851   7.135  0.5717 -1.5228 -0.1549
 6897SOL    HW232325   4.428   3.837   7.101  1.2681  2.2100 -0.6866
 6898SOL     OW32326   2.469   3.896  12.911  0.2825  0.2613  0.2909
 6898SOL    HW132327   2.445   3.834  12.980 -1.2288 -0.7476 -1.1442
 6898SOL    HW232328   2.561   3.903  12.939  0.2208 -0.7091  0.7330
 6899SOL     OW32329   1.054   1.047  13.087 -0.0840  0.3831  0.3292
 6899SOL    HW132330   1.085   1.104  13.017 -0.2264 -0.8774 -0.7737
 6899SOL    HW232331   1.085   1.095  13.163 -2.1352  1.4359  0.4938
 6900SOL     OW32332   1.845   2.616   4.793 -0.4545 -0.3194  0.0124
 6900SOL    HW132333   1.828   2.528   4.824 -0.3140 -0.7996 -1.2786
 6900SOL    HW232334   1.824   2.671   4.868 -1.8270 -0.6900 -0.1093
 6901SOL     OW32335   2.507   3.464   2.804  0.1283 -0.3879 -0.2732
 6901SOL    HW132336   2.559   3.527   2.855 -0.5796  1.4653 -1.8187
 6901SOL    HW232337   2.440   3.442   2.868  1.0747 -1.9181  0.1810
 6902SOL     OW32338   2.608   4.023   6.349 -0.5172 -0.3435  0.2921
 6902SOL    HW132339   2.694   4.063   6.359 -0.7691  0.1362  0.5130
 6902SOL    HW232340   2.566   4.102   6.316 -0.4822 -0.3545  0.2205
 6903SOL     OW32341   3.944   4.293  15.674  0.2581 -0.1688 -0.8441
 6903SOL    HW132342   3.891   4.249  15.740  0.5364  0.7035 -0.0421
 6903SOL    HW232343   3.890   4.294  15.595 -3.2647 -2.1669  1.5977
 6904SOL     OW32344   4.006   4.654   9.117 -0.1221 -0.5481  0.0259
 6904SOL    HW132345   4.086   4.637   9.167  0.4345  0.3371 -0.5658
 6904SOL    HW232346   4.047   4.697   9.042  1.0367  0.6011  1.3242
 6905SOL     OW32347   2.726   3.060  12.451  0.1478 -0.2765  0.5720
 6905SOL    HW132348   2.639   3.036  12.483  1.2137 -2.2282  2.0240
 6905SOL    HW232349   2.721   3.006  12.371 -2.2068 -0.2147  0.6637
 6906SOL     OW32350   1.637   3.265   5.448  0.0698  0.1277 -0.3919
 6906SOL    HW132351   1.589   3.348   5.444  0.3155  0.2723 -0.3020
 6906SOL    HW232352   1.600   3.234   5.531  1.5837 -0.0014  0.2269
 6907SOL     OW32353   2.690   2.504  14.356 -0.3964 -0.6566 -0.0940
 6907SOL    HW132354   2.651   2.418  14.371  0.4177 -0.4917  3.0174
 6907SOL    HW232355   2.705   2.498  14.262 -0.0214  0.7907 -0.1342
 6908SOL     OW32356   2.638   2.892   6.438 -0.1822 -0.0894  0.2753
 6908SOL    HW132357   2.699   2.849   6.378 -0.4348 -1.7777  1.2469
 6908SOL    HW232358   2.627   2.828   6.508 -1.0380 -0.7387 -0.4622
 6909SOL     OW32359   3.891   3.915   5.159 -0.1835  0.9050 -0.1913
 6909SOL    HW132360   3.960   3.958   5.210 -0.4156  2.4706 -1.1756
 6909SOL    HW232361   3.814   3.972   5.160 -0.9276 -0.1004 -0.4833
 6910SOL     OW32362   2.174   0.500   6.874  0.4646 -0.2367 -0.4977
 6910SOL    HW132363   2.168   0.567   6.942 -3.0794  0.4034 -1.4455
 6910SOL    HW232364   2.103   0.527   6.815  1.6610  1.3000 -1.2122
 6911SOL     OW32365   1.977   1.391  14.235  0.4298 -0.2946 -0.7283
 6911SOL    HW132366   1.994   1.331  14.162  0.6424  1.2643 -1.9575
 6911SOL    HW232367   1.900   1.430  14.195 -3.1403 -4.3364  2.2000
 6912SOL     OW32368   4.141   3.246   6.040  0.0015 -0.2425  0.0269
 6912SOL    HW132369   4.093   3.164   6.053  0.9982 -0.8448 -0.1179
 6912SOL    HW232370   4.108   3.301   6.111  0.3220 -0.3050  0.2204
 6913SOL     OW32371   3.831   3.434   8.414 -0.1921 -0.5962 -0.4540
 6913SOL    HW132372   3.736   3.429   8.420 -0.0286  0.5301  3.2403
 6913SOL    HW232373   3.845   3.399   8.326 -0.2920 -4.4168  1.0236
 6914SOL     OW32374   2.864   3.778   0.671  0.0044 -0.1291  0.0586
 6914SOL    HW132375   2.908   3.714   0.727  0.1824 -0.4645 -0.4639
 6914SOL    HW232376   2.784   3.733   0.646  0.7004  0.6652 -3.6138
 6915SOL     OW32377   1.994   4.510  15.060 -0.1311  0.3096 -0.2564
 6915SOL    HW132378   2.050   4.582  15.030  1.0364  0.3869  2.0912
 6915SOL    HW232379   2.004   4.527  15.154  0.0291  0.4187 -0.2926
 6916SOL     OW32380   1.725   3.295   6.519 -0.3966 -0.5402  0.3889
 6916SOL    HW132381   1.670   3.318   6.445 -0.4862  2.5351  1.4028
 6916SOL    HW232382   1.686   3.213   6.549  0.4036 -1.7585 -1.8997
 6917SOL     OW32383   4.461   1.052   4.085 -0.2606  0.2102  0.3880
 6917SOL    HW132384   4.477   0.967   4.043  2.4534 -0.1667  2.1748
 6917SOL    HW232385   4.533   1.106   4.050 -0.0064 -0.8193 -0.6909
 6918SOL     OW32386   0.439   3.048   7.256  0.2228  0.2605  0.0061
 6918SOL    HW132387   0.369   3.075   7.315 -1.3431 -0.7172 -1.3812
 6918SOL    HW232388   0.508   3.089   7.308  1.2706 -0.5146 -0.7687
 6919SOL     OW32389   2.705   1.579   3.891  0.0224 -0.7387 -0.0564
 6919SOL    HW132390   2.707   1.672   3.915  0.3588 -0.1521 -2.3784
 6919SOL    HW232391   2.623   1.554   3.934 -0.9719  1.9090 -0.4048
 6920SOL     OW32392   1.068   3.646   7.331 -0.0135  0.1939 -0.0751
 6920SOL    HW132393   1.109   3.716   7.381 -0.6921  2.2904 -2.4438
 6920SOL    HW232394   0.997   3.615   7.387 -0.5532  0.6838 -0.4887
 6921SOL     OW32395   1.832   1.328  17.258  0.2611 -0.4453 -0.1438
 6921SOL    HW132396   1.907   1.387  17.246 -1.5544  2.2772  1.9862
 6921SOL    HW232397   1.777   1.349  17.183 -0.3750  1.7482  0.9194
 6922SOL     OW32398   2.328   3.173   8.145  0.0973  0.0536 -0.4079
 6922SOL    HW132399   2.367   3.257   8.167  1.5449 -0.3032 -1.6364
 6922SOL    HW232400   2.247   3.179   8.195 -0.8393  0.5016 -1.9886
 6923SOL     OW32401   0.085   0.232   8.256 -0.4612 -0.3844 -0.2667
 6923SOL    HW132402   0.073   0.324   8.281 -1.1558 -0.4252 -0.4803
 6923SOL    HW232403   0.049   0.215   8.170 -0.8026 -0.4388 -0.1117
 6924SOL     OW32404   4.496   1.480   7.754 -0.1206  0.0254  0.2385
 6924SOL    HW132405   4.513   1.403   7.809  1.0084 -1.6220 -2.4011
 6924SOL    HW232406   4.401   1.489   7.756 -0.2201 -1.2656  1.5163
 6925SOL     OW32407   4.525   3.763   1.918  0.2387 -0.6621 -0.3561
 6925SOL    HW132408   4.568   3.833   1.869  0.4584  0.0185  0.8092
 6925SOL    HW232409   4.595   3.698   1.908 -1.1257 -1.9388 -1.5685
 6926SOL     OW32410   4.718   0.807   1.361 -0.1013 -0.0706 -0.0846
 6926SOL    HW132411   0.036   0.879   1.333 -0.4372  0.3030  0.2073
 6926SOL    HW232412   4.637   0.822   1.313 -0.9724 -0.7909  1.1706
 6927SOL     OW32413   2.471   0.816   4.240 -0.2377 -0.1137  0.0332
 6927SOL    HW132414   2.510   0.733   4.215  0.6665  0.4024 -0.2600
 6927SOL    HW232415   2.549   0.871   4.249  1.0708 -1.4651 -2.9941
 6928SOL     OW32416   1.447   2.226   6.099 -0.0845  0.0567  0.5572
 6928SOL    HW132417   1.423   2.135   6.115 -1.9136  0.3139 -0.7692
 6928SOL    HW232418   1.361   2.261   6.077  0.7016  0.0527 -2.4922
 6929SOL     OW32419   3.843   4.342  15.095 -0.2691 -0.4626 -0.1467
 6929SOL    HW132420   3.935   4.326  15.073 -0.2515  1.1332 -1.1917
 6929SOL    HW232421   3.862   4.433  15.117 -1.9884 -0.0388 -0.4034
 6930SOL     OW32422   3.106   0.269   6.437 -0.5620  0.0813  0.2650
 6930SOL    HW132423   3.130   0.177   6.432 -0.6307  0.1037 -0.6070
 6930SOL    HW232424   3.115   0.311   6.351  0.2587 -1.7824 -0.5640
 6931SOL     OW32425   2.714   1.818  10.648 -0.6903  0.0560 -0.5506
 6931SOL    HW132426   2.768   1.896  10.647 -1.0825  0.3433  0.3483
 6931SOL    HW232427   2.640   1.847  10.594 -1.7367 -1.6739 -0.0635
 6932SOL     OW32428   0.097   2.307   8.093  0.8831  0.3778  0.6908
 6932SOL    HW132429   0.187   2.297   8.063  0.4978  0.5664 -0.5313
 6932SOL    HW232430   0.053   2.249   8.030 -0.3919  0.8865  1.1131
 6933SOL     OW32431   1.569   1.323  11.822  0.6577 -0.3581  0.0738
 6933SOL    HW132432   1.610   1.389  11.878  0.3149 -0.7550  0.7846
 6933SOL    HW232433   1.594   1.363  11.738  1.6970  0.0220  0.5613
 6934SOL     OW32434   4.444   1.478  10.435  0.1634 -0.0511  0.5672
 6934SOL    HW132435   4.471   1.424  10.510  0.9969  0.4122  0.5960
 6934SOL    HW232436   4.437   1.413  10.365  1.9176 -0.8539  1.1167
 6935SOL     OW32437   3.290   2.283  14.721  0.2167  0.1156  0.2797
 6935SOL    HW132438   3.207   2.235  14.719 -0.1198  0.6051  2.9933
 6935SOL    HW232439   3.267   2.375  14.714 -0.9983  0.0153  3.0074
 6936SOL     OW32440   3.893   2.790   7.310  0.2820  0.6518 -0.0300
 6936SOL    HW132441   3.861   2.832   7.230 -0.8404 -0.0978  0.0320
 6936SOL    HW232442   3.816   2.798   7.366  0.1711 -1.5705  0.1114
 6937SOL     OW32443   2.424   1.593  10.395 -0.0591 -0.2791 -0.3606
 6937SOL    HW132444   2.474   1.528  10.345  2.0548 -0.5205  2.0644
 6937SOL    HW232445   2.463   1.678  10.373 -0.9818  0.4112  0.6705
 6938SOL     OW32446   0.351   2.673   7.085 -0.1535  0.2579 -0.2809
 6938SOL    HW132447   0.291   2.669   7.160 -0.3665  2.3813 -0.3360
 6938SOL    HW232448   0.299   2.720   7.020  0.6476  0.9344 -0.4327
 6939SOL     OW32449   3.413   2.223  12.558 -0.2667  0.0957 -0.0914
 6939SOL    HW132450   3.423   2.305  12.509  1.1151  1.4042  2.3886
 6939SOL    HW232451   3.457   2.157  12.505 -0.6378 -1.3713  1.4322
 6940SOL     OW32452   3.420   0.981   9.320 -0.1054  0.1448 -0.4222
 6940SOL    HW132453   3.378   0.962   9.236 -0.1546  1.7354 -0.7546
 6940SOL    HW232454   3.360   1.046   9.359 -1.3347 -0.3603 -1.4549
 6941SOL     OW32455   3.288   3.132   2.340  0.0361  0.0816  0.4554
 6941SOL    HW132456   3.273   3.096   2.253 -0.0951  3.4592 -0.9256
 6941SOL    HW232457   3.204   3.173   2.360  1.3047  1.2601  3.4585
 6942SOL     OW32458   3.692   1.954  15.222 -0.1845 -0.1374  0.4180
 6942SOL    HW132459   3.601   1.929  15.203  0.1302 -0.4261 -0.7036
 6942SOL    HW232460   3.749   1.880  15.203 -1.7106 -1.8627  2.5369
 6943SOL     OW32461   2.154   0.363   1.108 -0.4826 -0.2250 -0.7445
 6943SOL    HW132462   2.184   0.422   1.178 -0.2636 -1.9429  0.6244
 6943SOL    HW232463   2.226   0.300   1.116 -0.1631  0.2542  0.1039
 6944SOL     OW32464   4.225   1.296   4.240 -0.2626 -0.0124  0.3249
 6944SOL    HW132465   4.275   1.297   4.158 -1.5703 -0.8143 -0.4907
 6944SOL    HW232466   4.155   1.236   4.216 -0.0616 -0.0244 -0.2306
 6945SOL     OW32467   0.629   0.573   2.146  0.4195  0.7778  0.8778
 6945SOL    HW132468   0.570   0.531   2.083  2.6919  1.2008 -1.5556
 6945SOL    HW232469   0.696   0.508   2.167 -1.3043 -1.6214 -1.1803
 6946SOL     OW32470   3.854   1.010   6.498  0.0934 -0.2322  0.1249
 6946SOL    HW132471   3.845   1.070   6.573 -2.7931 -0.1385 -0.3223
 6946SOL    HW232472   3.945   1.026   6.473  0.1624 -0.9265 -0.0660
 6947SOL     OW32473   0.144   4.343   7.422  0.3202 -0.0180 -0.4130
 6947SOL    HW132474   0.092   4.278   7.471 -0.9800  1.6640  0.4516
 6947SOL    HW232475   0.126   4.307   7.335  0.3271  0.1219 -0.4717
 6948SOL     OW32476   3.943   3.521  16.373  0.4166 -0.3656 -0.2842
 6948SOL    HW132477   3.960   3.585  16.305  1.2190  0.2895  0.5255
 6948SOL    HW232478   3.856   3.501  16.340  0.7931 -0.8748 -0.9740
 6949SOL     OW32479   4.305   2.692   1.780  0.0938  0.2869  0.1984
 6949SOL    HW132480   4.340   2.725   1.698  4.2223 -1.8872  1.0835
 6949SOL    HW232481   4.339   2.753   1.846  1.7196 -1.7035  1.2144
 6950SOL     OW32482   4.023   3.804   5.580  0.2651 -0.5723 -0.0651
 6950SOL    HW132483   3.978   3.888   5.574  0.4609 -0.5670 -1.4401
 6950SOL    HW232484   4.049   3.802   5.672  2.0603 -1.2212 -0.5798
 6951SOL     OW32485   3.457   4.714   4.553  0.1394  0.0168 -0.2096
 6951SOL    HW132486   3.456   4.669   4.637  0.9865  0.8086  0.2184
 6951SOL    HW232487   3.437   4.647   4.488 -1.5767  0.8418 -0.5264
 6952SOL     OW32488   2.036   0.692   8.917  0.5040 -0.3387 -0.4082
 6952SOL    HW132489   2.107   0.746   8.882 -0.4913  2.4346  1.8534
 6952SOL    HW232490   2.025   0.628   8.848 -0.7288 -1.3777  0.7522
 6953SOL     OW32491   3.469   4.119  10.623 -0.4239  0.3754  0.0647
 6953SOL    HW132492   3.401   4.119  10.555 -0.5724 -0.7956  0.2088
 6953SOL    HW232493   3.555   4.107  10.584 -1.3187 -1.6028 -1.3573
 6954SOL     OW32494   4.731   4.695  13.309 -0.2527 -0.3849  0.1931
 6954SOL    HW132495   0.032   4.618  13.352 -0.4524 -1.6363 -1.8231
 6954SOL    HW232496   4.639   4.671  13.321 -0.6566  0.5140 -1.1269
 6955SOL     OW32497   2.874   1.158   6.108 -0.1971  0.7216 -0.4522
 6955SOL    HW132498   2.936   1.230   6.099 -1.2074  1.4140 -1.7856
 6955SOL    HW232499   2.828   1.176   6.190 -1.0338 -0.4682 -0.6643
 6956SOL     OW32500   2.807   3.826   3.429  0.2090 -0.2421  0.2021
 6956SOL    HW132501   2.880   3.877   3.393 -0.8647  2.2193  1.5250
 6956SOL    HW232502   2.770   3.806   3.343  2.2887  2.5620 -1.3409
 6957SOL     OW32503   2.155   0.755   6.012  0.5679 -0.0216  0.9692
 6957SOL    HW132504   2.238   0.725   6.048  0.8394 -0.0260  0.3349
 6957SOL    HW232505   2.126   0.676   5.966  0.0559  0.2929  0.7512
 6958SOL     OW32506   2.090   1.455  17.589 -0.6107  0.1238  0.2928
 6958SOL    HW132507   2.153   1.463  17.661  1.2996 -0.2874 -1.3596
 6958SOL    HW232508   2.146   1.399  17.535 -0.7201  0.4993 -0.2069
 6959SOL     OW32509   2.550   0.424   8.225 -0.4544 -0.3972 -0.1962
 6959SOL    HW132510   2.550   0.363   8.151  0.8158 -1.5753  0.7734
 6959SOL    HW232511   2.633   0.470   8.211 -1.5783  1.7656  0.3126
 6960SOL     OW32512   1.932   3.789  14.277  0.4452  0.2799  0.6129
 6960SOL    HW132513   1.949   3.866  14.224  1.4217  0.1786  0.7770
 6960SOL    HW232514   2.014   3.747  14.252 -0.8446 -2.0893  0.3473
 6961SOL     OW32515   4.416   0.332   3.632 -0.9540  0.3699  0.4622
 6961SOL    HW132516   4.325   0.303   3.622  0.2005 -3.7285  1.9625
 6961SOL    HW232517   4.441   0.369   3.547 -1.0481 -0.5092  0.0453
 6962SOL     OW32518   1.353   1.461   3.957 -0.2510 -0.5985  0.5230
 6962SOL    HW132519   1.343   1.549   3.921  1.4174 -0.2634  0.8760
 6962SOL    HW232520   1.415   1.468   4.030  0.6695 -2.2232 -0.0853
 6963SOL     OW32521   0.981   0.246   0.315  0.5345 -0.3282 -0.0136
 6963SOL    HW132522   0.886   0.235   0.318  0.3570  1.7003  1.8051
 6963SOL    HW232523   0.999   0.174   0.255 -0.8111 -2.2108  1.8089
 6964SOL     OW32524   2.310   2.555   7.767 -0.1597 -0.0238  0.0871
 6964SOL    HW132525   2.248   2.550   7.695  0.1224  0.2887 -0.1785
 6964SOL    HW232526   2.255   2.596   7.834 -0.8283  0.2985 -0.6649
 6965SOL     OW32527   2.131   0.875  14.717  0.2188  0.3628  0.4012
 6965SOL    HW132528   2.059   0.877  14.781  0.3999 -0.1490  0.6195
 6965SOL    HW232529   2.099   0.952  14.669 -0.6011 -0.7167 -0.7772
 6966SOL     OW32530   0.426   3.748   6.212 -0.5015  0.3796  0.1258
 6966SOL    HW132531   0.457   3.764   6.301  1.8877 -1.9688 -0.2740
 6966SOL    HW232532   0.470   3.664   6.197 -1.9820  0.0352 -2.3554
 6967SOL     OW32533   4.518   4.304   3.418 -0.0191  0.2891 -0.0285
 6967SOL    HW132534   4.589   4.363   3.443 -0.5288  1.1191 -0.5404
 6967SOL    HW232535   4.448   4.366   3.397 -1.9524 -1.6991  0.4702
 6968SOL     OW32536   3.031   4.279   7.363 -0.2625 -0.3967  0.4166
 6968SOL    HW132537   2.998   4.206   7.414 -2.4148 -0.9571 -1.7557
 6968SOL    HW232538   3.036   4.344   7.433 -2.1697 -1.1568  1.2491
 6969SOL     OW32539   2.434   0.351   2.074 -0.4447 -0.1235 -0.5637
 6969SOL    HW132540   2.407   0.272   2.027 -0.8196  0.7167 -1.7662
 6969SOL    HW232541   2.434   0.324   2.166  0.9605  2.0531  0.0753
 6970SOL     OW32542   2.080   0.556   5.820 -0.0363  0.3330  0.1787
 6970SOL    HW132543   1.989   0.567   5.848 -0.2422 -0.5005 -0.1758
 6970SOL    HW232544   2.087   0.461   5.828 -0.7717  0.3147  0.5469
 6971SOL     OW32545   0.148   4.208   3.633 -0.1211  0.2395  0.8214
 6971SOL    HW132546   0.087   4.263   3.584 -2.0441 -1.5207  1.2522
 6971SOL    HW232547   0.158   4.133   3.573  0.4153 -0.0036  1.2123
 6972SOL     OW32548   1.070   2.879   2.413 -0.2080  0.0477 -0.0115
 6972SOL    HW132549   1.071   2.927   2.330 -0.9998 -2.1062 -1.2822
 6972SOL    HW232550   0.992   2.900   2.465 -0.2123  1.9964 -0.7918
 6973SOL     OW32551   3.085   1.045   2.589 -0.5540 -0.0381  0.7544
 6973SOL    HW132552   3.032   1.115   2.552 -2.0792 -1.2214  0.7118
 6973SOL    HW232553   3.176   1.061   2.563 -1.5812  0.9362 -2.1385
 6974SOL     OW32554   0.262   1.302   0.266  0.7081  0.3830 -0.1752
 6974SOL    HW132555   0.307   1.297   0.351 -1.1527  0.3627  0.8004
 6974SOL    HW232556   0.176   1.271   0.292  1.5536 -2.0182 -0.2500
 6975SOL     OW32557   0.119   3.678   7.199  0.4090 -0.1495  0.4985
 6975SOL    HW132558   0.209   3.647   7.190  0.7098  1.2469 -1.2373
 6975SOL    HW232559   0.064   3.651   7.126  1.6410  0.7344 -0.7434
 6976SOL     OW32560   3.031   0.923   0.202  0.0448 -0.0729 -0.3390
 6976SOL    HW132561   3.126   0.930   0.212 -0.2739  0.2226  2.4386
 6976SOL    HW232562   3.012   0.926   0.296 -0.9301  1.5776 -0.5997
 6977SOL     OW32563   3.068   3.080   3.480  0.1367  0.1625  0.2478
 6977SOL    HW132564   3.006   3.024   3.432  1.2493 -0.8780  0.0236
 6977SOL    HW232565   3.101   3.129   3.405 -0.9443  2.2925  1.1427
 6978SOL     OW32566   1.361   0.268   7.252  0.0509  0.2804 -0.6059
 6978SOL    HW132567   1.282   0.320   7.261  0.2548  0.3845  0.5147
 6978SOL    HW232568   1.356   0.212   7.330 -3.2462  0.5571 -0.6406
 6979SOL     OW32569   0.785   3.945   6.546 -0.9023  0.0492  0.0115
 6979SOL    HW132570   0.872   3.979   6.568 -1.4884  1.2576  0.4409
 6979SOL    HW232571   0.805   3.903   6.462 -0.0090 -0.2783  0.3798
 6980SOL     OW32572   3.232   3.207   3.880 -0.4513  0.6432 -0.3478
 6980SOL    HW132573   3.269   3.121   3.902  0.2785  0.3535 -2.6335
 6980SOL    HW232574   3.299   3.268   3.912  0.4951 -0.0693 -0.9722
 6981SOL     OW32575   2.261   2.701   6.390 -0.5599 -0.3192  0.3259
 6981SOL    HW132576   2.220   2.616   6.375 -0.8034 -0.1782  0.1994
 6981SOL    HW232577   2.186   2.753   6.418  0.3113  0.7323  0.7522
 6982SOL     OW32578   3.837   3.841  13.599 -0.4629  0.3719  0.2640
 6982SOL    HW132579   3.830   3.858  13.693 -2.5760  1.1007 -0.0252
 6982SOL    HW232580   3.929   3.866  13.584 -0.6617  0.9411 -0.0111
 6983SOL     OW32581   2.668   3.990  15.117  0.0344 -0.3388 -0.7045
 6983SOL    HW132582   2.749   3.959  15.076 -1.3398  0.6155 -4.0680
 6983SOL    HW232583   2.631   3.911  15.158 -1.1619  0.6661  0.1602
 6984SOL     OW32584   0.899   0.218   7.534 -0.3221  0.0834 -0.0378
 6984SOL    HW132585   0.891   0.128   7.503 -2.7559  0.0562  0.6741
 6984SOL    HW232586   0.874   0.258   7.450 -1.7252 -0.1420  0.2727
 6985SOL     OW32587   1.286   0.423   3.537 -0.0677 -0.0535  0.2871
 6985SOL    HW132588   1.195   0.396   3.536 -0.0787 -0.0099 -0.7658
 6985SOL    HW232589   1.319   0.339   3.506  2.9910  0.8303  1.0994
 6986SOL     OW32590   0.805   4.020  15.065  0.1176  0.7346  0.4139
 6986SOL    HW132591   0.800   3.991  14.973 -1.3470 -0.5262  0.8825
 6986SOL    HW232592   0.838   3.939  15.104 -1.0584 -1.0897 -2.3273
 6987SOL     OW32593   1.779   0.983   2.904  0.1808 -0.2555 -0.7376
 6987SOL    HW132594   1.751   0.897   2.933  2.2552 -0.4230  0.8265
 6987SOL    HW232595   1.714   1.031   2.956  0.1817  0.0864 -1.0511
 6988SOL     OW32596   0.272   2.541   5.774  0.2485 -0.1703  0.2538
 6988SOL    HW132597   0.243   2.625   5.810  0.7541 -0.2075  0.7443
 6988SOL    HW232598   0.355   2.563   5.732  0.1971  0.6365  0.5697
 6989SOL     OW32599   3.535   4.493   6.218  0.0375  0.5552  0.5761
 6989SOL    HW132600   3.616   4.523   6.177 -0.0400 -0.9168 -0.6097
 6989SOL    HW232601   3.486   4.453   6.147  0.8148  0.4888  0.0888
 6990SOL     OW32602   2.915   2.740   8.269  0.6798  0.2108  0.1621
 6990SOL    HW132603   2.862   2.815   8.243  0.2513  0.6545  2.3078
 6990SOL    HW232604   2.860   2.663   8.252 -2.3060  2.6644 -1.2259
 6991SOL     OW32605   0.243   0.808   2.340  0.3909 -0.1660  0.3533
 6991SOL    HW132606   0.158   0.805   2.384 -0.1521  0.4903 -0.6430
 6991SOL    HW232607   0.218   0.838   2.253  0.9071  0.0148  0.2688
 6992SOL     OW32608   2.791   3.442   4.902 -0.0588 -0.1461 -0.0754
 6992SOL    HW132609   2.735   3.444   4.825  1.8658  0.0712 -1.4442
 6992SOL    HW232610   2.730   3.443   4.976 -0.1827  2.5765 -0.2178
 6993SOL     OW32611   2.084   1.359   8.911 -0.2850 -0.3116  0.6478
 6993SOL    HW132612   2.120   1.363   9.000 -2.1621 -1.0040  1.4426
 6993SOL    HW232613   2.119   1.274   8.883 -0.1686 -1.1603  3.3309
 6994SOL     OW32614   0.865   4.116   2.539  0.2396  0.2632  0.0459
 6994SOL    HW132615   0.896   4.162   2.461  3.0316  0.0168  0.9878
 6994SOL    HW232616   0.770   4.120   2.536  0.1619 -1.9683 -0.6247
 6995SOL     OW32617   2.127   0.046   3.783  0.0435 -0.0351  0.5581
 6995SOL    HW132618   2.174   0.086   3.710 -0.1155  2.3225  1.7484
 6995SOL    HW232619   2.091   0.128   3.816  0.5944 -0.5514  2.4423
 6996SOL     OW32620   1.608   2.963   7.785  0.1472 -0.3591  0.2418
 6996SOL    HW132621   1.697   2.986   7.813  0.0075  0.4714 -0.0004
 6996SOL    HW232622   1.603   3.036   7.723  1.5976  1.0421  1.7786
 6997SOL     OW32623   0.209   4.220   8.803  0.0186  0.2334 -0.2904
 6997SOL    HW132624   0.120   4.253   8.819 -1.0843 -1.5124 -2.7631
 6997SOL    HW232625   0.204   4.181   8.715 -0.3310  0.6344 -0.4462
 6998SOL     OW32626   3.635   1.369   5.477 -0.4295  0.6364  0.0309
 6998SOL    HW132627   3.552   1.415   5.489  0.0293  2.2645 -2.9733
 6998SOL    HW232628   3.675   1.401   5.558  0.3775 -3.2157  1.1880
 6999SOL     OW32629   3.900   0.686  12.503 -0.7562 -0.3530  0.1304
 6999SOL    HW132630   3.850   0.628  12.560  0.5173 -1.0130  0.5690
 6999SOL    HW232631   3.977   0.648  12.459  0.2576  1.3558  0.4530
 7000SOL     OW32632   1.149   4.384  15.144  0.3912 -0.0527  0.3139
 7000SOL    HW132633   1.068   4.349  15.108  0.1383  0.1758  0.6488
 7000SOL    HW232634   1.206   4.394  15.068 -0.6890 -0.9576 -0.6031
 7001SOL     OW32635   2.361   1.814   7.267 -0.3601  0.2111  0.2196
 7001SOL    HW132636   2.285   1.794   7.321 -0.3779 -0.3920 -0.0290
 7001SOL    HW232637   2.434   1.790   7.324 -0.8185 -1.1347  0.2414
 7002SOL     OW32638   2.941   0.046   9.065 -0.1480 -0.2578 -0.4187
 7002SOL    HW132639   2.869   4.727   9.034  0.3167  0.3287 -2.5501
 7002SOL    HW232640   3.012   4.733   9.026  0.3795 -0.5563  0.9324
 7003SOL     OW32641   1.799   3.682   9.159  0.3978  1.0640 -0.3535
 7003SOL    HW132642   1.736   3.724   9.102 -0.1319  0.5391 -0.1536
 7003SOL    HW232643   1.741   3.646   9.226  0.9052  1.7858  0.4802
 7004SOL     OW32644   1.691   2.092   1.881  0.0553  0.1134 -0.2697
 7004SOL    HW132645   1.638   2.023   1.841 -1.1215  1.1103 -0.4369
 7004SOL    HW232646   1.780   2.058   1.871  1.0052  2.4566  0.1967
 7005SOL     OW32647   2.654   2.026   3.454 -0.7047 -0.0744 -0.1457
 7005SOL    HW132648   2.725   1.967   3.430 -1.2172 -1.1460  0.9983
 7005SOL    HW232649   2.616   1.976   3.526 -3.5411 -1.8670 -2.8989
 7006SOL     OW32650   2.092   2.131  17.078  0.7184 -0.0720 -0.7725
 7006SOL    HW132651   2.087   2.068  17.150 -2.4668  0.5184 -0.5177
 7006SOL    HW232652   2.012   2.180  17.094 -0.0952 -1.7629  0.3302
 7007SOL     OW32653   1.126   4.649   0.498 -0.5827  0.0164  0.2774
 7007SOL    HW132654   1.132   0.006   0.511  2.2243 -0.4007  2.1022
 7007SOL    HW232655   1.178   4.624   0.574 -2.2826  0.2472  1.5082
 7008SOL     OW32656   4.124   4.655   5.361  0.3677 -0.3665  0.7224
 7008SOL    HW132657   4.081   4.573   5.385  0.6126 -1.6971 -3.4733
 7008SOL    HW232658   4.053   4.717   5.345 -0.5365 -2.3414 -2.8409
 7009SOL     OW32659   3.187   4.621   6.095  0.6225  0.3550 -0.1217
 7009SOL    HW132660   3.099   4.649   6.124  1.8238  2.1245  1.8526
 7009SOL    HW232661   3.242   4.673   6.154 -0.0251 -1.0967  1.7623
 7010SOL     OW32662   0.959   1.111   4.715  0.1953 -0.1162 -0.6402
 7010SOL    HW132663   0.892   1.131   4.781 -0.3002  1.4630 -1.6293
 7010SOL    HW232664   0.966   1.015   4.720 -0.5629 -0.1168  0.3527
 7011SOL     OW32665   1.195   0.127   6.790 -0.1971 -0.4003  0.6399
 7011SOL    HW132666   1.216   0.112   6.882 -1.7053 -1.0873  0.8818
 7011SOL    HW232667   1.110   0.170   6.801 -0.6377 -1.4602  1.3365
 7012SOL     OW32668   3.496   0.892   6.797 -0.5073 -0.4544 -0.2643
 7012SOL    HW132669   3.454   0.814   6.761 -0.8362  0.5650 -2.1182
 7012SOL    HW232670   3.427   0.959   6.795 -1.3462 -1.2512  1.7972
 7013SOL     OW32671   1.724   2.905   5.232  0.1539  0.4549  0.5576
 7013SOL    HW132672   1.805   2.906   5.282  0.0434  2.0148  0.6851
 7013SOL    HW232673   1.699   2.812   5.239 -1.0397  0.8937  2.0437
 7014SOL     OW32674   4.295   0.508   2.252 -0.3275  0.4457  0.6207
 7014SOL    HW132675   4.318   0.600   2.243 -2.1055  0.8345 -0.1121
 7014SOL    HW232676   4.216   0.503   2.198  1.5326 -1.4616 -1.8854
 7015SOL     OW32677   3.363   0.555   5.437  0.0291 -0.2096 -0.4793
 7015SOL    HW132678   3.314   0.625   5.394 -1.1303 -0.9452 -0.3701
 7015SOL    HW232679   3.398   0.508   5.361  1.3330 -1.0777  0.6842
 7016SOL     OW32680   0.778   3.402  17.157 -0.1999  0.1388 -0.3619
 7016SOL    HW132681   0.840   3.443  17.097  0.3292 -0.0177  0.0768
 7016SOL    HW232682   0.723   3.344  17.105  0.2630 -1.7276  1.2290
 7017SOL     OW32683   1.668   3.062  13.757  0.0276  0.0432  0.0653
 7017SOL    HW132684   1.573   3.054  13.756  0.0145  0.3249 -0.9758
 7017SOL    HW232685   1.671   3.152  13.722  1.3331  0.3752  1.0095
 7018SOL     OW32686   0.438   0.366   5.216 -0.0917  0.0219 -0.0484
 7018SOL    HW132687   0.366   0.406   5.168  0.8239  0.7555 -0.8055
 7018SOL    HW232688   0.446   0.282   5.170  0.5630 -0.6942  1.3457
 7019SOL     OW32689   4.338   4.649   5.006 -0.0775  0.2188  0.6821
 7019SOL    HW132690   4.277   4.714   5.043  1.1028  0.4131  2.2968
 7019SOL    HW232691   4.417   4.703   5.009  0.2075 -0.2431  1.5871
 7020SOL     OW32692   0.835   1.402   0.690  0.5771  0.3380 -0.3073
 7020SOL    HW132693   0.793   1.412   0.605 -2.2819  3.6033  1.4548
 7020SOL    HW232694   0.923   1.368   0.673  0.6554 -0.0676  0.8778
 7021SOL     OW32695   3.189   1.144   3.721 -0.5371  0.1986 -0.2824
 7021SOL    HW132696   3.255   1.097   3.771 -0.3924  0.1711 -0.4981
 7021SOL    HW232697   3.224   1.233   3.718  0.2453 -0.0987  0.0386
 7022SOL     OW32698   1.493   0.615   1.493 -0.0864 -0.2603 -0.2797
 7022SOL    HW132699   1.429   0.657   1.551 -1.9036 -3.3080 -0.0844
 7022SOL    HW232700   1.470   0.523   1.499 -0.3274 -0.2725 -1.2613
 7023SOL     OW32701   2.372   3.076  10.165 -0.1189 -0.3049 -0.1190
 7023SOL    HW132702   2.335   3.164  10.163  1.2206  0.2447 -1.0140
 7023SOL    HW232703   2.410   3.066  10.077  3.6081  1.8839  1.2495
 7024SOL     OW32704   1.567   0.685   5.098  0.2994 -0.0118 -0.7198
 7024SOL    HW132705   1.520   0.663   5.178  0.9641  0.4199 -0.2029
 7024SOL    HW232706   1.512   0.633   5.039  0.2813 -0.2905 -0.4585
 7025SOL     OW32707   1.499   2.882   3.775 -0.4266  0.2963  0.4448
 7025SOL    HW132708   1.552   2.944   3.726 -0.9924  1.1444  0.9161
 7025SOL    HW232709   1.546   2.804   3.743  0.4307  0.4762  1.2577
 7026SOL     OW32710   4.080   1.938   4.358 -0.9707 -0.6356  0.2275
 7026SOL    HW132711   4.029   2.019   4.359 -0.7298 -0.4558 -2.0322
 7026SOL    HW232712   4.043   1.881   4.425  0.0413  0.5834  1.8155
 7027SOL     OW32713   3.764   2.022   9.337 -0.0125  0.7955 -0.2147
 7027SOL    HW132714   3.707   1.950   9.365 -0.7848  1.1073 -0.9845
 7027SOL    HW232715   3.771   2.001   9.244 -0.4628 -2.5933  0.5201
 7028SOL     OW32716   1.509   2.224   4.486 -0.1729 -0.3962 -0.1542
 7028SOL    HW132717   1.591   2.178   4.507  0.1403  0.9617  1.5658
 7028SOL    HW232718   1.536   2.311   4.514 -0.0043 -0.3243 -0.5310
 7029SOL     OW32719   3.624   2.377   2.090  0.2328  0.3074 -0.2853
 7029SOL    HW132720   3.533   2.408   2.080  0.1144 -0.8543 -2.7445
 7029SOL    HW232721   3.662   2.465   2.099 -1.0370  0.8312  0.0189
 7030SOL     OW32722   2.473   4.117  15.236  0.7841  0.1006  0.5052
 7030SOL    HW132723   2.550   4.065  15.213 -0.8768 -0.3683 -3.9498
 7030SOL    HW232724   2.498   4.151  15.322 -0.7163 -1.2607  1.4862
 7031SOL     OW32725   2.839   3.464  15.097 -0.2597  0.0015  0.3947
 7031SOL    HW132726   2.802   3.438  15.182 -3.1306  2.1457 -0.2137
 7031SOL    HW232727   2.913   3.404  15.083  0.7271  1.0079  1.2531
 7032SOL     OW32728   1.903   4.595   7.203 -0.8363 -0.0581 -0.7152
 7032SOL    HW132729   1.856   4.523   7.244  0.2660 -1.4029 -1.8138
 7032SOL    HW232730   1.971   4.535   7.172 -0.0318 -0.2819  1.4966
 7033SOL     OW32731   2.503   3.769   6.277 -0.8861 -0.6591  0.6522
 7033SOL    HW132732   2.560   3.839   6.307 -1.5206  0.5493 -0.9603
 7033SOL    HW232733   2.569   3.700   6.269 -1.8002 -1.5299  0.5631
 7034SOL     OW32734   2.393   0.691  11.517 -0.4486  0.4273  0.2124
 7034SOL    HW132735   2.389   0.725  11.607  2.8244 -1.3237  1.0385
 7034SOL    HW232736   2.402   0.774  11.470 -0.0177 -0.3505 -1.0601
 7035SOL     OW32737   4.319   2.815  15.947  0.2476  0.0833 -0.4974
 7035SOL    HW132738   4.236   2.781  15.912 -0.0718  0.5845 -0.2336
 7035SOL    HW232739   4.362   2.799  15.863  0.0665  2.9903 -1.1378
 7036SOL     OW32740   1.295   2.574   7.213 -0.4271 -0.0962 -0.3147
 7036SOL    HW132741   1.207   2.597   7.185 -0.4092 -2.4388 -2.2797
 7036SOL    HW232742   1.274   2.484   7.236 -1.7296  0.1985 -0.3276
 7037SOL     OW32743   4.685   3.408  15.849  0.6307 -0.7017  0.9394
 7037SOL    HW132744   0.012   3.479  15.849  0.2198 -0.3300  2.8703
 7037SOL    HW232745   4.631   3.431  15.924  0.5845  2.5904 -0.0789
 7038SOL     OW32746   4.709   2.763   9.843  0.4824  0.3157  0.0697
 7038SOL    HW132747   0.055   2.720   9.821  0.4448 -0.1275  0.8091
 7038SOL    HW232748   4.682   2.713   9.919  4.2681  0.5952  1.6416
 7039SOL     OW32749   0.789   0.773   6.494 -0.2254 -0.3154  0.6702
 7039SOL    HW132750   0.871   0.746   6.452  0.3595 -0.4815  1.9282
 7039SOL    HW232751   0.728   0.711   6.453  2.0031 -0.9537 -1.7275
 7040SOL     OW32752   2.454   2.620   3.804 -0.1134  0.5321 -0.8060
 7040SOL    HW132753   2.494   2.629   3.717 -0.9851 -0.2182 -1.2860
 7040SOL    HW232754   2.499   2.538   3.821 -0.1887  1.0698  1.9063
 7041SOL     OW32755   0.372   0.783   5.967  0.6183  0.5733 -0.3679
 7041SOL    HW132756   0.336   0.729   5.897  1.9810  0.0671 -0.6873
 7041SOL    HW232757   0.346   0.873   5.947 -0.2818  0.2063 -0.8508
 7042SOL     OW32758   4.399   4.142   4.235  0.6379 -0.2949  0.0302
 7042SOL    HW132759   4.420   4.229   4.268  1.1396  0.6710 -2.7708
 7042SOL    HW232760   4.487   4.109   4.219  0.6609  0.1051 -0.6928
 7043SOL     OW32761   1.877   0.637   2.257  0.1802 -0.2202  0.3313
 7043SOL    HW132762   1.801   0.588   2.226  0.4721  0.1171 -0.9358
 7043SOL    HW232763   1.919   0.670   2.177  0.0121 -1.5897 -0.3097
 7044SOL     OW32764   0.901   2.863  15.386  0.3020 -0.5747  0.6218
 7044SOL    HW132765   0.942   2.867  15.472 -0.1569 -1.5943  0.8848
 7044SOL    HW232766   0.918   2.771  15.368  0.1130 -1.0308  2.7843
 7045SOL     OW32767   1.144   4.509  13.357 -0.0354  0.3469  0.6937
 7045SOL    HW132768   1.219   4.469  13.311  0.4833 -2.0060  3.6068
 7045SOL    HW232769   1.072   4.494  13.296  0.8680  2.6287 -0.9154
 7046SOL     OW32770   0.876   0.298   8.866 -0.6510 -0.0971  0.7232
 7046SOL    HW132771   0.855   0.313   8.958 -0.7264  2.1002  0.3417
 7046SOL    HW232772   0.870   0.385   8.829  2.6543  0.3331  1.1890
 7047SOL     OW32773   4.245   3.025   5.511  0.0779 -0.0875 -0.5554
 7047SOL    HW132774   4.299   2.954   5.545 -0.5582 -0.5059 -0.4213
 7047SOL    HW232775   4.310   3.093   5.497 -0.7303  0.7367 -0.3123
 7048SOL     OW32776   1.160   0.519   2.955  1.0088  0.4474 -0.4510
 7048SOL    HW132777   1.152   0.615   2.952 -2.3467  0.2009 -0.1767
 7048SOL    HW232778   1.247   0.501   2.921  0.4477 -1.3807 -0.9287
 7049SOL     OW32779   2.291   4.075   8.125  0.1804  0.1128 -0.0619
 7049SOL    HW132780   2.301   4.157   8.173  1.5460  0.5345 -1.0823
 7049SOL    HW232781   2.310   4.008   8.191 -0.3463  0.3554  0.3403
 7050SOL     OW32782   1.630   2.534  14.937 -0.7088  0.3003  0.1945
 7050SOL    HW132783   1.559   2.538  15.002  0.7643 -0.3502  1.8310
 7050SOL    HW232784   1.602   2.608  14.882  0.8706  0.8910  0.1912
 7051SOL     OW32785   1.752   0.365   6.083 -0.2134 -0.6086 -0.2116
 7051SOL    HW132786   1.764   0.348   6.177  1.4183 -0.3549 -0.3813
 7051SOL    HW232787   1.704   0.284   6.064 -0.4958 -0.8552  1.4751
 7052SOL     OW32788   3.430   2.342   1.156 -0.3929  0.0235 -0.2931
 7052SOL    HW132789   3.340   2.312   1.169 -0.1188 -0.7884 -0.2895
 7052SOL    HW232790   3.452   2.332   1.064  1.8907  1.8474  0.0566
 7053SOL     OW32791   3.586   2.183   5.883  0.4306 -0.3303  0.1276
 7053SOL    HW132792   3.672   2.177   5.925  1.5248  2.1082 -1.7612
 7053SOL    HW232793   3.528   2.139   5.945 -0.9099 -0.6729 -1.4012
 7054SOL     OW32794   1.892   2.883   0.432  0.2487  0.3452  0.1477
 7054SOL    HW132795   1.856   2.961   0.391 -1.3461 -1.3286 -1.6329
 7054SOL    HW232796   1.939   2.931   0.501  0.2771 -1.3426  1.3221
 7055SOL     OW32797   4.221   3.141   7.568  0.7553  0.1555  0.0925
 7055SOL    HW132798   4.208   3.049   7.548 -0.2910 -0.1143  2.0394
 7055SOL    HW232799   4.310   3.154   7.536  0.6881  0.2597 -0.0518
 7056SOL     OW32800   2.691   1.539  10.590  0.1943  0.2103  0.9300
 7056SOL    HW132801   2.739   1.519  10.510 -1.7556 -0.0932 -0.1660
 7056SOL    HW232802   2.700   1.631  10.616 -0.1940  0.5161 -0.0014
 7057SOL     OW32803   1.971   2.178  15.703  0.2451 -0.5839  0.4310
 7057SOL    HW132804   1.885   2.200  15.668 -0.2128  1.2600  2.7284
 7057SOL    HW232805   2.036   2.241  15.671 -0.2909  0.7094  1.8464
 7058SOL     OW32806   1.353   0.397   1.661 -0.4075  0.2641 -0.3426
 7058SOL    HW132807   1.386   0.452   1.733  0.6667 -0.3739 -0.3386
 7058SOL    HW232808   1.358   0.307   1.694 -1.1834  1.4261  2.9064
 7059SOL     OW32809   4.502   1.849   6.555 -0.4510 -0.2795  0.4066
 7059SOL    HW132810   4.421   1.819   6.514 -0.0095 -1.8106  0.6359
 7059SOL    HW232811   4.555   1.889   6.487 -2.2388 -0.2711 -0.9957
 7060SOL     OW32812   4.232   2.355   7.729 -0.6292  0.3004 -0.4693
 7060SOL    HW132813   4.302   2.417   7.708 -1.2796  1.7146  1.5212
 7060SOL    HW232814   4.174   2.371   7.655 -1.2077 -0.1797 -0.1181
 7061SOL     OW32815   2.319   0.592  13.624 -0.2938  0.0023 -0.1795
 7061SOL    HW132816   2.373   0.670  13.611  1.1631 -0.8630  0.7047
 7061SOL    HW232817   2.377   0.535  13.675 -1.4801  0.4982  1.7464
 7062SOL     OW32818   1.129   0.926   8.301  0.8355 -0.8215 -0.0395
 7062SOL    HW132819   1.155   0.983   8.228  0.8776 -0.6813  0.0867
 7062SOL    HW232820   1.176   0.845   8.277 -1.4467 -1.6494 -1.6527
 7063SOL     OW32821   3.107   0.737   2.023  0.0364  0.2598  0.3236
 7063SOL    HW132822   3.134   0.780   2.105  0.2033  0.7044  0.0361
 7063SOL    HW232823   3.132   0.810   1.966  2.7064 -1.5430 -0.7990
 7064SOL     OW32824   2.309   0.176   7.046  0.4309  0.2137  0.5113
 7064SOL    HW132825   2.216   0.161   7.063  0.7299 -0.5600  1.4791
 7064SOL    HW232826   2.345   0.151   7.131 -1.1569 -0.9647  0.8251
 7065SOL     OW32827   0.079   4.290  17.540  0.7340 -0.0828 -0.0261
 7065SOL    HW132828   0.058   4.322  17.452 -1.5629  1.8773  1.2603
 7065SOL    HW232829   4.734   4.256  17.574 -1.8816  3.1451 -3.1646
 7066SOL     OW32830   0.484   3.467   9.308 -0.3275  0.1865 -0.1582
 7066SOL    HW132831   0.400   3.503   9.338 -0.8990  0.2684 -1.8572
 7066SOL    HW232832   0.525   3.544   9.269 -0.0080  0.4143  0.6196
 7067SOL     OW32833   0.283   4.590   2.072  0.3491 -0.2811 -0.2262
 7067SOL    HW132834   0.306   4.501   2.098 -1.0275 -0.9764 -1.4104
 7067SOL    HW232835   0.285   4.641   2.153  1.7044 -0.0503 -0.4023
 7068SOL     OW32836   0.937   4.429   5.785 -0.1394 -0.0834  0.1955
 7068SOL    HW132837   0.889   4.346   5.775  0.5237 -0.7964  2.9204
 7068SOL    HW232838   0.898   4.475   5.711 -0.9960 -0.4386  0.4176
 7069SOL     OW32839   1.834   1.296   6.153  0.1188 -0.0017  0.5158
 7069SOL    HW132840   1.876   1.378   6.127 -1.1553  0.6009  0.3731
 7069SOL    HW232841   1.743   1.323   6.141  0.3413 -0.8277 -2.8672
 7070SOL     OW32842   0.032   2.505   4.259 -0.0070  0.1907  0.1938
 7070SOL    HW132843   0.037   2.504   4.355  4.1565  0.8617 -0.0210
 7070SOL    HW232844   4.675   2.491   4.249  0.0998 -1.3198  1.3127
 7071SOL     OW32845   0.060   2.861  10.616  0.0394 -0.6388 -0.2463
 7071SOL    HW132846   0.135   2.821  10.662  0.9592  0.5908 -0.6736
 7071SOL    HW232847   4.729   2.794  10.612  1.0083 -1.5602 -1.4596
 7072SOL     OW32848   1.123   0.566   8.240  0.1564 -0.1690 -0.2042
 7072SOL    HW132849   1.192   0.570   8.306 -0.3061  0.8396  0.2282
 7072SOL    HW232850   1.054   0.514   8.280 -0.8136  0.2813 -1.2803
 7073SOL     OW32851   1.562   2.335   5.380 -0.0723  0.8144 -0.3479
 7073SOL    HW132852   1.488   2.339   5.320  1.0408  1.9298 -1.6577
 7073SOL    HW232853   1.636   2.340   5.320  2.6723 -2.0281  2.7479
 7074SOL     OW32854   1.953   3.631  11.059  0.4435  0.5114  0.2937
 7074SOL    HW132855   1.863   3.661  11.076  0.1790 -0.4079  0.5211
 7074SOL    HW232856   1.966   3.604  11.150  0.3063  0.9899  0.4526
 7075SOL     OW32857   2.464   3.325   1.649 -0.6819 -0.0750 -0.1413
 7075SOL    HW132858   2.494   3.319   1.558  0.3035 -0.6739  0.2145
 7075SOL    HW232859   2.386   3.380   1.644  0.1161  1.1576  1.0689
 7076SOL     OW32860   3.242   3.547  16.517 -0.1605  0.4832 -0.2449
 7076SOL    HW132861   3.151   3.576  16.510 -0.7394 -0.9414  1.3100
 7076SOL    HW232862   3.279   3.616  16.573 -0.8422  1.7805 -1.3988
 7077SOL     OW32863   0.962   4.343   4.023  0.0599  0.0372  0.5624
 7077SOL    HW132864   0.976   4.275   4.089  3.0877 -0.6586 -0.7459
 7077SOL    HW232865   0.883   4.381   4.061  0.3343 -0.0185  1.1927
 7078SOL     OW32866   4.302   2.895   1.429  0.4504  0.2482 -0.5564
 7078SOL    HW132867   4.264   2.943   1.355 -0.7046  1.1903  0.6522
 7078SOL    HW232868   4.394   2.919   1.427  0.5418 -0.2316 -2.9000
 7079SOL     OW32869   3.352   2.668   8.317  0.2535  0.0037  0.2383
 7079SOL    HW132870   3.441   2.666   8.352 -0.7709  0.8234  2.9156
 7079SOL    HW232871   3.360   2.750   8.267  2.3539 -0.6044 -0.3964
 7080SOL     OW32872   2.167   4.455   6.730  0.1619 -0.3116  0.3654
 7080SOL    HW132873   2.103   4.477   6.797 -0.6733 -1.9843  0.0998
 7080SOL    HW232874   2.184   4.367   6.763  0.4850 -1.1306 -1.9444
 7081SOL     OW32875   0.798   1.416  17.657 -0.3994  0.5676 -0.1928
 7081SOL    HW132876   0.813   1.383  17.569  0.1682  0.7981 -0.1794
 7081SOL    HW232877   0.727   1.361  17.691 -1.7151  1.9792 -0.6621
 7082SOL     OW32878   2.196   0.666  12.379 -0.3432 -0.1163 -0.4925
 7082SOL    HW132879   2.241   0.700  12.457  1.5230 -0.1749 -1.5407
 7082SOL    HW232880   2.238   0.581  12.363 -1.1942 -0.1336 -2.5843
 7083SOL     OW32881   1.319   2.572  10.976  0.3540 -0.0793 -0.1205
 7083SOL    HW132882   1.363   2.621  11.045  3.7157 -1.6641 -1.1359
 7083SOL    HW232883   1.228   2.595  10.994  1.4631  2.1003  2.7182
 7084SOL     OW32884   2.905   1.237   1.664  0.5856  0.0945 -0.5095
 7084SOL    HW132885   2.900   1.219   1.758  2.6251 -0.0302 -0.4170
 7084SOL    HW232886   2.824   1.287   1.650  0.0933 -0.8948 -1.1411
 7085SOL     OW32887   1.999   4.627   3.048  0.2864 -0.0085  0.0082
 7085SOL    HW132888   2.050   4.565   3.100 -0.9825 -2.1787 -1.3470
 7085SOL    HW232889   1.919   4.576   3.036  0.1292  0.2137  0.1215
 7086SOL     OW32890   3.856   0.590   5.141 -0.4767  0.1615  0.1093
 7086SOL    HW132891   3.938   0.631   5.113 -0.0118 -0.2580  0.8554
 7086SOL    HW232892   3.809   0.580   5.059 -0.3835 -1.4161  0.2380
 7087SOL     OW32893   1.386   1.943   3.209  0.1101 -0.2945 -0.5220
 7087SOL    HW132894   1.348   1.856   3.223  0.3864  0.1042  2.7706
 7087SOL    HW232895   1.460   1.955   3.268  1.0661 -0.6436 -1.6597
 7088SOL     OW32896   2.189   4.254   6.220 -0.4214  0.7039 -0.1059
 7088SOL    HW132897   2.280   4.273   6.242 -1.6011  2.1932  3.4478
 7088SOL    HW232898   2.178   4.326   6.157  0.2833  1.2808  0.4266
 7089SOL     OW32899   2.308   3.191   2.292 -0.1418  0.1337  1.0305
 7089SOL    HW132900   2.331   3.220   2.204  1.3470 -0.3562  1.2595
 7089SOL    HW232901   2.271   3.107   2.265  0.4662 -0.9527  3.5813
 7090SOL     OW32902   3.682   3.741  12.957 -0.0930  0.3862 -0.1962
 7090SOL    HW132903   3.736   3.819  12.942 -0.1023  0.3819 -0.2533
 7090SOL    HW232904   3.649   3.722  12.869  0.4215 -1.7790  0.0969
 7091SOL     OW32905   4.074   0.250   6.540  0.1457 -0.2608 -0.1971
 7091SOL    HW132906   4.049   0.158   6.550 -1.2011  0.1093 -0.2277
 7091SOL    HW232907   3.992   0.289   6.510  0.9617  0.8134 -0.9863
 7092SOL     OW32908   4.731   4.187   7.587  0.2172 -0.0976  0.2131
 7092SOL    HW132909   4.697   4.261   7.637  1.4697  0.5865  0.0587
 7092SOL    HW232910   4.709   4.108   7.636  1.0818 -1.2535 -1.2542
 7093SOL     OW32911   2.036   4.528   8.444  0.3416  0.1671 -0.4703
 7093SOL    HW132912   2.054   4.524   8.350  0.4077  2.7448 -0.5454
 7093SOL    HW232913   1.952   4.483   8.456  1.2521 -0.5508  3.1406
 7094SOL     OW32914   2.672   0.038   6.251  0.3725  0.1031 -0.5012
 7094SOL    HW132915   2.619   4.711   6.298 -2.3885  2.2549 -0.6333
 7094SOL    HW232916   2.612   0.071   6.184  1.1325  0.2622 -1.0940
 7095SOL     OW32917   4.030   0.317   3.929 -0.0100 -0.6920 -0.5119
 7095SOL    HW132918   4.019   0.223   3.943  2.0173 -0.3162  3.5326
 7095SOL    HW232919   3.944   0.339   3.965 -1.2227 -1.3877 -3.0281
 7096SOL     OW32920   3.469   4.289   2.856 -0.4232  0.0394 -0.3906
 7096SOL    HW132921   3.469   4.195   2.874  1.2375  0.0666 -0.2679
 7096SOL    HW232922   3.469   4.287   2.760  0.3841 -0.0389 -0.3867
 7097SOL     OW32923   4.496   4.711   5.590  0.2125  0.3414 -0.1457
 7097SOL    HW132924   4.440   0.046   5.564  1.3476  0.6864 -1.6410
 7097SOL    HW232925   4.472   4.635   5.537  1.5984  0.1484 -0.5141
 7098SOL     OW32926   0.209   3.624   8.519 -0.0744 -0.8655  0.0459
 7098SOL    HW132927   0.157   3.702   8.500  0.9950 -0.1917 -0.1412
 7098SOL    HW232928   0.288   3.652   8.565 -0.7760 -0.6353  1.1035
 7099SOL     OW32929   3.522   4.435   9.216  0.2459  0.4135 -0.1937
 7099SOL    HW132930   3.606   4.479   9.229  0.6194 -0.5229  0.5296
 7099SOL    HW232931   3.457   4.494   9.255 -2.0306 -2.0549 -0.2916
 7100SOL     OW32932   2.929   1.570   5.008  0.3441 -0.2941 -0.2054
 7100SOL    HW132933   2.896   1.487   4.975 -0.5609 -0.2316  0.5400
 7100SOL    HW232934   2.890   1.558   5.095  0.3538  1.1905  0.0101
 7101SOL     OW32935   1.550   4.436   7.084 -0.4050 -0.3671  0.1307
 7101SOL    HW132936   1.584   4.518   7.120 -1.1798 -0.1229  0.3197
 7101SOL    HW232937   1.483   4.417   7.150 -0.8146 -1.0089 -0.4801
 7102SOL     OW32938   1.123   2.654   8.832  0.7906 -0.4784 -0.4506
 7102SOL    HW132939   1.200   2.690   8.877  0.3657  0.5026 -0.5017
 7102SOL    HW232940   1.161   2.640   8.746  0.8886 -0.1675 -0.4605
 7103SOL     OW32941   3.150   2.206   5.793  0.0516 -0.3061  0.4836
 7103SOL    HW132942   3.065   2.191   5.752  1.1352 -0.7291 -1.6574
 7103SOL    HW232943   3.139   2.190   5.886  3.2451 -1.8504  0.5910
 7104SOL     OW32944   1.106   2.779   0.775  0.0518  0.5313 -0.5258
 7104SOL    HW132945   1.023   2.734   0.792  0.7819 -0.2540  0.9438
 7104SOL    HW232946   1.110   2.792   0.680 -0.9242  1.8434 -0.3802
 7105SOL     OW32947   1.203   4.421  14.029  0.3617 -0.7315 -0.2749
 7105SOL    HW132948   1.273   4.422  14.093 -0.3190 -1.3408  0.4739
 7105SOL    HW232949   1.240   4.481  13.964  1.0396 -1.9898 -1.0593
 7106SOL     OW32950   3.989   1.929   4.100 -0.2078  0.4794 -0.0998
 7106SOL    HW132951   4.008   2.019   4.125 -0.5152  0.5136  0.0111
 7106SOL    HW232952   4.010   1.893   4.186 -0.4954  3.2801  1.1552
 7107SOL     OW32953   4.467   3.462   1.599  0.3565  0.4063 -0.1150
 7107SOL    HW132954   4.401   3.522   1.634  0.2142  0.2009 -0.0317
 7107SOL    HW232955   4.416   3.381   1.598  0.3980  0.3756  0.4836
 7108SOL     OW32956   2.041   1.671   4.769 -0.0170  0.2773  0.0384
 7108SOL    HW132957   2.075   1.632   4.849 -0.2579  2.4209  1.1743
 7108SOL    HW232958   1.981   1.603   4.739 -0.4894  0.3933  0.7332
 7109SOL     OW32959   2.027   4.115   3.525 -0.2051 -0.1809  0.3307
 7109SOL    HW132960   2.050   4.074   3.609  2.3096 -0.7886 -0.6553
 7109SOL    HW232961   2.008   4.038   3.471 -0.4895 -0.3470  0.6707
 7110SOL     OW32962   0.826   2.223   1.487 -0.5194  0.1798  0.1640
 7110SOL    HW132963   0.805   2.174   1.567 -0.4520 -0.7553 -0.3832
 7110SOL    HW232964   0.875   2.158   1.435 -0.1472 -1.0100  1.9827
 7111SOL     OW32965   4.134   0.166   3.075 -0.5316  0.1231  0.5124
 7111SOL    HW132966   4.107   0.210   3.155 -0.7639  0.2684  0.3547
 7111SOL    HW232967   4.216   0.209   3.048  0.0901 -2.1044 -1.1423
 7112SOL     OW32968   4.233   2.380   9.299 -0.3266 -0.2014  0.2020
 7112SOL    HW132969   4.311   2.433   9.313 -0.7316  0.7612 -1.1490
 7112SOL    HW232970   4.170   2.448   9.276  0.8901  0.2397 -1.8425
 7113SOL     OW32971   0.103   0.683  10.357 -0.0328  0.3010  0.0970
 7113SOL    HW132972   0.143   0.767  10.332 -1.6870  1.1948  0.3879
 7113SOL    HW232973   0.093   0.658  10.266  0.2672  1.3301 -0.2202
 7114SOL     OW32974   4.402   3.056  15.613 -0.1044  0.0871 -0.1528
 7114SOL    HW132975   4.366   3.002  15.543 -0.7149 -1.1449  1.1320
 7114SOL    HW232976   4.365   3.144  15.601 -0.1320 -0.3453 -3.2138
 7115SOL     OW32977   4.087   4.702   3.714  0.4445 -0.2967 -0.4671
 7115SOL    HW132978   4.132   4.643   3.653 -0.8199 -1.0763 -0.6468
 7115SOL    HW232979   4.120   4.675   3.800  0.3067  0.3125 -0.2217
 7116SOL     OW32980   1.620   3.180   3.168 -0.3619  0.3752 -0.3938
 7116SOL    HW132981   1.696   3.202   3.115  1.5697 -1.6936  1.5393
 7116SOL    HW232982   1.554   3.233   3.123  0.1867  1.3981 -0.0067
 7117SOL     OW32983   0.317   2.583  11.256 -0.0483 -0.1451  0.1212
 7117SOL    HW132984   0.314   2.487  11.260 -1.9998 -0.0700  0.6284
 7117SOL    HW232985   0.325   2.605  11.349 -1.4214  1.4759 -0.1584
 7118SOL     OW32986   4.566   1.687   4.510 -0.0370  0.2126 -0.3697
 7118SOL    HW132987   4.496   1.674   4.447  0.3339 -3.0419 -0.1158
 7118SOL    HW232988   4.638   1.717   4.455 -0.6214 -0.5374 -1.5400
 7119SOL     OW32989   2.595   1.464   4.717 -0.2710 -0.8879 -0.0456
 7119SOL    HW132990   2.580   1.432   4.806  0.1066 -0.0332  0.3262
 7119SOL    HW232991   2.559   1.391   4.666 -0.3401 -1.5234  0.9089
 7120SOL     OW32992   4.312   0.649   6.519 -0.1419 -0.3415 -0.3109
 7120SOL    HW132993   4.401   0.650   6.483 -0.2786  0.2500 -0.6177
 7120SOL    HW232994   4.315   0.718   6.584 -0.3988  1.2394 -1.9825
 7121SOL     OW32995   4.689   1.072   2.264 -0.1312 -0.2677 -0.4853
 7121SOL    HW132996   4.698   1.124   2.345  1.3441  0.9140 -1.4154
 7121SOL    HW232997   4.643   1.132   2.205  0.5187  0.9387  0.2216
 7122SOL     OW32998   4.636   1.018   7.881 -0.2715 -0.6442 -0.1062
 7122SOL    HW132999   4.626   0.925   7.862  1.3861 -0.9168  0.3044
 7122SOL    HW233000   4.686   1.027   7.963  1.1539 -1.4633 -0.8887
 7123SOL     OW33001   4.011   0.920  16.635 -0.6363  0.1072 -0.0140
 7123SOL    HW133002   4.096   0.931  16.676 -0.5637 -1.0504  0.1444
 7123SOL    HW233003   3.955   0.889  16.707  0.5226 -2.0438 -0.0543
 7124SOL     OW33004   2.646   2.483   6.299 -0.4960  0.9615 -0.4514
 7124SOL    HW133005   2.719   2.543   6.283 -0.7947  1.3131 -0.5194
 7124SOL    HW233006   2.605   2.490   6.213 -2.2901 -0.2372  0.3187
 7125SOL     OW33007   1.543   2.900   8.057  0.5981  0.4179  0.5087
 7125SOL    HW133008   1.638   2.891   8.064  0.4909  0.0675  1.5899
 7125SOL    HW233009   1.542   2.939   7.970 -0.7493  0.4994  0.5595
 7126SOL     OW33010   0.599   3.676   2.760 -0.3611 -0.1979 -0.5621
 7126SOL    HW133011   0.694   3.678   2.769 -0.2897 -2.3167 -0.8093
 7126SOL    HW233012   0.569   3.639   2.844 -1.7579  1.0759 -0.5057
 7127SOL     OW33013   3.846   4.069   2.119 -0.4219 -0.2677  0.2717
 7127SOL    HW133014   3.815   4.156   2.142  1.0480  0.4157 -0.2681
 7127SOL    HW233015   3.766   4.017   2.118 -0.8957  0.4823 -0.5908
 7128SOL     OW33016   3.407   3.575   8.435  0.0521  0.5600 -0.3718
 7128SOL    HW133017   3.327   3.546   8.391 -0.5874  2.7669 -0.6474
 7128SOL    HW233018   3.383   3.547   8.523  0.7630 -3.0414 -1.3167
 7129SOL     OW33019   0.063   0.845   6.585 -0.1633  0.3149 -0.1666
 7129SOL    HW133020   4.733   0.857   6.652 -1.3436 -0.8850 -1.1225
 7129SOL    HW233021   0.134   0.813   6.642  0.0051 -0.6698 -0.9208
 7130SOL     OW33022   3.395   2.379   4.385  0.1152  0.0881  0.7122
 7130SOL    HW133023   3.385   2.384   4.480  1.9550  1.5891  0.8241
 7130SOL    HW233024   3.459   2.449   4.374 -0.4605  0.7602  1.6067
 7131SOL     OW33025   3.936   1.038   2.356  0.5090 -0.3030 -0.1557
 7131SOL    HW133026   3.888   1.054   2.275  1.5590  1.4779 -0.4066
 7131SOL    HW233027   3.902   1.106   2.414  1.0619 -2.5634  2.8643
 7132SOL     OW33028   4.721   0.933   0.328 -0.1517  1.1526 -0.2301
 7132SOL    HW133029   4.663   0.867   0.292  0.4273  0.6390 -0.2210
 7132SOL    HW233030   4.692   0.921   0.418  3.9279 -0.5430  0.8445
 7133SOL     OW33031   0.523   2.794  15.244 -0.1653  0.0546  0.0845
 7133SOL    HW133032   0.584   2.814  15.173 -0.6177  0.1270 -0.2832
 7133SOL    HW233033   0.445   2.843  15.218  0.6517  0.3321 -1.8785
 7134SOL     OW33034   1.498   4.472   2.207  0.2782 -0.2436 -0.1988
 7134SOL    HW133035   1.565   4.424   2.256  1.6358  1.5892 -0.2752
 7134SOL    HW233036   1.513   4.560   2.241  0.9945 -0.8800  1.1295
 7135SOL     OW33037   3.271   2.070   4.379  0.6399 -0.1318  0.1968
 7135SOL    HW133038   3.239   1.992   4.333 -2.2803  0.7971  0.6311
 7135SOL    HW233039   3.312   2.129   4.316 -0.1214  0.4423  0.2337
 7136SOL     OW33040   0.818   3.298  15.389  0.5517 -0.2622 -0.5386
 7136SOL    HW133041   0.801   3.252  15.471  0.4224 -0.3202 -0.5967
 7136SOL    HW233042   0.882   3.237  15.353 -0.4685 -1.5974 -0.0918
 7137SOL     OW33043   4.050   1.014   1.952 -0.0634 -0.3589 -0.0702
 7137SOL    HW133044   4.032   1.075   1.880  0.7092  0.6099  0.5481
 7137SOL    HW233045   3.971   1.011   2.005 -0.8204 -0.0368 -1.1792
 7138SOL     OW33046   0.523   3.739   7.771  0.1221 -0.3574  0.5742
 7138SOL    HW133047   0.610   3.723   7.807 -0.6014  0.0677  2.4938
 7138SOL    HW233048   0.548   3.788   7.693 -0.5224  1.5218  1.5523
 7139SOL     OW33049   1.710   0.393   8.429 -0.3450 -0.0504  0.2569
 7139SOL    HW133050   1.745   0.336   8.360 -1.7785 -0.0553 -0.4631
 7139SOL    HW233051   1.701   0.328   8.499 -2.8569  1.5299  1.3848
 7140SOL     OW33052   4.560   3.495   2.338 -0.0976 -0.1263  0.3816
 7140SOL    HW133053   4.652   3.520   2.329  0.0796 -0.8550  0.1024
 7140SOL    HW233054   4.532   3.536   2.420  1.0222 -1.8516  1.6302
 7141SOL     OW33055   4.125   4.451   0.447 -0.6516 -0.3947  0.1899
 7141SOL    HW133056   4.220   4.442   0.443 -0.4411  2.6298 -1.9667
 7141SOL    HW233057   4.089   4.475   0.361  1.7210  1.3675 -0.3169
 7142SOL     OW33058   0.662   1.105   6.927  0.1273  0.2631 -0.0093
 7142SOL    HW133059   0.721   1.109   6.853  0.6572 -1.9807  0.3021
 7142SOL    HW233060   0.672   1.188   6.975 -0.2940  1.2683 -1.6458
 7143SOL     OW33061   4.693   0.437   3.334  0.5716  0.2645  0.5112
 7143SOL    HW133062   4.629   0.418   3.266  1.5240  0.9607 -0.5895
 7143SOL    HW233063   4.628   0.466   3.397  1.0696  1.4704  0.4796
 7144SOL     OW33064   0.688   1.959   5.371 -0.3393 -0.1270  0.6026
 7144SOL    HW133065   0.647   2.033   5.326  0.4818  0.4062  0.7292
 7144SOL    HW233066   0.777   1.966   5.336 -0.6995  1.9546  0.1163
 7145SOL     OW33067   3.870   4.317   3.721 -0.2542 -0.4188  0.3649
 7145SOL    HW133068   3.831   4.242   3.676 -1.4740 -0.4775  1.5278
 7145SOL    HW233069   3.789   4.361   3.749  0.9991  0.9658  1.7635
 7146SOL     OW33070   2.776   0.759   1.986  0.2872 -0.2467 -0.3286
 7146SOL    HW133071   2.771   0.691   1.919 -1.5059  1.1915 -1.6338
 7146SOL    HW233072   2.722   0.714   2.051 -0.8759  0.4061 -0.8401
 7147SOL     OW33073   0.311   1.818   4.871  0.1791 -0.6871 -0.6948
 7147SOL    HW133074   0.310   1.825   4.966 -1.5079 -2.3478 -0.5977
 7147SOL    HW233075   0.238   1.874   4.844  0.0689 -1.0614 -1.1666
 7148SOL     OW33076   3.906   4.231  17.692  0.5996 -0.0855  0.0290
 7148SOL    HW133077   3.868   4.208  17.607 -2.8733  1.9321  1.0153
 7148SOL    HW233078   3.992   4.258  17.660  1.1232  1.0143  2.3602
 7149SOL     OW33079   3.186   0.702   6.201  0.2632 -0.0214 -0.0842
 7149SOL    HW133080   3.147   0.763   6.264 -0.4742 -1.7202  1.1063
 7149SOL    HW233081   3.196   0.755   6.122  1.7636  2.0503  1.4902
 7150SOL     OW33082   2.565   4.704   1.813  0.4614 -0.3109  0.0654
 7150SOL    HW133083   2.482   4.692   1.766  0.4639  0.7895 -0.2221
 7150SOL    HW233084   2.593   4.613   1.804 -0.7130 -0.7471  0.8152
 7151SOL     OW33085   2.114   3.383   8.550 -0.2059  0.4980 -0.4202
 7151SOL    HW133086   2.086   3.400   8.640 -0.5489  1.3843 -0.6855
 7151SOL    HW233087   2.027   3.402   8.512 -0.7148  0.0623  0.5333
 7152SOL     OW33088   4.258   4.401  11.320  0.1039  0.3141 -0.1721
 7152SOL    HW133089   4.340   4.370  11.358  1.7765  1.4374 -2.8365
 7152SOL    HW233090   4.268   4.357  11.235 -0.8786 -0.0598 -0.1028
 7153SOL     OW33091   0.254   1.173   6.524  0.2229  0.6322  0.1014
 7153SOL    HW133092   0.349   1.162   6.528  0.0231 -1.5587 -1.2459
 7153SOL    HW233093   0.227   1.102   6.466 -0.9620 -0.5835  2.1219
 7154SOL     OW33094   1.050   2.486   2.852 -0.2643  0.0110 -0.0866
 7154SOL    HW133095   1.080   2.424   2.918 -0.8841 -0.2465 -0.0499
 7154SOL    HW233096   1.125   2.533   2.816 -0.8309  0.1879 -1.0332
 7155SOL     OW33097   3.955   1.847   7.923 -0.0200  0.0339 -0.0194
 7155SOL    HW133098   3.887   1.807   7.977 -1.2144  1.7479 -0.2719
 7155SOL    HW233099   4.026   1.785   7.938  0.1142 -0.1492 -1.4655
 7156SOL     OW33100   4.269   2.268   7.974  0.9362 -0.1343 -0.0300
 7156SOL    HW133101   4.355   2.297   8.004  0.5796  1.8396 -0.8785
 7156SOL    HW233102   4.270   2.294   7.882  0.5663  2.2763  0.6346
 7157SOL     OW33103   0.298   3.580   2.364 -0.2784 -0.2801 -0.0815
 7157SOL    HW133104   0.353   3.648   2.327 -2.1031  0.2773 -1.7516
 7157SOL    HW233105   0.240   3.628   2.424 -1.3565 -1.5428 -0.1032
 7158SOL     OW33106   4.370   2.774   0.246 -0.1922  0.3282 -0.1158
 7158SOL    HW133107   4.389   2.682   0.227 -3.3738  0.1449 -2.3816
 7158SOL    HW233108   4.287   2.794   0.204 -2.6265 -0.8033  4.1164
 7159SOL     OW33109   2.990   1.308  11.017 -0.3346  0.3778 -0.0885
 7159SOL    HW133110   2.968   1.349  10.934 -2.2839 -1.4175 -0.4443
 7159SOL    HW233111   2.921   1.334  11.078 -1.9624 -0.4196 -1.5749
 7160SOL     OW33112   2.717   1.200   5.255 -0.3369  0.4077  0.4494
 7160SOL    HW133113   2.736   1.256   5.179 -0.2572 -0.4207 -0.1433
 7160SOL    HW233114   2.747   1.252   5.329  0.2311 -0.0590  0.5483
 7161SOL     OW33115   1.927   1.303   7.121  0.0116  0.1161  0.2602
 7161SOL    HW133116   1.965   1.236   7.064  1.6522  0.8750  0.4753
 7161SOL    HW233117   1.982   1.302   7.199 -0.6421  0.5368  0.7289
 7162SOL     OW33118   3.631   3.188   7.701  0.4566 -0.2540  0.5208
 7162SOL    HW133119   3.554   3.145   7.738  1.6119 -2.6338  0.1244
 7162SOL    HW233120   3.593   3.272   7.676  1.3535  0.5155  1.7630
 7163SOL     OW33121   4.255   4.393  12.721 -0.2173  0.3472  0.0519
 7163SOL    HW133122   4.164   4.416  12.701  0.0361  1.0707 -0.2524
 7163SOL    HW233123   4.280   4.468  12.775  2.5286  0.0331 -0.8136
 7164SOL     OW33124   4.551   3.514   0.191 -0.1523  0.6987  0.7541
 7164SOL    HW133125   4.646   3.512   0.175 -0.4562  0.6871 -1.0049
 7164SOL    HW233126   4.540   3.436   0.245  1.2237 -0.6968 -0.9604
 7165SOL     OW33127   4.011   1.233   6.110 -0.3116 -0.0737 -0.2546
 7165SOL    HW133128   4.106   1.242   6.124 -0.1519 -1.2660 -0.5049
 7165SOL    HW233129   4.006   1.137   6.109  0.3283 -0.1553  2.2527
 7166SOL     OW33130   4.555   1.203   8.982 -0.4294 -0.6144  0.9501
 7166SOL    HW133131   4.640   1.185   9.022  0.3073 -1.7356 -1.0903
 7166SOL    HW233132   4.545   1.298   8.981  2.0191 -0.3742 -0.1814
 7167SOL     OW33133   4.353   2.741   4.042 -0.1035  0.5153  0.3650
 7167SOL    HW133134   4.278   2.742   4.101 -1.1885  2.8848 -1.0517
 7167SOL    HW233135   4.317   2.737   3.953  0.4302 -2.2642  0.2628
 7168SOL     OW33136   0.777   4.123   4.839  0.1822 -0.2502  0.4360
 7168SOL    HW133137   0.717   4.098   4.769 -1.0093  0.4524  1.1935
 7168SOL    HW233138   0.720   4.187   4.883  1.7376 -0.6539  3.0465
 7169SOL     OW33139   0.821   0.078   6.381 -0.0253  0.4488 -0.3342
 7169SOL    HW133140   0.808   0.035   6.297 -1.3723 -0.2945  0.2489
 7169SOL    HW233141   0.790   0.017   6.448  1.6069  0.3693  0.3470
 7170SOL     OW33142   3.499   2.559   6.088  0.6223 -0.3223  0.5920
 7170SOL    HW133143   3.459   2.473   6.105  0.3461  0.1263  2.1692
 7170SOL    HW233144   3.580   2.531   6.046  0.0654 -0.6852 -0.2537
 7171SOL     OW33145   2.103   3.821   5.503 -0.5458  0.8341 -0.0517
 7171SOL    HW133146   2.086   3.896   5.561 -0.3533  1.2438 -0.5169
 7171SOL    HW233147   2.020   3.776   5.510 -0.5064  0.4916 -1.6952
 7172SOL     OW33148   1.671   4.366  10.607 -0.1650 -0.0890  0.2033
 7172SOL    HW133149   1.705   4.282  10.638  0.3948  0.0541 -0.0336
 7172SOL    HW233150   1.736   4.412  10.660  0.0026  2.0055 -1.8208
 7173SOL     OW33151   1.122   0.193   7.710  0.1215  0.2727 -0.1711
 7173SOL    HW133152   1.096   0.272   7.757 -1.8352 -2.6465  3.6054
 7173SOL    HW233153   1.056   0.195   7.641  2.0941 -3.7703 -2.2255
 7174SOL     OW33154   1.899   0.828   6.147 -0.1309  0.2302 -0.2952
 7174SOL    HW133155   1.887   0.920   6.169 -1.7892 -0.2538  0.9066
 7174SOL    HW233156   1.991   0.830   6.121  0.7122  1.9000  2.8258
 7175SOL     OW33157   4.444   2.063   4.818  0.4475  0.3493  0.0608
 7175SOL    HW133158   4.395   2.102   4.746 -0.7175 -0.8504  0.2169
 7175SOL    HW233159   4.373   2.003   4.840 -0.3964  0.6256 -1.9649
 7176SOL     OW33160   3.501   0.469   4.419  0.0064  0.5343  0.0845
 7176SOL    HW133161   3.545   0.451   4.502  0.1846 -0.3852 -0.2065
 7176SOL    HW233162   3.412   0.438   4.433  0.1283  0.5684  0.9422
 7177SOL     OW33163   2.272   4.450   3.593 -0.4148  0.1899  0.0048
 7177SOL    HW133164   2.310   4.507   3.525  1.2676 -1.1257 -0.1622
 7177SOL    HW233165   2.331   4.375   3.597  0.6299  1.0111 -0.1716
 7178SOL     OW33166   3.270   3.446   4.588 -0.6276 -0.0181  0.5214
 7178SOL    HW133167   3.359   3.483   4.586 -1.3530  1.7458  1.1825
 7178SOL    HW233168   3.264   3.384   4.515  1.9490  1.8636 -1.2898
 7179SOL     OW33169   3.210   0.672  15.628  0.1658 -0.3023 -0.1758
 7179SOL    HW133170   3.132   0.642  15.674  0.8781 -1.6618  0.1280
 7179SOL    HW233171   3.208   0.601  15.565  1.0256 -0.1293 -0.4052
 7180SOL     OW33172   2.603   4.414  12.262  0.3445 -0.7494 -0.3044
 7180SOL    HW133173   2.659   4.454  12.195  1.1684 -1.5035 -0.0672
 7180SOL    HW233174   2.652   4.333  12.277  1.1098  0.1292  1.9820
 7181SOL     OW33175   0.695   2.875  15.028  0.2173  0.0237 -0.1272
 7181SOL    HW133176   0.668   2.932  14.955 -0.1012  1.9506  1.4907
 7181SOL    HW233177   0.779   2.843  14.996  0.0870  0.5073 -0.9510
 7182SOL     OW33178   0.487   1.583   2.402 -0.1554 -0.6020 -0.2826
 7182SOL    HW133179   0.477   1.565   2.309  1.4536 -1.8000 -0.2234
 7182SOL    HW233180   0.429   1.660   2.402  0.9588  0.2388  1.1660
 7183SOL     OW33181   2.972   3.013  13.297 -0.1079  0.0480  0.7311
 7183SOL    HW133182   2.982   2.996  13.390 -2.0065 -2.5700  0.4426
 7183SOL    HW233183   2.965   3.108  13.293  0.2168  0.0528  0.2132
 7184SOL     OW33184   3.575   1.457   1.780  0.0721  0.1769 -0.2225
 7184SOL    HW133185   3.499   1.402   1.801 -0.0902  0.4323 -0.1287
 7184SOL    HW233186   3.618   1.448   1.865  0.4828 -0.4865 -0.5026
 7185SOL     OW33187   3.812   2.879   7.050  0.1262 -0.4764 -0.2788
 7185SOL    HW133188   3.804   2.864   6.956  0.1788  0.4098 -0.4192
 7185SOL    HW233189   3.720   2.877   7.077  0.4067 -0.4353  0.6877
 7186SOL     OW33190   2.248   2.955  12.737  0.2585 -0.0130 -0.0499
 7186SOL    HW133191   2.309   2.994  12.799 -0.9117  0.6989  0.6657
 7186SOL    HW233192   2.171   3.010  12.752  0.6041  0.4644 -0.0491
 7187SOL     OW33193   3.654   1.913   4.153  0.0232 -0.1494 -0.1831
 7187SOL    HW133194   3.651   1.838   4.211 -0.3821  0.4875  0.6230
 7187SOL    HW233195   3.642   1.985   4.215  0.2162 -0.4433  0.1882
 7188SOL     OW33196   2.000   2.922  15.871 -0.2693 -0.4363 -0.5869
 7188SOL    HW133197   2.071   2.931  15.807  1.0781 -3.0886  0.5400
 7188SOL    HW233198   2.003   3.006  15.916 -0.3315  0.2121 -1.8109
 7189SOL     OW33199   4.672   4.622   6.898 -0.6867  0.3277 -0.1853
 7189SOL    HW133200   4.688   4.552   6.961 -0.2484  0.9463  0.4068
 7189SOL    HW233201   0.010   4.682   6.907 -3.0109  3.0847  0.8701
 7190SOL     OW33202   3.593   2.188   3.730  0.2632  0.2505 -0.0899
 7190SOL    HW133203   3.581   2.221   3.641  0.5581 -1.9968 -0.9476
 7190SOL    HW233204   3.629   2.100   3.722 -0.7211 -0.4100  2.8603
 7191SOL     OW33205   2.386   4.297   6.844 -0.3719 -0.2203  0.3699
 7191SOL    HW133206   2.415   4.363   6.781  4.0182 -2.0330  0.4856
 7191SOL    HW233207   2.443   4.227   6.812 -1.7772 -0.8750 -0.7198
 7192SOL     OW33208   2.619   3.439   4.696  0.1859  0.2759  0.0615
 7192SOL    HW133209   2.565   3.516   4.713  1.6871  1.2472  0.4725
 7192SOL    HW233210   2.553   3.393   4.644  0.1222 -0.1396  0.5093
 7193SOL     OW33211   4.568   3.378   7.423  0.2933 -0.4066  0.1866
 7193SOL    HW133212   4.634   3.398   7.490  0.6676 -0.3714 -0.1949
 7193SOL    HW233213   4.525   3.461   7.404  0.4694 -0.9227 -2.3968
 7194SOL     OW33214   4.333   1.264   6.065  0.1872 -0.1340 -0.2568
 7194SOL    HW133215   4.335   1.168   6.061  0.3388 -0.0179 -2.7405
 7194SOL    HW233216   4.422   1.286   6.091  0.0218 -0.6140  0.7166
 7195SOL     OW33217   1.759   0.063  14.989 -0.1860 -0.0192  0.0306
 7195SOL    HW133218   1.675   0.040  14.950 -0.4619  0.1665  0.5104
 7195SOL    HW233219   1.756   0.159  14.983  2.2074  0.1261  1.0116
 7196SOL     OW33220   0.905   1.726   5.466  0.0426  0.3829  0.1360
 7196SOL    HW133221   0.963   1.801   5.481 -1.4961  1.6210 -0.0813
 7196SOL    HW233222   0.934   1.705   5.377 -0.0689  0.1056  0.1670
 7197SOL     OW33223   3.807   0.465   6.209  0.1753 -0.2246  0.4443
 7197SOL    HW133224   3.878   0.522   6.179 -0.7252 -0.2168 -1.6506
 7197SOL    HW233225   3.788   0.410   6.133  0.9142  0.2791 -0.1044
 7198SOL     OW33226   4.088   2.513   4.612 -0.0847 -0.3158 -0.3282
 7198SOL    HW133227   4.157   2.467   4.661  2.2290  0.1823 -3.1190
 7198SOL    HW233228   4.041   2.540   4.691  0.0393  1.5875 -0.9158
 7199SOL     OW33229   0.906   4.687   5.294  0.4024 -0.0438  0.0490
 7199SOL    HW133230   0.861   0.033   5.311  0.2830 -0.1111  0.0635
 7199SOL    HW233231   0.884   4.670   5.203  0.0292  1.7676 -0.2107
 7200SOL     OW33232   3.330   2.964   3.975  0.0675 -0.6269 -0.1894
 7200SOL    HW133233   3.309   2.883   3.929  1.0040  0.9987 -3.4783
 7200SOL    HW233234   3.413   2.943   4.017 -0.2920 -1.0205  0.3277
 7201SOL     OW33235   0.392   2.248   8.031  0.0648 -0.5776 -0.5819
 7201SOL    HW133236   0.406   2.154   8.023  0.5776 -0.3356 -2.5491
 7201SOL    HW233237   0.416   2.274   8.120  3.4128  1.3576 -2.0079
 7202SOL     OW33238   2.019   3.442  11.776 -0.2973 -0.7605  0.0143
 7202SOL    HW133239   1.993   3.477  11.861  0.4385 -0.1240 -0.0236
 7202SOL    HW233240   2.094   3.498  11.755 -2.6381  2.6988  0.7946
 7203SOL     OW33241   3.014   3.892   5.807  0.1918  0.2133 -0.0112
 7203SOL    HW133242   2.936   3.895   5.862 -1.6140 -0.4883 -2.5157
 7203SOL    HW233243   3.083   3.843   5.851 -0.0206  1.8777  2.1587
 7204SOL     OW33244   4.284   0.028   7.395  0.2603 -0.1189 -0.5065
 7204SOL    HW133245   4.268   4.718   7.313 -0.2879  2.4065 -1.8630
 7204SOL    HW233246   4.221   4.722   7.452  0.6327 -3.1883 -2.3979
 7205SOL     OW33247   2.038   1.662   6.598  0.2951  0.0597 -0.1153
 7205SOL    HW133248   2.030   1.705   6.513  0.7258  1.2895  0.4627
 7205SOL    HW233249   2.132   1.648   6.599  0.3809  0.5794 -0.8588
 7206SOL     OW33250   2.622   0.397  15.026  0.0628 -0.5333 -0.3350
 7206SOL    HW133251   2.679   0.459  15.071 -0.6542 -0.3230  0.2958
 7206SOL    HW233252   2.594   0.442  14.947  1.4685  1.3003  0.2176
 7207SOL     OW33253   3.430   0.831   2.350  0.3556  0.1667  0.2476
 7207SOL    HW133254   3.487   0.765   2.390  0.9024  0.7272  0.3862
 7207SOL    HW233255   3.497   0.836   2.282  0.8622  0.2815  0.7604
 7208SOL     OW33256   1.121   0.214  15.803  0.5827 -0.1204  0.2224
 7208SOL    HW133257   1.151   0.141  15.857 -1.5604 -0.5453  0.8508
 7208SOL    HW233258   1.120   0.285  15.867  1.0037  0.7638 -0.7397
 7209SOL     OW33259   1.311   0.130   7.021  0.5755  0.4221  0.0149
 7209SOL    HW133260   1.320   0.199   7.087 -1.7770 -0.6367  1.4525
 7209SOL    HW233261   1.269   0.054   7.063  0.5486  0.9091  0.8710
 7210SOL     OW33262   3.393   3.967   0.343 -0.1940  0.7099  0.3576
 7210SOL    HW133263   3.334   3.931   0.277 -0.9195  0.3706  1.2061
 7210SOL    HW233264   3.346   3.953   0.425 -2.5025 -0.4388 -1.1597
 7211SOL     OW33265   0.794   2.758   8.000 -0.7700  0.5576 -0.2102
 7211SOL    HW133266   0.874   2.708   8.016 -1.0834  0.4765  1.1052
 7211SOL    HW233267   0.818   2.850   7.996  0.0163  0.4315  1.5064
 7212SOL     OW33268   2.139   0.044   4.803  0.0793 -0.4928 -0.1072
 7212SOL    HW133269   2.169   4.693   4.782 -0.8661 -0.6092 -0.9872
 7212SOL    HW233270   2.225   0.078   4.825  0.0062  0.1857 -0.8688
 7213SOL     OW33271   3.350   3.056   0.321 -0.4391  0.5976 -0.1613
 7213SOL    HW133272   3.429   3.045   0.269 -0.0241  1.0683  0.3811
 7213SOL    HW233273   3.385   3.061   0.410  1.2849 -0.0727 -0.7962
 7214SOL     OW33274   3.221   1.333   8.582 -0.3146 -0.4628  0.0074
 7214SOL    HW133275   3.247   1.259   8.637  0.5317 -0.3817 -0.2794
 7214SOL    HW233276   3.311   1.364   8.570 -1.0714  2.5205  1.9200
 7215SOL     OW33277   3.437   1.129   2.760  0.0286  0.3809 -0.2880
 7215SOL    HW133278   3.424   1.075   2.838  3.6016 -1.3916 -0.9539
 7215SOL    HW233279   3.357   1.181   2.757  0.5192  0.9319 -3.7884
 7216SOL     OW33280   4.466   3.038   2.643  0.3386  0.5498  0.1467
 7216SOL    HW133281   4.390   3.094   2.631 -0.5987 -1.0386 -1.1504
 7216SOL    HW233282   4.533   3.091   2.599 -0.4885  0.7689 -0.8254
 7217SOL     OW33283   3.603   3.129   1.961  0.0126  0.5436 -0.1657
 7217SOL    HW133284   3.630   3.187   2.032  0.9109  2.4678 -2.0532
 7217SOL    HW233285   3.683   3.137   1.909  0.5009 -1.7315  0.2440
 7218SOL     OW33286   0.682   4.541   5.402  0.2251  0.3437 -0.4646
 7218SOL    HW133287   0.589   4.521   5.418 -0.0193  0.2580 -1.9726
 7218SOL    HW233288   0.678   4.620   5.348 -1.7120 -0.0606 -0.9155
 7219SOL     OW33289   2.093   3.232  17.092 -0.0119 -0.3265 -0.2044
 7219SOL    HW133290   2.032   3.297  17.127  0.2575  0.4202 -1.1011
 7219SOL    HW233291   2.110   3.259  17.002  0.5066 -1.8386 -0.5624
 7220SOL     OW33292   4.472   1.858  15.225 -1.0143 -0.1463 -0.1775
 7220SOL    HW133293   4.408   1.880  15.293  0.3388  1.5294  0.5548
 7220SOL    HW233294   4.498   1.940  15.184  1.0633 -0.3577  0.7238
 7221SOL     OW33295   1.988   3.017   4.119 -0.1822 -0.2018  0.2718
 7221SOL    HW133296   1.911   3.041   4.066  1.1680  0.5392 -1.3382
 7221SOL    HW233297   1.962   2.929   4.147 -2.3522 -0.1376 -1.5152
 7222SOL     OW33298   2.429   4.050   8.716 -0.7855 -0.4191 -0.1584
 7222SOL    HW133299   2.436   4.042   8.811 -0.0188  1.1542 -0.0780
 7222SOL    HW233300   2.450   3.962   8.684 -2.9072 -1.6198  1.8427
 7223SOL     OW33301   4.180   0.683   7.567 -0.8184 -0.2233  0.3335
 7223SOL    HW133302   4.270   0.651   7.570 -0.7445 -0.0402  0.0803
 7223SOL    HW233303   4.140   0.598   7.583 -1.3775  0.4683  2.5416
 7224SOL     OW33304   3.998   4.304   4.250 -0.1598  0.7424  0.2930
 7224SOL    HW133305   4.016   4.277   4.160 -1.5085  0.2838  0.1604
 7224SOL    HW233306   3.912   4.263   4.251  0.4784 -0.6246 -1.7514
 7225SOL     OW33307   4.709   4.133   0.656 -0.3804  0.5781 -0.1705
 7225SOL    HW133308   0.012   4.138   0.570 -0.3722 -1.6593 -0.2756
 7225SOL    HW233309   4.632   4.079   0.639 -1.1199  1.7769 -0.6452
 7226SOL     OW33310   1.237   4.658   5.338 -0.2645  0.3247 -0.0465
 7226SOL    HW133311   1.192   4.616   5.265 -0.8305  2.5842 -1.0027
 7226SOL    HW233312   1.164   4.691   5.390  0.0021 -0.2506  0.6890
 7227SOL     OW33313   4.278   1.367   2.145  0.0732  0.0594 -0.2080
 7227SOL    HW133314   4.243   1.281   2.166  2.4482 -0.7613  0.4181
 7227SOL    HW233315   4.264   1.373   2.050  0.8881  1.4945 -0.2386
 7228SOL     OW33316   3.544   2.601   1.477  0.4519 -0.5506 -0.4906
 7228SOL    HW133317   3.459   2.644   1.491 -0.0635 -2.8728  3.2201
 7228SOL    HW233318   3.508   2.513   1.471 -1.0624 -0.0157  0.7095
 7229SOL     OW33319   0.059   3.496   9.552  0.3026 -0.0367 -0.0216
 7229SOL    HW133320   0.115   3.513   9.627  0.3155  1.1405 -0.3101
 7229SOL    HW233321   0.118   3.523   9.482 -0.5054  0.8073 -0.3764
 7230SOL     OW33322   3.637   3.620  11.977  0.0538 -0.1860 -0.8119
 7230SOL    HW133323   3.661   3.675  11.903  2.2430  2.2857  1.7199
 7230SOL    HW233324   3.686   3.539  11.965 -0.8952 -0.9804  0.6539
 7231SOL     OW33325   3.757   2.417  10.827 -0.2958  0.0653 -0.5152
 7231SOL    HW133326   3.823   2.473  10.786 -0.6562 -0.4441 -1.7830
 7231SOL    HW233327   3.728   2.351  10.764 -1.7807 -0.2724  0.5234
 7232SOL     OW33328   1.334   3.767  16.903  0.0887 -0.6645 -0.3743
 7232SOL    HW133329   1.308   3.802  16.818 -1.4072 -0.1495  0.2897
 7232SOL    HW233330   1.264   3.798  16.961  2.3253  1.2355  1.3231
 7233SOL     OW33331   3.329   0.793  17.410  0.1892 -0.1813  0.9337
 7233SOL    HW133332   3.321   0.806  17.316  2.7658 -0.5054  0.6863
 7233SOL    HW233333   3.257   0.729  17.418  0.2585 -0.5839 -1.8813
 7234SOL     OW33334   0.112   1.597   1.675 -0.1451 -0.6540 -0.2602
 7234SOL    HW133335   0.181   1.645   1.721 -0.3815  1.0699 -1.7050
 7234SOL    HW233336   0.080   1.665   1.617  1.1584 -0.0334 -0.2446
 7235SOL     OW33337   0.258   4.628   2.656  0.2524 -0.3880 -0.4869
 7235SOL    HW133338   0.294   4.547   2.620 -0.8383 -1.8264  1.6692
 7235SOL    HW233339   0.270   4.692   2.586  1.0920 -1.4865 -1.3537
 7236SOL     OW33340   3.961   4.293   3.235 -0.0008  0.7239 -0.1969
 7236SOL    HW133341   3.997   4.313   3.148 -0.8979 -1.4307 -1.0573
 7236SOL    HW233342   3.878   4.249   3.215  0.4264  1.3598 -3.4485
 7237SOL     OW33343   2.426   1.401   0.846 -0.8364 -0.4898 -0.9568
 7237SOL    HW133344   2.413   1.494   0.862 -1.0141 -1.0191  2.1656
 7237SOL    HW233345   2.514   1.385   0.881 -1.0103  0.6427 -0.0152
 7238SOL     OW33346   4.060   1.326   1.160 -0.8153  0.2201  0.2544
 7238SOL    HW133347   3.998   1.388   1.200 -0.6537  0.0234  0.8175
 7238SOL    HW233348   4.119   1.318   1.235 -1.1707  0.1199  0.5277
 7239SOL     OW33349   0.460   1.573   3.015 -0.0385 -0.7743  0.1208
 7239SOL    HW133350   0.468   1.619   3.098 -2.1415  0.5175 -0.3808
 7239SOL    HW233351   0.464   1.481   3.043 -1.2400  0.3004  3.8010
 7240SOL     OW33352   4.606   0.036   7.625 -0.3355 -0.7384  0.0460
 7240SOL    HW133353   4.593   0.017   7.532 -0.6746 -1.4094  0.2284
 7240SOL    HW233354   4.696   0.009   7.645 -0.3189 -1.6485 -1.2414
 7241SOL     OW33355   4.168   1.475  13.171  0.3091  0.3453 -0.4947
 7241SOL    HW133356   4.157   1.488  13.266 -0.0200  1.4761 -0.6790
 7241SOL    HW233357   4.110   1.549  13.151  2.5082  1.1069 -4.0482
 7242SOL     OW33358   4.007   1.573   6.131 -0.0058 -0.2386 -0.7366
 7242SOL    HW133359   4.050   1.526   6.203  1.1161 -0.9778 -1.8985
 7242SOL    HW233360   4.058   1.537   6.058  0.3855 -0.5227 -0.3220
 7243SOL     OW33361   4.697   2.681  12.053  0.3152  0.0413 -0.3060
 7243SOL    HW133362   4.703   2.730  12.135  0.0940  1.8404 -1.3827
 7243SOL    HW233363   4.608   2.691  12.022 -0.7155 -1.8406  2.0162
 7244SOL     OW33364   1.836   2.819   4.982  0.1669  0.0122 -0.2635
 7244SOL    HW133365   1.907   2.871   5.019  0.0601  1.1623 -1.6589
 7244SOL    HW233366   1.765   2.837   5.042 -0.0261 -2.5583  0.2790
 7245SOL     OW33367   0.906   2.025   5.201  0.2785 -0.0871 -0.2660
 7245SOL    HW133368   0.866   1.965   5.137  1.5139 -1.6998  0.4628
 7245SOL    HW233369   0.909   2.105   5.150  0.7916  0.0541 -0.0037
 7246SOL     OW33370   3.181   3.223   6.132 -0.1684  0.1383  0.1849
 7246SOL    HW133371   3.090   3.253   6.129 -0.0474  0.3801 -1.1765
 7246SOL    HW233372   3.220   3.262   6.054  0.1445  0.1971  0.3737
 7247SOL     OW33373   1.819   1.777  12.439  0.0630  0.8308 -0.2171
 7247SOL    HW133374   1.738   1.738  12.406  1.1636 -2.3764  0.8985
 7247SOL    HW233375   1.826   1.855  12.384 -0.0218  1.1686  0.2485
 7248SOL     OW33376   3.104   2.223   8.875  0.2350 -0.0531 -0.9916
 7248SOL    HW133377   3.166   2.290   8.906 -0.6450  0.4489 -0.2983
 7248SOL    HW233378   3.052   2.271   8.811  1.0441  1.1747 -0.7344
 7249SOL     OW33379   1.544   2.990  15.567  0.0998  0.4930  0.3360
 7249SOL    HW133380   1.482   2.975  15.495 -1.3567  0.7937  1.5304
 7249SOL    HW233381   1.486   2.993  15.643 -0.7974  0.5621 -0.3476
 7250SOL     OW33382   2.938   3.975   9.830  0.2244  0.3414  0.0427
 7250SOL    HW133383   2.939   4.065   9.797  0.4481  0.1645 -0.4337
 7250SOL    HW233384   2.984   3.976   9.914  0.7120 -0.7632 -0.2163
 7251SOL     OW33385   2.327   4.543   7.086  0.0784  0.4441  0.7958
 7251SOL    HW133386   2.405   4.534   7.031 -0.0433 -3.2513  1.2664
 7251SOL    HW233387   2.361   4.607   7.149 -0.9126  1.1893  0.5931
 7252SOL     OW33388   4.455   1.236   2.498  0.0903  0.3778  0.6118
 7252SOL    HW133389   4.539   1.279   2.479 -0.3746  1.3322  0.6928
 7252SOL    HW233390   4.447   1.166   2.434 -0.0612  4.2020 -3.5743
 7253SOL     OW33391   1.981   2.523   3.824 -0.6218  0.3181 -0.3314
 7253SOL    HW133392   1.908   2.549   3.880  0.6013  0.4777  1.1710
 7253SOL    HW233393   2.061   2.555   3.865 -1.3548  0.8711  0.6585
 7254SOL     OW33394   1.047   4.103   5.991 -0.2363 -0.5410 -0.1302
 7254SOL    HW133395   1.074   4.056   5.912 -0.0013 -0.2966 -0.1956
 7254SOL    HW233396   1.000   4.033   6.035 -2.8586  0.5105 -1.1892
 7255SOL     OW33397   3.379   0.415   2.301 -0.1741  0.3205  0.5476
 7255SOL    HW133398   3.288   0.437   2.320 -0.6594 -1.7244  0.5901
 7255SOL    HW233399   3.391   0.444   2.211 -0.6724  2.1803  1.0870
 7256SOL     OW33400   0.834   0.044   8.006 -0.0799  0.2218  0.1150
 7256SOL    HW133401   0.875   4.720   7.944 -0.6327 -0.4110  0.3746
 7256SOL    HW233402   0.905   0.107   8.020  1.1043 -1.4091  1.5294
 7257SOL     OW33403   2.037   0.363   2.209 -0.0698 -0.2971  0.0667
 7257SOL    HW133404   2.128   0.385   2.228 -0.0157 -0.4203 -0.0503
 7257SOL    HW233405   1.992   0.443   2.235  2.9220  1.0354  1.1405
 7258SOL     OW33406   4.395   4.603   5.330 -0.5921  0.4405  0.1315
 7258SOL    HW133407   4.379   4.543   5.402 -0.9326  0.5863  0.1759
 7258SOL    HW233408   4.309   4.606   5.288 -1.4243 -0.9640  1.7556
 7259SOL     OW33409   4.121   2.831   3.525  0.0787 -0.8148  0.2051
 7259SOL    HW133410   4.149   2.763   3.464  1.0449 -0.6417  0.4655
 7259SOL    HW233411   4.030   2.804   3.538 -0.8232  0.8277 -2.8286
 7260SOL     OW33412   4.621   4.717  15.955 -0.3644  0.3836 -0.3248
 7260SOL    HW133413   4.585   4.631  15.980 -0.5392  0.3805 -0.5801
 7260SOL    HW233414   4.681   4.732  16.027 -1.4465  0.7530  0.5058
 7261SOL     OW33415   0.645   3.133   1.895 -0.1823  0.3958 -0.2785
 7261SOL    HW133416   0.618   3.222   1.918 -0.0504  0.4044 -0.1566
 7261SOL    HW233417   0.739   3.142   1.906 -0.3461  1.3686  0.3123
 7262SOL     OW33418   3.585   3.478   4.885  0.0014  0.0492  0.4402
 7262SOL    HW133419   3.680   3.487   4.899 -0.1220  1.7164  0.2226
 7262SOL    HW233420   3.567   3.517   4.800 -1.0576  0.1479  0.7129
 7263SOL     OW33421   4.472   1.220  12.258  0.4635 -0.4666 -0.0273
 7263SOL    HW133422   4.510   1.200  12.344  1.3734  0.6963 -0.1637
 7263SOL    HW233423   4.400   1.158  12.251  1.5600 -1.4760 -2.4104
 7264SOL     OW33424   1.001   1.001   1.839  0.0543  0.1943 -0.3053
 7264SOL    HW133425   0.922   1.052   1.856 -0.1804 -0.3305  0.1715
 7264SOL    HW233426   1.058   1.073   1.812  1.8962 -0.3329  2.1974
 7265SOL     OW33427   3.820   1.770   1.963  0.1999  0.4310  0.0586
 7265SOL    HW133428   3.894   1.771   2.024 -1.0418 -0.4412  1.5953
 7265SOL    HW233429   3.765   1.698   1.993  2.1329 -1.4364 -0.8748
 7266SOL     OW33430   1.179   2.013   5.904  0.2050  0.1972  0.3446
 7266SOL    HW133431   1.131   1.930   5.896  0.7466 -0.0578 -0.2294
 7266SOL    HW233432   1.115   2.065   5.953 -3.0740 -2.4639 -1.0615
 7267SOL     OW33433   3.244   2.286   5.034  0.3484 -0.1853  0.5560
 7267SOL    HW133434   3.187   2.332   5.095  0.5228 -0.2236  0.7502
 7267SOL    HW233435   3.180   2.224   4.998 -0.4659  1.4381 -0.7577
 7268SOL     OW33436   0.132   4.301  15.893  0.8377 -0.5473  0.1401
 7268SOL    HW133437   0.195   4.373  15.883 -1.8855  1.6798 -0.9854
 7268SOL    HW233438   0.165   4.238  15.828 -2.5357 -0.9083 -1.1938
 7269SOL     OW33439   4.684   0.242   2.228  0.1294  0.3112  0.1720
 7269SOL    HW133440   0.032   0.277   2.255  0.0531  1.0839 -0.5948
 7269SOL    HW233441   4.681   0.286   2.143  0.2666  0.6733  0.3550
 7270SOL     OW33442   3.647   3.751   7.842  0.5463 -0.2066 -0.6261
 7270SOL    HW133443   3.654   3.656   7.847 -0.7685 -0.1585  1.7120
 7270SOL    HW233444   3.559   3.748   7.879 -0.3707  1.0330 -2.6941
 7271SOL     OW33445   1.835   0.594   5.942  0.6444  0.2239  0.1289
 7271SOL    HW133446   1.815   0.515   5.992 -0.1861  0.2099 -0.2225
 7271SOL    HW233447   1.846   0.654   6.016  1.5860  1.5591 -1.0925
 7272SOL     OW33448   3.542   4.136   8.478  0.1150 -0.4546 -1.2008
 7272SOL    HW133449   3.525   4.046   8.450  0.0540 -1.3489  1.7698
 7272SOL    HW233450   3.619   4.152   8.422  0.5013  0.4646 -0.4178
 7273SOL     OW33451   1.490   1.107   6.255 -0.0810  0.3801 -0.4138
 7273SOL    HW133452   1.468   1.190   6.298 -2.5143 -0.9320  0.8690
 7273SOL    HW233453   1.583   1.109   6.276  0.3335 -4.2232 -1.9390
 7274SOL     OW33454   1.303   3.704   1.830  0.0498  0.1654  0.2653
 7274SOL    HW133455   1.364   3.686   1.759  0.5997  3.1800 -0.0585
 7274SOL    HW233456   1.362   3.722   1.903  1.5828  0.2326 -0.9831
 7275SOL     OW33457   2.326   3.538   8.492  0.6915  0.2058 -0.4551
 7275SOL    HW133458   2.320   3.621   8.539  0.6394  0.0096 -0.1113
 7275SOL    HW233459   2.258   3.492   8.542 -1.7101  0.7479 -3.2501
 7276SOL     OW33460   0.027   1.652   6.247 -0.3810  0.1278  0.0153
 7276SOL    HW133461   4.728   1.611   6.325 -0.9061  0.5253 -0.0188
 7276SOL    HW233462   0.090   1.583   6.225  0.2824  1.0007 -0.8879
 7277SOL     OW33463   2.926   1.207   1.052  0.3244  0.4476  0.4283
 7277SOL    HW133464   3.017   1.179   1.053  1.2114  3.3673  2.1340
 7277SOL    HW233465   2.927   1.223   1.147 -1.7806 -1.4399  0.7916
 7278SOL     OW33466   2.437   1.665   3.761 -0.3654 -0.3092 -0.0238
 7278SOL    HW133467   2.398   1.583   3.790  0.8253 -1.7590 -2.5638
 7278SOL    HW233468   2.367   1.725   3.790  1.8861  2.2912  0.0760
 7279SOL     OW33469   1.101   0.595   2.249  0.2204 -0.1607 -0.4635
 7279SOL    HW133470   1.135   0.506   2.259 -2.0563 -0.9244  0.3836
 7279SOL    HW233471   1.049   0.587   2.169  1.5218 -1.3997 -1.1874
 7280SOL     OW33472   1.488   0.316   8.678  0.0703  0.1203 -0.0141
 7280SOL    HW133473   1.436   0.302   8.756 -1.5671 -1.7725 -1.4363
 7280SOL    HW233474   1.481   0.408   8.654 -0.8047 -0.7698 -3.1570
 7281SOL     OW33475   4.596   0.620   7.048 -0.1622  0.3963  0.1907
 7281SOL    HW133476   4.543   0.600   6.970 -0.1619 -0.3367  0.3806
 7281SOL    HW233477   4.566   0.547   7.101  1.3272 -0.1835  0.2284
 7282SOL     OW33478   3.045   3.954  10.080 -0.3295  0.1241  0.4164
 7282SOL    HW133479   3.112   4.016  10.051 -0.4034 -0.3544 -0.7811
 7282SOL    HW233480   3.000   3.997  10.154  1.2872 -0.2262  1.5865
 7283SOL     OW33481   2.622   4.201  12.851  0.5793  0.0301 -0.0603
 7283SOL    HW133482   2.557   4.198  12.780  1.5454  0.8623 -0.9834
 7283SOL    HW233483   2.583   4.238  12.929  0.7744 -0.2113  0.1525
 7284SOL     OW33484   2.854   3.095   4.692  0.2494  0.0779 -0.1900
 7284SOL    HW133485   2.792   3.041   4.645 -1.7677  1.8448  0.4394
 7284SOL    HW233486   2.881   3.042   4.767 -1.2772 -0.8349 -0.3010
 7285SOL     OW33487   4.510   2.307  11.149  0.3170  0.4752 -0.3671
 7285SOL    HW133488   4.592   2.285  11.194 -1.2315  1.2442  2.8558
 7285SOL    HW233489   4.472   2.370  11.210  1.2069  1.6908 -1.0563
 7286SOL     OW33490   4.132   2.444   9.690 -0.1833 -0.3966  0.4866
 7286SOL    HW133491   4.211   2.492   9.667 -1.1162  0.8918 -0.0100
 7286SOL    HW233492   4.151   2.362   9.643  0.6454 -0.1481  0.3915
 7287SOL     OW33493   2.527   2.788   4.043 -0.2151  0.2666 -0.0665
 7287SOL    HW133494   2.563   2.851   3.981  1.9586 -0.1453  0.7543
 7287SOL    HW233495   2.485   2.724   3.986  0.8939 -0.2833 -0.2608
 7288SOL     OW33496   2.456   4.550   3.444 -0.3255  0.5999  0.2454
 7288SOL    HW133497   2.441   4.567   3.351  0.0516 -0.7223 -0.0537
 7288SOL    HW233498   2.546   4.519   3.446 -1.9996 -4.1335  2.0252
 7289SOL     OW33499   2.863   2.115  13.750  0.3000 -0.8160  0.3169
 7289SOL    HW133500   2.848   2.161  13.833 -0.2499 -0.1411 -0.1590
 7289SOL    HW233501   2.795   2.048  13.748  0.3579 -0.8365 -1.2100
 7290SOL     OW33502   0.878   2.381   6.488  0.0398  0.8204  0.0627
 7290SOL    HW133503   0.803   2.403   6.433  0.7420  1.0985 -0.7940
 7290SOL    HW233504   0.849   2.413   6.573  1.4633  1.1166  0.4279
 7291SOL     OW33505   0.811   1.700   4.771 -0.4015  0.5922 -0.0236
 7291SOL    HW133506   0.752   1.637   4.812  1.3114 -1.4408 -0.7014
 7291SOL    HW233507   0.894   1.654   4.765 -0.6399  0.2106 -0.4018
 7292SOL     OW33508   2.865   0.460   8.059  0.0562  0.0956  0.3162
 7292SOL    HW133509   2.949   0.422   8.087  0.8828  0.6712 -1.3766
 7292SOL    HW233510   2.836   0.502   8.141  0.2895 -0.3670  0.6351
 7293SOL     OW33511   4.267   1.419  12.430 -0.1758  0.0490  0.1338
 7293SOL    HW133512   4.279   1.352  12.498  0.6882 -0.9547 -1.0123
 7293SOL    HW233513   4.350   1.415  12.383 -0.0309 -0.0148  0.3957
 7294SOL     OW33514   3.111   2.564   5.532 -1.2260 -0.1149  0.1077
 7294SOL    HW133515   3.163   2.644   5.538  1.6508 -1.8737 -1.3359
 7294SOL    HW233516   3.157   2.515   5.601 -0.1680 -1.9514 -1.9004
 7295SOL     OW33517   3.212   3.113   8.018  0.2674 -0.0010 -0.1523
 7295SOL    HW133518   3.124   3.150   8.021  0.0438 -0.5189 -0.3776
 7295SOL    HW233519   3.220   3.092   8.111  0.4680  1.8973  0.2699
 7296SOL     OW33520   0.556   3.812  16.036 -0.0594 -0.3948  0.3137
 7296SOL    HW133521   0.542   3.738  16.095  1.3452 -0.8667  0.0804
 7296SOL    HW233522   0.525   3.887  16.086 -1.6244 -1.1122  0.4032
 7297SOL     OW33523   3.095   4.197   8.325  0.2839  0.0691  0.2099
 7297SOL    HW133524   3.119   4.287   8.301  0.6512 -0.0820  0.0173
 7297SOL    HW233525   3.161   4.146   8.278 -1.2843 -0.2296 -1.6929
 7298SOL     OW33526   1.210   2.157   6.394 -0.2930  0.1597 -0.5641
 7298SOL    HW133527   1.156   2.180   6.318  0.0509  0.3563 -0.7496
 7298SOL    HW233528   1.255   2.238   6.415  1.4098 -0.7324 -0.7737
 7299SOL     OW33529   2.739   0.494   7.655  0.0007  0.0044 -0.5824
 7299SOL    HW133530   2.714   0.508   7.746  0.7543  0.0769 -0.3907
 7299SOL    HW233531   2.806   0.562   7.652  1.1136 -1.1566 -1.7921
 7300SOL     OW33532   2.530   2.136   4.805 -0.4966 -0.1389 -0.7084
 7300SOL    HW133533   2.608   2.155   4.752 -0.9730 -2.8738 -2.4099
 7300SOL    HW233534   2.560   2.175   4.887 -1.9828 -1.3069  0.3797
 7301SOL     OW33535   1.158   1.589   6.250  0.2126 -0.1110 -0.3268
 7301SOL    HW133536   1.202   1.561   6.170 -0.3631 -0.3785 -0.5470
 7301SOL    HW233537   1.212   1.538   6.310  1.3101  2.2940  0.7533
 7302SOL     OW33538   2.753   1.645  11.467  0.2379 -0.3330 -0.9462
 7302SOL    HW133539   2.746   1.688  11.552  1.2306 -0.9620 -0.5391
 7302SOL    HW233540   2.695   1.692  11.408  1.2485  0.2480 -1.4926
 7303SOL     OW33541   1.269   0.510   9.296 -0.2652 -0.3528 -0.3890
 7303SOL    HW133542   1.205   0.513   9.368  0.1840 -2.3674  0.0907
 7303SOL    HW233543   1.337   0.455   9.335 -0.8508 -0.6465  0.2380
 7304SOL     OW33544   3.332   1.177   5.388  0.3061  0.5076  0.2197
 7304SOL    HW133545   3.274   1.109   5.421  1.7361  1.0798  3.8633
 7304SOL    HW233546   3.310   1.256   5.438 -0.5411 -0.3615  1.1904
 7305SOL     OW33547   3.443   0.500   5.152 -0.2922  0.5216 -0.0465
 7305SOL    HW133548   3.522   0.457   5.120  0.7308  2.0104  0.4592
 7305SOL    HW233549   3.443   0.581   5.100 -0.0499 -0.0956 -0.9962
 7306SOL     OW33550   0.547   1.297   4.961  0.6138 -0.5384  0.0793
 7306SOL    HW133551   0.560   1.376   5.013  0.8457  1.3565 -2.8505
 7306SOL    HW233552   0.453   1.280   4.965  0.4588  0.8044  1.8796
 7307SOL     OW33553   1.897   3.965  10.956 -0.2126  0.2878  0.1127
 7307SOL    HW133554   1.945   3.896  10.910 -0.9508  0.7929 -1.4082
 7307SOL    HW233555   1.960   4.036  10.964  1.8527 -1.6946  1.3492
 7308SOL     OW33556   0.580   3.264  17.045 -0.2339  0.6949  0.2258
 7308SOL    HW133557   0.550   3.341  16.996  0.7652  1.9502  1.5846
 7308SOL    HW233558   0.561   3.199  16.977  1.2920 -0.9416  1.3668
 7309SOL     OW33559   3.632   4.386   3.835  0.4817  0.2188  0.0932
 7309SOL    HW133560   3.645   4.411   3.926  0.6813  0.2217  0.0642
 7309SOL    HW233561   3.538   4.400   3.833  0.1264 -2.4148 -0.8186
 7310SOL     OW33562   1.397   2.498   5.565  0.1500  0.3912 -0.0166
 7310SOL    HW133563   1.403   2.593   5.553  0.0242  0.3727 -0.2164
 7310SOL    HW233564   1.452   2.450   5.504 -1.0498 -0.5905 -0.3288
 7311SOL     OW33565   2.198   2.283   9.528  0.1641 -0.1762 -0.0682
 7311SOL    HW133566   2.187   2.238   9.444  2.2518 -0.3336 -0.2649
 7311SOL    HW233567   2.118   2.257   9.572 -1.0245 -0.6813 -2.5261
 7312SOL     OW33568   1.004   2.323   8.541 -0.0363 -0.0362 -0.2289
 7312SOL    HW133569   0.970   2.235   8.526 -1.5792  0.3220  1.1887
 7312SOL    HW233570   0.923   2.367   8.565  1.0770  1.8437  0.0504
 7313SOL     OW33571   2.681   0.313   9.695  0.2040  0.2076 -0.2821
 7313SOL    HW133572   2.651   0.373   9.627  1.2465 -1.2255 -2.0072
 7313SOL    HW233573   2.736   0.374   9.743  1.5200 -1.0752 -0.1648
 7314SOL     OW33574   3.124   1.580   3.962 -0.2943 -0.9023 -0.3227
 7314SOL    HW133575   3.048   1.617   4.007 -0.4806 -1.3355 -0.2839
 7314SOL    HW233576   3.164   1.508   4.010  1.1169 -0.3065 -0.6096
 7315SOL     OW33577   2.370   3.025  13.526 -0.5433  0.4821 -0.4659
 7315SOL    HW133578   2.335   2.939  13.551  1.9953 -0.0676  1.1918
 7315SOL    HW233579   2.284   3.066  13.521 -1.9620 -2.3562  0.5926
 7316SOL     OW33580   1.265   3.676   7.672  0.3013 -0.0388 -0.4408
 7316SOL    HW133581   1.303   3.589   7.661  1.5826  0.6694 -1.5785
 7316SOL    HW233582   1.291   3.684   7.764 -2.5827  1.6565  0.2299
 7317SOL     OW33583   3.009   3.957   3.109 -0.1255  0.5227 -0.2343
 7317SOL    HW133584   3.016   4.024   3.040  0.5725  0.4282 -0.2504
 7317SOL    HW233585   2.981   3.881   3.059 -0.5278  0.2433  0.4198
 7318SOL     OW33586   1.337   3.297   9.355 -0.0431  0.1858  0.3358
 7318SOL    HW133587   1.252   3.320   9.393  0.0648  0.8942  0.1624
 7318SOL    HW233588   1.318   3.301   9.261  0.7691  2.0405  0.2504
 7319SOL     OW33589   0.028   3.458  11.853 -0.4903  0.3676  0.1915
 7319SOL    HW133590   4.687   3.471  11.800 -1.1185  1.2431  1.3215
 7319SOL    HW233591   4.727   3.413  11.927 -0.4439 -2.3084 -1.4262
 7320SOL     OW33592   2.902   1.249   2.584  0.0876  0.8686 -0.4431
 7320SOL    HW133593   2.851   1.257   2.503 -0.6111 -0.5454 -0.1522
 7320SOL    HW233594   2.841   1.203   2.642  0.4542  1.4451  0.4083
 7321SOL     OW33595   3.924   2.079   5.650  0.2932 -0.5191  0.5992
 7321SOL    HW133596   3.922   2.097   5.744  1.0523  1.3298  0.2549
 7321SOL    HW233597   3.945   1.987   5.667  0.9511 -0.4765  0.0404
 7322SOL     OW33598   0.600   2.277  16.623 -0.1755  0.0933  0.3359
 7322SOL    HW133599   0.601   2.314  16.535  2.1817 -0.0148  0.3095
 7322SOL    HW233600   0.507   2.257  16.619  0.0459 -0.4544 -2.5073
 7323SOL     OW33601   1.750   2.178   8.224  0.3748  0.1793  0.1739
 7323SOL    HW133602   1.819   2.155   8.286 -1.2509  2.9061  2.9607
 7323SOL    HW233603   1.786   2.145   8.141 -0.1512 -2.0500  0.8511
 7324SOL     OW33604   1.493   0.629   7.016  0.2514  0.1828  0.1874
 7324SOL    HW133605   1.432   0.652   6.945  1.7529  0.6375 -0.9621
 7324SOL    HW233606   1.443   0.657   7.092  1.2120 -0.0181  0.8975
 7325SOL     OW33607   3.688   2.534   2.934  0.2421  0.7266  0.6054
 7325SOL    HW133608   3.698   2.441   2.957  2.0491  0.5453 -0.9605
 7325SOL    HW233609   3.616   2.562   2.990 -0.2813 -1.2620  0.9519
 7326SOL     OW33610   4.208   1.278   0.098 -0.0649 -0.2899 -0.2809
 7326SOL    HW133611   4.183   1.202   0.151  3.7413 -0.1138  1.7854
 7326SOL    HW233612   4.164   1.262   0.015  0.0179 -0.9527 -0.1969
 7327SOL     OW33613   2.941   1.271   8.078  0.1945  0.1917 -0.0181
 7327SOL    HW133614   3.035   1.266   8.094  0.2253 -0.6097 -0.4164
 7327SOL    HW233615   2.926   1.365   8.081  1.5283  0.4428 -1.4257
 7328SOL     OW33616   3.147   1.173   5.033 -0.4482 -0.0117 -0.2597
 7328SOL    HW133617   3.188   1.172   4.946  1.1511  2.4134  0.4654
 7328SOL    HW233618   3.070   1.227   5.017 -1.5819 -1.3238  0.7462
 7329SOL     OW33619   0.571   1.741   2.023  0.3144  0.3933 -0.7215
 7329SOL    HW133620   0.549   1.781   2.107  0.4358 -1.3385  0.1255
 7329SOL    HW233621   0.577   1.651   2.054  2.0140 -0.2598 -2.9692
 7330SOL     OW33622   2.089   2.394   6.678 -0.0866  0.2139 -0.0911
 7330SOL    HW133623   2.169   2.368   6.723 -0.1631  1.5017  0.7770
 7330SOL    HW233624   2.039   2.399   6.759  0.1540  2.3826 -0.0862
 7331SOL     OW33625   1.093   3.854   1.576 -0.1250 -0.1635 -0.7927
 7331SOL    HW133626   1.035   3.889   1.644  1.0391 -1.2316  0.7438
 7331SOL    HW233627   1.072   3.927   1.518 -0.9691  2.3776  2.6803
 7332SOL     OW33628   1.162   1.262   5.787  0.0085 -0.2036 -0.2853
 7332SOL    HW133629   1.074   1.236   5.817 -0.3163  0.8782 -0.3169
 7332SOL    HW233630   1.197   1.173   5.779 -0.5243 -0.4148 -0.3320
 7333SOL     OW33631   3.159   0.503   3.159 -0.7328 -0.1151 -0.4047
 7333SOL    HW133632   3.110   0.464   3.232  1.7819 -1.4936  0.5514
 7333SOL    HW233633   3.238   0.534   3.202 -1.4142 -1.5465  1.9326
 7334SOL     OW33634   4.135   0.844   4.163 -0.4560  0.2345  0.3418
 7334SOL    HW133635   4.052   0.802   4.187 -0.7683 -0.2778 -1.5732
 7334SOL    HW233636   4.202   0.779   4.185  0.3200  1.0017  0.2184
 7335SOL     OW33637   0.216   0.579  14.913 -0.0114 -0.8715 -0.3444
 7335SOL    HW133638   0.214   0.674  14.897 -0.3242 -0.4684  2.1356
 7335SOL    HW233639   0.250   0.584  15.002 -0.0714  0.0748 -0.3773
 7336SOL     OW33640   0.112   2.849   7.495 -0.2973  0.5692 -0.1549
 7336SOL    HW133641   0.072   2.923   7.449  0.1421  1.6910  1.2551
 7336SOL    HW233642   0.054   2.832   7.570 -0.0388  1.6305  0.2873
 7337SOL     OW33643   3.588   3.652   1.722 -0.5688 -0.2950  0.3851
 7337SOL    HW133644   3.648   3.595   1.771 -0.4115  0.9498  1.6328
 7337SOL    HW233645   3.596   3.612   1.636 -1.5450 -0.0928  0.1941
 7338SOL     OW33646   2.256   2.037   7.898  0.5257  0.1670 -0.2080
 7338SOL    HW133647   2.294   2.125   7.905 -0.5056  0.7068 -1.4104
 7338SOL    HW233648   2.218   2.035   7.810 -0.2483  0.7789  0.1093
 7339SOL     OW33649   1.778   3.748   2.883  0.5081  0.2045 -0.4640
 7339SOL    HW133650   1.703   3.691   2.903 -0.1796  1.7406  1.3369
 7339SOL    HW233651   1.770   3.817   2.948 -2.4216  0.6361 -1.2905
 7340SOL     OW33652   0.574   1.005   7.914 -0.2626 -0.3698  0.3390
 7340SOL    HW133653   0.487   0.980   7.945  0.4661  0.0398  2.6987
 7340SOL    HW233654   0.598   0.919   7.880  0.4518  0.3123 -0.8889
 7341SOL     OW33655   3.526   4.649  14.193 -0.3854 -0.0426  0.0014
 7341SOL    HW133656   3.566   4.719  14.142  0.6846 -1.4667 -1.1287
 7341SOL    HW233657   3.470   4.699  14.253  0.0076 -1.1495  1.2904
 7342SOL     OW33658   2.312   1.991   2.359  0.0443  0.5793  0.2074
 7342SOL    HW133659   2.397   1.996   2.401 -0.2090 -1.2625  0.9427
 7342SOL    HW233660   2.310   2.061   2.294  0.1508  0.1875 -0.2195
 7343SOL     OW33661   4.629   2.115   5.406 -0.0418  0.6843  0.1933
 7343SOL    HW133662   4.615   2.132   5.499 -0.5044 -0.8843  0.4059
 7343SOL    HW233663   4.673   2.030   5.406  0.5279  0.9776  1.5068
 7344SOL     OW33664   1.826   0.837   5.187 -0.0541  0.1774 -0.0406
 7344SOL    HW133665   1.749   0.782   5.203  1.1768 -1.2021  1.1288
 7344SOL    HW233666   1.794   0.908   5.131 -0.0072  2.3957  2.7098
 7345SOL     OW33667   0.292   2.385   3.380  0.2894 -0.3953  0.5712
 7345SOL    HW133668   0.221   2.432   3.336 -0.7336 -3.2403 -0.7839
 7345SOL    HW233669   0.264   2.294   3.377 -1.7530  0.2715 -0.2032
 7346SOL     OW33670   2.316   0.339   6.562  0.2071 -0.3822 -0.2287
 7346SOL    HW133671   2.323   0.253   6.521  1.3559  0.8330 -2.5815
 7346SOL    HW233672   2.234   0.335   6.612 -0.1136  0.5120 -0.6848
 7347SOL     OW33673   3.915   4.596  11.971  0.3391 -0.0228 -0.4998
 7347SOL    HW133674   3.908   4.596  12.067 -1.6597 -0.0417 -0.6374
 7347SOL    HW233675   3.947   4.683  11.947  3.1775 -1.9492 -3.6470
 7348SOL     OW33676   3.848   0.242   7.059  0.1299 -0.0475  0.3778
 7348SOL    HW133677   3.825   0.308   7.125 -2.7845 -1.2637  0.5885
 7348SOL    HW233678   3.943   0.242   7.059  0.1397  1.3376 -2.8844
 7349SOL     OW33679   1.906   0.570   2.918  0.1307  0.2012  0.6962
 7349SOL    HW133680   1.950   0.508   2.860  0.4305  0.5109  0.5910
 7349SOL    HW233681   1.898   0.525   3.002 -2.1527 -0.4497  0.1199
 7350SOL     OW33682   4.388   1.626   2.915  0.1283  0.0426 -0.0852
 7350SOL    HW133683   4.314   1.566   2.908 -1.3448  1.6475  1.7524
 7350SOL    HW233684   4.335   1.705   2.903 -1.4123 -0.9145  0.5373
 7351SOL     OW33685   0.743   1.746   1.652 -0.5792  0.2364 -0.2124
 7351SOL    HW133686   0.814   1.713   1.597  0.4233  1.7868  0.1581
 7351SOL    HW233687   0.767   1.715   1.739  1.4470  1.3796 -0.3665
 7352SOL     OW33688   3.576   3.987   2.087  0.0996 -0.0266 -0.4392
 7352SOL    HW133689   3.571   3.982   2.183  0.0817  2.1104 -0.3192
 7352SOL    HW233690   3.508   3.926   2.059 -0.3714  0.2161  0.1729
 7353SOL     OW33691   0.765   1.145   0.151  0.2875  0.0114 -0.5023
 7353SOL    HW133692   0.857   1.148   0.126  1.2024 -1.4019  2.7287
 7353SOL    HW233693   0.724   1.193   0.079 -0.5766 -1.2374 -0.8557
 7354SOL     OW33694   0.355   0.696  13.196  0.7909  0.1214 -0.0196
 7354SOL    HW133695   0.439   0.721  13.157  0.0395 -0.9406 -2.3281
 7354SOL    HW233696   0.383   0.619  13.245 -0.6506  0.6739  1.6671
 7355SOL     OW33697   0.365   1.443   8.009 -0.0643 -0.1187 -0.0925
 7355SOL    HW133698   0.446   1.392   8.007 -2.7818 -4.4470  0.2180
 7355SOL    HW233699   0.317   1.368   8.044 -1.3643  0.1806 -1.2748
 7356SOL     OW33700   3.577   3.264   4.581 -0.1931 -0.1495 -0.0322
 7356SOL    HW133701   3.570   3.354   4.612 -0.2550  0.3873 -1.5761
 7356SOL    HW233702   3.488   3.234   4.596 -0.6481  0.4888 -1.4534
 7357SOL     OW33703   4.088   1.513   3.617  0.5824  0.3082  0.9024
 7357SOL    HW133704   4.100   1.505   3.712 -4.2677  0.7151  1.5355
 7357SOL    HW233705   4.106   1.607   3.608  0.0843  0.4374  1.2978
 7358SOL     OW33706   0.161   0.132   3.816  0.3889 -0.5922 -0.1710
 7358SOL    HW133707   0.226   0.141   3.746  0.0232  0.9353 -0.3114
 7358SOL    HW233708   0.213   0.126   3.896 -0.8937  0.6929  0.7533
 7359SOL     OW33709   0.576   1.437   6.498  0.1918  0.1338  0.0417
 7359SOL    HW133710   0.550   1.493   6.571  0.5171 -0.6965  0.8024
 7359SOL    HW233711   0.669   1.459   6.494 -0.5020  3.1570  0.7903
 7360SOL     OW33712   1.358   3.734  12.095  0.0751  0.1702  0.7308
 7360SOL    HW133713   1.415   3.804  12.065  0.7205 -1.2399 -1.3248
 7360SOL    HW233714   1.421   3.689  12.151 -0.3214 -0.5242  0.6166
 7361SOL     OW33715   4.472   2.648   5.009  0.5591  0.0985 -1.3271
 7361SOL    HW133716   4.475   2.608   5.096  1.5701  2.0542 -0.4694
 7361SOL    HW233717   4.378   2.639   4.997  0.1547 -0.0802  2.0222
 7362SOL     OW33718   4.194   4.311   5.732  0.1641 -0.1674  0.0782
 7362SOL    HW133719   4.126   4.289   5.796  1.2444 -0.6295  1.0602
 7362SOL    HW233720   4.155   4.282   5.650 -0.8271 -1.2683  0.9320
 7363SOL     OW33721   2.150   0.054   7.692  0.0842 -0.3561  0.2886
 7363SOL    HW133722   2.088   4.720   7.676  1.5331 -1.0064 -2.3731
 7363SOL    HW233723   2.123   0.117   7.626  0.6211 -2.8153 -2.2939
 7364SOL     OW33724   0.218   2.917   2.332 -0.0407 -0.3386  0.2588
 7364SOL    HW133725   0.169   2.999   2.340  0.2928 -0.4916  4.0278
 7364SOL    HW233726   0.262   2.945   2.252  2.8497 -0.6185  1.7360
 7365SOL     OW33727   0.176   1.008   2.768 -0.4929  0.1029  0.3323
 7365SOL    HW133728   0.237   0.946   2.806 -3.2404 -1.2797  2.5299
 7365SOL    HW233729   0.215   1.095   2.778 -1.2102  0.5329 -0.5418
 7366SOL     OW33730   3.915   1.322   4.203 -0.1253 -0.0511  0.2153
 7366SOL    HW133731   3.831   1.351   4.167  0.0730  1.5944  1.0746
 7366SOL    HW233732   3.909   1.355   4.292  0.5979 -0.5651  0.4569
 7367SOL     OW33733   0.403   0.998  16.542 -0.1821 -0.3468  0.3990
 7367SOL    HW133734   0.457   0.978  16.619 -0.4649  0.0776  0.7082
 7367SOL    HW233735   0.450   1.074  16.506 -0.6474  0.3732  1.3103
 7368SOL     OW33736   1.753   2.840   2.262 -0.4653  0.0917  0.4160
 7368SOL    HW133737   1.707   2.874   2.185 -0.3279  1.1731  0.8175
 7368SOL    HW233738   1.816   2.781   2.220 -0.3894  0.5692 -0.1541
 7369SOL     OW33739   0.666   1.951   4.589 -0.0048  0.3734 -0.1017
 7369SOL    HW133740   0.669   1.901   4.670  0.9271  1.1440  0.3371
 7369SOL    HW233741   0.576   1.983   4.584 -0.3482 -0.5516  0.0401
 7370SOL     OW33742   0.669   0.073  16.143  0.2582 -0.7809  0.1215
 7370SOL    HW133743   0.631   4.727  16.118 -2.3444  0.3324  0.3040
 7370SOL    HW233744   0.748   0.082  16.091  1.0094  1.4835  1.6382
 7371SOL     OW33745   1.885   2.357  12.171 -0.1790 -0.2874 -0.4075
 7371SOL    HW133746   1.841   2.344  12.255 -2.2560  3.4971 -0.9333
 7371SOL    HW233747   1.800   2.353  12.126 -1.0019  1.4255  1.0437
 7372SOL     OW33748   0.042   1.150   7.586 -0.2175 -0.0577 -0.4061
 7372SOL    HW133749   0.123   1.193   7.560 -0.3346  0.4793  0.1199
 7372SOL    HW233750   4.725   1.225   7.611 -0.3526  0.2215 -1.5155
 7373SOL     OW33751   4.127   0.541   3.457 -0.1525  0.8370 -0.2680
 7373SOL    HW133752   4.070   0.502   3.524  0.8963 -0.1988  0.0293
 7373SOL    HW233753   4.067   0.611   3.432 -0.6986  0.0756 -1.0691
 7374SOL     OW33754   1.540   1.388   1.967  0.2934 -0.5389 -0.4082
 7374SOL    HW133755   1.629   1.385   1.930  1.7910  0.6670  3.1088
 7374SOL    HW233756   1.548   1.468   2.018  0.6841  0.3233 -1.8365
 7375SOL     OW33757   4.039   2.256   8.452 -0.1911 -0.4277 -0.2490
 7375SOL    HW133758   4.097   2.298   8.389  1.7942  1.0787  2.5852
 7375SOL    HW233759   4.010   2.182   8.399  1.7739 -1.7444  0.5157
 7376SOL     OW33760   3.573   1.043  10.337 -0.3466 -0.1184  0.8882
 7376SOL    HW133761   3.515   1.035  10.413 -1.2884 -1.7960 -0.0031
 7376SOL    HW233762   3.547   1.126  10.295 -1.3562 -1.2783 -0.7999
 7377SOL     OW33763   0.351   2.724   5.227  0.2774 -0.1020  0.1990
 7377SOL    HW133764   0.436   2.686   5.209  0.6027  0.1110  1.2857
 7377SOL    HW233765   0.310   2.730   5.140  1.2584  0.4224 -0.2228
 7378SOL     OW33766   2.858   3.886  16.156 -0.0541  0.3087 -0.1353
 7378SOL    HW133767   2.840   3.904  16.063  2.5368  0.8212 -0.5653
 7378SOL    HW233768   2.881   3.968  16.200  0.5001 -0.5445  1.1353
 7379SOL     OW33769   4.091   0.965   5.661 -0.5796  0.1493 -0.1280
 7379SOL    HW133770   4.125   0.951   5.573  0.0771  0.6310  0.0398
 7379SOL    HW233771   4.160   0.936   5.722 -5.3966 -2.6519  4.0050
 7380SOL     OW33772   3.404   3.624  13.476  0.0786  0.5066 -0.6526
 7380SOL    HW133773   3.362   3.644  13.559 -0.0379  0.6889 -0.7571
 7380SOL    HW233774   3.337   3.570  13.434 -1.2274  1.7882 -0.1917
 7381SOL     OW33775   1.820   0.602   4.966  0.3027  0.2118 -0.4722
 7381SOL    HW133776   1.764   0.680   4.961  2.3853  2.0334  4.3397
 7381SOL    HW233777   1.862   0.601   4.879  0.9549 -2.0065 -0.1289
 7382SOL     OW33778   0.575   3.200   7.440 -0.0223  0.9463 -0.1178
 7382SOL    HW133779   0.568   3.289   7.406  0.3149 -0.4594 -3.9024
 7382SOL    HW233780   0.666   3.196   7.470 -0.2929  1.6786  0.8074
 7383SOL     OW33781   1.293   4.629   2.640  0.2104 -0.3252  0.5670
 7383SOL    HW133782   1.242   4.664   2.712  0.6698  0.2325  0.6226
 7383SOL    HW233783   1.300   4.536   2.663 -0.2720 -0.4579  0.1741
 7384SOL     OW33784   1.459   4.505   5.971  0.1257  0.1499  0.1154
 7384SOL    HW133785   1.422   4.433   5.919 -0.5854  0.7060 -0.1628
 7384SOL    HW233786   1.380   4.535   6.017  0.5576  2.2475 -0.4908
 7385SOL     OW33787   1.232   4.181   1.175  0.0801  0.1122 -0.4448
 7385SOL    HW133788   1.309   4.140   1.137  1.0842  2.2873 -0.7465
 7385SOL    HW233789   1.242   4.162   1.268  2.8041 -1.3253 -1.0231
 7386SOL     OW33790   0.403   3.055   2.156 -0.0827  0.5433  0.0035
 7386SOL    HW133791   0.332   3.088   2.100 -1.1124  1.0122  1.5981
 7386SOL    HW233792   0.473   3.062   2.091  0.1433 -0.0062  0.1832
 7387SOL     OW33793   0.606   4.270   2.978  0.6743  0.1218  0.3151
 7387SOL    HW133794   0.570   4.252   2.891  1.7325  0.0942 -0.1166
 7387SOL    HW233795   0.616   4.365   2.984  1.1365  0.0933 -0.0558
 7388SOL     OW33796   0.089   3.481   7.553  0.2041  0.6244 -0.2819
 7388SOL    HW133797   0.100   3.429   7.632  0.2147 -0.5253 -1.0513
 7388SOL    HW233798   0.093   3.571   7.587 -0.1674  0.0301  1.3453
 7389SOL     OW33799   2.749   3.274   3.539 -0.2677  0.0325 -0.4473
 7389SOL    HW133800   2.683   3.208   3.518 -0.9846  0.4313  0.5350
 7389SOL    HW233801   2.824   3.215   3.544  2.1436  2.9932 -1.7731
 7390SOL     OW33802   2.523   0.409  11.422  0.3380  0.8442  0.3830
 7390SOL    HW133803   2.610   0.420  11.460  0.9079 -0.7172 -0.4450
 7390SOL    HW233804   2.505   0.501  11.404  0.9120  1.2929  2.1261
 7391SOL     OW33805   2.397   1.186  10.204 -0.3272 -0.1241  0.3895
 7391SOL    HW133806   2.468   1.250  10.206 -1.8710  1.6433  0.0955
 7391SOL    HW233807   2.373   1.173  10.296 -0.2548  0.0862  0.4396
 7392SOL     OW33808   2.872   0.998   6.567 -0.3047 -0.3155 -0.2870
 7392SOL    HW133809   2.796   1.037   6.611  1.1851  1.6989  0.4833
 7392SOL    HW233810   2.875   0.916   6.616  0.8439  0.5998  1.1545
 7393SOL     OW33811   2.692   4.506   6.638  0.0470 -0.0055  0.6073
 7393SOL    HW133812   2.734   4.505   6.724  0.3916  0.6122  0.4444
 7393SOL    HW233813   2.600   4.524   6.657  0.0426 -0.4189  0.9824
 7394SOL     OW33814   4.122   1.463   4.886  0.4273 -0.1569 -0.7608
 7394SOL    HW133815   4.193   1.526   4.872  0.6656  0.1494  1.9021
 7394SOL    HW233816   4.047   1.513   4.918 -0.0470 -2.8476  2.3352
 7395SOL     OW33817   2.693   0.785   9.067  0.1985  0.1527  0.2647
 7395SOL    HW133818   2.753   0.743   9.127  1.5160  1.6690 -0.0070
 7395SOL    HW233819   2.730   0.750   8.986 -2.6470 -0.6307 -0.7077
 7396SOL     OW33820   3.192   1.548   4.904 -0.1941  0.1165 -0.1907
 7396SOL    HW133821   3.194   1.608   4.829 -0.2938 -0.5627 -0.7395
 7396SOL    HW233822   3.098   1.559   4.920 -0.1782  0.5738 -0.4280
 7397SOL     OW33823   4.419   0.130  11.878 -0.0849 -0.3460  0.0935
 7397SOL    HW133824   4.355   0.192  11.842  1.0595  1.0119  0.4162
 7397SOL    HW233825   4.392   0.050  11.833  3.2587 -0.2083 -2.1575
 7398SOL     OW33826   0.858   0.572   8.749  0.1257  0.0444 -0.6960
 7398SOL    HW133827   0.815   0.657   8.756  1.7366  0.7146  1.1080
 7398SOL    HW233828   0.938   0.593   8.797 -0.8538 -0.8548  1.3351
 7399SOL     OW33829   1.200   0.926   7.450 -0.3628 -0.0216  0.1665
 7399SOL    HW133830   1.167   0.924   7.361 -0.2658  0.8478  0.1155
 7399SOL    HW233831   1.169   0.840   7.478  0.5669 -0.4854 -0.2343
 7400SOL     OW33832   3.929   1.819   8.406 -0.4810  0.0234  0.0887
 7400SOL    HW133833   3.982   1.854   8.478 -0.9889  0.7872  0.0850
 7400SOL    HW233834   3.997   1.791   8.345 -3.1085 -1.2922 -2.2284
 7401SOL     OW33835   2.455   0.659   9.090 -0.1723 -0.4628  0.1464
 7401SOL    HW133836   2.508   0.589   9.053  0.7383 -0.3368  1.1966
 7401SOL    HW233837   2.514   0.734   9.085  0.1292 -0.5060  2.9860
 7402SOL     OW33838   4.540   2.010   9.408  0.2295  0.0416  0.5495
 7402SOL    HW133839   4.568   2.003   9.317 -3.0183 -2.9990 -0.2117
 7402SOL    HW233840   4.469   1.946   9.408  0.2477  0.0211 -0.1425
 7403SOL     OW33841   2.185   4.287   4.010 -0.0009  0.4653  0.2739
 7403SOL    HW133842   2.258   4.303   3.951  0.1122 -0.0429  0.2751
 7403SOL    HW233843   2.164   4.196   3.989  0.1393  0.8576 -1.5215
 7404SOL     OW33844   1.749   4.113  14.439 -0.0652 -0.1492 -0.3721
 7404SOL    HW133845   1.811   4.153  14.500  0.5850 -1.5715 -0.0792
 7404SOL    HW233846   1.710   4.052  14.502  1.0083 -0.5129 -0.0503
 7405SOL     OW33847   3.220   1.584  11.792 -0.2000 -0.0757  0.0892
 7405SOL    HW133848   3.291   1.629  11.838  0.1916 -0.1073 -0.4747
 7405SOL    HW233849   3.268   1.564  11.712 -2.5350 -2.1271 -0.7831
 7406SOL     OW33850   1.005   0.486   3.567  0.3762  0.6275  0.0204
 7406SOL    HW133851   0.947   0.420   3.527  0.6253  0.3921  0.0482
 7406SOL    HW233852   0.957   0.511   3.646  0.7769  2.7117 -0.3945
 7407SOL     OW33853   4.727   3.372   4.775  0.1603 -0.1057 -0.5753
 7407SOL    HW133854   4.678   3.359   4.694  0.8941  0.1683 -1.0585
 7407SOL    HW233855   4.684   3.314   4.839  0.6382  0.7422  0.5165
 7408SOL     OW33856   1.771   0.687   7.003 -0.0471  0.3038  0.3147
 7408SOL    HW133857   1.762   0.774   7.041  0.3845  1.1320 -1.4774
 7408SOL    HW233858   1.683   0.651   7.013  0.3890 -0.9416 -0.2324
 7409SOL     OW33859   0.287   3.445   3.529 -0.0476 -0.0979 -0.1699
 7409SOL    HW133860   0.277   3.488   3.613  1.2561  1.1757 -0.6681
 7409SOL    HW233861   0.224   3.496   3.479 -0.4751 -0.7266 -0.2697
 7410SOL     OW33862   4.698   3.352   8.362 -0.1556  0.3004 -0.3578
 7410SOL    HW133863   4.737   3.377   8.446 -1.7023  1.4836  0.0035
 7410SOL    HW233864   4.609   3.375   8.387  0.4607  3.8164 -1.4476
 7411SOL     OW33865   3.000   0.107   4.772 -0.2177  0.2920 -0.0510
 7411SOL    HW133866   2.925   0.162   4.794 -0.7675  0.8454 -3.2735
 7411SOL    HW233867   3.039   0.111   4.859 -2.9000  1.1498  1.0967
 7412SOL     OW33868   4.248   0.517  11.382 -0.2281 -0.0201  0.0926
 7412SOL    HW133869   4.269   0.430  11.418 -0.8109 -0.2812 -0.2000
 7412SOL    HW233870   4.333   0.560  11.387 -0.5989  1.1613 -4.1885
 7413SOL     OW33871   3.504   3.539   1.012 -0.3828  0.7952  0.2858
 7413SOL    HW133872   3.498   3.632   0.989  0.2410  0.7569 -0.0360
 7413SOL    HW233873   3.413   3.519   1.035  0.1782  1.2410  2.8893
 7414SOL     OW33874   4.037   1.384   5.551  0.1951 -0.4758 -0.6394
 7414SOL    HW133875   3.984   1.385   5.631 -1.9449  1.6670 -2.1222
 7414SOL    HW233876   3.994   1.308   5.514 -0.6392 -0.6274  0.6482
 7415SOL     OW33877   2.113   3.827   4.271  0.2575  0.3318  0.2138
 7415SOL    HW133878   2.032   3.792   4.308  0.2499  0.1652  0.0378
 7415SOL    HW233879   2.140   3.751   4.220 -0.5503  0.9138 -1.0848
 7416SOL     OW33880   3.826   0.006   3.754  0.4031  0.2190  0.0102
 7416SOL    HW133881   3.916   4.715   3.736  0.6777 -0.2269  2.0524
 7416SOL    HW233882   3.837   0.089   3.709 -0.6651  0.3428 -0.0226
 7417SOL     OW33883   3.051   2.534   1.033 -0.3326  0.1592 -0.3227
 7417SOL    HW133884   2.982   2.479   0.996  0.0954 -1.4191  1.2226
 7417SOL    HW233885   3.012   2.548   1.119  0.1740  0.9582 -0.2169
 7418SOL     OW33886   0.272   1.478  17.677 -0.1074 -0.5085 -0.4259
 7418SOL    HW133887   0.308   1.505  17.592 -1.5728 -0.3882 -1.0083
 7418SOL    HW233888   0.206   1.416  17.648 -1.4376  0.7306 -0.0688
 7419SOL     OW33889   3.565   0.644  12.185  0.2811 -0.1114  0.6807
 7419SOL    HW133890   3.514   0.655  12.265 -0.6929 -1.9251  0.3075
 7419SOL    HW233891   3.647   0.686  12.210 -1.0499  1.4936  2.3346
 7420SOL     OW33892   0.770   1.267  11.701 -0.3044  0.1024 -0.4958
 7420SOL    HW133893   0.848   1.303  11.658  0.5399  1.3046  2.0934
 7420SOL    HW233894   0.710   1.281  11.628 -1.5521 -1.9646  0.1322
 7421SOL     OW33895   3.979   2.178   4.434 -0.1312 -0.1868  0.2298
 7421SOL    HW133896   3.948   2.264   4.405  3.3268  0.7357 -0.7104
 7421SOL    HW233897   3.958   2.176   4.527  0.6091 -1.1062  0.3772
 7422SOL     OW33898   0.836   4.255   3.541  0.1066 -0.4817 -0.5070
 7422SOL    HW133899   0.858   4.164   3.522 -0.2662 -0.8574  0.9065
 7422SOL    HW233900   0.837   4.256   3.636 -0.4651 -0.1451 -0.5005
 7423SOL     OW33901   2.094   1.133  17.672 -0.0775 -0.3781 -0.7045
 7423SOL    HW133902   2.129   1.180  17.596  0.3897  1.9787  0.9369
 7423SOL    HW233903   2.005   1.120  17.640 -1.0224 -0.5822  2.0611
 7424SOL     OW33904   1.785   1.527   5.545  0.2241  0.3579  0.2047
 7424SOL    HW133905   1.845   1.600   5.534  0.0213  0.4505 -0.2804
 7424SOL    HW233906   1.844   1.451   5.544 -1.7179 -1.1394  0.4890
 7425SOL     OW33907   3.420   2.305  16.480  0.0562  0.3661  0.3032
 7425SOL    HW133908   3.370   2.330  16.557 -0.3151 -0.8580  0.4429
 7425SOL    HW233909   3.510   2.335  16.491  0.8841 -2.6185  1.6040
 7426SOL     OW33910   2.503   3.014   1.320 -0.2716 -0.2585  0.3507
 7426SOL    HW133911   2.590   3.003   1.282 -0.2340 -1.1195  0.6938
 7426SOL    HW233912   2.462   3.076   1.259  1.2076  0.4982  0.1371
 7427SOL     OW33913   3.649   4.159  13.485 -0.5143  0.1591  0.0404
 7427SOL    HW133914   3.739   4.181  13.508 -0.5498  0.5508 -0.1951
 7427SOL    HW233915   3.636   4.081  13.539 -0.4647  1.0854  1.4222
 7428SOL     OW33916   4.581   1.722  14.405  0.7437  0.9961  0.4085
 7428SOL    HW133917   4.505   1.758  14.361 -0.3973  0.1196  1.6713
 7428SOL    HW233918   4.537   1.672  14.473  2.5097 -0.4326  0.5174
 7429SOL     OW33919   2.811   1.951  12.143  0.2222 -0.3713  0.1878
 7429SOL    HW133920   2.746   1.921  12.078  1.6476 -0.1949 -1.3255
 7429SOL    HW233921   2.888   1.896  12.129  1.4800  1.7151 -1.0232
 7430SOL     OW33922   3.011   4.247  17.193 -0.0810  0.3877 -0.0937
 7430SOL    HW133923   3.070   4.309  17.236 -0.4019 -1.0897  2.5212
 7430SOL    HW233924   2.972   4.199  17.267 -1.6481  1.9260  0.0967
 7431SOL     OW33925   2.500   0.999   0.503  0.2406 -0.1542 -0.6959
 7431SOL    HW133926   2.512   1.020   0.411 -0.4788 -0.1753 -0.7917
 7431SOL    HW233927   2.594   1.004   0.520 -0.2155 -4.2530  3.2994
 7432SOL     OW33928   4.530   1.190  17.707  0.4028  0.0723 -0.5279
 7432SOL    HW133929   4.449   1.239  17.718 -1.1100 -2.2092 -1.3378
 7432SOL    HW233930   4.523   1.128   0.032  2.4156  0.0036 -0.4133
 7433SOL     OW33931   4.519   2.445   2.122  0.1577 -0.5218  0.3204
 7433SOL    HW133932   4.574   2.428   2.046  0.1004  1.6108 -0.1981
 7433SOL    HW233933   4.576   2.406   2.188  0.2932 -0.4183  0.2648
 7434SOL     OW33934   4.724   2.441   2.368 -0.0023 -0.6841 -0.0040
 7434SOL    HW133935   4.733   2.412   2.459  0.0492 -0.4355  0.0705
 7434SOL    HW233936   0.019   2.529   2.388  0.2300 -0.5384 -1.0273
 7435SOL     OW33937   4.065   4.665   9.487  0.5303  0.1549  0.0864
 7435SOL    HW133938   4.067   4.613   9.567 -0.4631 -0.0164 -0.0026
 7435SOL    HW233939   3.980   4.636   9.454  1.9218 -2.3255 -1.3610
 7436SOL     OW33940   4.529   4.393   5.826 -0.5028 -0.1877 -0.4399
 7436SOL    HW133941   4.512   4.299   5.826 -1.3900 -0.0210  1.2567
 7436SOL    HW233942   4.458   4.431   5.878  0.0262 -1.0006  0.8907
 7437SOL     OW33943   2.879   4.040  14.704 -0.0865 -0.0050  0.5627
 7437SOL    HW133944   2.902   4.118  14.654 -0.9300 -0.8526 -1.1150
 7437SOL    HW233945   2.813   4.008  14.643 -0.4326 -0.0006  0.9305
 7438SOL     OW33946   2.490   0.004   9.053 -0.5104  0.0771 -0.4080
 7438SOL    HW133947   2.440   4.663   9.030 -0.1208 -0.6093  1.0637
 7438SOL    HW233948   2.564   4.700   9.098 -1.4910 -0.8344  0.3554
 7439SOL     OW33949   4.479   2.315  12.110 -0.0896  0.0968  0.4464
 7439SOL    HW133950   4.534   2.237  12.117  0.4270  0.3253 -1.1129
 7439SOL    HW233951   4.407   2.286  12.167 -1.8323 -0.9157 -2.2733
 7440SOL     OW33952   3.409   0.801  10.770  0.0679 -0.1132 -0.1561
 7440SOL    HW133953   3.396   0.720  10.720 -0.5579 -1.0025  1.4368
 7440SOL    HW233954   3.498   0.825  10.744 -0.9270  3.6657 -0.0575
 7441SOL     OW33955   1.231   1.568   2.129  0.2322  0.1510  0.0407
 7441SOL    HW133956   1.195   1.561   2.217  1.0601 -0.5239  0.3177
 7441SOL    HW233957   1.248   1.477   2.105 -0.0595 -0.3547  1.7610
 7442SOL     OW33958   3.135   0.173  17.045 -0.4185 -0.2165  0.5648
 7442SOL    HW133959   3.166   0.255  17.086 -0.1394  0.0977 -0.2785
 7442SOL    HW233960   3.068   0.211  16.989 -1.1662 -1.0057  0.9289
 7443SOL     OW33961   1.075   2.450   2.067 -0.0187 -0.3474  0.0559
 7443SOL    HW133962   1.033   2.453   2.153 -0.1261  0.1811 -0.0132
 7443SOL    HW233963   1.018   2.384   2.027  1.4424 -1.0196 -0.9034
 7444SOL     OW33964   4.135   3.116   8.769 -0.5303  0.0052  0.8719
 7444SOL    HW133965   4.184   3.177   8.824 -0.4138 -0.1463  0.9369
 7444SOL    HW233966   4.179   3.038   8.802 -1.0144 -0.6155  0.0486
 7445SOL     OW33967   0.713   3.021  15.831 -0.1945 -0.2935 -0.2852
 7445SOL    HW133968   0.744   2.941  15.873  1.8256  0.0918 -1.0304
 7445SOL    HW233969   0.619   3.010  15.819  0.3220 -1.6327 -3.2180
 7446SOL     OW33970   2.200   3.691  14.220  0.8071  0.2544 -0.7316
 7446SOL    HW133971   2.235   3.757  14.279  3.7160 -1.4789 -0.5050
 7446SOL    HW233972   2.230   3.727  14.136 -0.7708  0.9134 -1.0133
 7447SOL     OW33973   0.257   3.010  17.139 -0.4387  0.0858  0.1996
 7447SOL    HW133974   0.202   2.976  17.069 -1.4537  0.7558  0.6755
 7447SOL    HW233975   0.264   2.940  17.205 -0.5177 -0.8429 -0.7787
 7448SOL     OW33976   4.506   2.066   7.217  0.4127  0.0756 -0.3276
 7448SOL    HW133977   4.446   2.092   7.146  0.4598  0.4208 -0.2410
 7448SOL    HW233978   4.578   2.128   7.212  0.4052  0.2751  2.1452
 7449SOL     OW33979   2.649   3.493  14.928  0.0956 -0.1703  0.5369
 7449SOL    HW133980   2.724   3.486  14.987  0.0844  0.3658  0.6137
 7449SOL    HW233981   2.614   3.404  14.930  0.5436 -0.3667 -0.1366
 7450SOL     OW33982   3.241   3.834   2.847  0.2144 -0.2931 -0.0455
 7450SOL    HW133983   3.149   3.841   2.873  0.4716  2.1407  0.2246
 7450SOL    HW233984   3.243   3.763   2.783  0.2621 -0.7495  0.4640
 7451SOL     OW33985   0.350   1.489   5.759 -0.2764 -0.2131  0.7694
 7451SOL    HW133986   0.396   1.452   5.833  0.6961 -0.4706  0.0397
 7451SOL    HW233987   0.372   1.431   5.686 -0.0766  1.3556 -0.4226
 7452SOL     OW33988   1.636   3.083  11.326 -0.1402  0.7133  0.1604
 7452SOL    HW133989   1.695   3.020  11.285  1.3300  3.4233 -1.8721
 7452SOL    HW233990   1.574   3.029  11.374  1.2257  1.3773  2.6473
 7453SOL     OW33991   3.656   2.271   4.061  0.0644  0.0481  0.7474
 7453SOL    HW133992   3.660   2.305   4.150  1.1609  2.0236 -0.0466
 7453SOL    HW233993   3.573   2.300   4.023  0.2384 -0.8019 -0.2987
 7454SOL     OW33994   0.872   3.528   2.174  0.2887  0.2085 -0.0092
 7454SOL    HW133995   0.935   3.498   2.241 -0.2874  0.4278  0.6321
 7454SOL    HW233996   0.875   3.623   2.182 -0.8763  0.0785  2.2085
 7455SOL     OW33997   2.584   3.214   5.827 -0.0900 -0.3521 -0.5392
 7455SOL    HW133998   2.521   3.185   5.893 -1.0553  0.2866 -1.1896
 7455SOL    HW233999   2.609   3.128   5.794 -2.5247 -1.2399 -0.1166
 7456SOL     OW34000   0.134   3.806   6.137 -0.1095  0.5600  0.6449
 7456SOL    HW134001   0.156   3.854   6.057  0.2135 -1.7260 -0.6329
 7456SOL    HW234002   0.218   3.800   6.182 -0.2205  0.9625  0.9038
 7457SOL     OW34003   1.529   3.209  15.891 -0.5935  0.1694  0.1206
 7457SOL    HW134004   1.539   3.114  15.884 -1.4737  0.0730  0.2080
 7457SOL    HW234005   1.443   3.210  15.932  0.0902  0.1002  1.5631
 7458SOL     OW34006   2.271   1.245   1.607  0.8097  0.1033 -0.1890
 7458SOL    HW134007   2.319   1.196   1.539 -0.6822 -0.1556 -1.0574
 7458SOL    HW234008   2.333   1.312   1.634  0.4948  0.8015 -1.1864
 7459SOL     OW34009   3.463   1.199  11.743  0.4773  0.3783 -0.1711
 7459SOL    HW134010   3.547   1.242  11.759  1.8650 -1.5607 -2.3372
 7459SOL    HW234011   3.453   1.236  11.655 -1.0925 -1.6291 -0.8416
 7460SOL     OW34012   3.129   2.084  15.270  0.2750  0.5936 -0.4549
 7460SOL    HW134013   3.112   1.991  15.282  1.5621  0.3425 -0.5760
 7460SOL    HW234014   3.184   2.100  15.347 -0.1907 -0.0613  0.0049
 7461SOL     OW34015   0.332   3.353   2.560 -0.2519 -0.1400  0.5339
 7461SOL    HW134016   0.290   3.404   2.492 -0.5355  1.1175  1.6534
 7461SOL    HW234017   0.412   3.324   2.516 -1.3266 -0.3816 -1.2514
 7462SOL     OW34018   3.959   2.322  10.072  0.3272  0.6682  0.2035
 7462SOL    HW134019   3.866   2.301  10.084 -0.0444  1.8629 -0.5369
 7462SOL    HW234020   3.989   2.276  10.150 -0.9123 -1.8845 -0.8083
 7463SOL     OW34021   3.524   3.073   0.912 -0.9451 -0.4099 -0.4095
 7463SOL    HW134022   3.527   2.984   0.878  0.8173 -0.2381 -0.6711
 7463SOL    HW234023   3.588   3.119   0.858  1.3876 -2.4789  0.6147
 7464SOL     OW34024   3.775   1.131   7.018 -0.1446 -0.4289 -0.2137
 7464SOL    HW134025   3.867   1.120   7.043 -0.5116  1.9639  2.1289
 7464SOL    HW234026   3.753   1.038   7.029  0.1786 -0.6800 -1.5521
 7465SOL     OW34027   0.030   1.755   2.284  0.0353 -0.1764 -0.1647
 7465SOL    HW134028   4.708   1.830   2.290  0.8426  0.4074  0.4043
 7465SOL    HW234029   0.049   1.757   2.190  0.5684  1.9552 -0.0124
 7466SOL     OW34030   1.982   4.710  16.525  0.3721  0.1690 -0.2365
 7466SOL    HW134031   1.999   0.034  16.597  2.5702  0.6358 -1.1693
 7466SOL    HW234032   1.902   0.011  16.488  0.8439 -0.2757 -1.6787
 7467SOL     OW34033   2.720   2.083   1.718  0.0946  0.2396  0.2361
 7467SOL    HW134034   2.665   2.127   1.653  0.0124 -2.0490 -1.2474
 7467SOL    HW234035   2.749   2.163   1.762  1.8021  0.1865 -0.7737
 7468SOL     OW34036   3.386   0.361  16.969  0.0927  0.3318 -0.0628
 7468SOL    HW134037   3.337   0.281  16.953  0.1511  0.3074 -0.1185
 7468SOL    HW234038   3.335   0.423  16.917 -0.4117  0.6129  0.7627
 7469SOL     OW34039   4.231   0.259  11.543 -0.1198 -0.5755  0.3345
 7469SOL    HW134040   4.325   0.276  11.534 -0.3185  0.3606  0.1033
 7469SOL    HW234041   4.197   0.332  11.595 -0.5614  0.4915 -1.4621
 7470SOL     OW34042   3.052   4.275   8.829  0.0029  0.3543 -0.2282
 7470SOL    HW134043   3.051   4.206   8.895 -0.4773 -0.6534 -1.2774
 7470SOL    HW234044   3.019   4.351   8.876  0.9003  1.3906 -1.2879
 7471SOL     OW34045   1.822   1.682   6.750 -0.2328 -0.2351 -0.0364
 7471SOL    HW134046   1.905   1.677   6.703 -0.4004  1.1850 -0.4816
 7471SOL    HW234047   1.768   1.629   6.691  0.1657  1.0397 -1.5626
 7472SOL     OW34048   4.561   4.499   0.877  0.0446 -0.5911 -0.0743
 7472SOL    HW134049   4.598   4.458   0.798 -0.8323 -0.1006 -0.7436
 7472SOL    HW234050   4.469   4.489   0.851  0.0496  1.7008 -0.9966
 7473SOL     OW34051   0.023   3.925   8.925  0.6026 -0.2573 -0.0400
 7473SOL    HW134052   4.678   3.898   8.967 -0.0187 -0.6833 -1.5310
 7473SOL    HW234053   4.732   3.997   8.869 -0.5602  0.3914  1.3715
 7474SOL     OW34054   3.119   2.877  12.744 -0.0942  0.4294  0.1015
 7474SOL    HW134055   3.122   2.879  12.648  0.8377 -1.9641  0.0748
 7474SOL    HW234056   3.066   2.952  12.769 -1.4972 -0.3532 -0.5062
 7475SOL     OW34057   1.312   3.625   7.934 -0.2734 -0.4853 -0.3903
 7475SOL    HW134058   1.361   3.543   7.944  1.0424  0.0181 -2.6091
 7475SOL    HW234059   1.324   3.672   8.016  0.0094 -1.3752  0.0792
 7476SOL     OW34060   0.962   1.365  14.323  0.0243 -0.6721 -0.3615
 7476SOL    HW134061   0.910   1.312  14.263 -2.8659  0.3182  1.2651
 7476SOL    HW234062   0.918   1.450  14.323  1.3858  0.0388  0.1837
 7477SOL     OW34063   4.578   2.639   7.161 -0.2417 -0.4014  0.0846
 7477SOL    HW134064   4.630   2.719   7.169 -0.1926 -0.3938 -0.3278
 7477SOL    HW234065   4.631   2.579   7.214  0.8138  0.8583  0.4622
 7478SOL     OW34066   1.727   0.237   1.580  1.0935  0.5407 -0.4060
 7478SOL    HW134067   1.775   0.183   1.642  1.1206  0.3057 -0.6323
 7478SOL    HW234068   1.774   0.229   1.498 -1.7078  0.4464 -2.0144
 7479SOL     OW34069   3.090   2.898   3.043 -0.0189 -0.6041  0.3717
 7479SOL    HW134070   3.042   2.877   2.963  2.6527  1.2172 -1.7367
 7479SOL    HW234071   3.111   2.813   3.080 -0.2093 -0.9863 -0.3829
 7480SOL     OW34072   3.566   2.680   2.397  0.3585 -0.1080  0.1887
 7480SOL    HW134073   3.637   2.744   2.396 -0.8923  1.3543  2.7556
 7480SOL    HW234074   3.494   2.740   2.379  0.1361 -0.3707  0.2064
 7481SOL     OW34075   3.508   1.326   4.296 -0.0529  0.3149 -0.3430
 7481SOL    HW134076   3.528   1.316   4.389 -0.2852 -2.0205 -0.5512
 7481SOL    HW234077   3.458   1.245   4.283 -0.2855  0.4849 -0.4907
 7482SOL     OW34078   2.453   3.021   7.688 -0.3254 -0.2796  0.0528
 7482SOL    HW134079   2.378   3.000   7.632 -0.0489  0.0430 -0.4379
 7482SOL    HW234080   2.498   2.937   7.680  2.0986  0.9440  1.2167
 7483SOL     OW34081   0.674   1.055  12.781  0.0653 -0.4848 -0.5368
 7483SOL    HW134082   0.674   1.079  12.689  0.1051  1.3555 -0.0454
 7483SOL    HW234083   0.682   0.961  12.766  1.2927 -0.0820 -2.3955
 7484SOL     OW34084   1.499   0.991  12.651  0.1101 -0.1240  0.1765
 7484SOL    HW134085   1.573   0.939  12.620 -0.6780  0.2678 -2.4235
 7484SOL    HW234086   1.551   1.048  12.708  1.1749 -2.4515  1.5350
 7485SOL     OW34087   2.189   0.804   3.247  0.3930  0.1199  0.6198
 7485SOL    HW134088   2.284   0.809   3.239  0.1248 -1.0782 -3.2363
 7485SOL    HW234089   2.181   0.802   3.342 -0.7608  0.5870  0.5362
 7486SOL     OW34090   2.883   0.877   6.139  0.1061  0.4773  0.1325
 7486SOL    HW134091   2.854   0.965   6.114  0.3156  1.5608  3.6768
 7486SOL    HW234092   2.899   0.887   6.233 -0.2066 -0.8735  0.3167
 7487SOL     OW34093   4.281   2.207   3.874 -0.6220 -0.1579  0.8773
 7487SOL    HW134094   4.200   2.163   3.847 -0.7140 -0.1275  1.1095
 7487SOL    HW234095   4.301   2.164   3.957  1.5849 -0.7412  0.0685
 7488SOL     OW34096   3.386   0.667   7.277  0.0384 -0.3711  0.3311
 7488SOL    HW134097   3.423   0.638   7.194  0.0323  1.0009 -0.1541
 7488SOL    HW234098   3.435   0.745   7.302 -2.0642 -0.3710  4.4958
 7489SOL     OW34099   2.397   0.532   3.327  0.1846  0.0598  0.0241
 7489SOL    HW134100   2.490   0.531   3.302 -0.0349 -1.4950 -0.7093
 7489SOL    HW234101   2.356   0.551   3.242 -0.0324 -1.6183 -0.2515
 7490SOL     OW34102   0.863   3.598   7.503  0.0859 -0.3383  0.5429
 7490SOL    HW134103   0.895   3.630   7.587 -0.8450  0.8598  0.4599
 7490SOL    HW234104   0.817   3.672   7.463  0.8770 -1.8021 -3.0297
 7491SOL     OW34105   0.014   2.227   7.192  0.1035 -0.1836 -0.1000
 7491SOL    HW134106   0.053   2.146   7.158  0.5362  1.1098 -2.7202
 7491SOL    HW234107   0.082   2.253   7.255  0.0678 -1.8028  0.5945
 7492SOL     OW34108   1.055   2.591   5.322 -0.4997 -0.3899  0.3447
 7492SOL    HW134109   1.110   2.563   5.395  1.1518  1.5452 -0.1685
 7492SOL    HW234110   1.067   2.524   5.255  2.2872  2.0542 -1.5948
 7493SOL     OW34111   0.043   2.543   7.669 -0.3238 -0.2598 -0.1491
 7493SOL    HW134112   0.068   2.621   7.717 -0.8028  1.0663 -2.0642
 7493SOL    HW234113   4.693   2.529   7.704 -0.7479  1.5422 -0.5067
 7494SOL     OW34114   2.917   0.111   0.116  0.6449 -0.1349 -0.1411
 7494SOL    HW134115   3.006   0.086   0.096  0.0772 -2.4160  0.2358
 7494SOL    HW234116   2.895   0.025   0.151  0.0021  0.6709  1.4678
 7495SOL     OW34117   1.719   0.369  17.064 -0.5108  0.7869  0.6298
 7495SOL    HW134118   1.628   0.393  17.077 -0.0212  2.3446  1.0930
 7495SOL    HW234119   1.750   0.439  17.007  0.1235 -0.7927 -0.9815
 7496SOL     OW34120   4.675   2.011   4.655 -0.8082 -0.4844 -0.4389
 7496SOL    HW134121   4.703   1.920   4.666  2.8357  0.8759  1.6514
 7496SOL    HW234122   4.592   2.006   4.702 -0.4855  1.8617  0.3601
 7497SOL     OW34123   0.320   2.051   0.565  0.1189  0.1393 -0.5684
 7497SOL    HW134124   0.237   2.046   0.612  2.5544 -1.0316  3.5810
 7497SOL    HW234125   0.361   1.967   0.581 -1.4562 -0.8438 -1.6826
 7498SOL     OW34126   4.171   4.478  11.863  0.2545  0.2912 -0.5179
 7498SOL    HW134127   4.081   4.505  11.882  0.4245  1.0259 -0.7658
 7498SOL    HW234128   4.205   4.562  11.834  1.7590 -0.0545  0.2329
 7499SOL     OW34129   3.724   3.183   5.649 -0.4096  0.1399  0.1233
 7499SOL    HW134130   3.742   3.272   5.677 -1.6025 -0.2536  2.0908
 7499SOL    HW234131   3.796   3.142   5.698 -1.6502 -0.8401  1.1370
 7500SOL     OW34132   3.719   3.961   6.036 -0.3971  0.1902  0.2124
 7500SOL    HW134133   3.723   3.881   5.983 -0.4034  0.4275 -0.1510
 7500SOL    HW234134   3.729   3.927   6.125 -3.0548  0.6156  0.6766
 7501SOL     OW34135   3.378   3.102   5.245 -0.2528  0.0419 -0.2706
 7501SOL    HW134136   3.383   3.007   5.260  1.3259  0.2928  0.8109
 7501SOL    HW234137   3.464   3.128   5.278  0.3252 -2.4651  0.2476
 7502SOL     OW34138   4.353   3.070   5.005 -0.3066 -0.6334 -0.2416
 7502SOL    HW134139   4.309   3.050   5.088 -0.8983  0.1567 -0.3665
 7502SOL    HW234140   4.431   3.014   5.006  1.0855  1.4101  2.7852
 7503SOL     OW34141   0.318   1.926   5.844  0.5839 -0.5893  0.2177
 7503SOL    HW134142   0.319   2.016   5.879 -0.7012  0.1385 -1.6263
 7503SOL    HW234143   0.411   1.908   5.829  0.2722 -1.0078 -1.1715
 7504SOL     OW34144   1.824   1.880   0.839 -0.2790 -0.7779  0.3539
 7504SOL    HW134145   1.798   1.952   0.781  1.2105  0.2791  0.9847
 7504SOL    HW234146   1.741   1.870   0.886  0.7948  1.2215  2.7046
 7505SOL     OW34147   1.733   4.140  10.752  0.4603  0.0860 -0.7551
 7505SOL    HW134148   1.720   4.059  10.703  0.7147  0.0183 -0.7121
 7505SOL    HW234149   1.799   4.112  10.816 -1.1187 -2.1668 -0.1094
 7506SOL     OW34150   1.334   2.042   4.431  0.3293  0.2243  0.3762
 7506SOL    HW134151   1.363   1.970   4.487 -1.8379 -1.1575 -0.2772
 7506SOL    HW234152   1.407   2.103   4.445 -0.2647  1.8472 -3.5830
 7507SOL     OW34153   4.227   3.196   3.708 -0.4696 -0.0098  0.5412
 7507SOL    HW134154   4.210   3.116   3.758  0.8581 -0.3427  0.4682
 7507SOL    HW234155   4.139   3.230   3.698 -0.2665  0.8044  1.5201
 7508SOL     OW34156   4.144   3.019   3.262  0.6049 -0.1343  0.0485
 7508SOL    HW134157   4.111   2.956   3.326  0.7023  0.9074  1.1123
 7508SOL    HW234158   4.229   3.031   3.305  0.4824  1.5735 -0.2238
 7509SOL     OW34159   0.383   2.838   9.068 -0.5047 -0.0443  0.1982
 7509SOL    HW134160   0.459   2.888   9.100 -0.7442  0.0144  0.6771
 7509SOL    HW234161   0.329   2.825   9.146 -0.6345 -1.2128 -0.0911
 7510SOL     OW34162   4.653   0.960   6.808 -0.1947  0.3153  0.2183
 7510SOL    HW134163   4.720   0.905   6.847 -1.4702  0.1552  2.2279
 7510SOL    HW234164   4.678   1.045   6.844 -0.0097  0.4847 -0.3201
 7511SOL     OW34165   3.904   1.741  15.253  0.0034  0.2756 -0.1170
 7511SOL    HW134166   3.952   1.697  15.183 -0.6195 -1.5019  0.5765
 7511SOL    HW234167   3.815   1.706  15.244  0.3265 -0.6081  0.1648
 7512SOL     OW34168   2.139   0.819   7.805 -0.3702  0.1326  0.0023
 7512SOL    HW134169   2.187   0.901   7.800 -1.3943  0.7556  0.5278
 7512SOL    HW234170   2.203   0.753   7.777 -1.3042  0.7306 -3.4758
 7513SOL     OW34171   4.407   2.131   8.325 -0.0741 -0.3099  0.4022
 7513SOL    HW134172   4.338   2.157   8.264 -1.0311  0.6395  1.8817
 7513SOL    HW234173   4.479   2.188   8.297 -1.7450  0.5953 -2.0211
 7514SOL     OW34174   0.064   1.193   6.233  0.5050 -0.6146  0.0908
 7514SOL    HW134175   0.131   1.260   6.230  0.9685 -1.0207  1.6154
 7514SOL    HW234176   0.118   1.114   6.243  2.9637  0.5732 -3.7831
 7515SOL     OW34177   1.183   3.529   7.103  0.1054  0.8987  0.2810
 7515SOL    HW134178   1.157   3.437   7.100 -1.9804  1.5766 -1.9331
 7515SOL    HW234179   1.156   3.543   7.194 -0.8102 -0.8293  0.2788
 7516SOL     OW34180   3.186   1.275   6.581  0.4551 -0.5356 -0.5512
 7516SOL    HW134181   3.141   1.354   6.611 -0.1178 -1.2654  0.4964
 7516SOL    HW234182   3.127   1.238   6.515 -0.5591 -0.8029  0.5070
 7517SOL     OW34183   2.700   3.046   8.727 -0.2537 -0.0324  0.5002
 7517SOL    HW134184   2.724   2.984   8.658 -0.7641  0.0016  0.2941
 7517SOL    HW234185   2.668   3.112   8.665  1.6560 -1.0798 -1.5967
 7518SOL     OW34186   2.022   4.051   8.056 -0.1149 -0.4318  0.0961
 7518SOL    HW134187   2.110   4.051   8.094  0.8229  2.2307 -2.0430
 7518SOL    HW234188   2.040   4.089   7.970 -0.8872  0.2164  0.2125
 7519SOL     OW34189   1.520   4.002   5.713 -0.0780  0.4162 -0.0763
 7519SOL    HW134190   1.527   4.091   5.680 -0.6725  0.2322 -0.6964
 7519SOL    HW234191   1.573   4.003   5.793 -1.2756  1.7141  0.7057
 7520SOL     OW34192   4.127   1.107  11.745  0.2483  0.0843 -0.4665
 7520SOL    HW134193   4.144   1.013  11.751 -0.1892  0.2682  3.5340
 7520SOL    HW234194   4.172   1.132  11.825 -1.2752 -1.0471  0.7314
 7521SOL     OW34195   0.035   2.657   9.044 -0.8094  0.2318  0.5638
 7521SOL    HW134196   0.092   2.652   8.967 -1.2704 -0.0429  0.2406
 7521SOL    HW234197   0.056   2.747   9.070  1.6803  0.2249 -1.3720
 7522SOL     OW34198   2.482   2.246  10.880 -0.2443 -0.0443 -0.0047
 7522SOL    HW134199   2.459   2.333  10.911  1.0260  0.9312 -1.7680
 7522SOL    HW234200   2.575   2.246  10.854 -0.5852 -0.6158 -1.2437
 7523SOL     OW34201   3.279   3.624   2.636 -0.4321 -0.8495  0.7221
 7523SOL    HW134202   3.336   3.547   2.643  2.1613  0.9863 -0.3527
 7523SOL    HW234203   3.343   3.684   2.598 -1.9798  0.7038  0.5796
 7524SOL     OW34204   0.168   2.699  17.062 -0.6698  0.8468 -0.3609
 7524SOL    HW134205   0.087   2.674  17.016 -0.8817 -3.2211  2.1998
 7524SOL    HW234206   0.234   2.660  17.005 -1.4906 -0.8819 -0.1504
 7525SOL     OW34207   1.939   2.184   6.522  0.0789 -0.1039  0.0329
 7525SOL    HW134208   1.938   2.106   6.578  0.1985 -0.9624 -1.1679
 7525SOL    HW234209   2.016   2.229   6.557  2.1433 -2.9747 -0.8438
 7526SOL     OW34210   4.486   2.498   5.530  0.4628  0.5581 -0.3752
 7526SOL    HW134211   4.547   2.555   5.577  1.9961 -1.3032 -0.1062
 7526SOL    HW234212   4.414   2.492   5.593  0.2869  1.5804 -0.4726
 7527SOL     OW34213   0.896   2.249   5.459  0.0810 -0.6691 -0.1257
 7527SOL    HW134214   0.975   2.301   5.474 -0.7993  0.2718  1.2319
 7527SOL    HW234215   0.937   2.168   5.429  0.3754 -0.7344  0.4718
 7528SOL     OW34216   1.570   0.655   0.769  0.2377  0.4098 -0.6215
 7528SOL    HW134217   1.535   0.699   0.692 -1.0416  0.2112 -0.1424
 7528SOL    HW234218   1.659   0.687   0.752  1.2657 -2.4624 -0.6558
 7529SOL     OW34219   1.494   4.682  12.612 -0.8098 -0.0252 -0.0443
 7529SOL    HW134220   1.568   4.709  12.558  0.5854  0.3690  2.0433
 7529SOL    HW234221   1.430   4.649  12.549  1.2707 -2.5991 -0.8019
 7530SOL     OW34222   2.772   3.468   4.003  0.5212 -0.1024  0.2535
 7530SOL    HW134223   2.677   3.460   4.013  0.4161  2.4863  1.2140
 7530SOL    HW234224   2.778   3.554   3.961  0.1360  0.0849  0.5839
 7531SOL     OW34225   3.979   3.288   3.674 -0.0347  0.0793  0.0482
 7531SOL    HW134226   3.933   3.366   3.703  0.0031  0.0833  0.0956
 7531SOL    HW234227   3.960   3.284   3.580 -0.6963 -4.6294  0.3590
 7532SOL     OW34228   2.833   4.166   6.353 -0.3648 -0.4303  0.1454
 7532SOL    HW134229   2.902   4.194   6.412 -0.2783 -0.5630  0.1071
 7532SOL    HW234230   2.889   4.105   6.306  0.6094  1.1194 -0.6635
 7533SOL     OW34231   3.670   2.767  10.786  0.2479 -0.3359 -0.0966
 7533SOL    HW134232   3.655   2.804  10.873 -1.3684 -1.6877  0.1764
 7533SOL    HW234233   3.663   2.836  10.720  1.1202 -0.9990 -0.8863
 7534SOL     OW34234   3.127   1.514   6.676 -0.0124 -0.3961  0.1260
 7534SOL    HW134235   3.182   1.534   6.751 -0.9636  0.8754  0.4878
 7534SOL    HW234236   3.083   1.599   6.674  1.4886  0.3523 -1.0207
 7535SOL     OW34237   4.060   4.542   5.980 -0.5457  0.0556 -0.8822
 7535SOL    HW134238   4.092   4.548   5.891  0.2123 -1.7065 -0.7223
 7535SOL    HW234239   3.967   4.523   5.965 -0.8408  1.3391 -0.6823
 7536SOL     OW34240   1.802   3.168   7.803  0.2366 -0.2614 -0.2853
 7536SOL    HW134241   1.746   3.201   7.732  0.1373 -0.5808 -0.3572
 7536SOL    HW234242   1.779   3.239   7.863 -0.7245 -1.0579  0.2907
 7537SOL     OW34243   1.608   3.242   5.760  0.1912  0.5032 -0.0585
 7537SOL    HW134244   1.675   3.177   5.783  1.1651  1.5242 -0.0325
 7537SOL    HW234245   1.533   3.212   5.811  1.1135  1.9698  2.1810
 7538SOL     OW34246   3.745   1.479   8.602  0.7177  0.3502  0.4953
 7538SOL    HW134247   3.794   1.543   8.551 -3.1221  2.7646 -0.1890
 7538SOL    HW234248   3.781   1.397   8.568 -0.9017 -0.1127 -0.1080
 7539SOL     OW34249   4.015   0.189   2.080 -0.1739  0.3282 -0.4333
 7539SOL    HW134250   4.032   0.117   2.141 -1.0952  2.9473  2.9124
 7539SOL    HW234251   4.105   0.211   2.055 -0.2535  1.3567  0.2002
 7540SOL     OW34252   3.670   0.709   5.992 -0.4506  0.0151 -0.4078
 7540SOL    HW134253   3.611   0.717   5.916 -0.7993 -2.4237 -0.3840
 7540SOL    HW234254   3.716   0.629   5.968  0.0390  0.0525  0.4129
 7541SOL     OW34255   3.790   2.312   6.955  0.0799 -0.0618 -0.4143
 7541SOL    HW134256   3.748   2.258   7.022 -0.3494  0.1502 -0.5155
 7541SOL    HW234257   3.732   2.387   6.966 -0.5897 -0.9155  1.7930
 7542SOL     OW34258   3.859   0.869   4.880  0.4455  0.0476 -0.6992
 7542SOL    HW134259   3.880   0.945   4.934  0.7953 -0.7999  0.3555
 7542SOL    HW234260   3.933   0.874   4.820  0.8749 -1.4077 -0.2840
 7543SOL     OW34261   3.769   2.534   3.894 -0.4244  0.2697  0.1066
 7543SOL    HW134262   3.679   2.546   3.861 -0.4545  1.5688  0.6483
 7543SOL    HW234263   3.749   2.456   3.946  0.2693  0.1929  0.2486
 7544SOL     OW34264   4.288   1.107   4.746 -0.0147  0.4818  0.3763
 7544SOL    HW134265   4.214   1.157   4.778 -0.5491  0.8707 -1.4659
 7544SOL    HW234266   4.345   1.105   4.823  0.5268 -2.6558 -0.0866
 7545SOL     OW34267   0.482   3.205   2.383  0.4631 -0.0129 -0.1183
 7545SOL    HW134268   0.445   3.173   2.301  1.5090 -2.3709  0.3115
 7545SOL    HW234269   0.555   3.259   2.353  1.1458 -0.9427 -0.1388
 7546SOL     OW34270   4.248   3.868   1.555  0.0538  0.0316  0.0166
 7546SOL    HW134271   4.257   3.810   1.631  0.3319 -1.3554 -1.0635
 7546SOL    HW234272   4.298   3.811   1.496 -0.0218 -0.6297  0.5938
 7547SOL     OW34273   4.689   0.274   6.168 -0.1000 -0.0351 -0.0312
 7547SOL    HW134274   4.631   0.198   6.179  0.1185 -0.6190 -2.8674
 7547SOL    HW234275   4.669   0.328   6.244  0.7348 -1.0148  0.8804
 7548SOL     OW34276   0.512   3.101  16.587  0.0744 -0.4339  0.1959
 7548SOL    HW134277   0.433   3.049  16.572 -1.3077  1.6385  0.2128
 7548SOL    HW234278   0.557   3.074  16.507  0.8114 -1.1200  0.8501
 7549SOL     OW34279   1.049   4.072   6.878  0.1036  0.5227  0.2421
 7549SOL    HW134280   1.019   3.983   6.861  0.1534  0.5391  0.0708
 7549SOL    HW234281   1.062   4.105   6.789 -1.8799 -2.4173 -1.1442
 7550SOL     OW34282   0.586   4.251   4.993 -0.5072 -0.0521  0.9705
 7550SOL    HW134283   0.637   4.245   5.073 -0.4775 -2.3543  0.7790
 7550SOL    HW234284   0.499   4.263   5.031 -0.8574 -3.3043  1.1494
 7551SOL     OW34285   1.462   4.288  17.266 -0.1116 -0.0738  0.3508
 7551SOL    HW134286   1.446   4.204  17.308  0.2895 -0.3592 -0.0666
 7551SOL    HW234287   1.521   4.332  17.326  0.3510  2.0121 -1.6243
 7552SOL     OW34288   0.536   4.462   2.653  0.4984  0.1744  0.6418
 7552SOL    HW134289   0.506   4.376   2.682 -0.7430  1.2292  2.4864
 7552SOL    HW234290   0.568   4.502   2.733  1.4764  0.3613  0.1529
 7553SOL     OW34291   3.856   3.085   4.920 -0.6947  0.1053  0.0588
 7553SOL    HW134292   3.770   3.126   4.930 -0.3196  0.8627  0.2137
 7553SOL    HW234293   3.873   3.091   4.826  2.5807 -2.4185  0.4947
 7554SOL     OW34294   3.228   4.000   8.839  0.0354 -0.1834  0.1667
 7554SOL    HW134295   3.230   3.924   8.898 -0.0803  1.7292  2.6061
 7554SOL    HW234296   3.152   3.969   8.791 -0.2956  2.0788 -0.7333
 7555SOL     OW34297   0.195   1.011   4.162  0.0032  0.0205  0.0930
 7555SOL    HW134298   0.150   0.941   4.209  2.1945 -1.5789 -0.1669
 7555SOL    HW234299   0.196   0.971   4.075 -0.2528  0.4460 -0.1045
 7556SOL     OW34300   1.546   3.842   7.943  0.4529  0.3399  0.1814
 7556SOL    HW134301   1.509   3.759   7.973  4.0670 -1.5117 -0.4234
 7556SOL    HW234302   1.637   3.812   7.936 -0.0165 -0.6343 -1.5763
 7557SOL     OW34303   1.518   3.577   2.998 -0.4657  0.3966 -0.2452
 7557SOL    HW134304   1.541   3.548   2.910  1.2834 -0.3811  0.4636
 7557SOL    HW234305   1.478   3.661   2.977 -0.8595  0.4611  0.7611
 7558SOL     OW34306   0.344   1.566   4.716 -0.0820  0.1484  0.2373
 7558SOL    HW134307   0.419   1.561   4.775 -1.2311 -0.5674  1.6448
 7558SOL    HW234308   0.310   1.653   4.739 -0.1061  0.5243 -1.2589
 7559SOL     OW34309   3.051   3.038  13.546  0.3251  0.2259  0.1521
 7559SOL    HW134310   3.121   3.018  13.608 -1.4129 -0.8621  1.7271
 7559SOL    HW234311   3.039   3.132  13.560 -1.3478  0.2461 -1.3741
 7560SOL     OW34312   4.173   0.535   0.040  0.3616 -0.3622  0.1519
 7560SOL    HW134313   4.149   0.547  17.696 -1.1736  1.4002  0.7913
 7560SOL    HW234314   4.094   0.540   0.092  0.6235 -1.0761  0.6188
 7561SOL     OW34315   0.035   1.443  15.371 -0.1071 -0.5525 -0.4337
 7561SOL    HW134316   0.061   1.529  15.339  0.5094 -0.5229  0.1558
 7561SOL    HW234317   0.115   1.412  15.413 -0.6175 -0.7596  0.3829
 7562SOL     OW34318   3.739   0.623   4.903  0.2922  0.2933  0.1172
 7562SOL    HW134319   3.786   0.702   4.874  0.9949 -0.1652  0.0076
 7562SOL    HW234320   3.710   0.597   4.816 -0.0161  0.0576  0.2926
 7563SOL     OW34321   2.263   2.366   5.530 -0.2627 -0.1107  0.4648
 7563SOL    HW134322   2.179   2.323   5.546 -0.3963 -0.7631 -1.9635
 7563SOL    HW234323   2.297   2.389   5.616 -0.9499  0.6628  0.5325
 7564SOL     OW34324   3.835   4.482  12.461  0.3059 -0.2480  0.3136
 7564SOL    HW134325   3.872   4.499  12.548  0.6349 -0.5635  0.2364
 7564SOL    HW234326   3.812   4.389  12.471 -2.2797  0.3199 -0.2602
 7565SOL     OW34327   0.282   1.809  17.438 -0.5076  0.5621  0.5610
 7565SOL    HW134328   0.284   1.900  17.470 -1.7647  1.5810 -2.2478
 7565SOL    HW234329   0.192   1.780  17.454 -1.7063  3.4370 -0.9138
 7566SOL     OW34330   3.023   3.289   4.901 -0.4905 -0.4140  0.1464
 7566SOL    HW134331   3.046   3.283   4.994 -1.9097  1.5744  0.6096
 7566SOL    HW234332   2.945   3.343   4.907 -1.1751 -1.3825  0.0922
 7567SOL     OW34333   0.266   1.234  15.107 -0.3499 -0.3506 -0.2508
 7567SOL    HW134334   0.289   1.259  15.197  0.3216  1.4403 -0.9335
 7567SOL    HW234335   0.173   1.213  15.113  0.3174 -3.2028  0.5822
 7568SOL     OW34336   3.878   4.179   0.544 -0.0852  0.2255  0.1739
 7568SOL    HW134337   3.907   4.248   0.604  1.4201 -0.3978  0.1705
 7568SOL    HW234338   3.964   4.149   0.515 -0.3557  0.8257 -1.2399
 7569SOL     OW34339   0.313   3.417   3.151  0.6007 -0.2359 -0.3424
 7569SOL    HW134340   0.371   3.445   3.080 -1.5799 -1.0081 -2.4217
 7569SOL    HW234341   0.343   3.326   3.154  1.0931 -0.0278  1.2860
 7570SOL     OW34342   0.518   4.067   2.362  0.1725 -0.5211  0.3257
 7570SOL    HW134343   0.449   4.030   2.417 -2.1331  2.7615 -0.4231
 7570SOL    HW234344   0.559   3.987   2.328  1.3587  1.3391 -2.5920
 7571SOL     OW34345   4.207   2.405  16.277  0.0344  0.4552  0.0838
 7571SOL    HW134346   4.207   2.410  16.182  0.8682  0.8106  0.0974
 7571SOL    HW234347   4.249   2.319  16.282  1.4824  1.1885  0.6117
 7572SOL     OW34348   1.851   1.118   1.512  0.4676  0.1467  0.1195
 7572SOL    HW134349   1.819   1.167   1.436 -0.7754 -0.9947 -0.0971
 7572SOL    HW234350   1.944   1.103   1.495  0.5417  2.2260 -1.2480
 7573SOL     OW34351   3.835   1.441   2.780  0.1828 -0.7751 -0.2116
 7573SOL    HW134352   3.779   1.382   2.730 -2.2973  1.4119  0.0139
 7573SOL    HW234353   3.809   1.525   2.742 -1.9755 -0.9063  0.9452
 7574SOL     OW34354   2.194   1.925   6.274 -0.2240  0.0916 -0.3719
 7574SOL    HW134355   2.236   1.965   6.350 -1.9348 -1.4181  1.3554
 7574SOL    HW234356   2.269   1.876   6.240 -0.7447 -0.7794 -0.2703
 7575SOL     OW34357   2.631   4.536   7.870 -0.1244  0.0297 -1.3021
 7575SOL    HW134358   2.660   4.585   7.948  0.1104 -0.4058 -1.1176
 7575SOL    HW234359   2.639   4.602   7.801 -1.7828 -0.4164 -1.9263
 7576SOL     OW34360   1.785   3.119  10.639  0.1697  0.0109 -0.0179
 7576SOL    HW134361   1.816   3.166  10.561  0.1504  2.7571  1.6387
 7576SOL    HW234362   1.775   3.031  10.603 -3.9797  1.1233 -1.5261
 7577SOL     OW34363   3.004   1.522   2.721 -0.0163  0.2028 -0.0618
 7577SOL    HW134364   3.003   1.494   2.629  0.8174 -0.7045  0.2046
 7577SOL    HW234365   2.911   1.528   2.743 -0.7490 -0.5744 -2.8889
 7578SOL     OW34366   4.047   2.924   2.147 -0.0417  0.3999 -0.5370
 7578SOL    HW134367   3.977   2.930   2.212  0.6333 -0.3883  0.2805
 7578SOL    HW234368   4.010   2.881   2.070 -0.3097  0.9141 -0.6870
 7579SOL     OW34369   3.951   2.727   2.447 -0.0915 -0.0473 -0.0733
 7579SOL    HW134370   4.040   2.726   2.411 -0.6740  3.6821 -1.7005
 7579SOL    HW234371   3.953   2.649   2.501 -1.3207 -0.4033 -0.5586
 7580SOL     OW34372   4.217   0.265  10.738 -0.2798 -0.4123  0.5731
 7580SOL    HW134373   4.233   0.359  10.735  3.8536 -1.1850 -0.9641
 7580SOL    HW234374   4.122   0.260  10.751  0.0320  0.0617  3.0079
 7581SOL     OW34375   2.511   2.466   1.814 -0.1305  0.6492 -0.0423
 7581SOL    HW134376   2.547   2.456   1.902  0.8107  0.3845 -0.4583
 7581SOL    HW234377   2.428   2.501   1.847  0.0129  0.0032  1.0002
 7582SOL     OW34378   0.654   0.369   5.912 -0.2383  0.4899  0.2292
 7582SOL    HW134379   0.613   0.293   5.871  0.2937 -0.1439  0.8575
 7582SOL    HW234380   0.690   0.326   5.990 -0.9830  0.3455  0.4993
 7583SOL     OW34381   3.773   2.060   6.763 -0.5666 -0.1834 -0.5664
 7583SOL    HW134382   3.753   2.007   6.840 -1.9630 -0.2090 -0.9536
 7583SOL    HW234383   3.789   2.140   6.813 -0.6166  0.5310 -1.6878
 7584SOL     OW34384   0.712   0.199   4.900  0.1477 -0.5139 -0.2811
 7584SOL    HW134385   0.723   0.165   4.811  0.9241 -2.9979  0.7389
 7584SOL    HW234386   0.634   0.154   4.933  0.3320 -0.1529  0.6662
 7585SOL     OW34387   0.228   0.527  10.068 -0.3097  0.5300 -0.0781
 7585SOL    HW134388   0.188   0.563   9.990  0.2625 -1.0187 -1.0916
 7585SOL    HW234389   0.265   0.606  10.109  0.0244  0.3458 -0.0222
 7586SOL     OW34390   3.760   3.014   8.498  0.4464 -0.4397  0.2451
 7586SOL    HW134391   3.812   3.082   8.540  0.2145 -0.5532  0.7139
 7586SOL    HW234392   3.832   2.975   8.448  1.1825  0.6569  0.4490
 7587SOL     OW34393   1.339   4.021   1.675 -0.7193  0.1303 -0.5072
 7587SOL    HW134394   1.351   4.073   1.754 -0.3712 -1.5554  0.5559
 7587SOL    HW234395   1.302   3.936   1.700  0.1411 -0.7202 -2.0926
 7588SOL     OW34396   2.094   4.427   7.118 -0.1475 -0.6823  0.9630
 7588SOL    HW134397   2.127   4.341   7.089 -0.9280 -1.1180  1.3597
 7588SOL    HW234398   2.179   4.471   7.108 -0.0765 -1.3659 -1.7087
 7589SOL     OW34399   2.228   3.661   7.665 -0.6397 -0.1416 -0.2560
 7589SOL    HW134400   2.188   3.577   7.688 -0.8538 -0.2491 -1.0224
 7589SOL    HW234401   2.197   3.717   7.736  0.1292  0.2169 -0.2073
 7590SOL     OW34402   3.923   1.668  10.001  0.0683  0.0463  0.4944
 7590SOL    HW134403   3.966   1.752  10.019  1.6520 -0.2511 -2.0021
 7590SOL    HW234404   3.832   1.692  10.022 -0.3554 -2.5252  1.5939
 7591SOL     OW34405   1.548   4.446  11.449 -0.2224 -0.3450  0.5958
 7591SOL    HW134406   1.576   4.518  11.505 -1.2694  0.7559 -0.2876
 7591SOL    HW234407   1.612   4.439  11.378 -1.5698 -0.3881 -0.6027
 7592SOL     OW34408   0.383   2.747  11.032 -0.0044  0.4663 -0.9065
 7592SOL    HW134409   0.347   2.672  11.078  0.1585  1.2114  0.4325
 7592SOL    HW234410   0.338   2.824  11.066  0.2509  1.0925 -1.9835
 7593SOL     OW34411   2.020   0.651  15.106  0.0804 -0.7200  0.1027
 7593SOL    HW134412   1.998   0.569  15.062  2.4987 -1.8681  1.0358
 7593SOL    HW234413   2.106   0.671  15.069  0.6467 -0.6905  1.4190
 7594SOL     OW34414   2.914   1.937   3.777 -0.2037 -0.1330 -1.0966
 7594SOL    HW134415   2.853   1.985   3.721 -0.1716  2.2467  0.9262
 7594SOL    HW234416   2.990   1.906   3.727  0.7931  0.0696  0.3003
 7595SOL     OW34417   1.261   0.824   5.864 -0.1782  0.1487  0.1296
 7595SOL    HW134418   1.342   0.779   5.889  1.0001  2.1368 -0.0841
 7595SOL    HW234419   1.199   0.752   5.855  0.0721  0.1541 -1.6105
 7596SOL     OW34420   1.056   0.950   7.192  0.2530  0.1720  0.3696
 7596SOL    HW134421   1.046   0.967   7.098  0.8554  1.3562  0.5221
 7596SOL    HW234422   0.969   0.957   7.232 -0.3016 -2.8231 -0.2825
 7597SOL     OW34423   2.502   0.493   7.306  0.0986  0.6784  0.1336
 7597SOL    HW134424   2.577   0.480   7.247 -0.4448 -2.0218  0.0591
 7597SOL    HW234425   2.459   0.567   7.264  1.0097  0.4116 -1.2818
 7598SOL     OW34426   2.536   1.514   3.180  0.7332 -0.0296 -0.1971
 7598SOL    HW134427   2.460   1.538   3.128 -0.3343 -2.5686  0.2099
 7598SOL    HW234428   2.565   1.439   3.127 -0.0353 -0.7137  0.3512
 7599SOL     OW34429   4.546   0.776   9.293  0.0313  0.1139  0.7268
 7599SOL    HW134430   4.461   0.780   9.249  0.1043  1.7758  0.7093
 7599SOL    HW234431   4.537   0.863   9.332  0.7376  1.0291 -1.1032
 7600SOL     OW34432   0.372   1.289  11.595  0.3940 -0.2032 -0.3781
 7600SOL    HW134433   0.443   1.237  11.557  0.9773  1.9252 -2.2324
 7600SOL    HW234434   0.300   1.294  11.533 -0.8671 -1.8346  0.9705
 7601SOL     OW34435   2.992   4.363   8.035  0.0110  0.6592  0.1387
 7601SOL    HW134436   2.970   4.389   8.124 -0.3495 -1.8769  0.7722
 7601SOL    HW234437   3.051   4.436   8.013 -0.9482  1.1229 -0.9242
 7602SOL     OW34438   0.277   0.526   1.725  0.2943  0.1746  0.0673
 7602SOL    HW134439   0.245   0.463   1.789 -2.9777  1.8136  0.0193
 7602SOL    HW234440   0.319   0.464   1.665 -1.6237 -1.2701  0.2162
 7603SOL     OW34441   3.196   2.997  13.151  0.0254  0.2866 -0.0207
 7603SOL    HW134442   3.250   3.010  13.229  1.2490  2.5323 -1.2472
 7603SOL    HW234443   3.109   2.992  13.189 -0.2898 -2.3451 -1.1031
 7604SOL     OW34444   3.120   0.188  16.709  0.7742  0.2346 -0.1031
 7604SOL    HW134445   3.186   0.140  16.758  1.2766  1.0454  0.0104
 7604SOL    HW234446   3.135   0.166  16.617  0.9271  0.6526 -0.1797
 7605SOL     OW34447   3.848   2.540   4.749  0.2618  0.4320 -0.0171
 7605SOL    HW134448   3.863   2.628   4.784  2.5436 -0.9061  2.3840
 7605SOL    HW234449   3.762   2.525   4.786  0.7873 -1.2887  0.5083
 7606SOL     OW34450   1.667   3.375   7.334 -0.6789  0.2237 -0.0302
 7606SOL    HW134451   1.711   3.433   7.272  1.4620 -1.7102 -0.3351
 7606SOL    HW234452   1.663   3.435   7.409 -2.5228  1.3375 -1.0129
 7607SOL     OW34453   1.379   1.684  15.445  0.8323 -0.4108 -0.4696
 7607SOL    HW134454   1.394   1.676  15.351 -3.0828  0.2310 -1.1218
 7607SOL    HW234455   1.421   1.764  15.476 -0.7479 -0.2256  1.1889
 7608SOL     OW34456   1.598   1.124   1.897  0.4117 -0.1033 -0.1808
 7608SOL    HW134457   1.516   1.074   1.891  0.3969 -0.0652 -0.2953
 7608SOL    HW234458   1.577   1.194   1.957 -1.6191 -0.1913 -0.7971
 7609SOL     OW34459   1.616   1.879   6.151  0.5552 -0.3165 -0.3080
 7609SOL    HW134460   1.524   1.906   6.144  0.8578  1.7866  3.7357
 7609SOL    HW234461   1.646   1.940   6.219 -0.7307 -0.2645  0.2063
 7610SOL     OW34462   3.326   1.190   5.814  0.3556  0.7507  0.2223
 7610SOL    HW134463   3.231   1.192   5.797  0.9487 -0.2632 -3.2317
 7610SOL    HW234464   3.328   1.144   5.898 -1.8939 -1.2608 -0.7975
 7611SOL     OW34465   1.540   3.109   6.977  0.5110  0.0665 -0.4390
 7611SOL    HW134466   1.568   3.064   6.897 -1.8904 -0.3139 -1.0670
 7611SOL    HW234467   1.482   3.179   6.949  0.8184  0.0727 -1.0755
 7612SOL     OW34468   0.869   3.110   8.917 -0.1651 -0.5335  0.1952
 7612SOL    HW134469   0.929   3.176   8.883  1.0985 -0.6801  2.1262
 7612SOL    HW234470   0.898   3.024   8.888 -0.6043 -0.0433 -1.6800
 7613SOL     OW34471   3.102   2.620  16.606 -0.4102 -0.6076 -0.7339
 7613SOL    HW134472   3.085   2.630  16.513  0.4863 -0.6594 -0.9038
 7613SOL    HW234473   3.025   2.661  16.645 -0.4076 -1.5137  0.2284
 7614SOL     OW34474   3.104   4.716   5.239 -0.5469  0.3659  0.3218
 7614SOL    HW134475   3.044   4.666   5.294 -0.5420  0.7808  0.6965
 7614SOL    HW234476   3.188   4.676   5.261 -0.6464  0.7216  1.3160
 7615SOL     OW34477   2.615   0.970   7.448  0.3121  0.0084  0.1896
 7615SOL    HW134478   2.641   1.050   7.494 -1.1940  0.5927  0.0237
 7615SOL    HW234479   2.701   0.930   7.429 -0.4657 -1.6043  0.0408
 7616SOL     OW34480   3.526   0.456   8.260  0.3489 -0.2947 -0.1775
 7616SOL    HW134481   3.433   0.433   8.270  0.5230 -0.8968  0.0926
 7616SOL    HW234482   3.535   0.541   8.304 -0.2734 -0.3933  0.1536
 7617SOL     OW34483   0.887   3.056  15.198  0.5945 -0.1988  0.6576
 7617SOL    HW134484   0.814   3.033  15.141  0.4751 -2.6200  1.8213
 7617SOL    HW234485   0.899   2.983  15.259  1.3382 -2.6224 -2.3922
 7618SOL     OW34486   4.294   4.431   0.846 -0.3013 -0.1274  0.1124
 7618SOL    HW134487   4.253   4.383   0.774  0.2200 -0.3149 -0.0594
 7618SOL    HW234488   4.304   4.371   0.919  2.0281 -0.0232 -0.1383
 7619SOL     OW34489   2.976   2.836   7.133  0.1823 -0.3561  0.2962
 7619SOL    HW134490   3.020   2.769   7.185 -1.9406 -0.9976  1.2859
 7619SOL    HW234491   2.926   2.885   7.199 -0.6599 -1.4179  0.4492
 7620SOL     OW34492   1.948   3.191  15.956  0.4645  0.0432  0.2161
 7620SOL    HW134493   1.889   3.216  16.027  0.4884  1.2749 -0.1931
 7620SOL    HW234494   1.916   3.239  15.879 -1.5937 -0.5076  0.7366
 7621SOL     OW34495   3.828   1.962  16.909  0.2574  0.3115 -0.2089
 7621SOL    HW134496   3.865   1.960  16.998 -0.0795  1.7913 -0.0281
 7621SOL    HW234497   3.783   1.879  16.920  2.2761 -0.5504  1.4904
 7622SOL     OW34498   4.048   0.609  10.490 -0.1102  0.3537  0.1430
 7622SOL    HW134499   3.991   0.598  10.414  0.5409 -2.1499  0.0230
 7622SOL    HW234500   4.103   0.532  10.480  0.3756  1.0279 -2.5286
 7623SOL     OW34501   1.931   2.470   9.167  0.2229 -0.3391 -0.1399
 7623SOL    HW134502   1.912   2.562   9.151 -0.7558 -0.5080  0.0543
 7623SOL    HW234503   1.860   2.441   9.224  1.1660  0.2857  1.3497
 7624SOL     OW34504   1.781   2.104   5.189 -0.6539  0.1377 -0.0657
 7624SOL    HW134505   1.780   2.200   5.191 -0.0967  0.2224 -4.6766
 7624SOL    HW234506   1.748   2.094   5.100 -2.2515 -1.9733  0.7374
 7625SOL     OW34507   2.484   4.293   5.456  0.1189 -0.3607  0.6759
 7625SOL    HW134508   2.420   4.264   5.391  1.6844  0.9002 -1.4111
 7625SOL    HW234509   2.472   4.239   5.534  1.5776 -0.6587  0.6961
 7626SOL     OW34510   4.411   1.152  17.077  0.4437  0.0037 -0.2046
 7626SOL    HW134511   4.332   1.204  17.067  1.1075  0.6791 -1.8514
 7626SOL    HW234512   4.470   1.214  17.034 -0.4326  1.1850  0.2996
 7627SOL     OW34513   4.381   1.946   7.548 -0.1623  0.1434  0.2929
 7627SOL    HW134514   4.325   1.987   7.482 -1.3529  0.6734  1.6359
 7627SOL    HW234515   4.428   1.881   7.497 -0.6298  0.5276 -0.6360
 7628SOL     OW34516   4.553   0.971   9.956  0.7624  0.3417  0.0622
 7628SOL    HW134517   4.480   0.971  10.018  0.9578 -0.9689  0.2953
 7628SOL    HW234518   4.541   0.907   9.885 -2.9441 -2.4206  3.1536
 7629SOL     OW34519   2.303   4.439   8.760 -0.0394 -0.6298 -0.0606
 7629SOL    HW134520   2.274   4.462   8.848  1.3286  3.4813 -0.7262
 7629SOL    HW234521   2.235   4.488   8.714  1.5912  0.3332 -1.4237
 7630SOL     OW34522   2.233   0.065  12.894  0.4974  0.2855 -0.4541
 7630SOL    HW134523   2.304   0.031  12.840  1.3635  1.3220  0.0238
 7630SOL    HW234524   2.197   4.721  12.932 -1.4937  1.5721  0.4150
 7631SOL     OW34525   1.070   3.967   6.367  0.1430  0.3187 -0.2705
 7631SOL    HW134526   1.147   3.927   6.327  0.9020  2.3588 -0.8396
 7631SOL    HW234527   0.994   3.930   6.323 -1.0931  3.1938 -0.5374
 7632SOL     OW34528   4.649   1.038   3.512  0.1211  0.1275  0.3941
 7632SOL    HW134529   4.652   1.060   3.606 -0.6755  1.0612  0.2041
 7632SOL    HW234530   4.699   1.112   3.478 -0.8449  0.4195 -0.3948
 7633SOL     OW34531   2.966   1.708  11.160 -0.0894  0.2849 -0.2206
 7633SOL    HW134532   2.920   1.624  11.154 -2.5200  1.4934  1.6368
 7633SOL    HW234533   3.005   1.696  11.073 -0.0482  3.2109 -0.5824
 7634SOL     OW34534   3.816   3.130   8.112 -0.6632  0.6267  0.1199
 7634SOL    HW134535   3.826   3.071   8.038 -0.5603 -1.2969  1.6638
 7634SOL    HW234536   3.856   3.211   8.079  1.1342 -0.3025  0.0370
 7635SOL     OW34537   2.376   3.112   2.539 -0.2100 -0.1507 -0.0996
 7635SOL    HW134538   2.367   3.142   2.448 -0.2420  0.1116 -0.0093
 7635SOL    HW234539   2.289   3.120   2.578 -0.0125  2.4655 -0.2206
 7636SOL     OW34540   1.594   1.955   3.378  0.1792 -0.1744 -0.7520
 7636SOL    HW134541   1.638   1.879   3.417 -1.2475  0.1928  1.6200
 7636SOL    HW234542   1.533   1.974   3.449  1.8790  2.2671  0.0357
 7637SOL     OW34543   3.762   2.526   6.422  0.3108 -0.7972 -0.2826
 7637SOL    HW134544   3.733   2.616   6.402 -0.4952 -0.9791  0.0434
 7637SOL    HW234545   3.773   2.492   6.333 -0.7237 -5.1277  1.2525
 7638SOL     OW34546   1.240   0.135   0.897 -0.0523 -0.1167 -0.0761
 7638SOL    HW134547   1.267   0.220   0.861  2.3365 -0.0246  2.0364
 7638SOL    HW234548   1.145   0.145   0.891 -0.0235  0.7599  1.0035
 7639SOL     OW34549   3.265   0.718   8.151 -0.1498 -0.0611 -0.0055
 7639SOL    HW134550   3.355   0.700   8.125  0.1713  2.3666 -0.5054
 7639SOL    HW234551   3.238   0.789   8.093  1.9100 -0.7055 -1.7502
 7640SOL     OW34552   0.226   1.240   3.721 -0.1769 -0.0335  0.3402
 7640SOL    HW134553   0.139   1.254   3.683 -0.7564 -1.5798  1.0640
 7640SOL    HW234554   0.278   1.258   3.643  0.0046  4.1125  1.4194
 7641SOL     OW34555   1.770   1.035   3.409  0.3478  0.0572  0.3803
 7641SOL    HW134556   1.704   1.098   3.379  1.9875  0.9174 -1.3937
 7641SOL    HW234557   1.850   1.068   3.367 -0.8151 -1.2407 -2.8506
 7642SOL     OW34558   3.300   0.577   3.491 -0.0664 -0.1407  0.1354
 7642SOL    HW134559   3.326   0.487   3.471 -0.0210 -0.2571  0.7126
 7642SOL    HW234560   3.236   0.560   3.560  0.7114  0.4723  0.9960
 7643SOL     OW34561   1.269   4.124   8.017 -0.0250  0.1015  0.4026
 7643SOL    HW134562   1.217   4.109   8.096  2.0946 -3.0264  1.2080
 7643SOL    HW234563   1.194   4.105   7.961  0.8908 -1.1088 -0.4184
 7644SOL     OW34564   2.206   1.741  17.721 -0.9028  0.1006 -0.0033
 7644SOL    HW134565   2.112   1.746  17.736 -0.5547  2.0454  1.6158
 7644SOL    HW234566   2.237   1.786   0.052  0.7628 -1.1349  0.0522
 7645SOL     OW34567   3.608   1.923   5.748  0.3453  0.0469 -0.2083
 7645SOL    HW134568   3.569   1.858   5.807  2.3120  1.5042  2.6882
 7645SOL    HW234569   3.678   1.959   5.803 -3.2215  0.6722  3.8920
 7646SOL     OW34570   3.336   1.701   0.608  0.0404 -0.2877  0.5349
 7646SOL    HW134571   3.324   1.681   0.701 -0.6881  2.8271  1.1144
 7646SOL    HW234572   3.426   1.670   0.607  0.4473  0.9682 -0.7579
 7647SOL     OW34573   3.768   3.449   6.252 -0.0919  0.2389  0.2780
 7647SOL    HW134574   3.717   3.369   6.237 -3.6015  2.7069 -0.8658
 7647SOL    HW234575   3.766   3.448   6.347  0.3591 -2.0160  0.2611
 7648SOL     OW34576   1.008   2.919   5.914 -0.1510  0.6665  0.0818
 7648SOL    HW134577   0.967   2.907   5.999 -0.5637  0.2577 -0.1765
 7648SOL    HW234578   0.928   2.909   5.862  0.6757 -0.5433 -0.9322
 7649SOL     OW34579   2.990   1.493  12.926  0.4935 -0.0520  0.3417
 7649SOL    HW134580   3.073   1.446  12.920  0.6077  0.6066 -3.4025
 7649SOL    HW234581   2.981   1.510  13.020  2.1324  0.1901  0.4491
 7650SOL     OW34582   2.697   1.518   8.562  0.1369 -0.3216  0.8159
 7650SOL    HW134583   2.712   1.519   8.656  0.6204  0.9132  0.7313
 7650SOL    HW234584   2.765   1.458   8.532  1.0460  0.0552  2.1156
 7651SOL     OW34585   2.640   0.251   5.688  1.0609 -0.3737 -0.4942
 7651SOL    HW134586   2.712   0.251   5.625  0.5283 -1.1032 -1.0973
 7651SOL    HW234587   2.631   0.346   5.702 -1.0115 -0.5566 -0.5739
 7652SOL     OW34588   3.391   1.283   8.930  0.0763 -0.3832 -0.2335
 7652SOL    HW134589   3.402   1.369   8.889 -0.8733 -0.6313 -1.0012
 7652SOL    HW234590   3.484   1.261   8.939  0.2106 -0.5020 -1.9001
 7653SOL     OW34591   0.649   1.260  12.970 -0.0343  0.2294  0.2293
 7653SOL    HW134592   0.739   1.279  12.996 -1.0219  1.4847  2.8152
 7653SOL    HW234593   0.660   1.185  12.912  1.5726  0.3815  0.3347
 7654SOL     OW34594   1.903   0.296   2.548  0.3093  0.2008  0.0057
 7654SOL    HW134595   1.937   0.385   2.539  0.2622  0.3391  1.1937
 7654SOL    HW234596   1.809   0.314   2.536  0.0769 -1.5117 -0.6574
 7655SOL     OW34597   2.645   3.790   0.914 -0.0705 -0.0547  0.0498
 7655SOL    HW134598   2.589   3.867   0.928 -1.1800 -0.7089 -0.7602
 7655SOL    HW234599   2.587   3.730   0.867  0.2678 -0.9503  0.7745
 7656SOL     OW34600   0.455   4.641   9.234  0.4315  0.2920  0.9092
 7656SOL    HW134601   0.517   4.581   9.192 -0.8172 -1.5104  1.6527
 7656SOL    HW234602   0.392   4.656   9.162  1.3940 -1.2670 -0.2627
 7657SOL     OW34603   0.143   4.712   1.672  0.1292 -0.4168 -0.4178
 7657SOL    HW134604   0.054   4.682   1.657 -0.3786  0.1733  1.4563
 7657SOL    HW234605   0.154   0.032   1.596  1.1301  1.7412  1.3442
 7658SOL     OW34606   2.986   3.849  17.601  0.2855 -0.5241 -0.3178
 7658SOL    HW134607   2.919   3.793  17.561 -1.6844  0.3720  1.7026
 7658SOL    HW234608   2.977   3.831  17.694  0.5994  0.8370 -0.0263
 7659SOL     OW34609   3.192   3.417   9.341 -0.4295 -0.5142 -0.0432
 7659SOL    HW134610   3.143   3.483   9.390  1.0214  0.8108 -0.3760
 7659SOL    HW234611   3.154   3.332   9.366  0.2422 -0.8397 -0.1261
 7660SOL     OW34612   2.602   2.082   3.976  0.1909  0.0540 -0.6060
 7660SOL    HW134613   2.517   2.105   3.939  0.6472  0.1935 -1.5773
 7660SOL    HW234614   2.621   2.143   4.047 -2.7072  1.0757 -0.7018
 7661SOL     OW34615   4.364   1.678   0.720 -0.8398 -0.7904 -0.7018
 7661SOL    HW134616   4.272   1.663   0.740 -0.1766 -2.1371  1.3282
 7661SOL    HW234617   4.358   1.745   0.651 -3.9811 -1.5115 -1.1167
 7662SOL     OW34618   1.464   2.407   1.743  0.1447 -0.0626  0.3595
 7662SOL    HW134619   1.494   2.360   1.665 -0.7122  0.3639 -0.2265
 7662SOL    HW234620   1.530   2.410   1.813 -1.3801 -0.2603  1.8179
 7663SOL     OW34621   2.979   4.018   7.645  0.2441 -0.1585 -0.5789
 7663SOL    HW134622   2.898   4.007   7.596  0.8268  1.7566 -1.9656
 7663SOL    HW234623   2.964   4.095   7.700 -1.1142 -1.2489  0.5519
 7664SOL     OW34624   3.927   4.356   6.236  0.5096  0.9037 -0.0297
 7664SOL    HW134625   3.869   4.281   6.246 -0.7474  1.5558 -2.3948
 7664SOL    HW234626   3.871   4.428   6.204 -0.8513  1.0880  2.7195
 7665SOL     OW34627   0.492   2.498   8.830  0.2624 -0.4012 -0.4209
 7665SOL    HW134628   0.468   2.580   8.874  0.0138 -1.2751  1.1037
 7665SOL    HW234629   0.489   2.528   8.739 -0.9394 -2.9501 -1.2318
 7666SOL     OW34630   1.123   2.481   0.878  0.3105  0.4626  0.2449
 7666SOL    HW134631   1.144   2.546   0.811 -1.1693 -0.0508 -0.6997
 7666SOL    HW234632   1.144   2.529   0.959  0.6740  0.1055  0.3608
 7667SOL     OW34633   2.655   1.514  10.913  0.0279  0.0715  0.1552
 7667SOL    HW134634   2.576   1.511  10.859  0.0898  1.8569 -0.0231
 7667SOL    HW234635   2.721   1.476  10.855 -2.4984  0.8643 -3.2393
 7668SOL     OW34636   3.629   2.820  14.131 -0.6261  0.0877  0.4771
 7668SOL    HW134637   3.539   2.788  14.142 -0.3328 -0.5117  1.1287
 7668SOL    HW234638   3.670   2.783  14.210  0.0306 -1.2393 -0.4883
 7669SOL     OW34639   0.729   4.316   5.260  0.4477 -0.1358 -0.3995
 7669SOL    HW134640   0.816   4.312   5.220  0.8527 -2.4162  0.6746
 7669SOL    HW234641   0.733   4.397   5.310  1.2977  0.3889 -1.3210
 7670SOL     OW34642   0.082   0.333  15.209  0.1898 -0.1275 -0.4398
 7670SOL    HW134643   0.013   0.267  15.204  0.8970 -0.7625 -1.8501
 7670SOL    HW234644   0.044   0.391  15.275  0.0845  0.1861 -0.7718
 7671SOL     OW34645   1.888   3.807   7.489  0.2790 -0.1188  0.5932
 7671SOL    HW134646   1.929   3.723   7.468 -2.1099 -1.0881 -0.1576
 7671SOL    HW234647   1.798   3.794   7.459  1.1534 -1.7805 -1.2855
 7672SOL     OW34648   3.317   0.272   2.714 -0.4356 -0.1206 -0.2540
 7672SOL    HW134649   3.391   0.237   2.764  0.8177 -0.6939 -2.5169
 7672SOL    HW234650   3.285   0.334   2.779 -2.1027 -0.9360 -0.2878
 7673SOL     OW34651   1.394   0.517  13.120  0.0930 -0.2442  0.1940
 7673SOL    HW134652   1.358   0.605  13.106  3.0900  1.0214  0.3517
 7673SOL    HW234653   1.390   0.476  13.033  1.4085 -0.6403  0.3093
 7674SOL     OW34654   1.839   2.236  17.080  0.0132  0.1060  0.2211
 7674SOL    HW134655   1.851   2.242  16.985 -1.9400  1.3391  0.0466
 7674SOL    HW234656   1.800   2.319  17.108 -0.9037  0.2691 -1.5334
 7675SOL     OW34657   3.095   2.246   7.617  0.0616 -0.4202  0.2341
 7675SOL    HW134658   3.134   2.185   7.681  0.3163 -0.5556 -0.0519
 7675SOL    HW234659   3.020   2.276   7.668 -0.7824  1.1302 -1.9586
 7676SOL     OW34660   3.056   2.460  13.573  0.0849 -0.1337  0.0713
 7676SOL    HW134661   3.097   2.526  13.518 -0.8053 -1.1512 -1.8051
 7676SOL    HW234662   3.033   2.397  13.505  1.3358 -0.5620  0.0397
 7677SOL     OW34663   1.879   0.613   1.913  0.1101  0.2965  0.1310
 7677SOL    HW134664   1.917   0.568   1.838 -2.7757 -1.4826 -0.2639
 7677SOL    HW234665   1.953   0.656   1.955 -0.6643  1.3638  0.4056
 7678SOL     OW34666   2.265   1.621  17.161  0.3779 -0.1790 -0.1231
 7678SOL    HW134667   2.190   1.670  17.194 -1.9402 -3.4398 -0.4532
 7678SOL    HW234668   2.311   1.623  17.245  0.4119 -1.0670 -0.1200
 7679SOL     OW34669   4.232   1.147   8.758  0.1142  0.1639  0.6267
 7679SOL    HW134670   4.158   1.097   8.792 -0.0956 -0.6684 -1.0820
 7679SOL    HW234671   4.249   1.207   8.831 -1.2121 -1.4758  2.2814
 7680SOL     OW34672   0.438   3.077   4.608  0.5875 -0.4687 -0.9626
 7680SOL    HW134673   0.501   3.133   4.652 -2.1160  1.4566  0.4291
 7680SOL    HW234674   0.453   3.102   4.517 -1.1380  2.3085 -0.4768
 7681SOL     OW34675   1.955   3.579   3.298 -0.2800 -0.3536  0.2885
 7681SOL    HW134676   1.892   3.617   3.358 -0.2798  1.0191 -0.5847
 7681SOL    HW234677   2.008   3.532   3.363  0.5875 -0.5184 -0.5332
 7682SOL     OW34678   0.965   0.490   6.073 -0.5254 -0.6248  0.2169
 7682SOL    HW134679   1.023   0.415   6.085 -1.5511 -0.7195  4.5888
 7682SOL    HW234680   0.942   0.488   5.980 -2.7843  0.3763  0.7473
 7683SOL     OW34681   3.206   3.501  13.321 -0.2392  0.6122 -0.7173
 7683SOL    HW134682   3.116   3.533  13.318  0.3286  2.1500 -1.0907
 7683SOL    HW234683   3.244   3.552  13.250  0.1676  1.4130  0.0696
 7684SOL     OW34684   0.631   1.854   7.237 -0.1892 -0.1791 -0.4880
 7684SOL    HW134685   0.713   1.857   7.287 -1.2385  0.4428  1.2222
 7684SOL    HW234686   0.598   1.769   7.265 -0.8564 -0.2647 -1.5520
 7685SOL     OW34687   0.690   4.435  10.562 -0.3734  0.3020  0.2487
 7685SOL    HW134688   0.722   4.390  10.484 -0.0471 -1.3191  1.3232
 7685SOL    HW234689   0.728   4.385  10.633  0.2225  1.3662  0.6713
 7686SOL     OW34690   0.601   1.861   0.619 -0.0204 -0.6014 -0.2970
 7686SOL    HW134691   0.520   1.820   0.590 -0.0226 -1.6989  1.2510
 7686SOL    HW234692   0.567   1.898   0.701 -0.0096 -1.1187 -0.0619
 7687SOL     OW34693   0.268   2.857  14.559  0.4680 -0.7540 -0.5717
 7687SOL    HW134694   0.307   2.788  14.505 -1.3908 -1.5713 -0.8793
 7687SOL    HW234695   0.202   2.889  14.497 -0.6909  1.0543  1.6023
 7688SOL     OW34696   3.640   1.145   3.804  0.1265  0.2195 -0.0678
 7688SOL    HW134697   3.577   1.206   3.843 -0.8027  0.6632 -2.2987
 7688SOL    HW234698   3.623   1.057   3.836  1.3784 -0.2030 -0.5708
 7689SOL     OW34699   1.044   2.687   1.845 -0.1098  0.5008 -0.0358
 7689SOL    HW134700   0.972   2.681   1.782 -0.2621 -1.1120  0.2803
 7689SOL    HW234701   1.059   2.596   1.871  0.3072  1.7023  3.9093
 7690SOL     OW34702   0.496   1.000   6.277  0.3478 -0.0570 -0.1118
 7690SOL    HW134703   0.425   1.036   6.224 -0.0600 -1.3014 -0.4079
 7690SOL    HW234704   0.476   0.906   6.285  0.6822 -0.0209  1.1121
 7691SOL     OW34705   4.646   1.414   5.879  0.6876  0.2009  0.2259
 7691SOL    HW134706   4.620   1.506   5.874 -1.1986 -0.2349  1.9113
 7691SOL    HW234707   4.633   1.397   5.972 -0.8257 -1.3761 -0.2854
 7692SOL     OW34708   3.327   2.256   6.852 -0.3445 -0.0978  0.1333
 7692SOL    HW134709   3.286   2.311   6.785  0.6815 -1.1577 -1.3771
 7692SOL    HW234710   3.337   2.174   6.803 -0.0437 -0.7918  1.3623
 7693SOL     OW34711   1.296   3.107   6.206  0.1029 -0.5232  0.3625
 7693SOL    HW134712   1.260   3.130   6.120 -0.1290  0.7917  0.8179
 7693SOL    HW234713   1.257   3.175   6.261 -1.9411 -1.3080 -0.1239
 7694SOL     OW34714   2.518   2.670   9.234  0.1876  0.4688  0.0701
 7694SOL    HW134715   2.425   2.676   9.211  0.8234  0.3219 -2.4785
 7694SOL    HW234716   2.502   2.715   9.318  0.4407 -3.2526  2.1018
 7695SOL     OW34717   3.631   1.124   5.382  0.5450  0.1859  0.3303
 7695SOL    HW134718   3.539   1.124   5.410  0.2515 -1.7274 -0.6211
 7695SOL    HW234719   3.662   1.206   5.420 -1.0725  1.7592 -1.7287
 7696SOL     OW34720   0.272   4.121   4.070 -0.2422  0.5789  0.1622
 7696SOL    HW134721   0.295   4.040   4.025  1.1344 -0.1790  2.2335
 7696SOL    HW234722   0.198   4.151   4.016 -0.2253  1.6478  0.7337
 7697SOL     OW34723   1.018   1.926  13.322  0.6695 -0.2638 -0.0942
 7697SOL    HW134724   0.963   1.872  13.378 -0.5732  0.9224 -0.1741
 7697SOL    HW234725   1.062   1.990  13.377 -1.8514  0.3957  1.1628
 7698SOL     OW34726   4.412   3.303   8.232  0.3993  0.1454 -0.5371
 7698SOL    HW134727   4.419   3.254   8.150 -1.7424  0.7590 -1.0852
 7698SOL    HW234728   4.421   3.232   8.296 -1.0112  0.3838 -0.0664
 7699SOL     OW34729   4.716   1.450   2.847 -0.3351  0.6384  0.0849
 7699SOL    HW134730   4.643   1.435   2.787  0.0007  3.0646 -0.9168
 7699SOL    HW234731   4.732   1.544   2.835  2.9202 -0.2338 -2.5040
 7700SOL     OW34732   3.369   2.969   3.532  0.2571  0.3732  0.2707
 7700SOL    HW134733   3.413   2.983   3.616 -1.4855  1.0149  1.0567
 7700SOL    HW234734   3.280   2.994   3.556 -0.0939 -0.2179 -0.4305
 7701SOL     OW34735   2.145   0.108   9.003  0.1883  0.6752 -0.2219
 7701SOL    HW134736   2.115   0.195   9.029  4.2133  2.2576 -0.8963
 7701SOL    HW234737   2.230   0.138   8.972  2.2819 -2.2205  2.6778
 7702SOL     OW34738   2.920   3.749   1.457  0.1615  0.0767  0.3660
 7702SOL    HW134739   2.927   3.683   1.388 -2.1277  0.3094 -0.0880
 7702SOL    HW234740   2.994   3.809   1.451  1.5130 -1.6913 -0.6997
 7703SOL     OW34741   1.774   3.300   0.632 -0.3514 -0.4093  0.4207
 7703SOL    HW134742   1.792   3.370   0.569 -3.2417  2.0104  2.2612
 7703SOL    HW234743   1.741   3.357   0.702  0.5639  0.4346  0.1617
 7704SOL     OW34744   2.289   3.839  15.615  0.2113  0.5892  0.4178
 7704SOL    HW134745   2.239   3.885  15.682 -1.1758 -3.3521  2.0533
 7704SOL    HW234746   2.373   3.828  15.661  0.8791  1.4259 -0.5908
 7705SOL     OW34747   0.816   4.009   8.948  0.0905  0.2888 -0.2283
 7705SOL    HW134748   0.872   4.002   9.025  1.4393 -0.0572 -1.2544
 7705SOL    HW234749   0.827   4.099   8.916 -2.2119  1.2607  1.6351
 7706SOL     OW34750   2.641   2.537   7.378 -0.0337  0.4245 -0.4415
 7706SOL    HW134751   2.625   2.590   7.300 -0.9349  0.3242 -0.3223
 7706SOL    HW234752   2.614   2.447   7.361  0.0307 -0.1337  2.3516
 7707SOL     OW34753   4.077   0.388  13.617  0.4297  0.2785  0.3222
 7707SOL    HW134754   4.161   0.343  13.629 -0.6691 -1.2803  2.1005
 7707SOL    HW234755   4.020   0.339  13.676 -1.9641  1.3083 -1.1553
 7708SOL     OW34756   3.599   4.077   1.795  0.4927  0.3589  0.1059
 7708SOL    HW134757   3.578   3.996   1.747 -0.1062 -1.1219  2.8977
 7708SOL    HW234758   3.600   4.054   1.888  0.0043 -0.6709 -0.1427
 7709SOL     OW34759   4.104   0.289   7.055 -0.4006  0.1767  0.2788
 7709SOL    HW134760   4.136   0.370   7.095 -2.4167  0.6563  0.9574
 7709SOL    HW234761   4.178   0.271   6.998  1.2028  1.4138  1.9656
 7710SOL     OW34762   0.428   0.884  11.753 -0.0231 -0.5255  0.4139
 7710SOL    HW134763   0.496   0.874  11.686 -0.3527  1.1382 -0.1559
 7710SOL    HW234764   0.453   0.962  11.803 -1.1618  1.0093 -1.4092
 7711SOL     OW34765   3.142   3.761   4.436  0.2871  0.0714  0.1667
 7711SOL    HW134766   3.100   3.704   4.500 -1.1080  1.3202  0.3450
 7711SOL    HW234767   3.070   3.810   4.397 -1.4110 -3.5169 -1.1489
 7712SOL     OW34768   1.686   2.636   5.370  0.1280  0.3864  0.2615
 7712SOL    HW134769   1.765   2.583   5.384  0.1679  0.8953  1.8720
 7712SOL    HW234770   1.639   2.632   5.453 -0.5902  0.4214 -0.1403
 7713SOL     OW34771   2.820   2.932   7.351 -0.5037  0.1982  0.2178
 7713SOL    HW134772   2.867   2.925   7.433  1.2473 -1.8365 -0.9664
 7713SOL    HW234773   2.726   2.932   7.369 -0.5904 -0.5433 -0.2094
 7714SOL     OW34774   3.424   0.066   8.452  0.0849 -0.1010 -0.2866
 7714SOL    HW134775   3.430   4.737   8.521 -0.9760 -0.8458 -0.8996
 7714SOL    HW234776   3.502   0.114   8.476  0.5632 -0.6656 -0.7094
 7715SOL     OW34777   2.068   3.869  16.138 -0.2555 -0.0739 -0.1531
 7715SOL    HW134778   2.103   3.925  16.208  1.1227 -0.0767 -0.8459
 7715SOL    HW234779   1.974   3.888  16.149  0.1077  1.4405  0.4063
 7716SOL     OW34780   0.552   3.801  13.320  0.0243  0.2887  0.3915
 7716SOL    HW134781   0.535   3.895  13.312 -0.8176  0.0367 -0.6557
 7716SOL    HW234782   0.625   3.804  13.382 -0.6119 -0.0069  1.1501
 7717SOL     OW34783   0.591   3.761   4.303  0.4337  0.3240  0.7384
 7717SOL    HW134784   0.634   3.774   4.387  0.6873  1.5170  0.4215
 7717SOL    HW234785   0.587   3.851   4.270 -0.4544 -0.7188 -1.9997
 7718SOL     OW34786   4.206   2.347   6.702  0.1806  0.5781  0.3910
 7718SOL    HW134787   4.263   2.270   6.705 -1.7909 -0.9229 -0.8928
 7718SOL    HW234788   4.245   2.399   6.772  1.7353 -3.4145  2.4996
 7719SOL     OW34789   0.656   2.849   7.478 -0.3733 -0.1520 -0.2383
 7719SOL    HW134790   0.699   2.835   7.562 -1.1915  1.6541  0.4844
 7719SOL    HW234791   0.565   2.863   7.504 -0.5291  0.8174 -1.2939
 7720SOL     OW34792   0.194   4.681   5.323  0.0471  0.2593  0.5346
 7720SOL    HW134793   0.191   0.007   5.395  0.6829  0.4495  0.3899
 7720SOL    HW234794   0.104   4.687   5.290 -0.0656  1.2984  1.0356
 7721SOL     OW34795   0.820   0.247   5.549 -0.2656 -0.0421 -0.3417
 7721SOL    HW134796   0.744   0.189   5.542 -1.0212  0.7645  1.1129
 7721SOL    HW234797   0.884   0.193   5.595 -0.9475 -1.1381 -0.6787
 7722SOL     OW34798   0.191   1.273  11.368  0.4955  0.4262 -0.4750
 7722SOL    HW134799   0.161   1.318  11.289 -0.6103  1.4523  0.5378
 7722SOL    HW234800   0.107   1.254  11.411 -0.8807  1.1937 -2.8492
 7723SOL     OW34801   0.825   0.288  15.786  0.2481 -0.2487 -0.3211
 7723SOL    HW134802   0.798   0.202  15.817 -2.9013  0.9725  0.3267
 7723SOL    HW234803   0.891   0.315  15.849  0.8399  0.1605 -1.1139
 7724SOL     OW34804   0.956   4.101   1.518 -0.2472  0.3020 -0.2335
 7724SOL    HW134805   0.922   4.170   1.575  1.1568  0.6569  0.1590
 7724SOL    HW234806   0.873   4.082   1.472 -0.8189  1.2441  0.4109
 7725SOL     OW34807   3.857   4.078  14.889  0.8758  0.0419 -0.3709
 7725SOL    HW134808   3.889   4.022  14.819  0.9267  0.2660 -0.5254
 7725SOL    HW234809   3.808   4.143  14.839  0.8360 -0.5922 -1.1461
 7726SOL     OW34810   1.958   2.278   2.071  0.1248  0.0210 -0.0986
 7726SOL    HW134811   1.886   2.325   2.031  0.2017  0.1763 -0.0534
 7726SOL    HW234812   1.911   2.245   2.148  1.3552 -0.0799  0.6202
 7727SOL     OW34813   2.827   4.563   5.926  0.4306 -0.1232 -0.5333
 7727SOL    HW134814   2.808   4.639   5.871 -0.4277  1.2765  1.7271
 7727SOL    HW234815   2.873   4.503   5.867 -0.7558 -1.6246  0.0651
 7728SOL     OW34816   0.976   0.852   4.631  0.2593  0.4237  0.1499
 7728SOL    HW134817   1.039   0.845   4.559 -0.6416 -0.0835 -0.6013
 7728SOL    HW234818   0.949   0.760   4.643 -1.6374  1.0087  0.3978
 7729SOL     OW34819   3.852   4.576   9.320  0.4026  0.3383  0.1411
 7729SOL    HW134820   3.880   4.485   9.312  3.0351  1.3899 -2.5558
 7729SOL    HW234821   3.904   4.614   9.250  0.3272  1.1651  0.5285
 7730SOL     OW34822   3.226   0.474   8.979  0.2097 -0.0146  0.2834
 7730SOL    HW134823   3.143   0.511   9.008  1.7870  3.3799  0.5756
 7730SOL    HW234824   3.207   0.387   8.945  0.3876  0.3519 -0.7614
 7731SOL     OW34825   1.277   2.803   5.347 -0.5335 -0.3964 -0.2735
 7731SOL    HW134826   1.357   2.794   5.295 -0.6696  0.6598 -0.6726
 7731SOL    HW234827   1.210   2.772   5.287  1.2031 -2.8470 -0.9390
 7732SOL     OW34828   3.114   1.387   3.475 -0.1002 -0.7357  0.0554
 7732SOL    HW134829   3.116   1.451   3.547  1.4464  0.8703 -1.4221
 7732SOL    HW234830   3.025   1.396   3.441 -0.1126  0.7773  0.5033
 7733SOL     OW34831   1.062   3.363  10.799 -0.1804  0.2028  0.9283
 7733SOL    HW134832   1.138   3.410  10.765 -0.5469 -0.6371 -1.0450
 7733SOL    HW234833   1.109   3.305  10.860 -1.9631 -0.9046  1.2410
 7734SOL     OW34834   4.519   1.490   2.667 -0.4224 -0.9312  0.2511
 7734SOL    HW134835   4.475   1.539   2.736 -1.4307  1.5178 -2.1678
 7734SOL    HW234836   4.440   1.454   2.628 -1.2091  0.3397  0.6905
 7735SOL     OW34837   2.224   2.278   6.905 -0.7144  0.6636 -0.1298
 7735SOL    HW134838   2.310   2.235   6.904 -1.0373  0.0057  0.7608
 7735SOL    HW234839   2.176   2.200   6.932  1.5732 -0.9299 -0.6176
 7736SOL     OW34840   0.464   2.190   2.478 -0.1619 -0.2973  0.4007
 7736SOL    HW134841   0.546   2.164   2.436  0.6326  0.9016  1.1815
 7736SOL    HW234842   0.446   2.104   2.516 -0.5747  1.0193  3.1977
 7737SOL     OW34843   0.659   4.261   0.069 -0.5795 -0.0402 -0.0490
 7737SOL    HW134844   0.698   4.312  17.746  0.6230 -0.5637  0.2452
 7737SOL    HW234845   0.610   4.338   0.096  1.0832  0.3367  1.8902
 7738SOL     OW34846   2.370   1.687   2.348 -0.0847 -0.4405 -0.1406
 7738SOL    HW134847   2.462   1.706   2.333 -0.5067  0.2034 -1.9144
 7738SOL    HW234848   2.333   1.766   2.387  0.9005 -0.2919  0.4931
 7739SOL     OW34849   0.349   2.329  16.172  0.7515 -0.5642 -0.3393
 7739SOL    HW134850   0.286   2.399  16.189  2.0453  0.7607 -1.0729
 7739SOL    HW234851   0.324   2.304  16.083 -1.3060 -1.6850  0.5397
 7740SOL     OW34852   2.606   2.017  13.753 -0.2240  0.2841  0.4818
 7740SOL    HW134853   2.552   2.086  13.793 -0.2180  0.5964 -0.0439
 7740SOL    HW234854   2.550   1.941  13.762  0.8405 -0.7643 -1.7437
 7741SOL     OW34855   3.950   3.597   9.364  0.5656 -0.6847 -0.0715
 7741SOL    HW134856   3.980   3.568   9.450  0.3082  1.1081  0.6261
 7741SOL    HW234857   3.908   3.526   9.317  3.8532 -1.3377 -2.0352
 7742SOL     OW34858   2.597   1.329  11.253  0.4054  0.1077  0.3137
 7742SOL    HW134859   2.544   1.266  11.304 -0.8379  1.2479  0.4388
 7742SOL    HW234860   2.533   1.399  11.266 -2.1109 -1.9018 -1.0337
 7743SOL     OW34861   0.286   4.052   6.212 -0.7294 -0.3412  0.2063
 7743SOL    HW134862   0.228   4.018   6.144 -1.1300  0.5218  0.1073
 7743SOL    HW234863   0.219   4.100   6.260 -0.7247 -0.1377  0.0141
 7744SOL     OW34864   2.148   3.661   1.177  0.3728 -0.1186  0.0302
 7744SOL    HW134865   2.139   3.751   1.145 -1.6691 -0.2675  0.1628
 7744SOL    HW234866   2.060   3.634   1.151 -0.4563  0.9975  1.5861
 7745SOL     OW34867   4.189   0.338  14.523  0.1002 -0.0728 -0.4335
 7745SOL    HW134868   4.115   0.347  14.463  0.9883 -2.3257 -1.8617
 7745SOL    HW234869   4.156   0.275  14.587 -1.6115  0.3540 -0.8863
 7746SOL     OW34870   1.807   3.809   4.826 -0.4396 -0.2787 -0.0041
 7746SOL    HW134871   1.841   3.826   4.914 -1.8443  0.7288  0.3458
 7746SOL    HW234872   1.854   3.735   4.788  0.9007  0.2195  0.6727
 7747SOL     OW34873   1.114   3.188   5.978 -0.0696 -0.3308  0.6018
 7747SOL    HW134874   1.117   3.141   5.895  0.9460  0.1328  0.3776
 7747SOL    HW234875   1.021   3.180   5.999 -0.2652 -2.9406 -1.3235
 7748SOL     OW34876   4.537   1.336   8.576  0.2214 -0.1810  0.5827
 7748SOL    HW134877   4.475   1.370   8.640  0.0578  0.5208  0.0475
 7748SOL    HW234878   4.559   1.418   8.532  0.1853 -1.0956 -1.1205
 7749SOL     OW34879   1.324   4.382  13.637  0.3212 -0.0960  0.5541
 7749SOL    HW134880   1.325   4.419  13.726 -1.0476  2.8927 -0.6985
 7749SOL    HW234881   1.294   4.458  13.589 -0.3415 -0.4258  0.4360
 7750SOL     OW34882   1.753   0.290   8.964  0.1096 -0.0423 -0.1405
 7750SOL    HW134883   1.831   0.297   9.018  0.8400  1.2631 -1.3704
 7750SOL    HW234884   1.689   0.317   9.030 -0.2289 -1.5700  0.1759
 7751SOL     OW34885   4.374   2.248   2.430  0.1289 -0.0782 -0.0661
 7751SOL    HW134886   4.318   2.196   2.487 -0.9349  1.7128  0.5110
 7751SOL    HW234887   4.308   2.299   2.383  0.8760  0.0185 -1.0109
 7752SOL     OW34888   2.713   1.254   6.303  0.3003 -0.9928 -0.2431
 7752SOL    HW134889   2.663   1.178   6.332 -0.8875 -0.2826 -0.4213
 7752SOL    HW234890   2.641   1.317   6.297 -0.0210 -1.3604 -0.2703
 7753SOL     OW34891   3.154   3.834  11.872 -0.1914 -0.0610 -0.0701
 7753SOL    HW134892   3.172   3.740  11.883  1.3659  0.3443  0.8134
 7753SOL    HW234893   3.109   3.826  11.788  0.3169 -0.3191 -0.3161
 7754SOL     OW34894   3.877   2.699   8.818 -0.6979 -0.3303 -0.1224
 7754SOL    HW134895   3.946   2.717   8.882 -0.9443 -0.0558  0.0715
 7754SOL    HW234896   3.923   2.627   8.775 -0.5980 -0.7566  0.6922
 7755SOL     OW34897   1.203   3.938   1.952  0.0382  0.2730  0.1804
 7755SOL    HW134898   1.228   3.849   1.927 -0.4779  1.0595 -3.0694
 7755SOL    HW234899   1.285   3.987   1.964  0.6623 -0.6937 -0.1821
 7756SOL     OW34900   2.580   3.072   3.308  0.0670 -0.0491  0.2454
 7756SOL    HW134901   2.544   2.998   3.259 -2.7744  1.4226  0.1107
 7756SOL    HW234902   2.547   3.149   3.262  2.1271  0.4795 -0.3619
 7757SOL     OW34903   2.921   2.147   8.125  0.1663 -0.9264 -0.4995
 7757SOL    HW134904   2.992   2.104   8.171  1.8323 -1.2265 -3.3932
 7757SOL    HW234905   2.849   2.085   8.139  0.5533 -1.0748  0.8313
 7758SOL     OW34906   0.698   3.027   0.941 -0.1457 -0.4350 -0.2806
 7758SOL    HW134907   0.740   2.942   0.959  0.8220  0.3494  1.1767
 7758SOL    HW234908   0.667   3.057   1.027  0.5778  2.6880 -1.1325
 7759SOL     OW34909   2.727   0.833   7.917  0.0987  0.0362 -0.0823
 7759SOL    HW134910   2.766   0.905   7.967  1.2339 -0.8610  0.3188
 7759SOL    HW234911   2.803   0.785   7.885 -1.5401 -2.0502 -0.8368
 7760SOL     OW34912   0.717   3.294   3.270 -0.3714 -0.0238 -0.1693
 7760SOL    HW134913   0.671   3.349   3.333  0.3801 -0.6286  0.9199
 7760SOL    HW234914   0.802   3.338   3.262 -2.1576  3.3083 -0.5500
 7761SOL     OW34915   1.862   4.659  12.644 -0.6155  0.1439  0.1227
 7761SOL    HW134916   1.923   4.688  12.577  0.3360 -2.8545 -0.3056
 7761SOL    HW234917   1.888   4.709  12.721  0.1966  1.9130 -1.3264
 7762SOL     OW34918   0.007   0.961   5.930  0.3688  0.5045  0.2749
 7762SOL    HW134919   4.663   0.962   5.980  0.1511 -0.1749 -0.0591
 7762SOL    HW234920   0.020   0.866   5.928 -2.6029  0.1004  0.6463
 7763SOL     OW34921   3.186   0.690   7.823 -0.1122  0.4903 -0.0799
 7763SOL    HW134922   3.153   0.772   7.860 -2.6306  0.5455 -2.4506
 7763SOL    HW234923   3.262   0.724   7.776 -0.5508  1.3614 -0.1566
 7764SOL     OW34924   3.725   1.855   6.975 -0.7604  0.4602 -0.6821
 7764SOL    HW134925   3.758   1.765   6.980 -1.1706  0.2126 -2.5982
 7764SOL    HW234926   3.683   1.851   7.061  1.5182  1.1250  0.4612
 7765SOL     OW34927   4.484   3.159   5.478 -0.6127 -0.2388 -0.0562
 7765SOL    HW134928   4.534   3.203   5.546  1.5011  0.0429 -1.7946
 7765SOL    HW234929   4.553   3.099   5.451  2.1713  1.6020  2.9711
 7766SOL     OW34930   3.325   1.730   5.772  0.5972  0.6858 -0.0444
 7766SOL    HW134931   3.336   1.640   5.803 -0.2047  0.8756  0.7900
 7766SOL    HW234932   3.328   1.711   5.678 -1.1162 -1.7455  0.3816
 7767SOL     OW34933   0.416   1.312   0.522 -0.0393 -0.6973  0.2204
 7767SOL    HW134934   0.437   1.351   0.606  1.4018  0.2192 -0.5652
 7767SOL    HW234935   0.495   1.268   0.490  1.1520  0.4721  1.5560
 7768SOL     OW34936   0.275   2.850   1.865  0.3732 -0.4201 -0.1603
 7768SOL    HW134937   0.356   2.828   1.819  1.6263 -1.1011  2.3790
 7768SOL    HW234938   0.236   2.764   1.881  0.9671 -0.6673 -0.0293
 7769SOL     OW34939   4.408   2.848  14.817  0.1044 -0.5589 -0.3844
 7769SOL    HW134940   4.363   2.925  14.852  0.9722  0.0671 -0.6571
 7769SOL    HW234941   4.450   2.808  14.893  2.2873  0.6304 -0.9751
 7770SOL     OW34942   4.526   3.471   9.229 -0.5219  0.0426 -0.4042
 7770SOL    HW134943   4.568   3.522   9.298  0.0123 -0.3473 -0.4431
 7770SOL    HW234944   4.581   3.394   9.236  0.4820  0.9118  1.1700
 7771SOL     OW34945   0.978   1.230  17.019  0.2188 -0.0262  0.1175
 7771SOL    HW134946   1.055   1.281  17.044 -0.4813 -0.5786  3.4001
 7771SOL    HW234947   0.910   1.298  17.016 -1.5240 -1.6886  1.7505
 7772SOL     OW34948   0.707   0.709   4.329  0.4545 -0.5276  0.2729
 7772SOL    HW134949   0.671   0.770   4.265  1.0944  1.5387  1.8504
 7772SOL    HW234950   0.745   0.778   4.385 -0.8776  1.4196 -1.2462
 7773SOL     OW34951   1.919   0.374   4.426  0.0508  0.1998  0.1901
 7773SOL    HW134952   1.971   0.425   4.489 -0.8307 -0.8472  1.7560
 7773SOL    HW234953   1.936   0.282   4.443  0.0182  0.3008  0.7711
 7774SOL     OW34954   1.252   3.766   4.580  0.1170  0.7679 -0.2626
 7774SOL    HW134955   1.179   3.740   4.524 -1.2255 -1.3887  2.4830
 7774SOL    HW234956   1.323   3.786   4.519 -0.5797  1.5553 -0.8059
 7775SOL     OW34957   3.915   0.228  11.108  0.2245  0.0840 -0.3903
 7775SOL    HW134958   3.923   0.260  11.198 -1.1670 -0.6860 -0.0006
 7775SOL    HW234959   3.924   0.133  11.116  0.6673  0.2894  1.7140
 7776SOL     OW34960   2.007   3.485   5.460 -0.0153 -0.2168 -0.2929
 7776SOL    HW134961   2.066   3.486   5.535 -0.1994 -0.1161 -0.1483
 7776SOL    HW234962   2.063   3.480   5.383  0.5620  0.9031  0.0551
 7777SOL     OW34963   3.481   0.212   8.754  0.0139 -0.3737  0.1877
 7777SOL    HW134964   3.520   0.156   8.821  0.4723  2.4875  2.3540
 7777SOL    HW234965   3.549   0.210   8.687  0.2819 -0.5092  0.4627
 7778SOL     OW34966   3.100   3.510   2.938  0.4531  0.4824  0.8116
 7778SOL    HW134967   3.022   3.458   2.917  0.0841  0.6379  1.7716
 7778SOL    HW234968   3.154   3.446   2.984 -1.5640 -2.4441 -0.8881
 7779SOL     OW34969   2.745   2.508   8.229  0.2162  0.3073  0.2554
 7779SOL    HW134970   2.667   2.563   8.222  0.5467  0.8029  0.4028
 7779SOL    HW234971   2.709   2.424   8.203  2.0689 -0.1478 -0.8509
 7780SOL     OW34972   1.369   4.068   6.617  0.2267 -0.4072 -0.2897
 7780SOL    HW134973   1.395   4.064   6.525  0.6482  0.5865 -0.2164
 7780SOL    HW234974   1.451   4.050   6.663 -1.8925 -0.0818  3.5913
 7781SOL     OW34975   3.067   0.484   4.678  0.3236 -0.5691  0.0440
 7781SOL    HW134976   3.149   0.460   4.721  1.6227  0.2113 -1.9894
 7781SOL    HW234977   3.003   0.429   4.722  0.2430  0.2555  0.9454
 7782SOL     OW34978   3.922   3.213   7.684 -0.4471 -0.5588 -0.1137
 7782SOL    HW134979   3.931   3.128   7.641 -0.2760 -2.0943  2.9938
 7782SOL    HW234980   3.828   3.215   7.698 -0.4099 -0.9491  0.1877
 7783SOL     OW34981   0.327   3.650  13.476 -0.1957  0.3309  0.4855
 7783SOL    HW134982   0.249   3.659  13.531 -0.7630  2.4625 -0.6736
 7783SOL    HW234983   0.403   3.660  13.533 -0.1630  0.8630  0.3473
 7784SOL     OW34984   3.116   2.485   1.588  0.2397 -0.4979 -0.2789
 7784SOL    HW134985   3.025   2.491   1.616  0.6783 -0.7884  1.2310
 7784SOL    HW234986   3.101   2.436   1.508  0.6574 -1.7005  0.3725
 7785SOL     OW34987   1.661   1.111   8.206 -0.1705  0.1711 -0.3889
 7785SOL    HW134988   1.638   1.169   8.133  1.7871 -1.0647 -1.9783
 7785SOL    HW234989   1.595   1.132   8.273  2.2864 -3.7870  3.3039
 7786SOL     OW34990   0.851   2.322   3.299  0.5255 -0.0637 -0.1088
 7786SOL    HW134991   0.804   2.404   3.307  0.6290  0.2506 -2.7232
 7786SOL    HW234992   0.916   2.332   3.369 -1.2605 -1.6514  1.8087
 7787SOL     OW34993   1.668   0.823   8.203  0.1781  0.3780 -0.2250
 7787SOL    HW134994   1.720   0.801   8.125 -0.2455 -0.3129 -0.3171
 7787SOL    HW234995   1.684   0.917   8.205  1.0500  0.2201  0.3905
 7788SOL     OW34996   4.662   3.759   6.452 -0.1542 -0.5418 -0.0904
 7788SOL    HW134997   0.018   3.773   6.468 -0.1229  0.1063 -0.7840
 7788SOL    HW234998   4.641   3.792   6.364  0.0138 -0.3423 -0.0583
 7789SOL     OW34999   1.956   3.005  14.020 -0.1590 -0.1019 -0.9229
 7789SOL    HW135000   1.968   2.980  14.112  1.2826  1.1547 -0.7710
 7789SOL    HW235001   1.870   3.046  14.029  0.3777  0.7020  0.4811
 7790SOL     OW35002   3.784   4.703   7.043 -0.1258  0.0458  0.0209
 7790SOL    HW135003   3.808   0.055   7.069  1.5368 -0.4260  0.0948
 7790SOL    HW235004   3.691   4.710   7.022 -0.1980  1.5533  0.8603
 7791SOL     OW35005   1.146   0.165   5.108  0.5329 -0.2338  0.2561
 7791SOL    HW135006   1.164   0.076   5.138 -3.2170 -1.8700 -2.2765
 7791SOL    HW235007   1.174   0.219   5.182  1.5597 -1.0204  0.4439
 7792SOL     OW35008   2.850   3.289   5.257 -0.0158 -0.9298 -0.4681
 7792SOL    HW135009   2.860   3.254   5.345  0.0330  1.4089  0.4422
 7792SOL    HW235010   2.938   3.267   5.224 -0.0893 -1.0546 -0.5863
 7793SOL     OW35011   3.522   1.341  13.532  0.6493 -0.4185  0.1025
 7793SOL    HW135012   3.446   1.391  13.560 -0.6777 -2.6276  0.4360
 7793SOL    HW235013   3.499   1.304  13.447  1.4054  1.1963 -0.8054
 7794SOL     OW35014   1.024   2.409   6.831  0.4453  0.4139 -0.0277
 7794SOL    HW135015   0.948   2.400   6.774  0.9585 -1.3005 -0.4346
 7794SOL    HW235016   1.045   2.502   6.823 -1.8140  1.0950  2.1668
 7795SOL     OW35017   4.718   0.598   4.664  0.3100 -0.0986  0.2022
 7795SOL    HW135018   0.009   0.509   4.684  1.2891  0.0195 -0.6741
 7795SOL    HW235019   0.046   0.658   4.699  0.1394 -0.0527  0.4402
 7796SOL     OW35020   2.456   3.088  12.258 -0.5709 -0.5672  0.2096
 7796SOL    HW135021   2.434   3.077  12.350  0.9694  3.2372  1.0678
 7796SOL    HW235022   2.395   3.158  12.234  0.3760  0.3736  0.4994
 7797SOL     OW35023   1.849   3.898   8.244  0.1936 -0.9339 -0.4984
 7797SOL    HW135024   1.917   3.835   8.269  0.8344 -0.2976 -0.6183
 7797SOL    HW235025   1.906   3.937   8.177 -0.3676 -1.0111 -1.0197
 7798SOL     OW35026   3.772   1.710   2.259 -0.1135  0.0036  0.3057
 7798SOL    HW135027   3.707   1.780   2.258  0.5688  0.6353  0.4077
 7798SOL    HW235028   3.840   1.765   2.220 -1.3094  2.2501  1.4068
 7799SOL     OW35029   2.448   1.893   9.396 -0.3570 -0.4092  0.2357
 7799SOL    HW135030   2.379   1.934   9.449 -2.9272 -2.2679 -1.6876
 7799SOL    HW235031   2.465   1.816   9.449  2.0514  0.9801  1.4894
 7800SOL     OW35032   3.934   2.937   3.104  0.5312  0.3963 -0.8191
 7800SOL    HW135033   3.902   3.008   3.048 -0.7682 -0.2018 -0.8263
 7800SOL    HW235034   4.025   2.963   3.119  0.3247 -0.0352  1.1708
 7801SOL     OW35035   2.440   1.812   4.564 -0.2389  0.3142 -0.2467
 7801SOL    HW135036   2.480   1.811   4.651 -0.1184  0.2222 -0.3037
 7801SOL    HW235037   2.383   1.735   4.574  0.8507 -0.5075 -0.4510
 7802SOL     OW35038   3.232   4.285   3.640 -0.1797  0.2550 -0.0028
 7802SOL    HW135039   3.275   4.251   3.562 -0.7468 -1.1475  0.3027
 7802SOL    HW235040   3.299   4.346   3.670 -0.3429 -0.5997  2.1137
 7803SOL     OW35041   2.524   3.414   3.641 -0.0678  0.2732 -0.2386
 7803SOL    HW135042   2.614   3.397   3.613 -0.6137 -0.4215 -1.5970
 7803SOL    HW235043   2.518   3.357   3.718 -1.1576  1.8020  0.7824
 7804SOL     OW35044   3.482   2.262   0.899 -0.3617 -0.0221  0.2733
 7804SOL    HW135045   3.512   2.218   0.820 -2.0200  0.1887 -0.4534
 7804SOL    HW235046   3.407   2.307   0.861  0.7826  2.4017  0.8409
 7805SOL     OW35047   3.244   4.572   2.919  0.2738 -0.1351 -0.3470
 7805SOL    HW135048   3.332   4.589   2.885  0.1400  0.2930 -0.4715
 7805SOL    HW235049   3.197   4.621   2.852  1.7109  2.0710  0.2405
 7806SOL     OW35050   4.173   1.297  16.536  0.1460 -0.2854 -0.5578
 7806SOL    HW135051   4.194   1.206  16.518  2.2051 -0.3027  1.8573
 7806SOL    HW235052   4.259   1.337  16.544 -0.9821  1.8331  1.1757
 7807SOL     OW35053   2.963   1.408   9.310 -0.1001  1.1900 -0.5162
 7807SOL    HW135054   3.054   1.417   9.339 -0.2393  1.1291 -0.0548
 7807SOL    HW235055   2.959   1.446   9.222  1.3604  1.2333 -0.5751
 7808SOL     OW35056   3.716   2.864   6.104  0.0330  0.4031  0.3716
 7808SOL    HW135057   3.780   2.819   6.160 -1.1183  0.1346  1.4545
 7808SOL    HW235058   3.760   2.949   6.090  0.5967  0.2042  0.9279
 7809SOL     OW35059   4.214   0.209   8.764  0.0360  0.3724 -0.4315
 7809SOL    HW135060   4.218   0.296   8.802  0.2751 -0.2234  0.8893
 7809SOL    HW235061   4.187   0.230   8.674 -2.7382  1.8679  0.7445
 7810SOL     OW35062   2.517   3.908  15.771 -0.2058  0.5134 -0.4127
 7810SOL    HW135063   2.612   3.906  15.782 -0.2485 -1.9873 -0.4053
 7810SOL    HW235064   2.485   3.948  15.852 -0.8868 -0.8015 -0.0402
 7811SOL     OW35065   1.611   1.486   1.003  0.4902  0.2435 -0.2035
 7811SOL    HW135066   1.583   1.421   0.939 -1.0683  2.3655 -1.6590
 7811SOL    HW235067   1.702   1.480   0.973  0.3158 -1.5633 -0.3778
 7812SOL     OW35068   1.796   4.220   2.419 -0.5477 -0.4946 -0.7243
 7812SOL    HW135069   1.851   4.249   2.491 -2.7446 -1.2866  1.2434
 7812SOL    HW235070   1.848   4.142   2.397  1.5769  0.6304  0.3192
 7813SOL     OW35071   3.118   4.218  14.151  0.0822  0.3555  0.3645
 7813SOL    HW135072   3.045   4.251  14.098 -0.5278 -1.9684 -0.2279
 7813SOL    HW235073   3.096   4.125  14.154  1.3803  0.0024 -1.1343
 7814SOL     OW35074   4.490   4.131  11.844  0.1611  0.7414  0.1315
 7814SOL    HW135075   4.470   4.166  11.931 -2.0293 -0.6072  0.1755
 7814SOL    HW235076   4.508   4.204  11.785 -1.4580  1.6823  0.7967
 7815SOL     OW35077   3.026   1.430  16.038  0.2061 -0.6277 -0.0067
 7815SOL    HW135078   2.995   1.519  16.054 -0.4673 -0.9077  0.2293
 7815SOL    HW235079   2.949   1.395  15.993  1.3238 -2.5437 -0.4350
 7816SOL     OW35080   3.422   0.850   0.983 -0.1905 -0.3528  0.1632
 7816SOL    HW135081   3.473   0.811   1.055  1.2547  1.3498  0.0652
 7816SOL    HW235082   3.417   0.785   0.913 -3.3565  0.0358  0.0098
 7817SOL     OW35083   0.287   2.586   1.718  0.2469  0.2713 -0.2014
 7817SOL    HW135084   0.204   2.547   1.692 -0.4867  0.3848  1.9651
 7817SOL    HW235085   0.265   2.678   1.706 -1.7099 -0.2572 -0.5942
 7818SOL     OW35086   0.773   1.250   3.480  0.0643  0.3133  0.1995
 7818SOL    HW135087   0.838   1.320   3.468 -0.0473  0.1653 -1.1734
 7818SOL    HW235088   0.799   1.200   3.404  0.3297  0.4233  0.2175
 7819SOL     OW35089   2.861   1.756  12.498 -0.3205 -0.6411 -0.5959
 7819SOL    HW135090   2.909   1.833  12.528 -1.6643  0.8854 -2.3260
 7819SOL    HW235091   2.835   1.729  12.586  0.1079  2.3524  0.4542
 7820SOL     OW35092   0.524   4.029   6.630 -0.0077 -0.2046 -0.5612
 7820SOL    HW135093   0.618   4.010   6.631  0.5759  2.6929 -0.6843
 7820SOL    HW235094   0.527   4.086   6.553 -0.6559  0.0371 -0.4063
 7821SOL     OW35095   4.484   1.546   7.410  0.1071 -0.1011  0.4716
 7821SOL    HW135096   4.513   1.631   7.443 -2.9099  1.5645 -1.0813
 7821SOL    HW235097   4.447   1.519   7.494  2.7645  0.4414  1.8045
 7822SOL     OW35098   0.324   3.838   6.814 -0.6490  0.5680 -0.5192
 7822SOL    HW135099   0.305   3.860   6.905 -1.3509  0.2833 -0.5930
 7822SOL    HW235100   0.419   3.844   6.810 -0.5132 -1.1929 -0.3085
 7823SOL     OW35101   3.538   3.938  13.916 -0.0962 -0.1196 -0.4460
 7823SOL    HW135102   3.504   4.018  13.955 -0.5507 -0.2480 -0.5787
 7823SOL    HW235103   3.498   3.871  13.971  1.5659  0.2975  1.2392
 7824SOL     OW35104   4.396   0.243   9.907 -0.4801 -0.8587 -0.7430
 7824SOL    HW135105   4.366   0.306   9.842  0.5837  1.3632  0.9117
 7824SOL    HW235106   4.327   0.243   9.975  0.9635  1.6665  0.7379
 7825SOL     OW35107   0.543   0.574   4.935 -0.0172  0.1591 -0.0584
 7825SOL    HW135108   0.524   0.619   5.017 -0.4135  1.6969 -0.9968
 7825SOL    HW235109   0.469   0.513   4.931 -0.7842  0.9248  2.9983
 7826SOL     OW35110   2.021   3.979   7.345 -0.1098 -0.0556  0.1084
 7826SOL    HW135111   1.980   3.920   7.409 -1.8477  1.8458  0.7344
 7826SOL    HW235112   1.952   3.990   7.280 -0.3569  3.1886  0.9666
 7827SOL     OW35113   3.443   4.336   4.416 -0.0984  0.1108  0.0783
 7827SOL    HW135114   3.396   4.417   4.435 -0.7018 -0.1744 -0.1844
 7827SOL    HW235115   3.451   4.302   4.505  0.7860 -1.9226 -0.7620
 7828SOL     OW35116   0.831   4.612   0.760 -0.3981 -0.3512 -0.3265
 7828SOL    HW135117   0.892   4.661   0.815  1.1698 -2.0102 -0.5624
 7828SOL    HW235118   0.833   4.527   0.804 -1.8289  1.3878  3.0254
 7829SOL     OW35119   4.292   0.108   9.565 -0.2553 -0.2396 -0.1736
 7829SOL    HW135120   4.323   0.019   9.584 -1.7868 -0.5919  0.6890
 7829SOL    HW235121   4.199   0.086   9.573  0.6860 -3.5883  1.8466
 7830SOL     OW35122   0.505   3.118   8.576 -0.2336  0.4079 -0.2377
 7830SOL    HW135123   0.444   3.185   8.545  1.5398  1.7717 -0.7520
 7830SOL    HW235124   0.479   3.102   8.667  0.9363 -1.7897 -0.3067
 7831SOL     OW35125   2.010   4.201   3.255 -0.0630  0.3081 -0.2750
 7831SOL    HW135126   1.960   4.122   3.235  0.5253 -0.8858  3.0130
 7831SOL    HW235127   2.031   4.180   3.346 -2.0776 -0.9224 -0.0903
 7832SOL     OW35128   2.636   2.349  11.297 -0.3087 -0.3092 -0.5087
 7832SOL    HW135129   2.656   2.255  11.297 -0.5464 -0.3592 -0.7416
 7832SOL    HW235130   2.717   2.378  11.256 -0.3649 -0.2543 -0.5796
 7833SOL     OW35131   1.968   2.371   7.701  0.1741 -0.1088  0.3581
 7833SOL    HW135132   1.875   2.374   7.678  0.2776 -0.0456 -0.0438
 7833SOL    HW235133   2.002   2.408   7.620 -1.5584  0.9728  0.1238
 7834SOL     OW35134   0.343   2.641  11.534  0.5124  0.5441 -0.2134
 7834SOL    HW135135   0.261   2.608  11.570  2.1938 -2.0756  1.2492
 7834SOL    HW235136   0.376   2.702  11.600  0.5671  0.1356  0.1356
 7835SOL     OW35137   1.476   0.406   9.486  0.1630 -0.1159 -0.2103
 7835SOL    HW135138   1.549   0.466   9.502 -1.0132  1.1693  0.3665
 7835SOL    HW235139   1.481   0.351   9.565 -3.4991 -1.7281 -1.1161
 7836SOL     OW35140   0.176   1.461   6.963 -0.2958 -1.1312 -0.5390
 7836SOL    HW135141   0.182   1.547   6.923 -0.8027 -0.5416  0.6486
 7836SOL    HW235142   0.251   1.412   6.929  0.5415  0.4502 -0.9283
 7837SOL     OW35143   0.244   2.118   6.064 -0.1539 -0.2297 -0.2227
 7837SOL    HW135144   0.274   2.195   6.016  0.1343 -0.8889 -1.1085
 7837SOL    HW235145   0.154   2.142   6.083 -0.1722  0.1914 -0.8293
 7838SOL     OW35146   3.966   2.500   2.585  0.1972 -0.7271 -0.1404
 7838SOL    HW135147   4.061   2.509   2.595  0.5522 -1.7690 -2.4425
 7838SOL    HW235148   3.949   2.406   2.580 -3.2371 -0.3026  3.6478
 7839SOL     OW35149   3.533   0.753   5.085  0.2238  0.5767  0.3587
 7839SOL    HW135150   3.609   0.700   5.057 -0.5496  0.1827 -0.9861
 7839SOL    HW235151   3.584   0.807   5.145  0.9338 -0.2792  0.5430
 7840SOL     OW35152   1.588   1.087  14.948  0.6035  0.1759 -0.0646
 7840SOL    HW135153   1.523   1.158  14.945 -0.3649 -0.6834  0.4032
 7840SOL    HW235154   1.538   1.014  14.987  3.7541 -0.6385  2.4346
 7841SOL     OW35155   4.486   0.086   6.828 -0.7509 -0.0739  0.2467
 7841SOL    HW135156   4.529   0.000   6.825 -0.3249  0.1511 -0.0094
 7841SOL    HW235157   4.558   0.149   6.838  0.1163 -0.8195 -1.4014
 7842SOL     OW35158   2.944   3.852  13.393 -0.2100 -0.0472 -0.0074
 7842SOL    HW135159   2.995   3.882  13.318  1.7869 -3.5752 -0.0724
 7842SOL    HW235160   3.004   3.892  13.456 -0.9526  0.4829  0.3713
 7843SOL     OW35161   1.980   2.623   2.970 -0.0140  0.0062 -0.0507
 7843SOL    HW135162   2.028   2.584   3.043  0.5185 -0.0271 -0.4133
 7843SOL    HW235163   1.889   2.625   2.998 -0.7996 -0.3130 -2.5445
 7844SOL     OW35164   0.493   3.205  15.920  0.5253 -0.7733  0.1011
 7844SOL    HW135165   0.416   3.170  15.875 -1.3547  2.1172  1.0922
 7844SOL    HW235166   0.520   3.279  15.866 -0.8988 -0.9543 -0.8640
 7845SOL     OW35167   1.283   0.918  12.813  0.6120  0.4457 -0.6148
 7845SOL    HW135168   1.350   0.949  12.752 -1.1348  1.4432 -1.9974
 7845SOL    HW235169   1.248   1.001  12.844 -1.7574 -0.8431  0.2085
 7846SOL     OW35170   1.088   0.540   9.516 -0.1811  0.8015  0.0064
 7846SOL    HW135171   1.078   0.486   9.595 -0.7028 -0.8300 -1.1811
 7846SOL    HW235172   1.001   0.572   9.493 -0.6408 -0.0980  0.4966
 7847SOL     OW35173   3.974   0.613   0.680  0.0455  0.1698  0.1504
 7847SOL    HW135174   3.986   0.623   0.585 -3.2849  2.2613 -0.0383
 7847SOL    HW235175   3.879   0.611   0.692 -0.1495  0.8513 -1.2640
 7848SOL     OW35176   3.686   3.544   8.655 -0.2998  0.0195 -0.3111
 7848SOL    HW135177   3.758   3.496   8.695 -0.6327 -0.6289 -0.4963
 7848SOL    HW235178   3.615   3.487   8.682 -0.4178  0.1401 -0.3640
 7849SOL     OW35179   3.657   3.759   0.530 -0.1215 -0.3719 -0.1386
 7849SOL    HW135180   3.591   3.775   0.463  2.2423 -0.8101 -2.6055
 7849SOL    HW235181   3.664   3.847   0.567  0.9280 -0.4521 -0.1492
 7850SOL     OW35182   1.636   2.295   2.451  0.5286 -0.2801 -0.4301
 7850SOL    HW135183   1.588   2.233   2.506  2.0945 -0.1181  1.1158
 7850SOL    HW235184   1.564   2.348   2.416  0.6455 -3.4261 -5.4012
 7851SOL     OW35185   2.558   1.564   3.440  0.3009  0.1691  0.4561
 7851SOL    HW135186   2.522   1.485   3.480  1.3497 -0.9250 -0.7586
 7851SOL    HW235187   2.550   1.542   3.347 -1.3104 -0.2805  0.6929
 7852SOL     OW35188   4.198   1.524  15.500  0.2441 -0.4532  0.6060
 7852SOL    HW135189   4.145   1.518  15.420 -1.1457  0.8799  1.4505
 7852SOL    HW235190   4.135   1.542  15.570 -0.6539 -0.5235 -0.1850
 7853SOL     OW35191   2.307   1.203   8.349 -0.4728  0.0427 -0.5402
 7853SOL    HW135192   2.356   1.284   8.353 -2.6111  1.4139 -2.0497
 7853SOL    HW235193   2.383   1.148   8.332  0.2021  1.1209 -0.9648
 7854SOL     OW35194   1.660   0.815  12.128 -0.0455 -0.0374 -0.4743
 7854SOL    HW135195   1.619   0.793  12.045  1.6402  0.3689 -1.4243
 7854SOL    HW235196   1.596   0.792  12.195  0.2917 -1.0026 -0.4751
 7855SOL     OW35197   4.567   3.315   0.406  0.6038 -0.0816  0.1873
 7855SOL    HW135198   4.627   3.383   0.436 -0.5498  1.0380 -0.0336
 7855SOL    HW235199   4.490   3.341   0.457  1.1025  1.5363  0.1144
 7856SOL     OW35200   2.697   3.150   6.501 -0.2455 -0.6975  0.9918
 7856SOL    HW135201   2.631   3.200   6.455  1.3706  1.1413  0.6730
 7856SOL    HW235202   2.692   3.059   6.471  0.4551  0.5302 -2.8622
 7857SOL     OW35203   0.210   2.558  10.510 -0.2434  0.7833 -0.0557
 7857SOL    HW135204   0.194   2.609  10.590  0.4314  1.6411 -0.4604
 7857SOL    HW235205   0.273   2.621  10.475  0.4993 -0.1406 -0.3611
 7858SOL     OW35206   3.480   3.301   8.381 -0.2655 -0.1255 -0.1849
 7858SOL    HW135207   3.453   3.393   8.377 -0.2150  0.0193  2.3381
 7858SOL    HW235208   3.415   3.256   8.435 -1.0556  1.2894  0.0349
 7859SOL     OW35209   1.784   2.001  12.294 -0.2036 -0.0254 -0.0042
 7859SOL    HW135210   1.751   2.085  12.325  1.1941  0.7691 -0.6615
 7859SOL    HW235211   1.865   2.031  12.253 -0.5512  1.6047  0.4977
 7860SOL     OW35212   4.385   2.741   6.767  0.0753  0.3262  0.5111
 7860SOL    HW135213   4.366   2.695   6.686  0.2869 -1.2411  1.3577
 7860SOL    HW235214   4.443   2.676   6.808 -0.5821 -1.0182 -0.6851
 7861SOL     OW35215   1.873   0.797   7.704  0.2861 -0.1230  0.6943
 7861SOL    HW135216   1.909   0.759   7.624 -0.4769  1.8781 -0.5947
 7861SOL    HW235217   1.960   0.808   7.743  0.7657 -0.2129 -0.3355
 7862SOL     OW35218   2.889   2.176   2.503  0.1358 -0.5481 -0.0125
 7862SOL    HW135219   2.929   2.261   2.518  0.8422 -0.8596 -0.1089
 7862SOL    HW235220   2.952   2.123   2.552  1.4480  1.6808  0.6814
 7863SOL     OW35221   0.310   1.352   3.977  0.3357  0.1551 -0.4525
 7863SOL    HW135222   0.398   1.384   3.995  0.4978 -1.1711  1.1408
 7863SOL    HW235223   0.309   1.306   3.893  1.8061 -0.4107 -0.1582
 7864SOL     OW35224   2.110   1.950  15.783 -0.5861 -0.1181 -0.2486
 7864SOL    HW135225   2.079   1.947  15.874 -1.8674 -5.7636 -0.8723
 7864SOL    HW235226   2.080   2.034  15.749 -3.8303 -1.2425 -0.1989
 7865SOL     OW35227   2.762   0.066  11.908 -0.3617  0.4855  0.0243
 7865SOL    HW135228   2.749   4.716  11.870  0.8366  0.5434 -0.4966
 7865SOL    HW235229   2.766   0.121  11.829 -3.3736  1.8366  0.7904
 7866SOL     OW35230   1.401   3.341   3.082 -0.4854  0.2612  0.8962
 7866SOL    HW135231   1.324   3.362   3.029 -1.0676  0.3212  1.7703
 7866SOL    HW235232   1.445   3.426   3.085  0.5317 -0.1940 -1.1124
 7867SOL     OW35233   1.437   2.664   4.239  0.1031  0.1482  0.4557
 7867SOL    HW135234   1.387   2.585   4.258  0.2470 -0.3498 -1.2571
 7867SOL    HW235235   1.460   2.642   4.148 -0.7351  3.5056 -0.5475
 7868SOL     OW35236   4.693   3.972   2.735  0.2347  0.2172 -0.2775
 7868SOL    HW135237   4.670   3.966   2.828 -0.5111  1.7465 -0.3688
 7868SOL    HW235238   0.037   4.021   2.749 -0.3248  0.9928  0.2582
 7869SOL     OW35239   1.998   2.704   5.694 -0.5716 -0.1627  0.1776
 7869SOL    HW135240   2.031   2.647   5.763  0.0383 -0.0293 -0.0008
 7869SOL    HW235241   1.907   2.675   5.700 -0.5180 -0.0536  1.4486
 7870SOL     OW35242   4.426   0.654   5.800 -0.0112 -0.1805 -0.6762
 7870SOL    HW135243   4.511   0.667   5.843 -0.6966 -1.6167  1.1569
 7870SOL    HW235244   4.450   0.603   5.723  0.4777  0.5361 -1.0002
 7871SOL     OW35245   0.974   1.703   5.202  0.4140  0.7037  0.5816
 7871SOL    HW135246   0.890   1.685   5.159  1.5745 -2.2266 -0.4623
 7871SOL    HW235247   1.031   1.753   5.143  0.1944  0.1324 -0.1245
 7872SOL     OW35248   3.234   0.477  12.744  0.3147 -0.0668  0.3437
 7872SOL    HW135249   3.300   0.543  12.721 -0.2092  0.6744  0.9861
 7872SOL    HW235250   3.283   0.395  12.737  0.5570  0.0584  0.5662
 7873SOL     OW35251   3.115   2.752  17.383  0.1333  0.5267 -0.1945
 7873SOL    HW135252   3.162   2.768  17.465  1.2099 -0.3080 -0.6545
 7873SOL    HW235253   3.044   2.817  17.378  0.0463  0.3818 -0.8916
 7874SOL     OW35254   3.851   2.207   6.135  0.3704 -0.0779 -0.3649
 7874SOL    HW135255   3.929   2.181   6.182 -0.0292  0.3953  0.5535
 7874SOL    HW235256   3.780   2.160   6.179 -1.3042  1.5296 -1.3382
 7875SOL     OW35257   2.344   1.068   7.066  0.4680  0.0289  0.1791
 7875SOL    HW135258   2.349   1.075   7.161 -1.4435  0.5321  0.2315
 7875SOL    HW235259   2.309   1.155   7.050 -1.0876 -0.5313  0.5404
 7876SOL     OW35260   0.348   3.881  11.247  0.9572  0.0616  0.8860
 7876SOL    HW135261   0.425   3.829  11.271 -0.6469 -3.4988 -1.6977
 7876SOL    HW235262   0.354   3.872  11.152  2.7860  1.7223  0.8637
 7877SOL     OW35263   4.020   2.442   7.071  0.5094 -0.0685 -0.4685
 7877SOL    HW135264   3.945   2.478   7.118  1.0734  0.7986 -0.2355
 7877SOL    HW235265   3.986   2.354   7.054  0.3475 -0.3757  1.5300
 7878SOL     OW35266   1.536   4.013  16.511  0.1742 -0.1491  0.1167
 7878SOL    HW135267   1.549   4.065  16.432 -2.7267 -0.3794 -0.5021
 7878SOL    HW235268   1.541   3.924  16.477 -0.0206  0.1598 -0.7076
 7879SOL     OW35269   2.694   1.931  11.183  0.3649 -0.1380 -0.2899
 7879SOL    HW135270   2.678   1.893  11.097 -2.2872  0.1645  0.0672
 7879SOL    HW235271   2.779   1.890  11.198  0.2409 -0.5235 -0.6417
 7880SOL     OW35272   3.510   1.124   5.635 -0.8336 -0.7798 -0.0613
 7880SOL    HW135273   3.450   1.111   5.709 -0.8204  1.5889  0.3543
 7880SOL    HW235274   3.461   1.175   5.571  0.5343  1.8086  0.9422
 7881SOL     OW35275   3.707   4.150   6.294  0.4636  0.6128 -0.5588
 7881SOL    HW135276   3.669   4.169   6.380  0.7640 -1.1629 -0.0357
 7881SOL    HW235277   3.627   4.113   6.258 -0.0243 -0.3898  1.5724
 7882SOL     OW35278   3.784   4.008   6.828  0.4836  0.2109 -0.2008
 7882SOL    HW135279   3.690   3.995   6.835  0.8817 -2.6635 -0.2295
 7882SOL    HW235280   3.799   4.101   6.842  0.3362  0.5130 -1.9764
 7883SOL     OW35281   2.453   4.103   3.889 -0.3254 -0.4403  0.8756
 7883SOL    HW135282   2.434   4.155   3.967 -0.7500 -0.3410  0.7073
 7883SOL    HW235283   2.437   4.015   3.923 -0.9358 -0.5570  0.2976
 7884SOL     OW35284   1.521   0.596   0.080  0.8046 -0.2564  0.2615
 7884SOL    HW135285   1.450   0.533   0.063  0.5624 -0.2317  1.2065
 7884SOL    HW235286   1.593   0.533   0.081 -0.0507 -1.2006  1.4352
 7885SOL     OW35287   3.847   1.813   4.539  0.2792  0.0323 -0.0838
 7885SOL    HW135288   3.774   1.825   4.600  0.8462  0.5061  0.5025
 7885SOL    HW235289   3.921   1.851   4.587 -1.6110  1.4598  1.7565
 7886SOL     OW35290   3.834   1.736  12.641  0.1795  0.2322 -0.0255
 7886SOL    HW135291   3.831   1.661  12.582 -2.1851 -0.1143  0.5665
 7886SOL    HW235292   3.843   1.696  12.728  0.3185 -1.1601 -0.6913
 7887SOL     OW35293   3.475   1.141   6.119  0.0920  0.3781  0.2809
 7887SOL    HW135294   3.521   1.193   6.054  0.8330  0.0813  0.5646
 7887SOL    HW235295   3.544   1.129   6.184  0.1620 -1.4718 -0.1198
 7888SOL     OW35296   2.476   2.861   7.053  0.1917 -0.2441  0.2045
 7888SOL    HW135297   2.509   2.774   7.078  1.0306 -0.3499 -1.2656
 7888SOL    HW235298   2.420   2.881   7.128  0.2191  0.0181  0.1565
 7889SOL     OW35299   1.283   2.984  17.165 -0.0167  0.2318  0.3514
 7889SOL    HW135300   1.231   2.980  17.084  2.5206  2.1487 -1.3859
 7889SOL    HW235301   1.213   2.989  17.230 -0.4186 -0.9989  0.0115
 7890SOL     OW35302   2.661   3.929   0.405 -0.5001  0.2809  0.2122
 7890SOL    HW135303   2.583   3.874   0.411 -0.5768  0.1766 -1.6965
 7890SOL    HW235304   2.670   3.943   0.311  0.0227 -2.3206 -0.1234
 7891SOL     OW35305   0.652   0.725   7.941 -0.1603 -0.2523 -0.4641
 7891SOL    HW135306   0.684   0.678   8.018  0.2931 -0.7902 -0.9779
 7891SOL    HW235307   0.568   0.686   7.920 -0.6508 -0.0524  1.1220
 7892SOL     OW35308   2.003   1.858   2.178 -0.1222  0.0110 -0.2364
 7892SOL    HW135309   2.072   1.899   2.126  0.0027  0.2810  0.1465
 7892SOL    HW235310   1.971   1.783   2.127 -1.2899  0.5551 -0.3233
 7893SOL     OW35311   2.906   3.512   7.277  0.0782  0.3267 -0.1942
 7893SOL    HW135312   2.899   3.418   7.260  2.9765 -0.1722  1.3278
 7893SOL    HW235313   2.995   3.516   7.312  0.5465  0.8621 -1.4641
 7894SOL     OW35314   0.453   3.910  14.777 -0.0747  0.2574  0.7130
 7894SOL    HW135315   0.517   3.931  14.709 -1.2385  0.5553 -0.2968
 7894SOL    HW235316   0.388   3.874  14.717  0.4959  0.0458  0.2230
 7895SOL     OW35317   0.840   2.671   5.622 -0.1690  0.0211 -0.0815
 7895SOL    HW135318   0.898   2.622   5.680 -0.6235 -0.3876  0.0245
 7895SOL    HW235319   0.803   2.736   5.683 -0.4592 -0.1827 -0.0439
 7896SOL     OW35320   1.243   1.614   7.674 -0.4092 -0.0707 -0.2695
 7896SOL    HW135321   1.261   1.532   7.719  2.5000  0.7919  0.1497
 7896SOL    HW235322   1.220   1.577   7.589 -2.2366  1.7182 -0.5473
 7897SOL     OW35323   1.470   3.878   8.576 -0.3771 -0.3237  0.2591
 7897SOL    HW135324   1.513   3.919   8.502  1.6703 -0.4135  1.4012
 7897SOL    HW235325   1.389   3.858   8.529 -0.5577  0.4597  0.2292
 7898SOL     OW35326   3.366   1.511   6.841  0.3215  0.4215 -0.3083
 7898SOL    HW135327   3.365   1.428   6.889 -0.0856  1.2909  1.2008
 7898SOL    HW235328   3.308   1.565   6.895  1.1733  0.8121  0.2064
 7899SOL     OW35329   2.781   2.459   2.245 -0.3170 -0.2998  0.7936
 7899SOL    HW135330   2.746   2.521   2.309  1.0363  0.9329  0.3543
 7899SOL    HW235331   2.732   2.378   2.262 -0.7471  0.2263  2.0616
 7900SOL     OW35332   0.277   2.693   3.858 -0.4373  0.0332  0.3064
 7900SOL    HW135333   0.191   2.672   3.895 -1.1409 -1.0226 -1.9824
 7900SOL    HW235334   0.309   2.615   3.814 -0.1197 -0.3726  1.2583
 7901SOL     OW35335   2.562   4.140  14.687 -0.2881  0.6447  0.3803
 7901SOL    HW135336   2.497   4.155  14.756 -0.9710 -0.3736 -0.0622
 7901SOL    HW235337   2.632   4.198  14.718 -0.6704 -0.2731  3.0219
 7902SOL     OW35338   3.217   1.237   4.755 -0.0782  0.3621  0.0227
 7902SOL    HW135339   3.264   1.319   4.743  0.8637  0.0864  1.7043
 7902SOL    HW235340   3.154   1.238   4.683 -1.1889 -0.9672  0.9638
 7903SOL     OW35341   4.092   0.001   6.886 -0.3590  0.3893  0.2598
 7903SOL    HW135342   4.015   0.054   6.864  0.9316  2.4099  0.6205
 7903SOL    HW235343   4.157   0.013   6.816  1.0300 -1.2391  1.2692
 7904SOL     OW35344   0.500   1.168   6.629  0.7505 -0.0706  0.8484
 7904SOL    HW135345   0.544   1.250   6.606  0.6877  0.0544  1.1726
 7904SOL    HW235346   0.567   1.114   6.589  0.9995  0.4141  0.6175
 7905SOL     OW35347   2.454   0.946   5.337  0.3619 -0.0508  0.0688
 7905SOL    HW135348   2.369   0.901   5.338 -0.1070  0.8423  0.7726
 7905SOL    HW235349   2.445   1.005   5.262  2.5110  0.0330 -0.1174
 7906SOL     OW35350   0.784   3.295   1.644  0.5887 -0.2315 -0.1683
 7906SOL    HW135351   0.727   3.296   1.566 -0.0294 -0.3835  0.2795
 7906SOL    HW235352   0.772   3.385   1.676  2.6010 -0.1295  0.2943
 7907SOL     OW35353   0.499   1.380   3.215 -0.0915 -0.6982 -0.4665
 7907SOL    HW135354   0.482   1.303   3.161 -1.5755 -0.9110  0.2884
 7907SOL    HW235355   0.591   1.382   3.192  0.2913  1.2340  1.1681
 7908SOL     OW35356   2.083   2.452  10.564 -0.3161 -0.4465 -0.3177
 7908SOL    HW135357   2.048   2.384  10.622  0.1651 -1.0474 -0.7228
 7908SOL    HW235358   2.169   2.453  10.605 -0.2305 -1.1239 -0.4810
 7909SOL     OW35359   2.125   2.990   7.893  0.0649 -0.5347 -0.4838
 7909SOL    HW135360   2.181   3.067   7.893  1.0862 -1.2732  0.9891
 7909SOL    HW235361   2.110   2.967   7.802 -0.7844  2.3682 -1.0644
 7910SOL     OW35362   4.655   2.133   8.945  0.0282  0.3875  0.2317
 7910SOL    HW135363   4.737   2.179   8.959  0.0119  0.5418 -0.1825
 7910SOL    HW235364   4.661   2.074   9.020 -2.4006  1.1547  1.0338
 7911SOL     OW35365   4.391   3.972   2.922 -0.3269 -0.3578 -0.9465
 7911SOL    HW135366   4.354   4.060   2.926  2.0923  0.6549 -1.2489
 7911SOL    HW235367   4.473   3.986   2.969 -0.9302 -0.9482  0.3042
 7912SOL     OW35368   3.112   2.358   2.067 -0.0827 -0.4354 -0.1997
 7912SOL    HW135369   3.057   2.429   2.034  3.8622  3.3022  1.2690
 7912SOL    HW235370   3.099   2.373   2.161 -0.0401  1.3566 -0.4723
 7913SOL     OW35371   0.891   3.629   6.044 -0.4628  0.0351 -0.5216
 7913SOL    HW135372   0.961   3.601   6.103  0.4567 -0.0482 -1.6554
 7913SOL    HW235373   0.940   3.640   5.963  0.1962  2.0085  0.1263
 7914SOL     OW35374   0.165   1.373   5.108  0.1146 -0.0416 -0.1880
 7914SOL    HW135375   0.192   1.355   5.018  2.5891 -0.0346  0.5668
 7914SOL    HW235376   0.101   1.443   5.093 -2.6444 -2.7909 -1.3297
 7915SOL     OW35377   3.125   2.598  14.350  0.6592  0.0037 -0.3166
 7915SOL    HW135378   3.119   2.672  14.289 -2.8746 -1.7017 -2.0203
 7915SOL    HW235379   3.103   2.637  14.434  0.3185  0.8054 -0.7708
 7916SOL     OW35380   0.058   1.091  12.336 -0.3609 -0.0095 -0.1333
 7916SOL    HW135381   0.078   1.182  12.316 -0.5092  0.4764  1.9744
 7916SOL    HW235382   4.719   1.097  12.393 -0.5043  0.2264 -0.3518
 7917SOL     OW35383   4.587   2.718   5.311  0.1402 -0.5741  0.1566
 7917SOL    HW135384   4.672   2.675   5.307  0.3370  0.0101 -1.8789
 7917SOL    HW235385   4.528   2.657   5.267 -2.1391  0.0567  2.3329
 7918SOL     OW35386   4.204   3.513   8.305  0.3903  0.0635  0.8610
 7918SOL    HW135387   4.256   3.434   8.321 -0.0937 -0.3227  0.5348
 7918SOL    HW235388   4.199   3.522   8.210 -4.1779  2.8295  1.3527
 7919SOL     OW35389   4.046   2.692   6.863 -0.7619  0.3029  0.0115
 7919SOL    HW135390   4.027   2.754   6.792  1.1768  0.0564 -0.7056
 7919SOL    HW235391   3.965   2.643   6.850 -0.7214  0.1341  0.3883
 7920SOL     OW35392   2.984   4.304   3.899 -0.0405  0.0627  0.4108
 7920SOL    HW135393   3.054   4.240   3.889 -1.5125 -1.7699  1.7803
 7920SOL    HW235394   2.990   4.326   3.992 -0.5943  0.1232  0.4349
 7921SOL     OW35395   2.969   3.880   7.909 -0.2050 -0.1008 -0.3136
 7921SOL    HW135396   2.899   3.823   7.878 -0.8908  0.2360  0.6122
 7921SOL    HW235397   2.947   3.959   7.860 -1.5093  0.1681  0.6950
 7922SOL     OW35398   0.062   3.431   1.897 -0.1587 -0.4457  0.1650
 7922SOL    HW135399   0.009   3.490   1.845  0.4297 -0.7006 -0.7195
 7922SOL    HW235400   0.069   3.474   1.983  0.0257  1.3977 -0.7886
 7923SOL     OW35401   2.332   2.514   5.286  0.4721  0.1243  0.0268
 7923SOL    HW135402   2.278   2.437   5.304  0.1285  0.2739 -0.3694
 7923SOL    HW235403   2.267   2.583   5.271  1.2419  1.0660  1.0488
 7924SOL     OW35404   4.532   3.297   6.565 -0.3712 -0.2552 -0.7292
 7924SOL    HW135405   4.442   3.320   6.544 -0.3579 -0.9595 -1.5991
 7924SOL    HW235406   4.569   3.383   6.584 -3.0771  1.3509 -2.6974
 7925SOL     OW35407   0.470   1.273   5.497 -0.3261  0.4747 -0.0283
 7925SOL    HW135408   0.423   1.335   5.442 -0.7197  0.6732  0.5291
 7925SOL    HW235409   0.558   1.307   5.478 -0.2311 -0.6471 -1.5487
 7926SOL     OW35410   1.484   1.997   2.965  0.2527 -0.0607  0.5910
 7926SOL    HW135411   1.460   1.995   3.057 -2.9556 -0.5449 -0.2603
 7926SOL    HW235412   1.435   2.073   2.934 -0.3499 -0.5941  0.2498
 7927SOL     OW35413   2.188   0.952  11.193  0.4593 -0.6263  0.3314
 7927SOL    HW135414   2.248   0.953  11.119 -0.3093  0.3486 -0.2856
 7927SOL    HW235415   2.220   1.031  11.237  0.2416  0.6944 -1.8818
 7928SOL     OW35416   3.145   1.755   7.683 -0.3038 -0.1602  0.2723
 7928SOL    HW135417   3.172   1.787   7.769  2.1573 -2.5455  0.3978
 7928SOL    HW235418   3.110   1.666   7.687  1.8458 -0.9919  0.7288
 7929SOL     OW35419   1.269   1.896  16.721  0.5410 -0.2038  0.0323
 7929SOL    HW135420   1.360   1.866  16.718  0.3704 -1.0803  3.7146
 7929SOL    HW235421   1.276   1.970  16.781  2.7633  1.1341 -1.8403
 7930SOL     OW35422   2.699   0.288   6.343 -0.2448 -0.0426  0.1166
 7930SOL    HW135423   2.661   0.201   6.332  2.4129 -1.2634  0.4044
 7930SOL    HW235424   2.763   0.275   6.414 -0.9093 -2.0321  0.3556
 7931SOL     OW35425   1.399   0.184   5.839 -0.2072 -0.2048 -0.3166
 7931SOL    HW135426   1.312   0.144   5.843 -1.1263  1.6140 -2.2972
 7931SOL    HW235427   1.406   0.215   5.749 -2.8163  2.4629  0.4127
 7932SOL     OW35428   1.869   1.662   2.021 -0.1047 -0.1175  0.5208
 7932SOL    HW135429   1.910   1.583   1.986  1.3646  0.7346  0.3150
 7932SOL    HW235430   1.833   1.701   1.941 -1.2150  0.6034  1.3659
 7933SOL     OW35431   4.471   3.007  11.420  0.3385 -0.6922  0.1444
 7933SOL    HW135432   4.381   2.984  11.397 -0.0344 -0.3315  1.2472
 7933SOL    HW235433   4.468   3.025  11.515 -0.7884  1.2808 -0.2598
 7934SOL     OW35434   1.444   4.317   6.353  0.1575  0.2630  0.4297
 7934SOL    HW135435   1.539   4.304   6.354  0.1246 -0.0242 -1.4514
 7934SOL    HW235436   1.412   4.229   6.335  1.6771 -0.6524  2.1590
 7935SOL     OW35437   3.877   2.022  10.436 -0.9669  0.3898 -0.3750
 7935SOL    HW135438   3.910   2.110  10.453  3.2355 -1.5417  1.3084
 7935SOL    HW235439   3.785   2.024  10.461 -0.6954  0.3738  0.6045
 7936SOL     OW35440   1.072   2.750  17.303 -0.0100  0.1179 -0.2141
 7936SOL    HW135441   1.097   2.834  17.341 -0.6850 -0.0260  0.5430
 7936SOL    HW235442   0.977   2.760  17.299 -0.0452 -0.4749 -0.9610
 7937SOL     OW35443   2.790   2.021   7.536  0.0384  0.2134 -0.0725
 7937SOL    HW135444   2.855   2.075   7.491  0.1214  1.0573  1.0657
 7937SOL    HW235445   2.793   2.057   7.625  0.8696  0.6226 -0.2606
 7938SOL     OW35446   2.111   1.697   9.629 -0.1147 -0.4215  0.4625
 7938SOL    HW135447   2.108   1.657   9.716  2.2318  1.2611  1.3236
 7938SOL    HW235448   2.200   1.734   9.632 -0.8209  1.2381  0.9508
 7939SOL     OW35449   4.138   2.384   8.243 -0.1808 -0.4094  0.4754
 7939SOL    HW135450   4.106   2.474   8.239  0.0865 -0.3860 -1.1143
 7939SOL    HW235451   4.194   2.359   8.170  2.5419 -1.8934  3.0694
 7940SOL     OW35452   4.442   2.677   8.640 -0.3662  0.1978  0.0257
 7940SOL    HW135453   4.485   2.603   8.597 -1.3865 -1.9499  2.7493
 7940SOL    HW235454   4.411   2.640   8.723 -1.1250  2.0967  0.5805
 7941SOL     OW35455   0.334   0.477  12.051  0.4754 -0.0049  0.5857
 7941SOL    HW135456   0.296   0.517  11.973 -0.8343 -1.0270  0.7031
 7941SOL    HW235457   0.354   0.553  12.107 -1.0316 -0.2400  1.4474
 7942SOL     OW35458   3.256   3.409   8.905 -0.2425 -0.5513  0.1477
 7942SOL    HW135459   3.316   3.380   8.973 -0.8796 -0.3502  0.7992
 7942SOL    HW235460   3.190   3.341   8.918 -0.1117 -0.5341  0.8826
 7943SOL     OW35461   0.988   3.538  11.036 -0.2632 -0.0748 -0.3183
 7943SOL    HW135462   0.905   3.541  10.989 -2.0296  1.3983  2.8680
 7943SOL    HW235463   1.041   3.508  10.962  0.7670  1.2448 -0.1227
 7944SOL     OW35464   1.819   4.381   2.199  0.2723 -0.2402  0.6628
 7944SOL    HW135465   1.794   4.333   2.278 -1.5758 -0.9022 -0.3407
 7944SOL    HW235466   1.898   4.429   2.223  0.7628 -0.6472 -0.1252
 7945SOL     OW35467   3.708   1.919  15.492 -0.1223  1.1189  0.8287
 7945SOL    HW135468   3.704   1.950  15.401 -0.3259 -0.5631  0.2596
 7945SOL    HW235469   3.791   1.874  15.477  0.1241  0.6418  3.6223
 7946SOL     OW35470   0.560   2.739   3.856  0.0544  0.0024  0.1497
 7946SOL    HW135471   0.548   2.763   3.948  1.7142 -0.7904  0.5859
 7946SOL    HW235472   0.472   2.760   3.827  0.7593  2.1706 -0.4049
 7947SOL     OW35473   2.402   3.874  16.530  1.0815  0.0024 -0.0641
 7947SOL    HW135474   2.414   3.967  16.514  0.7283  0.1875  0.7486
 7947SOL    HW235475   2.465   3.865  16.602  1.8086  1.6096 -0.5001
 7948SOL     OW35476   3.483   1.094   4.749  0.2698 -0.2384  0.2711
 7948SOL    HW135477   3.447   1.016   4.791  0.7490 -1.7685 -2.1991
 7948SOL    HW235478   3.400   1.143   4.745 -0.3390 -1.1522  2.0267
 7949SOL     OW35479   1.287   0.097  16.591  0.1975 -0.2882 -0.1152
 7949SOL    HW135480   1.192   0.087  16.599  0.2052  0.9812  1.5491
 7949SOL    HW235481   1.302   0.057  16.506 -1.1051 -0.8164 -0.1027
 7950SOL     OW35482   4.734   1.178   2.522  0.1230  0.7445  0.0028
 7950SOL    HW135483   0.068   1.133   2.477  0.6001 -0.8001  2.3128
 7950SOL    HW235484   0.042   1.242   2.576  0.9362 -0.2735  0.5182
 7951SOL     OW35485   0.229   1.907  11.464 -0.5605 -0.2328  0.0754
 7951SOL    HW135486   0.178   1.970  11.412 -1.2632 -0.6027  0.3194
 7951SOL    HW235487   0.317   1.930  11.434  0.0837 -0.5751  1.7290
 7952SOL     OW35488   4.505   0.703   8.374 -0.2981  0.3103 -0.0230
 7952SOL    HW135489   4.565   0.738   8.439  2.3346 -0.6170 -1.9838
 7952SOL    HW235490   4.422   0.716   8.420  0.1777  1.2416  0.5471
 7953SOL     OW35491   3.557   0.616   3.885 -0.1644  0.0795 -0.3854
 7953SOL    HW135492   3.466   0.618   3.913 -0.6775 -0.5799 -2.0011
 7953SOL    HW235493   3.582   0.538   3.935 -0.5395  1.7561  2.3950
 7954SOL     OW35494   2.071   1.774  17.279  0.2212 -0.4731  0.0507
 7954SOL    HW135495   2.076   1.866  17.304  2.8855 -0.5539 -0.2032
 7954SOL    HW235496   2.047   1.737  17.364 -0.6349 -1.3546 -0.5772
 7955SOL     OW35497   4.152   1.164  10.460 -0.2774  0.0254  0.8610
 7955SOL    HW135498   4.167   1.246  10.412  0.8843 -0.5315  0.2647
 7955SOL    HW235499   4.057   1.155  10.446  0.4085 -1.9915 -2.6406
 7956SOL     OW35500   2.406   0.397   6.089 -1.0511 -0.1156  0.0285
 7956SOL    HW135501   2.429   0.487   6.068  1.1927 -0.6707  0.1125
 7956SOL    HW235502   2.350   0.413   6.165 -1.9589 -0.0927 -0.6454
 7957SOL     OW35503   1.261   4.171   2.298  0.1781  0.1578 -0.3461
 7957SOL    HW135504   1.317   4.115   2.244 -0.4618 -1.0586  0.2530
 7957SOL    HW235505   1.249   4.113   2.373  0.8749 -1.0487 -1.1716
 7958SOL     OW35506   3.711   3.285   9.764  0.0947  0.0328 -0.5602
 7958SOL    HW135507   3.773   3.216   9.786 -1.9184 -1.4389  0.5324
 7958SOL    HW235508   3.756   3.337   9.697  0.2527 -0.8865 -1.1613
 7959SOL     OW35509   3.975   3.880   8.312  0.2787 -0.2631 -0.5872
 7959SOL    HW135510   3.962   3.855   8.403  3.2963 -0.6723 -0.2568
 7959SOL    HW235511   4.047   3.944   8.315  0.5720 -0.5361 -1.9115
 7960SOL     OW35512   0.148   0.050   8.568 -0.0842 -0.0535  0.0550
 7960SOL    HW135513   0.169   4.694   8.577 -2.3742 -0.7029 -1.4429
 7960SOL    HW235514   0.144   0.061   8.473  1.6617  1.0422  0.1136
 7961SOL     OW35515   2.544   3.116   4.885 -0.3354  0.1226  0.0935
 7961SOL    HW135516   2.617   3.087   4.831 -0.4059 -0.6428  0.4065
 7961SOL    HW235517   2.583   3.130   4.971 -2.7324  2.6109  0.7762
 7962SOL     OW35518   4.087   4.713   3.380 -0.0144 -0.0120  0.1923
 7962SOL    HW135519   4.022   4.651   3.347  1.0028 -0.4766 -0.9468
 7962SOL    HW235520   4.037   0.053   3.404  0.8702  0.5620  0.1890
 7963SOL     OW35521   3.975   0.203  14.366  0.7217 -0.4206  0.5131
 7963SOL    HW135522   4.016   0.162  14.290 -0.4123  1.8618 -1.3205
 7963SOL    HW235523   3.983   0.129  14.426  0.8921 -2.0087 -1.4833
 7964SOL     OW35524   0.715   4.319  17.513  1.2826 -0.0391  0.3932
 7964SOL    HW135525   0.622   4.330  17.531  1.7271 -1.3411  3.4928
 7964SOL    HW235526   0.741   4.411  17.517 -0.7044  0.6412 -2.0806
 7965SOL     OW35527   0.199   4.439  16.332 -0.1539 -0.0602 -0.1845
 7965SOL    HW135528   0.134   4.455  16.263 -1.3707 -0.8140  0.7879
 7965SOL    HW235529   0.270   4.501  16.314 -0.2272  0.2104  0.4528
 7966SOL     OW35530   3.274   1.423  12.857  0.0552  0.1287 -0.5776
 7966SOL    HW135531   3.286   1.444  12.764  0.0384  0.8121 -0.4285
 7966SOL    HW235532   3.363   1.444  12.883 -0.4467  2.4426 -0.6998
 7967SOL     OW35533   1.333   1.662   2.778 -0.1377  0.3172  0.2435
 7967SOL    HW135534   1.325   1.691   2.869 -3.5429  2.1383 -0.6257
 7967SOL    HW235535   1.276   1.726   2.736  1.9737  1.2481 -1.1926
 7968SOL     OW35536   2.599   4.232   8.006 -0.0370 -0.3892 -0.2072
 7968SOL    HW135537   2.599   4.301   7.940 -0.4044  0.1425  0.3508
 7968SOL    HW235538   2.534   4.169   7.973  1.3639 -0.9828 -1.8115
 7969SOL     OW35539   3.403   3.612   3.074 -0.4125  0.2031 -0.1281
 7969SOL    HW135540   3.402   3.539   3.011  0.8428  0.6092 -0.6126
 7969SOL    HW235541   3.487   3.656   3.059 -0.3250 -0.3463 -1.2331
 7970SOL     OW35542   0.467   0.343   9.437 -0.1121 -0.1063 -0.0035
 7970SOL    HW135543   0.411   0.349   9.514 -2.4624  0.9759 -1.7973
 7970SOL    HW235544   0.520   0.422   9.444  0.1350 -0.4263  1.6722
 7971SOL     OW35545   0.646   0.203  10.849 -0.3731 -1.0085  0.2409
 7971SOL    HW135546   0.737   0.179  10.831  0.1689 -0.0084  1.6631
 7971SOL    HW235547   0.604   0.120  10.870 -2.0507  0.1135  1.3201
 7972SOL     OW35548   1.062   2.154  10.633  0.4785 -0.4023 -0.7400
 7972SOL    HW135549   0.978   2.122  10.600 -0.2362  0.8647 -0.1537
 7972SOL    HW235550   1.030   2.240  10.661 -0.5688 -1.0023 -0.0813
 7973SOL     OW35551   0.427   0.365   7.428 -0.5425  0.3171  0.0612
 7973SOL    HW135552   0.365   0.405   7.367  0.3182  1.9032  0.2233
 7973SOL    HW235553   0.474   0.439   7.466 -0.7183  0.1907  0.5205
 7974SOL     OW35554   0.815   1.739   2.847 -0.3109  0.0261 -0.0368
 7974SOL    HW135555   0.776   1.806   2.790  1.7186  0.7757 -0.5284
 7974SOL    HW235556   0.769   1.750   2.930  0.1558  1.1881  0.0729
 7975SOL     OW35557   3.289   0.774   5.295  0.4736  0.1245 -0.2469
 7975SOL    HW135558   3.359   0.776   5.230  0.2348  1.7256 -0.4596
 7975SOL    HW235559   3.222   0.837   5.268 -2.7836 -2.8068  0.9139
 7976SOL     OW35560   0.920   3.047   2.609  0.2882  0.0915 -0.0149
 7976SOL    HW135561   0.930   2.972   2.668  0.5586 -0.1908 -0.4239
 7976SOL    HW235562   0.863   3.110   2.653 -0.5890 -1.2773  0.7816
 7977SOL     OW35563   1.199   4.383   2.990  0.3739 -0.0655 -0.2131
 7977SOL    HW135564   1.262   4.364   2.921  0.2264  0.5187 -0.5056
 7977SOL    HW235565   1.122   4.402   2.936 -0.0806  0.8161  0.7469
 7978SOL     OW35566   1.232   0.108   3.527  0.4805  0.3331 -0.2815
 7978SOL    HW135567   1.193   0.105   3.440  1.7196  0.7215 -0.8483
 7978SOL    HW235568   1.215   0.024   3.570  1.6343 -0.3855 -1.2353
 7979SOL     OW35569   4.620   2.671   3.196  0.0156  0.0278  0.0263
 7979SOL    HW135570   4.597   2.757   3.231 -0.5332  0.3708 -1.1848
 7979SOL    HW235571   4.558   2.658   3.124  0.2233  0.4884 -0.2342
 7980SOL     OW35572   2.233   0.426   6.310  0.2196  0.5770  0.0732
 7980SOL    HW135573   2.177   0.355   6.281  2.1905 -0.6372 -0.7714
 7980SOL    HW235574   2.251   0.414   6.404 -0.6550  0.1907  0.1919
 7981SOL     OW35575   1.026   1.691   2.578 -0.1604  0.3971  0.0229
 7981SOL    HW135576   0.982   1.618   2.621 -0.7704  2.1568  2.3815
 7981SOL    HW235577   0.983   1.698   2.493  0.8506  0.1573 -0.5219
 7982SOL     OW35578   0.458   0.678  12.804  0.3410 -0.3195  0.0632
 7982SOL    HW135579   0.491   0.743  12.742 -2.4108 -1.0940 -2.1778
 7982SOL    HW235580   0.530   0.662  12.866  0.5478 -0.2886 -0.1717
 7983SOL     OW35581   3.904   4.132  11.989 -0.2583 -0.1007  0.2239
 7983SOL    HW135582   3.875   4.069  11.923  0.4189 -2.5722  2.2706
 7983SOL    HW235583   3.993   4.136  11.954  0.8147  0.9481  3.0483
 7984SOL     OW35584   3.793   3.086   1.130  0.3020  0.2871  0.6835
 7984SOL    HW135585   3.838   3.038   1.199  2.1815 -1.2680 -1.6273
 7984SOL    HW235586   3.712   3.041   1.106  0.0397  0.1653  1.8022
 7985SOL     OW35587   3.083   2.093   2.109  0.5178  0.7638 -0.1472
 7985SOL    HW135588   3.033   2.046   2.043 -1.7269 -2.7101  4.0745
 7985SOL    HW235589   3.085   2.185   2.081 -1.1456  0.4577 -1.2113
 7986SOL     OW35590   1.519   3.110   2.265  0.0458  0.5540 -0.0213
 7986SOL    HW135591   1.524   3.096   2.171 -0.5910  0.6119 -0.0644
 7986SOL    HW235592   1.427   3.104   2.292 -0.7170 -0.6776 -2.9798
 7987SOL     OW35593   2.329   2.529   8.856 -0.1868  0.3084  0.3217
 7987SOL    HW135594   2.363   2.618   8.845  2.1458 -0.5287  0.7028
 7987SOL    HW235595   2.330   2.494   8.767  3.6672 -1.1695  0.9367
 7988SOL     OW35596   2.850   1.997   1.952  0.0044 -0.3603  0.4693
 7988SOL    HW135597   2.757   2.000   1.976 -0.1270  1.0387 -0.2199
 7988SOL    HW235598   2.848   2.010   1.857  2.7096 -2.2213  0.1458
 7989SOL     OW35599   2.413   1.430   2.945  0.2810  0.1954  0.2659
 7989SOL    HW135600   2.457   1.381   2.875  0.9574  1.9994 -0.5979
 7989SOL    HW235601   2.331   1.455   2.902  0.7070 -0.1728 -0.7650
 7990SOL     OW35602   1.446   1.658   5.936  0.4806  0.1367  0.5090
 7990SOL    HW135603   1.384   1.664   5.863  0.4660 -0.0150  0.5098
 7990SOL    HW235604   1.529   1.665   5.888  0.9223 -1.0119  1.1227
 7991SOL     OW35605   3.720   3.572   7.260 -0.6700 -0.7608  0.0553
 7991SOL    HW135606   3.761   3.642   7.311 -1.3927  0.9821 -1.7663
 7991SOL    HW235607   3.790   3.538   7.204 -0.0551  0.4998  0.0575
 7992SOL     OW35608   2.919   0.347  10.445  0.5803  0.0686 -0.2998
 7992SOL    HW135609   2.990   0.285  10.456 -0.3292 -0.7560  0.8236
 7992SOL    HW235610   2.847   0.290  10.469 -1.0191  2.1403 -0.1111
 7993SOL     OW35611   1.997   1.651   6.967 -0.5961 -0.0001  0.0997
 7993SOL    HW135612   1.929   1.710   6.932 -0.4900  0.5305  0.7836
 7993SOL    HW235613   1.960   1.619   7.049 -1.7364 -0.4397 -0.5851
 7994SOL     OW35614   2.032   0.123  16.754 -0.8529 -0.4850  0.3972
 7994SOL    HW135615   1.945   0.112  16.792  0.0067 -0.7303  2.2806
 7994SOL    HW235616   2.061   0.203  16.797 -0.0943 -0.2914 -0.4818
 7995SOL     OW35617   0.294   3.823  14.592 -0.3726 -0.2808 -0.2486
 7995SOL    HW135618   0.198   3.820  14.602 -0.3063 -0.2319  0.4042
 7995SOL    HW235619   0.305   3.731  14.567 -0.0166 -0.3645  0.2138
 7996SOL     OW35620   1.627   4.404  15.974 -0.2977  0.2101  0.5614
 7996SOL    HW135621   1.583   4.361  15.900  0.7314 -0.9639  0.6404
 7996SOL    HW235622   1.674   4.330  16.012 -0.9248 -0.0357  0.8619
 7997SOL     OW35623   3.654   2.766  14.849 -0.3473  0.0331  0.3494
 7997SOL    HW135624   3.748   2.778  14.839 -0.5219  0.5926 -0.6077
 7997SOL    HW235625   3.633   2.796  14.761 -0.6021  1.6797  0.9497
 7998SOL     OW35626   0.354   2.347  11.005  0.4101 -0.2860  0.0452
 7998SOL    HW135627   0.430   2.306  11.046 -0.4865 -4.7181 -2.6855
 7998SOL    HW235628   0.328   2.422  11.058 -0.3868 -1.0302  0.7172
 7999SOL     OW35629   1.094   0.703  12.454 -0.3232  0.0360  0.0916
 7999SOL    HW135630   1.117   0.703  12.547  0.3314  3.0384 -0.0700
 7999SOL    HW235631   1.070   0.611  12.456  1.5909 -0.4377  1.6282
 8000SOL     OW35632   2.747   0.565  11.512  0.5443  0.3227  0.4239
 8000SOL    HW135633   2.728   0.646  11.559  2.2720  2.5248 -2.6215
 8000SOL    HW235634   2.840   0.554  11.533  0.5199  1.3245  1.0669
 8001SOL     OW35635   4.485   2.485   8.036 -0.8892 -0.1804 -0.4941
 8001SOL    HW135636   4.416   2.541   7.998 -1.3120  0.6678  1.5378
 8001SOL    HW235637   4.549   2.549   8.066  0.7131 -2.8296  1.6831
 8002SOL     OW35638   1.415   0.599   1.869 -0.1693  0.0077  0.7540
 8002SOL    HW135639   1.453   0.666   1.926  1.7081 -0.6569  0.2882
 8002SOL    HW235640   1.373   0.653   1.802 -0.3011 -1.7624 -0.5761
 8003SOL     OW35641   1.530   3.132   2.751  0.1418  0.4738 -0.1913
 8003SOL    HW135642   1.553   3.126   2.658 -0.4045  1.8792 -0.4135
 8003SOL    HW235643   1.437   3.112   2.748  0.7478 -2.5757  1.1663
 8004SOL     OW35644   3.871   3.229   3.183 -0.5234 -0.1185  0.1894
 8004SOL    HW135645   3.833   3.312   3.213 -0.1047  0.3040 -0.4692
 8004SOL    HW235646   3.797   3.200   3.131  0.2498 -1.5670 -0.0817
 8005SOL     OW35647   3.928   1.629   6.845 -0.1599  0.0438  0.2787
 8005SOL    HW135648   3.937   1.576   6.925  0.3350  1.1631  0.9683
 8005SOL    HW235649   4.006   1.683   6.855  0.4821 -0.7533 -0.4046
 8006SOL     OW35650   0.149   0.735  12.892  0.0559 -0.4755  0.6363
 8006SOL    HW135651   0.237   0.700  12.907  0.0395 -0.8794 -0.2309
 8006SOL    HW235652   0.087   0.679  12.939 -0.4418 -0.2613  0.2296
 8007SOL     OW35653   4.224   2.719   2.407  0.1498 -0.3130  0.3661
 8007SOL    HW135654   4.285   2.657   2.448  0.6383  1.3847  2.2281
 8007SOL    HW235655   4.273   2.801   2.396  3.1664 -2.4681 -2.1522
 8008SOL     OW35656   3.491   4.701  15.033 -0.3253  0.2040 -0.2987
 8008SOL    HW135657   3.478   0.000  15.120  0.8405 -0.3264  0.0975
 8008SOL    HW235658   3.409   4.651  15.026  0.2584 -0.7042 -0.8334
 8009SOL     OW35659   4.612   2.162   4.049 -0.2627 -0.1591  0.2515
 8009SOL    HW135660   4.643   2.234   3.994 -2.6984  0.8768  0.2089
 8009SOL    HW235661   4.674   2.096   4.018 -1.0083 -1.1230  0.8353
 8010SOL     OW35662   0.781   1.876   4.984 -0.5687 -0.2237  0.0303
 8010SOL    HW135663   0.761   1.784   5.001  0.1356 -0.3384  0.2342
 8010SOL    HW235664   0.833   1.864   4.905  0.0031 -2.1413  0.6873
 8011SOL     OW35665   1.310   4.056   5.460  0.5048 -0.2901  0.0506
 8011SOL    HW135666   1.366   4.004   5.518 -1.5859 -2.2302  0.3467
 8011SOL    HW235667   1.222   4.026   5.484  0.5386 -0.1488  0.3486
 8012SOL     OW35668   0.574   0.533   6.423 -0.0745  0.1176 -0.1867
 8012SOL    HW135669   0.645   0.514   6.362  0.2105 -0.7275  0.4058
 8012SOL    HW235670   0.517   0.593   6.375  0.8856  1.0620 -0.1762
 8013SOL     OW35671   1.767   1.141   1.085  0.0926  0.2922 -0.2482
 8013SOL    HW135672   1.751   1.155   1.178 -0.3118 -2.1210  0.0327
 8013SOL    HW235673   1.793   1.230   1.060 -1.1372  1.0261  1.0530
 8014SOL     OW35674   3.878   3.795   1.805  0.4695  0.3275  0.0932
 8014SOL    HW135675   3.928   3.869   1.840  3.0539 -2.4437  2.2082
 8014SOL    HW235676   3.815   3.759   1.868 -0.5797  0.6959 -0.7276
 8015SOL     OW35677   2.692   3.751   8.817  0.0999 -0.1494 -0.1820
 8015SOL    HW135678   2.610   3.718   8.856 -0.0959 -0.3165 -0.7295
 8015SOL    HW235679   2.704   3.697   8.738 -0.9439  1.4329 -1.4141
 8016SOL     OW35680   1.526   3.910   9.216 -0.3633 -0.5609 -0.2202
 8016SOL    HW135681   1.472   3.967   9.270  0.3238  0.0601 -0.2005
 8016SOL    HW235682   1.604   3.964   9.204 -1.5975  1.5044  1.0539
 8017SOL     OW35683   4.011   0.126   4.838 -0.0568  0.3618  0.6546
 8017SOL    HW135684   4.086   0.184   4.822 -0.0682 -0.6881 -3.2085
 8017SOL    HW235685   4.036   0.055   4.779 -1.2404 -1.0555  1.8692
 8018SOL     OW35686   2.368   3.539   0.541  0.1872 -0.0071  0.1842
 8018SOL    HW135687   2.344   3.478   0.471  1.1044 -0.4758  0.2804
 8018SOL    HW235688   2.288   3.592   0.544 -0.4091 -0.7966 -1.4397
 8019SOL     OW35689   3.850   2.772   3.568 -0.0091  0.8560 -0.5176
 8019SOL    HW135690   3.803   2.829   3.630  1.9257 -2.2045  3.7732
 8019SOL    HW235691   3.799   2.782   3.488  1.0915  3.2319 -0.9213
 8020SOL     OW35692   2.967   0.492   4.156 -0.3333  0.3168  0.3778
 8020SOL    HW135693   3.040   0.429   4.156 -1.4003 -0.9105  0.9156
 8020SOL    HW235694   2.920   0.464   4.234 -1.8940 -0.8634 -1.0040
 8021SOL     OW35695   3.106   3.955  13.211  0.0059 -0.0938 -0.1478
 8021SOL    HW135696   3.091   4.023  13.145  4.1921  1.5494  0.5923
 8021SOL    HW235697   3.201   3.970  13.210  0.3647 -2.2797  1.0500
 8022SOL     OW35698   2.038   1.370  11.487 -0.1452 -0.3357  0.1451
 8022SOL    HW135699   2.058   1.350  11.579 -0.0364  0.8848  0.3928
 8022SOL    HW235700   2.020   1.464  11.489 -0.7169 -0.4370 -0.2835
 8023SOL     OW35701   4.422   4.219   1.033  0.5699 -0.2870 -0.1941
 8023SOL    HW135702   4.489   4.201   0.967  0.9239  3.2169 -0.8166
 8023SOL    HW235703   4.354   4.156   1.009 -0.7916  0.8862  0.5970
 8024SOL     OW35704   4.638   0.310   7.675  0.3128  0.0686  0.3455
 8024SOL    HW135705   4.622   0.352   7.590 -0.0042 -1.9237 -0.5802
 8024SOL    HW235706   4.627   0.217   7.653  1.1960  0.4662 -1.7396
 8025SOL     OW35707   4.338   0.058   7.851 -0.2858 -0.3031 -0.3782
 8025SOL    HW135708   4.279   0.131   7.832  0.0249  0.0412 -0.0321
 8025SOL    HW235709   4.410   0.079   7.791  0.1929  0.2455  0.3843
 8026SOL     OW35710   4.021   0.210  11.350 -0.4300  0.0945  0.3464
 8026SOL    HW135711   4.071   0.240  11.426  0.1097  0.1230 -0.0152
 8026SOL    HW235712   4.048   0.119  11.360 -0.7734  0.0466  0.7904
 8027SOL     OW35713   2.298   2.221  15.887 -0.0912  0.0268  0.3176
 8027SOL    HW135714   2.272   2.202  15.797  0.5669 -1.5502  0.4532
 8027SOL    HW235715   2.323   2.311  15.869 -0.8947  0.1157 -0.3082
 8028SOL     OW35716   2.067   4.194  16.081  0.5442 -0.3920 -0.6096
 8028SOL    HW135717   2.070   4.166  15.990 -0.4023  0.7698 -0.9891
 8028SOL    HW235718   2.162   4.184  16.095  0.3602 -0.1567  0.7855
 8029SOL     OW35719   0.834   2.805   1.001  0.1509  0.3755 -0.0682
 8029SOL    HW135720   0.824   2.732   1.062 -2.7305 -0.0373 -1.0458
 8029SOL    HW235721   0.825   2.764   0.915 -0.6647 -0.2615  0.3195
 8030SOL     OW35722   4.272   1.122   3.645 -0.0112 -0.1247  0.2307
 8030SOL    HW135723   4.188   1.142   3.604  0.5119  0.2775 -0.6570
 8030SOL    HW235724   4.275   1.139   3.739  1.6288  2.5178 -0.2972
 8031SOL     OW35725   2.337   1.683  11.094  0.5288 -0.1914 -0.5993
 8031SOL    HW135726   2.386   1.726  11.024 -1.2429  2.8201  0.0099
 8031SOL    HW235727   2.264   1.648  11.042 -0.6868 -1.3761  1.9204
 8032SOL     OW35728   0.229   2.369   6.669  0.1193  0.2159 -0.3701
 8032SOL    HW135729   0.209   2.457   6.700 -0.2293  0.3894 -1.0798
 8032SOL    HW235730   0.203   2.326   6.751  1.6351 -2.0307 -1.0758
 8033SOL     OW35731   3.087   1.935   5.155  0.1764 -0.3364 -0.5812
 8033SOL    HW135732   3.153   1.969   5.215  0.0011  1.3069 -1.3120
 8033SOL    HW235733   3.092   2.001   5.086 -1.4949  1.4936  1.0793
 8034SOL     OW35734   2.588   0.515   6.528  0.8282  0.4586 -0.1394
 8034SOL    HW135735   2.624   0.449   6.469 -2.4252 -0.9725 -0.5135
 8034SOL    HW235736   2.509   0.468   6.553  1.8218 -0.1634  1.7958
 8035SOL     OW35737   4.574   3.814   6.039 -0.2712 -0.1331 -0.5243
 8035SOL    HW135738   4.631   3.753   6.087 -1.2768 -0.7406 -0.0921
 8035SOL    HW235739   4.629   3.891   6.049 -0.5517  0.0528 -0.4039
 8036SOL     OW35740   0.679   2.072   3.204  0.0315 -0.6602 -0.2217
 8036SOL    HW135741   0.603   2.129   3.217 -0.1305 -1.0598  0.6239
 8036SOL    HW235742   0.722   2.103   3.284  0.3760  2.9226 -1.7864
 8037SOL     OW35743   4.361   1.911   6.283  0.6824  0.6201 -0.0500
 8037SOL    HW135744   4.415   1.920   6.204 -0.0317 -2.1080 -0.8431
 8037SOL    HW235745   4.282   1.867   6.253  1.7400 -0.0124 -1.9365
 8038SOL     OW35746   3.729   3.852   8.799 -0.2561 -0.1705  0.3350
 8038SOL    HW135747   3.738   3.800   8.879  1.0953 -0.7758 -0.2186
 8038SOL    HW235748   3.654   3.803   8.766 -1.0576  1.5227 -0.3900
 8039SOL     OW35749   2.459   3.899   5.919  0.0538  0.3697  0.1100
 8039SOL    HW135750   2.369   3.918   5.943 -0.5114 -1.5412 -0.4741
 8039SOL    HW235751   2.451   3.805   5.939  1.1872  0.2841  0.1864
 8040SOL     OW35752   3.552   3.133  15.763  0.0760  0.2321  0.0205
 8040SOL    HW135753   3.487   3.175  15.707  0.7538  0.0212 -0.9122
 8040SOL    HW235754   3.628   3.145  15.707 -1.8789 -0.9671 -2.9064
 8041SOL     OW35755   4.081   3.194   1.461  0.8488 -0.0317  0.2275
 8041SOL    HW135756   4.079   3.271   1.405 -0.1325  0.8325  1.4665
 8041SOL    HW235757   4.013   3.136   1.427  0.6507  0.7591 -0.7201
 8042SOL     OW35758   3.001   3.279  13.214 -0.5039  0.1677 -0.0145
 8042SOL    HW135759   2.944   3.355  13.205 -1.1388 -0.2707  0.3021
 8042SOL    HW235760   3.062   3.285  13.141 -1.0264 -1.7533 -0.6238
 8043SOL     OW35761   2.986   3.744   2.948 -0.3241  0.3664  0.2375
 8043SOL    HW135762   2.945   3.739   2.862 -0.6211 -0.0910  0.4079
 8043SOL    HW235763   3.032   3.660   2.952 -1.6666 -0.3431  0.8550
 8044SOL     OW35764   2.562   2.701   2.505 -0.2377  0.7508  0.2220
 8044SOL    HW135765   2.594   2.781   2.547  0.1111 -1.6636  4.5750
 8044SOL    HW235766   2.480   2.689   2.554 -1.3763 -0.1620 -1.9074
 8045SOL     OW35767   0.257   2.528  10.178 -0.0718 -0.2254  0.6653
 8045SOL    HW135768   0.242   2.617  10.209  1.7631 -0.3065  1.7315
 8045SOL    HW235769   0.187   2.480  10.223 -1.6204  0.4865 -0.9785
 8046SOL     OW35770   2.314   0.744   3.925  0.2350  0.3228 -0.0650
 8046SOL    HW135771   2.390   0.701   3.887 -0.8830 -0.9055 -0.9233
 8046SOL    HW235772   2.281   0.678   3.986 -0.0764  1.2407  0.7578
 8047SOL     OW35773   1.107   1.646   1.897 -0.3129  0.1274 -0.2761
 8047SOL    HW135774   1.168   1.688   1.836 -0.5834  0.9446  0.0176
 8047SOL    HW235775   1.160   1.597   1.960  1.7178  1.2129 -1.1683
 8048SOL     OW35776   1.386   0.588   0.958 -0.5290 -0.0421 -0.0903
 8048SOL    HW135777   1.373   0.682   0.966 -1.3796 -0.2305  0.6951
 8048SOL    HW235778   1.462   0.592   0.901  2.0267 -0.7216  3.2480
 8049SOL     OW35779   3.441   2.072   9.324  0.6650 -0.2191  0.0112
 8049SOL    HW135780   3.468   2.163   9.314 -0.2986 -0.2610 -3.0379
 8049SOL    HW235781   3.363   2.074   9.270  0.2841 -0.8488  0.5292
 8050SOL     OW35782   3.060   1.170   5.718 -0.2662  0.6794 -0.2619
 8050SOL    HW135783   3.067   1.244   5.657 -3.1954  0.1268 -1.2355
 8050SOL    HW235784   3.104   1.104   5.665 -1.5582 -1.0521  0.8451
 8051SOL     OW35785   1.807   2.628   6.662  0.2303 -0.0347 -0.2813
 8051SOL    HW135786   1.806   2.533   6.655 -1.7867  0.1186 -2.0214
 8051SOL    HW235787   1.728   2.652   6.614 -0.9092 -1.4956  0.8575
 8052SOL     OW35788   2.117   0.799   1.406 -0.0443 -0.0029 -0.1706
 8052SOL    HW135789   2.057   0.808   1.479  0.4699  1.4431  0.0864
 8052SOL    HW235790   2.202   0.821   1.445 -0.4171  0.9906  0.0791
 8053SOL     OW35791   2.620   3.529   3.288 -0.1521  0.4732 -0.2511
 8053SOL    HW135792   2.698   3.477   3.309 -0.3267  0.1993 -0.2814
 8053SOL    HW235793   2.565   3.508   3.363 -0.0770 -1.6180 -0.7513
 8054SOL     OW35794   3.675   2.424   1.745  0.6870 -0.4491  0.1102
 8054SOL    HW135795   3.754   2.404   1.796  0.4319 -1.5990  0.0455
 8054SOL    HW235796   3.648   2.507   1.783  0.7589 -0.2074 -0.3625
 8055SOL     OW35797   3.646   1.124   7.619  0.0854  0.1703 -0.2930
 8055SOL    HW135798   3.717   1.099   7.560 -0.8486 -0.8047 -1.0164
 8055SOL    HW235799   3.598   1.197   7.579 -0.1171  0.5595  0.6747
 8056SOL     OW35800   3.419   2.351   1.458 -0.3780  0.3567 -0.6440
 8056SOL    HW135801   3.468   2.277   1.493 -2.5891 -0.7928  0.0156
 8056SOL    HW235802   3.329   2.319   1.458 -0.9013  1.8427 -2.4208
 8057SOL     OW35803   2.238   3.549   7.286  0.7228 -0.8973 -0.0629
 8057SOL    HW135804   2.268   3.633   7.321  1.1021 -0.8972 -0.3927
 8057SOL    HW235805   2.277   3.541   7.199  0.2663  1.1050 -0.4479
 8058SOL     OW35806   1.421   1.692   6.828 -0.2548 -0.2630 -0.7986
 8058SOL    HW135807   1.415   1.688   6.732 -0.1012  0.0670 -0.8203
 8058SOL    HW235808   1.440   1.599   6.843  1.6686  0.0485 -1.3115
 8059SOL     OW35809   3.326   2.475   9.646 -0.2644 -0.2623 -0.6160
 8059SOL    HW135810   3.302   2.555   9.600  0.2661  0.0497 -0.3451
 8059SOL    HW235811   3.413   2.490   9.681 -0.2297 -2.8278  0.3853
 8060SOL     OW35812   2.040   0.539   8.223  0.3214 -0.3577  0.0553
 8060SOL    HW135813   1.978   0.553   8.294 -0.2850 -3.8891  0.2120
 8060SOL    HW235814   1.976   0.538   8.152  3.0603 -1.0540 -2.4127
 8061SOL     OW35815   0.506   3.592   3.940 -0.6943 -0.2861  0.3693
 8061SOL    HW135816   0.543   3.562   3.858  0.1132  1.4299  0.1018
 8061SOL    HW235817   0.577   3.584   4.004 -0.7012 -0.2294  0.3837
 8062SOL     OW35818   3.485   0.418   7.588 -0.1677  0.2685  0.0843
 8062SOL    HW135819   3.464   0.511   7.588  1.8948  0.7363  2.0120
 8062SOL    HW235820   3.471   0.397   7.496  0.4709 -1.9646  0.5039
 8063SOL     OW35821   1.479   2.559   3.790  0.2383  0.7589 -0.0432
 8063SOL    HW135822   1.512   2.499   3.857 -0.1399 -1.0470 -1.4909
 8063SOL    HW235823   1.384   2.546   3.782  0.2645 -0.3564  1.4487
 8064SOL     OW35824   0.845   0.377   2.162  0.0792 -1.0485  0.3797
 8064SOL    HW135825   0.828   0.292   2.122 -2.7780 -0.0699 -0.5089
 8064SOL    HW235826   0.917   0.412   2.110 -2.1052  0.3818 -1.6803
 8065SOL     OW35827   1.742   2.073  10.301 -0.1762  0.5680  0.1509
 8065SOL    HW135828   1.694   2.123  10.367  0.8900  1.8864 -0.0551
 8065SOL    HW235829   1.832   2.101  10.322 -1.3199  2.6757  2.2441
 8066SOL     OW35830   0.984   0.798  15.062  0.4426 -0.1841  0.3394
 8066SOL    HW135831   0.945   0.820  15.147 -1.2159  0.1945 -0.5258
 8066SOL    HW235832   1.037   0.876  15.042  0.5012 -0.1370  0.6672
 8067SOL     OW35833   0.289   2.125   8.413 -0.0648  0.0722  0.4590
 8067SOL    HW135834   0.347   2.200   8.401 -0.2107 -0.0703 -1.1251
 8067SOL    HW235835   0.212   2.178   8.438 -0.4335 -0.8045  1.1848
 8068SOL     OW35836   1.236   1.235   5.428 -0.3833 -0.3137 -0.2805
 8068SOL    HW135837   1.248   1.254   5.335 -2.4907 -0.6647 -0.6194
 8068SOL    HW235838   1.317   1.275   5.461 -1.0243 -0.3632  1.3587
 8069SOL     OW35839   0.693   0.016  15.853  1.0572  0.3517  0.5933
 8069SOL    HW135840   0.638   0.024  15.775  0.7597  0.2388  0.7892
 8069SOL    HW235841   0.653   4.679  15.898  0.2301  0.7576  0.5410
 8070SOL     OW35842   0.814   3.599   6.757  0.1682 -0.4226 -0.8077
 8070SOL    HW135843   0.799   3.642   6.841  0.6297 -0.5180 -0.6771
 8070SOL    HW235844   0.827   3.508   6.783  0.1698  0.3287  1.7771
 8071SOL     OW35845   2.220   3.125   5.493  0.2958 -0.2906 -0.0129
 8071SOL    HW135846   2.148   3.162   5.545 -1.6491 -0.7175 -2.4429
 8071SOL    HW235847   2.203   3.162   5.407  2.2811  0.1926 -0.2028
 8072SOL     OW35848   4.621   2.936  14.642 -0.0198  0.4322  0.6917
 8072SOL    HW135849   4.636   2.900  14.555 -0.6114 -0.7985  1.1026
 8072SOL    HW235850   4.538   2.900  14.671 -0.0144 -0.0629  0.0883
 8073SOL     OW35851   1.247   3.872   1.324 -0.4407 -0.4678  0.3280
 8073SOL    HW135852   1.323   3.873   1.266  1.0471 -1.6586  2.2528
 8073SOL    HW235853   1.241   3.959   1.363  2.1714 -1.5703  3.1827
 8074SOL     OW35854   1.573   3.668   3.259 -0.1737  0.3085 -0.3702
 8074SOL    HW135855   1.554   3.656   3.166  1.9674 -1.3619 -0.5965
 8074SOL    HW235856   1.596   3.760   3.269  0.3999 -0.2866  3.9261
 8075SOL     OW35857   4.429   4.014   8.092 -0.2268  0.0206  0.2190
 8075SOL    HW135858   4.381   3.932   8.099  0.2032 -0.2741 -0.2788
 8075SOL    HW235859   4.367   4.080   8.122  1.1766  0.9653  1.0849
 8076SOL     OW35860   0.903   4.464  10.323  0.2109 -0.1080 -0.2001
 8076SOL    HW135861   0.946   4.498  10.245  0.3283 -0.8073 -0.4453
 8076SOL    HW235862   0.968   4.411  10.370 -1.9043 -1.2652  1.4334
 8077SOL     OW35863   1.746   0.430   0.067 -0.1259 -0.3904  0.1665
 8077SOL    HW135864   1.835   0.401   0.088  0.0319 -0.3532 -0.4578
 8077SOL    HW235865   1.695   0.357   0.102 -0.2892  0.3591  1.5343
 8078SOL     OW35866   1.256   3.306   2.424 -0.4794  0.4077  0.2167
 8078SOL    HW135867   1.171   3.264   2.411 -1.4942  2.3655  0.4813
 8078SOL    HW235868   1.281   3.291   2.332  0.1030  1.6315  0.1695
 8079SOL     OW35869   3.902   2.992   7.871 -0.3579  0.1840 -0.2152
 8079SOL    HW135870   3.951   3.036   7.802  0.5419 -1.3590 -0.5565
 8079SOL    HW235871   3.856   2.920   7.829  0.3063 -1.9078  2.6159
 8080SOL     OW35872   3.407   3.350   6.433  0.2243  0.3608 -0.4090
 8080SOL    HW135873   3.371   3.405   6.363 -0.3282 -0.8121 -1.0452
 8080SOL    HW235874   3.459   3.295   6.374 -1.2387  1.0003 -2.2905
 8081SOL     OW35875   2.249   4.016  13.569 -0.2921  0.1319  0.4855
 8081SOL    HW135876   2.278   3.949  13.631  0.8760  0.6278  0.4855
 8081SOL    HW235877   2.329   4.046  13.525  0.6794 -1.1192  1.4135
 8082SOL     OW35878   1.788   1.122   4.898 -0.1237 -0.9303 -0.1306
 8082SOL    HW135879   1.694   1.111   4.883 -0.4743  0.4750  1.0296
 8082SOL    HW235880   1.792   1.152   4.989  0.7650 -0.7039 -0.2481
 8083SOL     OW35881   3.006   1.014   6.868  0.6040 -0.0682 -0.7150
 8083SOL    HW135882   2.976   0.979   6.952  2.1226  2.1053  0.7272
 8083SOL    HW235883   2.931   1.058   6.827  0.2095 -0.7100 -0.6921
 8084SOL     OW35884   2.200   2.381   4.468 -0.1733 -0.2958  0.6696
 8084SOL    HW135885   2.269   2.314   4.473  1.1891  1.1004  0.5042
 8084SOL    HW235886   2.236   2.453   4.519 -0.5911  0.7175 -0.4649
 8085SOL     OW35887   3.975   1.106   4.386 -0.4762 -0.2016  0.3843
 8085SOL    HW135888   4.061   1.075   4.415  0.7779  1.5693 -1.4439
 8085SOL    HW235889   3.968   1.193   4.424  0.6402  0.2057 -0.3710
 8086SOL     OW35890   4.609   0.461   2.928 -0.1488 -0.4784 -0.3670
 8086SOL    HW135891   4.657   0.398   2.875 -0.8856 -0.3775 -1.1391
 8086SOL    HW235892   4.601   0.535   2.868 -1.5095  0.8439  1.4425
 8087SOL     OW35893   3.894   4.178   9.636 -0.0852  0.4630  0.7657
 8087SOL    HW135894   3.917   4.147   9.724  1.3708 -1.5490 -0.3397
 8087SOL    HW235895   3.798   4.185   9.644 -0.1398 -1.7399  2.3147
 8088SOL     OW35896   3.399   1.717   8.940  0.2441  0.4128  0.7235
 8088SOL    HW135897   3.444   1.802   8.937  0.4376  0.2980  0.3757
 8088SOL    HW235898   3.470   1.668   8.899 -0.3178  0.0661  0.1823
 8089SOL     OW35899   2.859   4.066  12.064  0.6936  0.3587  0.3832
 8089SOL    HW135900   2.930   4.021  12.110 -1.1181 -1.6725  1.1517
 8089SOL    HW235901   2.830   4.122  12.136  0.5261 -1.7604  1.9605
 8090SOL     OW35902   3.992   0.581  13.449  0.3077  0.1575 -0.4394
 8090SOL    HW135903   3.897   0.587  13.459  0.2028 -0.7496 -0.8403
 8090SOL    HW235904   4.020   0.513  13.510  2.5740  2.4242  1.0366
 8091SOL     OW35905   2.517   1.805   0.978 -0.1155 -0.4626  0.4044
 8091SOL    HW135906   2.466   1.733   0.942 -0.0688 -0.3633  0.1410
 8091SOL    HW235907   2.586   1.810   0.912 -0.1209 -3.2667  0.1902
 8092SOL     OW35908   1.217   1.869   2.665 -0.5897  0.3384 -0.9021
 8092SOL    HW135909   1.155   1.802   2.638  1.0222 -1.9688  1.1035
 8092SOL    HW235910   1.154   1.939   2.679 -1.0607 -0.3861  0.5451
 8093SOL     OW35911   1.721   1.906   2.407 -0.7964 -0.1838 -0.4435
 8093SOL    HW135912   1.748   1.815   2.395 -1.4169 -0.4942  0.4979
 8093SOL    HW235913   1.656   1.900   2.478  0.8670  0.5126  1.1312
 8094SOL     OW35914   1.545   1.045  10.695 -0.5775 -0.2785  0.2342
 8094SOL    HW135915   1.623   1.097  10.671 -0.0433 -0.4219  1.6271
 8094SOL    HW235916   1.582   0.957  10.696 -0.0050 -0.0203  2.3247
 8095SOL     OW35917   3.148   2.234   4.562 -0.2284 -0.5109  0.0982
 8095SOL    HW135918   3.166   2.167   4.496  1.6406 -0.9302  1.0299
 8095SOL    HW235919   3.211   2.302   4.539  0.8340 -1.3774  0.4146
 8096SOL     OW35920   1.095   0.131   3.299 -0.0996  0.2507  0.0351
 8096SOL    HW135921   1.138   0.199   3.248  0.4584  1.0259  1.5403
 8096SOL    HW235922   1.005   0.159   3.280 -0.6759 -0.4629  1.6766
 8097SOL     OW35923   3.788   0.740   4.508 -0.4273  0.7882 -0.6361
 8097SOL    HW135924   3.874   0.730   4.547 -1.0549 -2.7267 -0.1919
 8097SOL    HW235925   3.776   0.833   4.525  1.9179  0.6543  1.7074
 8098SOL     OW35926   1.649   1.465   4.484 -0.8360 -0.2590  0.6245
 8098SOL    HW135927   1.588   1.436   4.551 -0.8663  1.2221  1.2454
 8098SOL    HW235928   1.605   1.544   4.453 -0.1513  0.4813  1.5277
 8099SOL     OW35929   3.699   1.290  12.810 -0.6238 -0.7099 -0.1727
 8099SOL    HW135930   3.774   1.237  12.837 -1.6982 -1.4364  1.3684
 8099SOL    HW235931   3.675   1.248  12.727  0.9688 -0.6224 -0.6829
 8100SOL     OW35932   0.746   0.059   4.666  0.4228 -0.0729  0.0617
 8100SOL    HW135933   0.761   0.065   4.572 -0.3865  2.6664  0.1182
 8100SOL    HW235934   0.839   0.055   4.691  0.3106  1.0527  0.6702
 8101SOL     OW35935   2.202   1.280   5.331  0.3080 -0.1543 -0.1314
 8101SOL    HW135936   2.176   1.370   5.311  0.2454  0.0566  0.9193
 8101SOL    HW235937   2.153   1.267   5.412  0.2648 -2.3063 -0.4991
 8102SOL     OW35938   0.213   4.323   0.532  0.3038  0.1579  0.0109
 8102SOL    HW135939   0.283   4.317   0.467  0.7175 -0.1755  0.4909
 8102SOL    HW235940   0.260   4.334   0.615  0.5888 -0.8384 -0.0246
 8103SOL     OW35941   1.984   3.019   0.644  0.4790 -0.0504 -0.2717
 8103SOL    HW135942   1.949   3.016   0.733  2.0366 -2.2608  0.2772
 8103SOL    HW235943   2.040   3.096   0.649 -0.9857  0.9645  0.2615
 8104SOL     OW35944   4.062   1.507   8.524 -0.3255  0.3724 -0.4431
 8104SOL    HW135945   4.119   1.449   8.474 -0.6472 -1.6628  1.5840
 8104SOL    HW235946   4.020   1.446   8.584  3.1369 -0.6046  0.9903
 8105SOL     OW35947   0.989   3.159   2.928 -0.3746  0.1315 -0.0035
 8105SOL    HW135948   0.962   3.067   2.921 -1.9513  0.8101 -2.8965
 8105SOL    HW235949   0.917   3.187   2.873 -1.4003 -0.3756  1.0871
 8106SOL     OW35950   3.067   3.504   5.226 -0.2259  0.4582  0.5392
 8106SOL    HW135951   3.002   3.451   5.179 -0.1534 -0.4929  1.5226
 8106SOL    HW235952   3.046   3.588   5.186  1.9944 -1.0010 -3.6960
 8107SOL     OW35953   3.422   2.914   9.757 -0.2077  0.4837 -0.0568
 8107SOL    HW135954   3.460   3.002   9.754  0.9066  0.0597  1.6357
 8107SOL    HW235955   3.498   2.861   9.782  0.5542  1.5177 -0.2012
 8108SOL     OW35956   0.512   3.949   6.078  0.3421 -0.2674 -0.4967
 8108SOL    HW135957   0.468   3.882   6.130 -0.7959 -0.5228 -1.7615
 8108SOL    HW235958   0.436   3.973   6.025 -0.0492 -1.6186 -0.5508
 8109SOL     OW35959   0.306   0.679   4.024 -0.2443 -0.2903  0.9191
 8109SOL    HW135960   0.226   0.718   3.988 -0.2991 -0.1151  1.2364
 8109SOL    HW235961   0.273   0.600   4.067 -0.0188 -1.3504 -0.8349
 8110SOL     OW35962   1.730   1.538   3.625  0.3385 -0.4855 -0.2626
 8110SOL    HW135963   1.733   1.476   3.698 -1.2049 -1.2450 -0.8294
 8110SOL    HW235964   1.765   1.486   3.552  2.3530 -0.0860  0.4355
 8111SOL     OW35965   0.601   1.965   6.779  0.1349  0.2782 -0.1184
 8111SOL    HW135966   0.677   1.965   6.837 -0.9929  2.6409  1.3862
 8111SOL    HW235967   0.647   1.932   6.702  1.2034  0.5428  0.4054
 8112SOL     OW35968   2.865   0.351   5.585  0.1357  0.3770  0.4717
 8112SOL    HW135969   2.919   0.290   5.635 -0.4982  0.6374  1.4589
 8112SOL    HW235970   2.936   0.412   5.567  1.1656 -1.5851 -2.2660
 8113SOL     OW35971   2.338   4.114   2.437  0.2725  0.4387 -0.5584
 8113SOL    HW135972   2.347   4.051   2.365  0.4823  0.4649 -0.5554
 8113SOL    HW235973   2.380   4.188   2.394 -1.6596  0.2394 -2.7956
 8114SOL     OW35974   3.145   3.743   2.409 -0.6045  0.3244  0.0879
 8114SOL    HW135975   3.093   3.817   2.438 -0.1962  0.6134  0.0723
 8114SOL    HW235976   3.119   3.672   2.468  0.5281 -0.0020  0.1915
 8115SOL     OW35977   0.985   2.562   8.151 -0.1914  0.5422  0.0814
 8115SOL    HW135978   1.050   2.612   8.101 -0.0238  0.1908 -0.0515
 8115SOL    HW235979   0.938   2.632   8.198  0.2407  0.4897  0.6008
 8116SOL     OW35980   3.009   3.665   8.123  0.0399  0.2196 -0.1378
 8116SOL    HW135981   2.952   3.689   8.196  2.1768  2.0889  0.9144
 8116SOL    HW235982   3.009   3.735   8.058 -0.0290  0.7519  0.4306
 8117SOL     OW35983   2.833   4.046   5.083 -0.4217  0.0032 -0.3285
 8117SOL    HW135984   2.866   4.017   5.169 -1.4240 -3.7502 -1.2383
 8117SOL    HW235985   2.903   4.105   5.053 -0.2701 -0.1240 -0.2281
 8118SOL     OW35986   1.417   4.559   5.052  0.5418  0.3362 -0.0475
 8118SOL    HW135987   1.496   4.594   5.011  0.1021  1.2083 -0.1362
 8118SOL    HW235988   1.449   4.501   5.121  1.0741 -0.9560 -1.3769
 8119SOL     OW35989   2.321   1.834   5.373 -0.2416  0.7795 -1.0162
 8119SOL    HW135990   2.385   1.846   5.303  0.3530  1.4973 -0.3573
 8119SOL    HW235991   2.370   1.801   5.448  0.6959  0.2484 -1.8587
 8120SOL     OW35992   4.502   3.788   5.301  0.5119  0.5336 -0.2613
 8120SOL    HW135993   4.475   3.699   5.276  2.1468 -0.1684  0.4438
 8120SOL    HW235994   4.433   3.819   5.360 -0.0996 -1.3751  0.0341
 8121SOL     OW35995   3.856   2.587   6.653  0.2155  0.2823 -0.1674
 8121SOL    HW135996   3.870   2.497   6.683 -3.0502 -0.5332 -1.0359
 8121SOL    HW235997   3.828   2.563   6.565  2.4589  1.1592 -1.1123
 8122SOL     OW35998   4.470   1.498  15.517 -0.7730  0.0166  0.2366
 8122SOL    HW135999   4.456   1.413  15.475  2.1615 -0.3107 -0.1112
 8122SOL    HW236000   4.392   1.533  15.475  1.0131  2.0071 -1.4390
 8123SOL     OW36001   4.077   1.111   4.107  0.2312  0.0642 -0.1115
 8123SOL    HW136002   4.036   1.153   4.182  1.3533 -0.8923  1.0269
 8123SOL    HW236003   4.117   1.030   4.139  1.9689  1.0576  0.2210
 8124SOL     OW36004   2.515   4.410  12.523 -0.4215 -0.1752 -0.6841
 8124SOL    HW136005   2.580   4.476  12.549 -0.1617 -0.7236  0.0531
 8124SOL    HW236006   2.527   4.416  12.428 -0.3814  0.0261 -0.6657
 8125SOL     OW36007   1.970   3.454   2.997 -0.0557  0.1200  0.1322
 8125SOL    HW136008   1.903   3.397   2.960  0.0444  0.2739 -0.2897
 8125SOL    HW236009   1.914   3.508   3.053 -0.8279 -2.0668  1.4968
 8126SOL     OW36010   2.035   0.986   2.855  0.1216  0.5973  0.3701
 8126SOL    HW136011   2.024   1.002   2.762 -1.6945 -0.0632  0.4654
 8126SOL    HW236012   1.942   0.971   2.875  0.2606 -0.0957  0.4890
 8127SOL     OW36013   2.674   2.991   4.503 -0.2300 -0.2166 -0.4637
 8127SOL    HW136014   2.703   3.071   4.458  0.9011 -0.7558 -0.6896
 8127SOL    HW236015   2.579   2.983   4.493 -0.2412 -0.4737 -0.1367
 8128SOL     OW36016   1.110   1.296   3.358  0.4961  0.2726 -0.3826
 8128SOL    HW136017   1.144   1.335   3.277 -1.7992 -0.7609 -1.8268
 8128SOL    HW236018   1.137   1.360   3.424  0.0586  0.6743 -0.5937
 8129SOL     OW36019   0.127   1.158   8.285 -0.2253 -0.0225  0.0627
 8129SOL    HW136020   0.095   1.219   8.351  0.9000 -0.6006  1.1355
 8129SOL    HW236021   0.091   1.076   8.317 -2.2575  0.7278 -0.2870
 8130SOL     OW36022   4.320   3.036   3.486 -0.2212  0.5909  0.4350
 8130SOL    HW136023   4.293   3.103   3.550 -2.4769  1.4401 -1.4042
 8130SOL    HW236024   4.255   2.966   3.495  0.3665  0.0091  0.0980
 8131SOL     OW36025   2.242   1.715   9.036  0.3176 -0.1215 -0.0667
 8131SOL    HW136026   2.151   1.692   9.015 -0.1546 -0.2095  2.0522
 8131SOL    HW236027   2.249   1.695   9.130 -0.3288  0.0909  0.0284
 8132SOL     OW36028   1.585   4.232  16.303  0.4069 -0.0078 -0.2263
 8132SOL    HW136029   1.649   4.235  16.231  2.1571 -1.3650  1.2752
 8132SOL    HW236030   1.508   4.241  16.246 -0.3145  1.0790  0.9190
 8133SOL     OW36031   4.585   2.409   7.753  0.1033  0.5553 -0.1382
 8133SOL    HW136032   4.572   2.400   7.847  1.2633  2.8311  0.2519
 8133SOL    HW236033   4.566   2.319   7.726 -0.4466  0.5436  0.2845
 8134SOL     OW36034   2.152   3.365   5.985  0.3350 -0.5895 -0.4946
 8134SOL    HW136035   2.066   3.389   5.949  0.8830 -1.2677 -2.2311
 8134SOL    HW236036   2.182   3.308   5.914  1.2679 -0.0943 -0.4983
 8135SOL     OW36037   2.821   1.355   1.331 -0.7419 -0.0080 -0.1701
 8135SOL    HW136038   2.815   1.451   1.325 -1.1185 -0.0443 -0.3522
 8135SOL    HW236039   2.885   1.353   1.403 -0.9360 -0.3207 -0.0118
 8136SOL     OW36040   3.590   2.643   7.256  0.1816  0.2172  0.3982
 8136SOL    HW136041   3.582   2.583   7.183 -1.3475  1.6340 -0.5923
 8136SOL    HW236042   3.566   2.724   7.211 -2.3219 -0.7771 -0.0654
 8137SOL     OW36043   2.421   4.537   6.647 -0.3934 -0.6397 -0.2821
 8137SOL    HW136044   2.403   4.602   6.715  0.2847 -0.7605  0.0106
 8137SOL    HW236045   2.334   4.498   6.653  0.5742 -2.7834 -0.2155
 8138SOL     OW36046   3.039   4.085  17.465 -0.3347 -0.1319  0.3784
 8138SOL    HW136047   3.014   4.010  17.518  0.8750 -0.9214 -0.1591
 8138SOL    HW236048   3.082   4.041  17.391 -0.3100 -0.9482  0.8768
 8139SOL     OW36049   0.424   1.122   5.219 -0.9378  0.2913  0.4385
 8139SOL    HW136050   0.339   1.077   5.219 -0.1053 -1.2637  4.3132
 8139SOL    HW236051   0.402   1.202   5.267 -0.9231  0.3155  0.4056
 8140SOL     OW36052   0.601   4.437   9.122  0.4697  0.6016 -0.5621
 8140SOL    HW136053   0.688   4.398   9.133 -0.0616  0.2058  2.3565
 8140SOL    HW236054   0.556   4.359   9.087  1.6837 -0.9510  1.3361
 8141SOL     OW36055   0.597   1.124   3.909  0.4821  0.1568 -0.4140
 8141SOL    HW136056   0.534   1.142   3.839 -0.3034 -1.1357 -0.0481
 8141SOL    HW236057   0.623   1.208   3.947  1.5546 -0.1131 -0.5547
 8142SOL     OW36058   1.288   2.747  13.381  0.3926  0.2218 -0.5408
 8142SOL    HW136059   1.241   2.823  13.415  0.4935 -1.1980  2.8018
 8142SOL    HW236060   1.353   2.791  13.327  1.5242  0.7444  1.2764
 8143SOL     OW36061   3.418   0.875  12.045 -0.0164 -0.4724  0.3555
 8143SOL    HW136062   3.472   0.812  12.093 -0.8138 -2.4782 -1.3305
 8143SOL    HW236063   3.445   0.960  12.079  1.3412 -1.6616  2.2583
 8144SOL     OW36064   4.735   1.614  16.378 -0.0187  0.0768 -0.3203
 8144SOL    HW136065   0.040   1.530  16.395 -1.5731 -0.7964 -0.7298
 8144SOL    HW236066   4.658   1.583  16.331 -2.0847  3.0863  1.0971
 8145SOL     OW36067   0.032   4.434  14.144  0.2582  0.6199  0.3686
 8145SOL    HW136068   0.072   4.475  14.220  2.6760 -2.0625  0.5405
 8145SOL    HW236069   0.112   4.415  14.094 -1.3871 -3.6622 -0.6581
 8146SOL     OW36070   0.231   3.465   6.563 -0.9967  0.3143 -0.3049
 8146SOL    HW136071   0.248   3.372   6.577  2.2787  0.6918 -1.9131
 8146SOL    HW236072   0.260   3.477   6.472  3.6180  0.2716  1.1792
 8147SOL     OW36073   3.205   3.088   3.213  0.4516 -0.3421  0.4279
 8147SOL    HW136074   3.251   3.006   3.231 -0.2968 -0.5729  1.2944
 8147SOL    HW236075   3.131   3.044   3.170  0.0997  0.0366  0.6530
 8148SOL     OW36076   3.473   0.321   1.288 -0.4309 -0.2069 -0.7559
 8148SOL    HW136077   3.550   0.268   1.305  0.1142  0.8721  0.1782
 8148SOL    HW236078   3.425   0.310   1.370 -0.8590  0.2524 -0.9451
 8149SOL     OW36079   1.709   0.746   2.994 -0.2467 -0.1273  0.0760
 8149SOL    HW136080   1.769   0.674   2.977 -1.0474 -0.6681 -0.4180
 8149SOL    HW236081   1.642   0.710   3.052  2.3008 -2.3113  1.6203
 8150SOL     OW36082   2.192   4.040   1.673  0.5660  0.0935  0.1378
 8150SOL    HW136083   2.183   4.126   1.633  1.6529  1.5423  3.0966
 8150SOL    HW236084   2.253   3.988   1.621  0.9679  0.5958  0.1110
 8151SOL     OW36085   4.225   0.662   4.742  0.0189 -0.6082 -0.2960
 8151SOL    HW136086   4.316   0.671   4.772 -0.3291  1.9589 -0.0944
 8151SOL    HW236087   4.236   0.603   4.667  1.9210  0.9019 -1.1952
 8152SOL     OW36088   1.395   2.231  14.633 -0.5427 -0.3744  0.7478
 8152SOL    HW136089   1.325   2.290  14.604 -0.4843  0.2855  1.9442
 8152SOL    HW236090   1.464   2.285  14.672 -0.7103  0.9085 -0.7426
 8153SOL     OW36091   1.007   3.404  15.067  0.5571  0.0841 -0.3123
 8153SOL    HW136092   0.992   3.470  15.000 -0.1742  0.7267  0.4716
 8153SOL    HW236093   0.937   3.342  15.049  1.2131 -0.4827 -0.9010
 8154SOL     OW36094   3.679   1.660   6.708  0.0365  0.8670 -0.0178
 8154SOL    HW136095   3.652   1.568   6.704 -1.1934  1.2400 -0.0151
 8154SOL    HW236096   3.750   1.664   6.773  0.4241  0.8070 -0.4339
 8155SOL     OW36097   3.832   1.279   8.443 -0.5521 -0.0041  0.1451
 8155SOL    HW136098   3.908   1.266   8.387 -0.8642 -0.6265 -0.1355
 8155SOL    HW236099   3.795   1.190   8.444 -1.4678  0.3839  1.1540
 8156SOL     OW36100   1.078   3.529   2.775 -0.1560  0.1174  0.0777
 8156SOL    HW136101   1.033   3.495   2.697  1.0480  1.3463 -1.1466
 8156SOL    HW236102   1.167   3.504   2.751 -0.1046 -0.1866  0.5952
 8157SOL     OW36103   0.467   1.515   4.239 -0.3514  0.0635 -0.0461
 8157SOL    HW136104   0.419   1.472   4.310 -0.7037  0.3574 -0.1044
 8157SOL    HW236105   0.418   1.597   4.242 -1.0385 -0.3812  1.1026
 8158SOL     OW36106   1.967   3.503   9.002 -0.3679  0.5579  0.4021
 8158SOL    HW136107   1.934   3.432   9.057  1.9832 -0.4066  0.5625
 8158SOL    HW236108   1.919   3.578   9.038  0.5552  1.1685  0.3547
 8159SOL     OW36109   1.768   0.161   2.042  0.3463 -0.4298 -0.5665
 8159SOL    HW136110   1.677   0.135   2.056 -0.0760  1.0027 -0.6665
 8159SOL    HW236111   1.760   0.256   2.052 -0.8598 -0.5265 -0.5743
 8160SOL     OW36112   2.567   0.840   0.060  0.5008  0.1619  0.5336
 8160SOL    HW136113   2.653   0.858   0.021  0.1802 -1.2611 -0.8473
 8160SOL    HW236114   2.565   0.914   0.120  0.3841  0.5372  0.0726
 8161SOL     OW36115   3.692   2.878   4.278  0.1988  0.6227 -0.2499
 8161SOL    HW136116   3.751   2.850   4.348 -1.0867  0.2755  0.7013
 8161SOL    HW236117   3.687   2.972   4.294 -1.1611  0.5592 -0.2518
 8162SOL     OW36118   1.288   0.242   7.969 -0.7702  0.0910 -0.3327
 8162SOL    HW136119   1.319   0.314   7.913  0.1540  0.6754  0.9515
 8162SOL    HW236120   1.248   0.186   7.902  2.0043 -1.4161 -0.7051
 8163SOL     OW36121   1.091   4.268  15.544  0.4737  0.4830  0.4532
 8163SOL    HW136122   1.103   4.244  15.452  1.5068  1.1622  0.4059
 8163SOL    HW236123   1.176   4.296  15.579  2.0718 -1.5797 -1.8376
 8164SOL     OW36124   1.777   2.100   0.653  0.0389 -0.0198  0.5558
 8164SOL    HW136125   1.868   2.077   0.637 -1.0188 -2.6496 -1.4670
 8164SOL    HW236126   1.746   2.085   0.564  0.0660  0.3842  0.4768
 8165SOL     OW36127   2.272   0.025   7.275 -0.1149 -0.1737  0.1499
 8165SOL    HW136128   2.244   4.672   7.280  0.7635 -0.4741 -0.3438
 8165SOL    HW236129   2.188   0.068   7.292 -0.9835 -2.3070  1.1911
 8166SOL     OW36130   2.596   1.911   3.015  0.2174  0.3379  0.9100
 8166SOL    HW136131   2.563   1.985   3.065 -2.4881 -0.1622 -0.1557
 8166SOL    HW236132   2.672   1.952   2.973  0.5076 -2.4507 -1.3573
 8167SOL     OW36133   3.326   4.698   5.654  0.3512 -0.5428  0.4941
 8167SOL    HW136134   3.263   4.627   5.641 -0.8866  0.7434 -0.5010
 8167SOL    HW236135   3.307   4.715   5.746 -0.3513  0.5499  0.1444
 8168SOL     OW36136   4.711   1.915   6.346 -0.1255 -0.1465 -0.0518
 8168SOL    HW136137   4.666   1.936   6.264  0.4623 -0.2922 -0.4075
 8168SOL    HW236138   4.734   1.823   6.338  1.5891  0.1483  1.4085
 8169SOL     OW36139   1.212   0.824   4.111 -0.2158 -0.1574 -0.0382
 8169SOL    HW136140   1.273   0.804   4.040  0.6983  3.0264 -0.1579
 8169SOL    HW236141   1.135   0.769   4.103 -0.6856  0.4339  0.3721
 8170SOL     OW36142   0.134   4.291   6.586 -0.1031  0.7319  0.3123
 8170SOL    HW136143   0.220   4.314   6.550 -0.1889 -1.3776 -1.2626
 8170SOL    HW236144   0.148   4.199   6.606 -0.0358  1.0471  1.7042
 8171SOL     OW36145   0.081   2.333   5.643 -0.1579  0.2978 -0.3435
 8171SOL    HW136146   0.065   2.418   5.600  0.8838  1.2394  1.1470
 8171SOL    HW236147   0.166   2.308   5.608  0.2001  0.8999  0.0893
 8172SOL     OW36148   1.875   4.469  12.990  0.3706 -0.9840 -0.4650
 8172SOL    HW136149   1.790   4.507  12.969  1.4115  1.3476 -0.5222
 8172SOL    HW236150   1.869   4.375  12.974 -0.5457 -1.0502  0.2660
 8173SOL     OW36151   1.417   1.853   9.034 -0.5775 -0.3611 -0.1461
 8173SOL    HW136152   1.431   1.774   8.981 -1.5942  1.0898 -2.5392
 8173SOL    HW236153   1.371   1.808   9.105 -1.2226  1.6932  0.7301
 8174SOL     OW36154   1.333   2.391   2.619  0.4362 -0.2785 -0.2058
 8174SOL    HW136155   1.363   2.455   2.555 -0.2180  0.3386  0.1044
 8174SOL    HW236156   1.244   2.383   2.584  0.6570  1.3975 -1.1501
 8175SOL     OW36157   1.151   4.515   6.368 -0.0217  0.2759 -0.0376
 8175SOL    HW136158   1.127   4.571   6.442 -2.0313 -2.1305  1.1327
 8175SOL    HW236159   1.242   4.489   6.384 -0.5890 -0.6908  1.6023
 8176SOL     OW36160   3.069   2.447   2.343 -0.2578 -0.1667 -0.4104
 8176SOL    HW136161   3.057   2.442   2.438  0.9947  2.3699 -0.1303
 8176SOL    HW236162   2.989   2.494   2.319  0.0709  0.6011  0.0013
 8177SOL     OW36163   3.195   3.766   5.970  0.2672 -0.7313  0.2258
 8177SOL    HW136164   3.199   3.809   6.056 -0.6395  1.4767 -0.8283
 8177SOL    HW236165   3.129   3.700   5.992 -1.7224  1.6499  1.3988
 8178SOL     OW36166   1.743   1.486  11.949 -0.1963  0.0910  0.4120
 8178SOL    HW136167   1.772   1.470  12.038 -0.2821 -2.3621 -0.0128
 8178SOL    HW236168   1.714   1.577  11.943  0.0581  0.1755  0.4862
 8179SOL     OW36169   0.382   1.337   6.829 -0.1017 -0.0735  0.7363
 8179SOL    HW136170   0.430   1.307   6.906  0.7447 -1.3825 -0.3072
 8179SOL    HW236171   0.383   1.268   6.763 -1.3386  0.6102  0.0039
 8180SOL     OW36172   4.403   0.510   9.521  0.6971  0.3947  0.3438
 8180SOL    HW136173   4.378   0.453   9.593 -0.8322 -0.2917 -0.7238
 8180SOL    HW236174   4.334   0.576   9.527  0.1283 -0.1646 -0.0242
 8181SOL     OW36175   2.670   1.800   6.816 -0.1527  0.0526 -0.4437
 8181SOL    HW136176   2.759   1.778   6.844 -1.2018 -1.7291  1.5067
 8181SOL    HW236177   2.621   1.800   6.899  0.2744  2.9410 -0.1855
 8182SOL     OW36178   4.718   3.985   7.756 -0.0997 -0.2388  0.3926
 8182SOL    HW136179   0.026   3.971   7.840 -1.6818 -3.2624  0.7657
 8182SOL    HW236180   0.011   3.916   7.696  0.5619 -0.7180  1.2632
 8183SOL     OW36181   0.615   3.694   4.580 -0.4502  0.0422  0.0878
 8183SOL    HW136182   0.577   3.737   4.657 -0.5867  1.0939 -0.5671
 8183SOL    HW236183   0.621   3.611   4.627  1.0607 -0.1132 -0.3667
 8184SOL     OW36184   1.073   2.905  10.865 -0.5126  0.1519  0.0445
 8184SOL    HW136185   1.154   2.948  10.838 -0.1742 -0.4025  0.2076
 8184SOL    HW236186   1.018   2.913  10.786  0.5850  3.6313 -0.3894
 8185SOL     OW36187   3.651   0.357   5.000  0.1948 -0.3183 -0.2511
 8185SOL    HW136188   3.687   0.438   4.964  2.0324 -0.1262  2.0058
 8185SOL    HW236189   3.669   0.287   4.937 -0.6638  1.0946 -2.0628
 8186SOL     OW36190   1.092   4.555   9.332  0.2073 -0.0950  0.0279
 8186SOL    HW136191   1.009   4.519   9.364  0.2490 -0.1803  0.0413
 8186SOL    HW236192   1.101   4.618   9.404 -1.1812 -1.5003  1.4448
 8187SOL     OW36193   1.662   3.417   3.370  0.1640 -0.4522  0.2318
 8187SOL    HW136194   1.624   3.503   3.358  0.4327 -0.2212  1.0816
 8187SOL    HW236195   1.626   3.380   3.290 -0.7634  0.2040  0.3556
 8188SOL     OW36196   0.629   0.132  16.397  0.2393 -0.2414 -0.2928
 8188SOL    HW136197   0.673   0.215  16.376  0.3315 -0.4751 -1.0398
 8188SOL    HW236198   0.620   0.104  16.306 -0.5225 -1.5020  0.1693
 8189SOL     OW36199   1.931   0.787   4.569 -0.3448 -0.5243  0.0888
 8189SOL    HW136200   1.868   0.808   4.500 -0.2879  2.0734  0.8305
 8189SOL    HW236201   1.947   0.873   4.608 -1.8439  0.5167 -1.6085
 8190SOL     OW36202   0.399   2.650   8.598 -0.2205 -0.5490  0.7680
 8190SOL    HW136203   0.386   2.715   8.668 -0.9705  0.8287 -0.6404
 8190SOL    HW236204   0.458   2.696   8.538  2.3715 -2.6998  1.6623
 8191SOL     OW36205   0.480   4.293   4.540  0.3697  0.1941 -0.2094
 8191SOL    HW136206   0.418   4.280   4.612 -0.1718 -1.0255 -0.8899
 8191SOL    HW236207   0.429   4.338   4.473  3.3417  3.2910 -0.3973
 8192SOL     OW36208   1.008   4.646  16.784  0.0081  0.4274  0.2627
 8192SOL    HW136209   1.070   4.659  16.855  1.1992  1.5526 -0.9779
 8192SOL    HW236210   1.010   4.724  16.728  2.2969 -1.5194 -2.3837
 8193SOL     OW36211   1.462   4.736   6.190  0.0242 -0.1513  0.7571
 8193SOL    HW136212   1.444   4.700   6.277 -1.4262 -0.6612  0.2466
 8193SOL    HW236213   1.401   4.684   6.138 -2.2996 -0.0061  3.3389
 8194SOL     OW36214   2.936   3.162   2.112 -0.4743 -0.8940 -0.7951
 8194SOL    HW136215   2.963   3.209   2.032 -1.5357  1.6117  0.3106
 8194SOL    HW236216   2.848   3.144   2.081 -1.9452  0.6590  2.4894
 8195SOL     OW36217   2.475   0.474   7.572 -0.2635  0.4872 -0.5167
 8195SOL    HW136218   2.564   0.448   7.595 -0.0468  1.0503 -0.7198
 8195SOL    HW236219   2.480   0.512   7.484 -1.4556  1.2627 -0.2490
 8196SOL     OW36220   2.871   1.877   4.184  0.5810 -0.5325  0.4562
 8196SOL    HW136221   2.911   1.954   4.145  0.8727  0.4388  2.6518
 8196SOL    HW236222   2.787   1.862   4.142 -0.0268 -0.4274  1.6302
 8197SOL     OW36223   2.248   3.713   2.477  0.2655  0.6465  0.1945
 8197SOL    HW136224   2.310   3.640   2.482 -1.3872 -0.7491  0.3485
 8197SOL    HW236225   2.177   3.652   2.458  0.9781  0.3386 -1.5299
 8198SOL     OW36226   3.922   4.023   7.164 -1.0644  0.2600 -0.0639
 8198SOL    HW136227   3.957   4.036   7.252  0.3300  1.3668 -0.7719
 8198SOL    HW236228   3.981   4.078   7.113 -0.8919  0.4294  0.3215
 8199SOL     OW36229   3.748   0.612   7.067  0.9308 -0.5734 -0.2007
 8199SOL    HW136230   3.747   0.690   7.011 -0.5369  0.0074  0.6381
 8199SOL    HW236231   3.746   0.540   7.003  1.9346 -2.3365  1.7615
 8200SOL     OW36232   3.080   1.831   0.891 -0.2853 -0.1674  0.3008
 8200SOL    HW136233   3.077   1.833   0.795 -0.1366 -0.0969  0.2978
 8200SOL    HW236234   3.144   1.761   0.903 -0.8394 -0.1982  3.0684
 8201SOL     OW36235   1.890   4.240   5.002 -0.1305  0.0841  0.1698
 8201SOL    HW136236   1.951   4.183   5.049 -0.0957 -1.5350 -1.8445
 8201SOL    HW236237   1.870   4.309   5.065 -0.1233  1.5523 -1.4505
 8202SOL     OW36238   3.808   1.935   9.999 -0.4942 -0.2429 -0.2588
 8202SOL    HW136239   3.899   1.940  10.031 -0.5490 -4.5077  0.5345
 8202SOL    HW236240   3.805   1.995   9.925  3.2073  0.1886 -0.1066
 8203SOL     OW36241   0.162   0.322  14.169 -0.1327  0.3608  0.2968
 8203SOL    HW136242   0.122   0.407  14.153 -0.3608 -0.2754 -2.5202
 8203SOL    HW236243   0.131   0.263  14.099 -1.5103  0.6135  0.6859
 8204SOL     OW36244   4.228   1.501  14.713  0.4246  0.0084  0.1169
 8204SOL    HW136245   4.136   1.514  14.691  0.4870  0.0415 -0.1245
 8204SOL    HW236246   4.225   1.431  14.778 -1.0531 -0.1629 -0.1350
 8205SOL     OW36247   3.856   3.863   9.424 -0.6870 -0.2466 -0.1677
 8205SOL    HW136248   3.765   3.892   9.415 -0.5903 -0.3325 -1.3485
 8205SOL    HW236249   3.852   3.783   9.373 -1.7917 -0.1781 -0.1836
 8206SOL     OW36250   2.863   3.726   8.354  0.2764  0.1914 -0.0105
 8206SOL    HW136251   2.855   3.809   8.401  0.5805 -0.6763  1.5603
 8206SOL    HW236252   2.810   3.753   8.278 -0.2391  0.2223  0.3579
 8207SOL     OW36253   1.818   4.438   3.959  0.3315 -0.3246 -0.2622
 8207SOL    HW136254   1.740   4.385   3.974  0.8368 -1.0045 -0.0151
 8207SOL    HW236255   1.795   4.531   3.967 -0.3358 -0.5601  0.5980
 8208SOL     OW36256   3.027   2.141   0.170 -0.2356  0.0579 -0.3403
 8208SOL    HW136257   3.102   2.182   0.126  0.4599 -0.4780  0.3476
 8208SOL    HW236258   2.973   2.105   0.100  0.7012 -0.5823 -0.7453
 8209SOL     OW36259   2.895   1.870   3.352  0.4624  0.1093 -0.1170
 8209SOL    HW136260   2.964   1.815   3.389  0.8374  1.2094  0.8238
 8209SOL    HW236261   2.835   1.803   3.319  0.7750  0.8053 -2.1162
 8210SOL     OW36262   1.995   1.697   8.939  0.4702  0.0514  0.1874
 8210SOL    HW136263   1.947   1.664   8.863 -0.1277  3.0223 -0.7206
 8210SOL    HW236264   1.967   1.643   9.013 -2.7497  0.8988 -0.4336
 8211SOL     OW36265   4.644   3.422   0.662  0.0497 -0.2084 -0.2276
 8211SOL    HW136266   4.729   3.446   0.625 -0.6020  1.1921 -0.7841
 8211SOL    HW236267   4.580   3.471   0.612 -3.3003 -1.7567  2.5567
 8212SOL     OW36268   1.761   4.173  15.264 -0.4544  0.4172 -0.4398
 8212SOL    HW136269   1.743   4.266  15.253 -0.7427  0.3321 -0.6882
 8212SOL    HW236270   1.791   4.144  15.178  0.2521 -1.0376  0.2805
 8213SOL     OW36271   4.541   2.610   1.595  0.1762  0.1372  0.3165
 8213SOL    HW136272   4.569   2.688   1.642  0.1350  0.3650 -0.0351
 8213SOL    HW236273   4.629   2.574   1.585  0.3326  0.3888  0.8124
 8214SOL     OW36274   1.862   3.397   4.041  0.0145  0.2932 -0.0969
 8214SOL    HW136275   1.800   3.332   4.074 -0.9269 -0.3263 -3.1125
 8214SOL    HW236276   1.828   3.471   4.090 -0.2016 -1.0811  1.8340
 8215SOL     OW36277   2.471   3.545   4.345  0.1338 -0.7883 -0.0637
 8215SOL    HW136278   2.449   3.468   4.398 -1.2347 -0.0987  0.3697
 8215SOL    HW236279   2.566   3.541   4.349  0.0529 -1.2100  1.2708
 8216SOL     OW36280   0.642   1.090  17.512  0.5340 -0.3480 -0.7690
 8216SOL    HW136281   0.735   1.107  17.496  0.6220  0.1167  0.2829
 8216SOL    HW236282   0.622   1.027  17.442  3.0880 -0.2974 -1.5278
 8217SOL     OW36283   3.335   1.619  10.834 -0.1680  0.4934 -0.3634
 8217SOL    HW136284   3.380   1.559  10.894  0.9494  2.7130  1.0337
 8217SOL    HW236285   3.402   1.687  10.829  0.0143  0.4297  1.2226
 8218SOL     OW36286   1.928   2.063   0.206 -0.0600 -0.0083 -0.0539
 8218SOL    HW136287   2.010   2.111   0.223  0.4539 -1.5057  1.6282
 8218SOL    HW236288   1.865   2.133   0.223  0.5078  0.6426 -0.5735
 8219SOL     OW36289   2.299   3.011   4.940 -0.7721  0.0377 -0.4388
 8219SOL    HW136290   2.273   2.948   4.872 -1.1174 -1.5969  1.1797
 8219SOL    HW236291   2.387   3.025   4.906  0.1122  0.0558  1.8269
 8220SOL     OW36292   4.200   0.192  10.433 -0.2400  0.0855  0.0837
 8220SOL    HW136293   4.240   0.245  10.503 -0.7084  0.3478  0.1513
 8220SOL    HW236294   4.281   0.153  10.401 -0.3568  0.0742 -0.1925
 8221SOL     OW36295   0.154   0.101   3.252 -0.1975 -0.9003 -0.3805
 8221SOL    HW136296   0.139   0.138   3.165 -1.7003 -3.0341 -1.0417
 8221SOL    HW236297   0.234   0.148   3.275 -1.5851 -0.2579  3.2257
 8222SOL     OW36298   2.041   0.300  12.489 -0.1562  0.4930  0.1245
 8222SOL    HW136299   2.132   0.321  12.469  0.7905 -1.3111  2.5807
 8222SOL    HW236300   2.048   0.297  12.584  2.2681  1.8034 -0.0031
 8223SOL     OW36301   2.871   2.256   9.395 -0.1012 -0.7519 -0.1006
 8223SOL    HW136302   2.867   2.350   9.408  2.3451 -0.7487  0.6687
 8223SOL    HW236303   2.866   2.255   9.299  1.3337 -1.9975 -0.1758
 8224SOL     OW36304   4.147   0.048  14.005 -0.5390  0.5347 -0.0478
 8224SOL    HW136305   4.126   4.737  14.085 -2.4791  1.4719  0.0175
 8224SOL    HW236306   4.239   0.070  14.021 -1.2635  0.6049  3.9344
 8225SOL     OW36307   2.039   2.572   3.560 -0.0103  0.1787  0.7347
 8225SOL    HW136308   2.037   2.553   3.654  0.0502 -1.0065  0.5017
 8225SOL    HW236309   1.946   2.560   3.539  0.3418 -1.1855 -0.0484
 8226SOL     OW36310   1.912   2.950  10.117 -0.5383 -0.0912 -0.4505
 8226SOL    HW136311   1.982   3.008  10.087  1.5292 -2.8069 -0.9362
 8226SOL    HW236312   1.893   2.898  10.039 -0.4177 -0.0550 -0.5043
 8227SOL     OW36313   3.648   2.577   0.637 -0.1164  0.9004 -0.6348
 8227SOL    HW136314   3.577   2.566   0.700  0.4424 -0.3515 -0.2207
 8227SOL    HW236315   3.718   2.519   0.667 -1.8236  0.3752  2.3570
 8228SOL     OW36316   4.071   0.040  17.346 -0.4071 -0.0897 -0.4218
 8228SOL    HW136317   4.094   0.127  17.380 -2.1444  0.1862  0.0218
 8228SOL    HW236318   3.981   0.033  17.378 -0.7603  1.0092 -1.1757
 8229SOL     OW36319   1.692   4.100   3.475 -0.3868 -0.8515 -0.7069
 8229SOL    HW136320   1.738   4.159   3.535  0.0411  0.2370 -2.1019
 8229SOL    HW236321   1.620   4.064   3.527 -0.7238  0.7225 -0.1001
 8230SOL     OW36322   4.096   4.004   3.627  0.0828  0.2479 -0.3833
 8230SOL    HW136323   4.099   3.913   3.599 -1.1090  0.1282 -0.1407
 8230SOL    HW236324   4.119   4.054   3.549  2.8438 -1.7680 -0.8627
 8231SOL     OW36325   0.486   3.549  13.288 -0.1833 -0.6328  0.0073
 8231SOL    HW136326   0.417   3.560  13.354 -1.6066 -1.4503 -1.3513
 8231SOL    HW236327   0.511   3.640  13.276 -0.3173 -0.6411 -0.3204
 8232SOL     OW36328   0.837   2.108   1.734  0.1492 -0.1980 -0.3683
 8232SOL    HW136329   0.901   2.043   1.708 -1.0310 -0.8344 -1.6690
 8232SOL    HW236330   0.788   2.066   1.805  2.8866 -0.4278  1.3888
 8233SOL     OW36331   1.153   3.787   3.479 -0.0493 -0.5592  0.1236
 8233SOL    HW136332   1.199   3.780   3.562  0.9408 -1.5770 -0.5212
 8233SOL    HW236333   1.099   3.708   3.483 -2.3553  0.8351 -3.2063
 8234SOL     OW36334   3.739   1.467   5.712 -0.2944  0.1761  0.5195
 8234SOL    HW136335   3.803   1.406   5.750 -1.1065 -1.0406 -0.0485
 8234SOL    HW236336   3.710   1.508   5.793  0.5463 -0.5273  1.1825
 8235SOL     OW36337   2.162   0.885  17.598 -0.1849 -0.5561  0.8578
 8235SOL    HW136338   2.145   0.963  17.651 -1.1101  1.2490 -2.0791
 8235SOL    HW236339   2.072   0.857  17.579  0.1123 -0.5502 -0.6116
 8236SOL     OW36340   2.191   4.119  10.071 -0.2820  0.8788  0.0795
 8236SOL    HW136341   2.276   4.079  10.085 -0.6988 -0.1477 -0.3239
 8236SOL    HW236342   2.137   4.063  10.015  0.8221 -1.5883  1.5350
 8237SOL     OW36343   1.127   3.985   2.710 -0.8023 -0.5796  0.9872
 8237SOL    HW136344   1.140   4.003   2.616 -0.0825 -1.1461  0.9825
 8237SOL    HW236345   1.141   4.072   2.748  2.1539 -0.3115 -0.7625
 8238SOL     OW36346   1.997   0.160   4.605 -0.6743 -0.6523  0.2984
 8238SOL    HW136347   2.058   0.125   4.540  2.1697  1.2715  1.8705
 8238SOL    HW236348   2.053   0.161   4.683 -0.6009  0.2766  0.2323
 8239SOL     OW36349   0.228   3.590   9.314 -0.5471 -0.3606  0.4710
 8239SOL    HW136350   0.199   3.547   9.234 -0.4984  2.6630 -1.1660
 8239SOL    HW236351   0.210   3.681   9.291 -1.5084 -0.6800 -0.0104
 8240SOL     OW36352   1.953   4.574   7.732  0.4376 -0.6298 -0.4505
 8240SOL    HW136353   1.884   4.510   7.743  0.4068 -0.5250 -0.0296
 8240SOL    HW236354   2.020   4.529   7.680  1.2079 -0.1834  0.1480
 8241SOL     OW36355   4.662   1.290   3.936  0.0517 -0.1435 -0.1210
 8241SOL    HW136356   4.697   1.302   4.025 -1.8558 -1.4236  0.8006
 8241SOL    HW236357   4.709   1.355   3.883 -2.7270  0.8622 -1.3072
 8242SOL     OW36358   3.145   1.802   6.544 -0.1144  0.0362  0.4234
 8242SOL    HW136359   3.230   1.816   6.586 -0.4401  0.5910  0.9069
 8242SOL    HW236360   3.176   1.786   6.455  2.4167  1.7708  0.9861
 8243SOL     OW36361   0.373   2.862   8.781  0.7385 -0.4712 -0.5499
 8243SOL    HW136362   0.377   2.840   8.873  0.6547 -0.5103 -0.5559
 8243SOL    HW236363   0.456   2.910   8.775 -0.1575  1.0808 -0.6287
 8244SOL     OW36364   3.534   3.882   1.323  0.1306 -0.1449 -0.3789
 8244SOL    HW136365   3.475   3.825   1.370  0.5288  0.8205  1.2950
 8244SOL    HW236366   3.473   3.947   1.289 -0.3339 -1.1625 -1.4848
 8245SOL     OW36367   3.257   2.252   8.591  0.6603 -0.3476  0.5090
 8245SOL    HW136368   3.299   2.198   8.658  1.0744 -1.1033 -0.3573
 8245SOL    HW236369   3.168   2.217   8.591  0.2531  0.6876 -1.4031
 8246SOL     OW36370   4.005   3.870   2.872 -0.3334  0.0199  0.4693
 8246SOL    HW136371   4.070   3.898   2.808  0.4747  1.5980  1.9977
 8246SOL    HW236372   3.955   3.804   2.823 -0.4784  1.4769 -1.3281
 8247SOL     OW36373   1.566   4.411  15.049  0.1812  0.1879 -0.5410
 8247SOL    HW136374   1.506   4.422  14.976 -2.2378  2.2347  1.7536
 8247SOL    HW236375   1.580   4.499  15.083  2.6865 -0.8428  1.1247
 8248SOL     OW36376   0.637   4.528  17.712 -0.2190 -0.1309  0.3818
 8248SOL    HW136377   0.727   4.560  17.697 -0.1549 -0.8481 -0.7604
 8248SOL    HW236378   0.598   4.566  17.633  0.3604  1.4768  0.8740
 8249SOL     OW36379   3.901   4.219   5.169  0.6215 -0.2029 -0.0988
 8249SOL    HW136380   3.880   4.294   5.114  1.0612  1.7188  2.3808
 8249SOL    HW236381   3.812   4.191   5.190  1.4480 -1.0076  2.3734
 8250SOL     OW36382   2.227   2.806   8.048 -0.2800 -0.3141  0.5379
 8250SOL    HW136383   2.192   2.876   7.994 -0.3530 -0.9059 -0.1880
 8250SOL    HW236384   2.166   2.735   8.026 -0.7535  0.4124 -0.5045
 8251SOL     OW36385   0.539   2.273  16.361  0.0820  0.1377  0.4696
 8251SOL    HW136386   0.486   2.195  16.377  1.2084 -0.7097  0.1173
 8251SOL    HW236387   0.493   2.307  16.284  1.0615  2.9491  1.1520
 8252SOL     OW36388   1.945   0.881  12.413 -0.1288 -0.0214  0.0012
 8252SOL    HW136389   2.029   0.890  12.459  0.7520  0.4568 -1.6960
 8252SOL    HW236390   1.922   0.955  12.358 -1.0282  0.4356  0.9990
 8253SOL     OW36391   1.281   2.317   7.225 -0.0401  0.0034 -0.2521
 8253SOL    HW136392   1.362   2.279   7.191  0.2688 -0.6648  1.2235
 8253SOL    HW236393   1.212   2.277   7.173  1.1722 -1.1860 -0.9556
 8254SOL     OW36394   2.619   0.560  13.947 -0.1086 -0.2263  0.0032
 8254SOL    HW136395   2.677   0.614  14.001 -2.0911  2.3271 -0.4551
 8254SOL    HW236396   2.665   0.581  13.866 -1.6773  1.3196 -0.4930
 8255SOL     OW36397   3.119   3.151  12.903  0.3135  0.5239  0.0856
 8255SOL    HW136398   3.131   3.087  12.973 -0.6668 -0.3584 -0.5601
 8255SOL    HW236399   3.193   3.208  12.927 -0.2250  1.4497 -0.4346
 8256SOL     OW36400   3.516   3.131   1.495 -0.3443 -0.2509  0.3429
 8256SOL    HW136401   3.510   3.125   1.399  1.2076 -3.7621  0.4600
 8256SOL    HW236402   3.433   3.089   1.517 -0.8063  0.0706 -0.7441
 8257SOL     OW36403   0.760   2.477   4.937 -0.3515  0.0690 -0.0625
 8257SOL    HW136404   0.708   2.397   4.939 -0.2988  0.0807  1.5160
 8257SOL    HW236405   0.845   2.434   4.951 -0.3599 -0.4579 -1.6434
 8258SOL     OW36406   3.900   3.248  10.039  0.3345  0.1834 -0.0067
 8258SOL    HW136407   3.816   3.292  10.055 -0.0846  0.4735 -2.9978
 8258SOL    HW236408   3.954   3.327  10.031  0.2992  0.0490 -1.4970
 8259SOL     OW36409   2.937   3.686   7.023 -0.5086 -0.3940 -0.1813
 8259SOL    HW136410   2.986   3.743   7.082 -1.7779 -1.3659  1.7986
 8259SOL    HW236411   3.002   3.627   6.984 -1.4780 -2.2302  0.9985
 8260SOL     OW36412   3.362   2.956  13.394  0.5683 -0.1857 -0.2094
 8260SOL    HW136413   3.447   2.980  13.357  1.3395 -1.5400  0.6869
 8260SOL    HW236414   3.345   3.040  13.436  1.1627  0.7070 -1.7881
 8261SOL     OW36415   2.342   3.848  16.149 -0.2450 -0.1071 -0.4256
 8261SOL    HW136416   2.259   3.802  16.139  0.6891 -1.7757 -0.4975
 8261SOL    HW236417   2.375   3.792  16.219  0.0645 -1.1181 -1.3861
 8262SOL     OW36418   3.583   0.609   5.571 -0.3950  0.6429 -0.2542
 8262SOL    HW136419   3.506   0.576   5.525 -0.0055  0.5512 -0.8465
 8262SOL    HW236420   3.645   0.580   5.504 -1.0025 -0.2454 -0.4340
 8263SOL     OW36421   1.541   2.269   5.822 -0.4945  0.9671 -0.5197
 8263SOL    HW136422   1.581   2.258   5.736 -0.9262  1.9633 -0.8437
 8263SOL    HW236423   1.564   2.194   5.877  1.3260  1.8486 -0.1052
 8264SOL     OW36424   1.112   4.379   6.886  0.1728 -0.9497  0.6530
 8264SOL    HW136425   1.104   4.287   6.909 -0.7773 -0.6947  1.3621
 8264SOL    HW236426   1.190   4.383   6.831 -1.1741 -1.7796 -1.3424
 8265SOL     OW36427   2.061   4.165   6.649  0.4644 -0.0272 -0.0010
 8265SOL    HW136428   2.041   4.228   6.579 -0.9316  0.0834  0.5000
 8265SOL    HW236429   2.135   4.114   6.618  0.3954 -1.1542  1.7064
 8266SOL     OW36430   4.625   3.911  15.548 -0.1281  0.1832  0.6286
 8266SOL    HW136431   4.671   3.846  15.602 -0.8725  0.4732  1.6186
 8266SOL    HW236432   4.586   3.850  15.486  1.1863 -0.5921  0.5729
 8267SOL     OW36433   1.643   3.824   4.145  0.1500 -0.0022  0.8646
 8267SOL    HW136434   1.627   3.899   4.202 -0.8634 -0.8874  1.7594
 8267SOL    HW236435   1.738   3.824   4.139  0.1469  2.1166  0.8716
 8268SOL     OW36436   3.880   2.393   5.557 -0.1970 -0.0910  0.3983
 8268SOL    HW136437   3.793   2.429   5.577 -0.2135 -0.7310  1.4502
 8268SOL    HW236438   3.850   2.306   5.531 -1.6658  0.4947  0.0962
 8269SOL     OW36439   3.323   2.538   1.790 -0.3141 -0.5596  0.0823
 8269SOL    HW136440   3.384   2.578   1.728 -1.4221  1.7058  0.4518
 8269SOL    HW236441   3.256   2.515   1.726 -1.1760 -0.2492  0.8664
 8270SOL     OW36442   1.572   2.356   9.134 -0.0010 -0.3632 -0.2925
 8270SOL    HW136443   1.569   2.265   9.105  0.5854  0.3202 -2.5274
 8270SOL    HW236444   1.620   2.397   9.062  0.2231  1.2611  0.7818
 8271SOL     OW36445   1.945   0.226   3.430 -0.1029  0.3103  0.3120
 8271SOL    HW136446   1.954   0.195   3.340 -1.2794  0.7268  0.0592
 8271SOL    HW236447   2.018   0.177   3.470  0.2630  0.8199  0.2659
 8272SOL     OW36448   2.029   0.925   8.360  0.2093 -0.0225 -0.0907
 8272SOL    HW136449   2.073   0.923   8.275  3.3507  1.5381  1.5197
 8272SOL    HW236450   2.041   0.835   8.390  0.2156 -0.7411 -2.2025
 8273SOL     OW36451   3.609   1.259   3.077  0.3477 -0.1432 -0.1321
 8273SOL    HW136452   3.660   1.330   3.116 -0.4411  1.0400 -1.2743
 8273SOL    HW236453   3.587   1.218   3.161  1.5783  0.2877  0.3969
 8274SOL     OW36454   1.642   3.756   7.357 -0.6283  0.4007  0.0327
 8274SOL    HW136455   1.625   3.764   7.263 -0.0199 -0.2150 -0.1325
 8274SOL    HW236456   1.562   3.712   7.383  0.2470 -0.8667  0.5823
 8275SOL     OW36457   1.815   0.837   3.601 -0.3963  0.0908 -0.1165
 8275SOL    HW136458   1.735   0.784   3.605  0.5099 -1.1660  1.1410
 8275SOL    HW236459   1.780   0.901   3.539 -2.1476 -0.2241  0.5402
 8276SOL     OW36460   1.726   4.353   6.707 -0.2356  0.2120 -0.1286
 8276SOL    HW136461   1.814   4.385   6.724 -1.3780  2.7685  0.8601
 8276SOL    HW236462   1.735   4.279   6.646 -0.5305 -0.4196  0.5857
 8277SOL     OW36463   0.998   0.027   0.169 -0.2176  0.0720 -0.0845
 8277SOL    HW136464   0.944   0.040   0.091 -2.1343 -2.5418  0.8053
 8277SOL    HW236465   1.081   0.014   0.122 -0.4590 -0.3651 -0.3891
 8278SOL     OW36466   3.983   2.763   9.526 -0.1246 -0.2685  0.5826
 8278SOL    HW136467   3.945   2.851   9.518 -0.3645 -0.1656  2.7376
 8278SOL    HW236468   4.061   2.776   9.579  0.0587 -1.1208  0.5227
 8279SOL     OW36469   0.279   2.161  16.400 -0.1337  0.5558 -0.5701
 8279SOL    HW136470   0.243   2.074  16.386 -0.0170  0.3734  0.2789
 8279SOL    HW236471   0.314   2.188  16.315  1.2087  0.8105  0.0645
 8280SOL     OW36472   1.151   1.233  17.568  0.0097  0.5612  0.3955
 8280SOL    HW136473   1.206   1.298  17.612 -1.0373  1.9367 -0.2885
 8280SOL    HW236474   1.105   1.300  17.517 -1.9933 -0.2254  1.1821
 8281SOL     OW36475   2.373   0.144   2.890  0.1917 -0.0355  0.3272
 8281SOL    HW136476   2.344   0.210   2.953 -1.1286  1.0778 -1.4524
 8281SOL    HW236477   2.402   0.070   2.942  0.1306 -0.9762 -0.9897
 8282SOL     OW36478   0.507   0.402   1.984  0.1890 -0.5034 -0.1806
 8282SOL    HW136479   0.426   0.373   1.941 -1.9427  0.7656  3.0212
 8282SOL    HW236480   0.541   0.315   2.004  0.3010 -0.4039  0.0539
 8283SOL     OW36481   1.421   0.117   4.983  0.4708 -0.2488 -0.6576
 8283SOL    HW136482   1.504   0.076   5.006  0.1700  0.5652  1.9471
 8283SOL    HW236483   1.361   0.068   5.038  2.5769 -2.1782 -0.0756
 8284SOL     OW36484   0.986   2.016   2.602  0.7571 -0.3001 -0.1075
 8284SOL    HW136485   0.892   2.014   2.621  0.7429 -0.9355 -0.2573
 8284SOL    HW236486   0.994   1.967   2.521 -0.2103  1.2433 -1.1367
 8285SOL     OW36487   1.461   1.820   8.699 -0.5023 -0.4455  0.4853
 8285SOL    HW136488   1.474   1.757   8.771 -1.2097  1.0183  1.8939
 8285SOL    HW236489   1.382   1.862   8.734  1.0750 -0.0320  3.5477
 8286SOL     OW36490   4.061   3.675   8.933 -0.3044 -1.0114  0.3895
 8286SOL    HW136491   4.115   3.701   8.859 -1.0847  0.5373  0.3503
 8286SOL    HW236492   4.053   3.580   8.936  1.8317 -1.2655 -1.9246
 8287SOL     OW36493   2.423   0.480  12.985 -0.6277  0.0008  0.5536
 8287SOL    HW136494   2.507   0.511  13.020  0.2327  0.1637 -1.6103
 8287SOL    HW236495   2.399   0.418  13.053 -3.2982  0.0955 -0.3148
 8288SOL     OW36496   1.350   3.355  14.941 -0.9790 -0.2927 -0.0030
 8288SOL    HW136497   1.292   3.340  14.867 -1.6646 -0.9632  0.6780
 8288SOL    HW236498   1.378   3.443  14.918 -2.7657 -0.2352 -1.8932
 8289SOL     OW36499   2.302   3.489   9.110  0.1488 -0.0452 -0.4079
 8289SOL    HW136500   2.390   3.452   9.106 -0.0488 -0.3509 -1.6932
 8289SOL    HW236501   2.249   3.409   9.111 -0.9561  0.6911  0.9182
 8290SOL     OW36502   0.024   1.474   2.459  0.0470  0.0610 -0.1635
 8290SOL    HW136503   0.007   1.552   2.405  2.6330  1.8153  1.5176
 8290SOL    HW236504   4.719   1.504   2.539  0.8941  3.6195 -1.0196
 8291SOL     OW36505   1.826   1.778   9.670 -0.4330 -0.2451  0.0492
 8291SOL    HW136506   1.914   1.747   9.649  0.6289  2.2069  0.8513
 8291SOL    HW236507   1.843   1.833   9.746 -0.0184 -0.9612  0.4793
 8292SOL     OW36508   3.427   2.285   2.738 -0.0729  0.1929  0.4966
 8292SOL    HW136509   3.368   2.323   2.804 -0.8022 -0.5037  0.2503
 8292SOL    HW236510   3.448   2.361   2.685  1.9703 -0.2867  0.6462
 8293SOL     OW36511   0.998   3.800   6.766  0.2511 -0.2970  0.2866
 8293SOL    HW136512   1.063   3.741   6.805 -0.5866 -1.6247 -0.3224
 8293SOL    HW236513   0.925   3.742   6.741  0.5000 -0.8367  0.8224
 8294SOL     OW36514   1.304   1.028   7.014 -0.8026  0.2822  0.0200
 8294SOL    HW136515   1.357   0.986   7.081 -0.7349 -0.8083 -0.7232
 8294SOL    HW236516   1.366   1.047   6.943 -1.1527 -1.1073 -0.6577
 8295SOL     OW36517   2.309   1.581  15.511 -0.0585 -0.2647 -0.6525
 8295SOL    HW136518   2.218   1.563  15.487 -0.3695 -1.1943  1.2425
 8295SOL    HW236519   2.288   1.665  15.553 -0.5768 -1.5659  1.6853
 8296SOL     OW36520   3.619   3.211   5.321 -0.0868  0.3371 -0.5950
 8296SOL    HW136521   3.601   3.305   5.319 -0.7953  0.2103 -0.2507
 8296SOL    HW236522   3.672   3.208   5.401 -0.9342 -1.3443 -0.0895
 8297SOL     OW36523   0.717   1.319   4.660  0.2091 -0.5807 -0.3095
 8297SOL    HW136524   0.730   1.242   4.715 -1.8000 -2.1284 -1.9925
 8297SOL    HW236525   0.638   1.293   4.612  0.0747 -0.0233 -0.3899
 8298SOL     OW36526   0.031   4.450  12.239  0.1278 -0.4488  0.0975
 8298SOL    HW136527   0.091   4.395  12.290 -0.7480  0.8380  2.5003
 8298SOL    HW236528   0.029   4.398  12.158  1.8777 -0.1234 -0.1621
 8299SOL     OW36529   4.690   1.642   0.410  0.0312 -0.2720 -0.1216
 8299SOL    HW136530   4.691   1.624   0.504 -2.2022 -2.5842 -0.5518
 8299SOL    HW236531   4.624   1.710   0.399  0.7132  0.3464 -0.3702
 8300SOL     OW36532   3.534   4.720   8.222 -0.3920  0.2570 -0.3496
 8300SOL    HW136533   3.512   0.005   8.313  0.7614  0.3795 -0.0946
 8300SOL    HW236534   3.584   0.063   8.205  1.4017 -0.5508  1.0593
 8301SOL     OW36535   1.238   3.284   5.764 -0.0390 -0.0461  0.5453
 8301SOL    HW136536   1.179   3.233   5.709  0.7263  2.4269 -2.6399
 8301SOL    HW236537   1.209   3.248   5.848 -0.7794  0.9829  0.7396
 8302SOL     OW36538   1.434   3.192  11.705 -0.0030 -0.0644  0.1014
 8302SOL    HW136539   1.526   3.170  11.692  0.1910 -0.4213  1.9938
 8302SOL    HW236540   1.411   3.122  11.767  1.2335 -1.1756 -0.6833
 8303SOL     OW36541   3.810   0.628   2.003  0.6655  0.7455 -0.0584
 8303SOL    HW136542   3.901   0.640   1.974  0.0565  1.0604 -1.8110
 8303SOL    HW236543   3.825   0.552   2.060 -0.6631  0.7425  0.2890
 8304SOL     OW36544   4.161   2.225   4.945  0.0939 -0.3975  0.2093
 8304SOL    HW136545   4.205   2.273   5.016  0.1503  0.3053 -0.3087
 8304SOL    HW236546   4.195   2.135   4.943 -1.7213 -1.0648 -0.5103
 8305SOL     OW36547   4.476   0.835   3.920 -0.8002 -0.4871  0.6209
 8305SOL    HW136548   4.504   0.773   3.987 -2.3542 -0.3705  1.3850
 8305SOL    HW236549   4.468   0.780   3.842 -0.7617  0.6292 -0.1607
 8306SOL     OW36550   3.473   0.016   9.176  0.4323  0.2820 -0.0660
 8306SOL    HW136551   3.508   0.041   9.091  0.5786 -1.6486 -0.5796
 8306SOL    HW236552   3.383   0.040   9.157 -0.0389 -0.3410  1.3344
 8307SOL     OW36553   0.971   0.971   9.466  0.5809 -0.5618  0.3252
 8307SOL    HW136554   0.897   0.933   9.420 -0.0374  1.9055 -0.7708
 8307SOL    HW236555   1.037   0.957   9.397  0.1081  0.0514 -0.2550
 8308SOL     OW36556   2.115   3.333   3.167 -0.2873 -0.1296 -0.0392
 8308SOL    HW136557   2.056   3.392   3.121  0.1181 -0.0531 -0.4573
 8308SOL    HW236558   2.051   3.305   3.233 -0.4837  0.8493  0.1845
 8309SOL     OW36559   0.515   1.275   4.453  0.4517  0.4421 -0.0876
 8309SOL    HW136560   0.431   1.312   4.481  0.6106  1.7334 -1.3736
 8309SOL    HW236561   0.494   1.194   4.406 -1.9034  0.7885  0.3560
 8310SOL     OW36562   0.113   1.279   4.136 -0.3430  0.5039 -0.2274
 8310SOL    HW136563   0.178   1.330   4.087  0.0701  2.6944  2.6679
 8310SOL    HW236564   0.157   1.194   4.143  0.8329  1.1297  0.0663
 8311SOL     OW36565   3.729   1.025   8.387 -0.1310  0.0815 -0.0380
 8311SOL    HW136566   3.737   1.063   8.300 -1.0965  0.8090  0.1812
 8311SOL    HW236567   3.649   1.073   8.412 -0.0816  1.1552 -1.9448
 8312SOL     OW36568   2.466   0.688   6.040 -0.3147  0.7822 -0.2084
 8312SOL    HW136569   2.559   0.688   6.020 -0.5784  2.3588 -1.3811
 8312SOL    HW236570   2.487   0.726   6.125 -0.1345 -1.1589  0.6346
 8313SOL     OW36571   0.429   0.903   6.752  0.7251 -0.8848  0.2758
 8313SOL    HW136572   0.419   0.946   6.837 -1.7329 -1.5039  0.2995
 8313SOL    HW236573   0.453   0.979   6.700 -0.0380 -1.1622 -0.4989
 8314SOL     OW36574   4.736   4.652   9.022  0.3055  0.6520 -0.4594
 8314SOL    HW136575   4.675   4.681   9.090  0.2731 -2.9391  1.0484
 8314SOL    HW236576   4.725   4.726   8.961 -1.4128  1.5806  0.9636
 8315SOL     OW36577   4.239   0.166  17.663  0.9992 -0.7632 -0.0680
 8315SOL    HW136578   4.298   0.238  17.684  0.2544 -1.5424  4.6990
 8315SOL    HW236579   4.188   0.203  17.591  1.6784  0.1408 -0.0786
 8316SOL     OW36580   4.486   4.206   3.870 -0.4293  0.0954  0.1098
 8316SOL    HW136581   4.570   4.173   3.900 -0.0650  0.1853 -0.7974
 8316SOL    HW236582   4.438   4.124   3.863  0.9553 -0.8161  1.5352
 8317SOL     OW36583   4.416   3.600   9.020 -0.0083  0.3793  0.0784
 8317SOL    HW136584   4.482   3.557   9.075  0.7534  2.3210  0.6999
 8317SOL    HW236585   4.337   3.580   9.071 -1.7774  1.3225 -2.2992
 8318SOL     OW36586   3.904   2.064   3.522 -0.1297  0.4127 -0.9237
 8318SOL    HW136587   3.896   2.100   3.433  1.1179  1.4402 -0.6199
 8318SOL    HW236588   3.899   2.147   3.569 -3.2888  0.0066 -0.4995
 8319SOL     OW36589   4.109   2.169   8.855  0.4986  0.1531 -0.2127
 8319SOL    HW136590   4.132   2.077   8.865 -2.3941 -0.4595  0.6430
 8319SOL    HW236591   4.027   2.152   8.809  0.1097  1.0773  0.1328
 8320SOL     OW36592   0.116   4.085  15.551  0.1375 -0.8271  0.2258
 8320SOL    HW136593   0.074   4.130  15.477 -0.0162  0.5833  1.1656
 8320SOL    HW236594   0.054   4.014  15.568 -1.3221  0.1569 -1.0224
 8321SOL     OW36595   4.429   0.424   7.196 -0.0037 -0.1913 -0.4020
 8321SOL    HW136596   4.442   0.345   7.143 -1.6191 -2.3099  2.3581
 8321SOL    HW236597   4.338   0.441   7.174  0.1431  1.2371  0.1126
 8322SOL     OW36598   0.623   2.378   2.091  0.1405 -0.1899 -0.5008
 8322SOL    HW136599   0.671   2.299   2.067 -1.6644 -2.2632  2.6169
 8322SOL    HW236600   0.658   2.401   2.177 -1.2589 -0.0696  0.0456
 8323SOL     OW36601   1.684   1.446   8.883 -0.8194  0.0690 -0.5941
 8323SOL    HW136602   1.702   1.366   8.932  0.5787  0.7664  0.0332
 8323SOL    HW236603   1.758   1.449   8.822 -2.4010 -1.1000 -2.5796
 8324SOL     OW36604   4.216   4.338  10.091 -0.2257  0.0975 -0.0681
 8324SOL    HW136605   4.237   4.414  10.145 -2.0715  0.9049 -0.4548
 8324SOL    HW236606   4.120   4.345  10.098  0.1154 -0.4118  5.1220
 8325SOL     OW36607   3.149   0.890   0.869 -0.3536  0.2114 -0.2916
 8325SOL    HW136608   3.243   0.899   0.852 -0.7417  0.3536 -2.4150
 8325SOL    HW236609   3.111   0.969   0.829 -1.6215 -0.2214  0.0545
 8326SOL     OW36610   2.222   3.457  16.267 -0.2700  0.4428 -0.0304
 8326SOL    HW136611   2.255   3.468  16.178 -1.3715  1.2283 -0.3430
 8326SOL    HW236612   2.268   3.529  16.311  0.6276  0.7909 -1.5564
 8327SOL     OW36613   4.176   0.258   3.702 -0.2235 -0.3543 -0.4422
 8327SOL    HW136614   4.155   0.277   3.794  3.0647  0.3047  0.1652
 8327SOL    HW236615   4.118   0.183   3.688 -0.1123 -0.8233  1.5572
 8328SOL     OW36616   1.913   0.688   1.284  0.1943 -0.2742 -0.0422
 8328SOL    HW136617   1.873   0.695   1.371 -0.5510 -0.4309 -0.3698
 8328SOL    HW236618   1.986   0.749   1.298 -0.0263  0.1444 -0.6899
 8329SOL     OW36619   0.889   3.735   2.776  0.4295 -0.0323  0.1052
 8329SOL    HW136620   0.935   3.782   2.846  0.0988  0.0458  0.2719
 8329SOL    HW236621   0.958   3.675   2.748  1.6869  0.6993  1.6158
 8330SOL     OW36622   0.460   4.678  14.576 -0.6280 -0.1058  0.0950
 8330SOL    HW136623   0.399   4.627  14.524  0.2427  0.3407 -1.3668
 8330SOL    HW236624   0.408   4.711  14.649  0.8324 -0.1366  1.1593
 8331SOL     OW36625   1.880   2.782   9.610 -0.7701  0.2979 -0.1409
 8331SOL    HW136626   1.906   2.755   9.698 -0.5107 -0.1595 -0.3608
 8331SOL    HW236627   1.885   2.877   9.615 -2.1012  0.3998 -0.7825
 8332SOL     OW36628   2.919   2.153  11.084  0.1054  0.2052  0.1872
 8332SOL    HW136629   2.931   2.092  11.157 -0.7301  0.6099  0.6616
 8332SOL    HW236630   2.924   2.100  11.005 -1.2973 -1.2795  1.1107
 8333SOL     OW36631   2.069   3.571  13.112  0.0079  0.0774  0.1786
 8333SOL    HW136632   1.983   3.550  13.075 -0.3716  0.8561  0.6344
 8333SOL    HW236633   2.060   3.661  13.143  0.3813 -0.4651  1.8476
 8334SOL     OW36634   3.234   1.461  12.569  0.0930  0.1325 -0.2159
 8334SOL    HW136635   3.145   1.443  12.598  0.7122 -1.5609  0.6384
 8334SOL    HW236636   3.222   1.541  12.518 -1.2765 -0.4387 -0.7968
 8335SOL     OW36637   0.066   3.954   2.386 -0.6047  0.2899 -0.6190
 8335SOL    HW136638   0.076   3.910   2.302 -1.4003 -0.3206 -0.3889
 8335SOL    HW236639   0.035   3.877   2.434  0.6613 -0.3289 -0.7938
 8336SOL     OW36640   2.476   1.336   9.872 -0.0028  0.7683  0.3732
 8336SOL    HW136641   2.437   1.254   9.902  2.4232 -0.6622 -0.4324
 8336SOL    HW236642   2.493   1.316   9.780  0.6151 -0.4178  0.7409
 8337SOL     OW36643   2.097   1.022   3.141  0.0844 -0.2461 -0.7051
 8337SOL    HW136644   2.122   0.934   3.172  0.1960  0.1264  0.2554
 8337SOL    HW236645   2.093   1.004   3.047 -0.3173 -0.4211 -0.6546
 8338SOL     OW36646   4.152   3.279   6.664  0.2044 -0.7826  0.3942
 8338SOL    HW136647   4.121   3.241   6.582 -1.6834  0.2417  0.6545
 8338SOL    HW236648   4.109   3.364   6.663 -0.1848 -1.0031 -0.7581
 8339SOL     OW36649   0.557   1.432  15.333 -0.2198 -0.5248 -0.1819
 8339SOL    HW136650   0.611   1.355  15.315  0.6082 -0.1600  0.7051
 8339SOL    HW236651   0.625   1.490  15.299  1.0178 -0.3632  2.5694
 8340SOL     OW36652   3.657   3.694   8.409 -0.3970  0.5218 -0.3236
 8340SOL    HW136653   3.680   3.670   8.498  0.5675 -1.6724 -1.1664
 8340SOL    HW236654   3.570   3.657   8.419 -0.2806  0.5026  0.6384
 8341SOL     OW36655   2.342   0.471   0.598  0.7124 -0.3662 -0.1086
 8341SOL    HW136656   2.311   0.505   0.514  1.4347  0.4870 -0.0341
 8341SOL    HW236657   2.410   0.406   0.578  2.2281  0.1163  3.4813
 8342SOL     OW36658   2.018   4.128   6.920  0.0420  0.4831  0.0566
 8342SOL    HW136659   2.110   4.101   6.920 -0.6917 -2.0471  1.3834
 8342SOL    HW236660   2.007   4.147   6.827 -2.4674  0.7358  0.3825
 8343SOL     OW36661   0.397   1.615  15.622  0.3479  0.5417 -0.3110
 8343SOL    HW136662   0.397   1.577  15.534  0.4800 -2.2973  0.8925
 8343SOL    HW236663   0.319   1.575  15.661  0.9023 -0.0691  0.1853
 8344SOL     OW36664   1.322   0.080  12.159 -0.0537  0.1775 -0.0393
 8344SOL    HW136665   1.274   0.148  12.111  0.3404  1.1536  0.9342
 8344SOL    HW236666   1.274   0.076  12.242 -0.4947  1.1674 -0.2430
 8345SOL     OW36667   0.692   2.830   2.219 -0.2295 -0.4435 -0.0241
 8345SOL    HW136668   0.622   2.864   2.275 -0.6754 -0.8350 -0.3377
 8345SOL    HW236669   0.758   2.797   2.280  1.1218  0.5537 -0.9575
 8346SOL     OW36670   1.933   2.180   6.953 -0.3330  0.0049  0.2184
 8346SOL    HW136671   1.846   2.188   6.915  0.6085 -0.7585 -2.0803
 8346SOL    HW236672   1.958   2.095   6.916 -1.5215  0.2904 -1.2329
 8347SOL     OW36673   2.598   1.977   9.791 -0.5278 -0.1121  0.1171
 8347SOL    HW136674   2.577   2.059   9.836  2.1086  0.6281 -0.0413
 8347SOL    HW236675   2.656   1.995   9.717  0.7979 -1.4337  0.8487
 8348SOL     OW36676   4.688   4.140   3.263  0.0825  0.8433  0.2804
 8348SOL    HW136677   4.735   4.199   3.204  1.3053 -1.5638 -1.1685
 8348SOL    HW236678   4.624   4.201   3.299 -1.0312 -0.5933  0.7470
 8349SOL     OW36679   1.860   1.306   4.126 -0.1886 -0.1720 -0.5597
 8349SOL    HW136680   1.889   1.260   4.047  1.8429  1.4304 -0.7749
 8349SOL    HW236681   1.802   1.368   4.080  0.2394 -0.2272 -1.1739
 8350SOL     OW36682   0.914   4.494   6.719 -0.4422 -0.0967 -0.1184
 8350SOL    HW136683   0.906   4.416   6.664  3.0699  0.3152 -1.2098
 8350SOL    HW236684   0.984   4.463   6.777  0.4471 -0.6121 -1.4706
 8351SOL     OW36685   0.454   2.391   7.412  0.4300  0.1776 -0.2358
 8351SOL    HW136686   0.435   2.439   7.493  0.7794  0.3325 -0.2455
 8351SOL    HW236687   0.500   2.457   7.361  0.2039 -0.0909 -0.7812
 8352SOL     OW36688   2.687   1.480   2.786  0.1205  0.6121  0.1709
 8352SOL    HW136689   2.632   1.410   2.752  0.4958 -0.2329  1.3087
 8352SOL    HW236690   2.624   1.552   2.795  0.0112  0.5777 -0.3113
 8353SOL     OW36691   3.039   4.389   6.710 -0.1207 -0.7123 -0.5666
 8353SOL    HW136692   3.035   4.420   6.619 -1.1713 -0.4613 -0.4342
 8353SOL    HW236693   3.125   4.425   6.730 -0.7603  1.3288 -1.4585
 8354SOL     OW36694   0.302   3.974  17.433 -0.3653  0.6027  0.2737
 8354SOL    HW136695   0.320   3.982  17.527  3.0802  0.6185 -0.4121
 8354SOL    HW236696   0.226   3.916  17.441 -0.2537  0.4203  0.0101
 8355SOL     OW36697   1.800   2.175  14.867 -0.1064  0.0789  0.4415
 8355SOL    HW136698   1.849   2.093  14.870  0.3805  0.3702  0.6849
 8355SOL    HW236699   1.711   2.144  14.854 -0.1546 -0.0017  0.9506
 8356SOL     OW36700   1.887   3.357   9.232  0.8401 -0.3536  0.0485
 8356SOL    HW136701   1.885   3.387   9.323  0.0588 -1.6212  0.4498
 8356SOL    HW236702   1.977   3.327   9.225  1.5982  2.1589 -0.9104
 8357SOL     OW36703   3.201   3.789   6.239 -0.7016  0.0584 -0.1643
 8357SOL    HW136704   3.220   3.726   6.308 -1.0132  0.7340  0.5456
 8357SOL    HW236705   3.271   3.846   6.272 -0.2589  0.6737 -2.1876
 8358SOL     OW36706   1.714   4.087  11.137 -0.0303  0.1158 -0.2723
 8358SOL    HW136707   1.622   4.093  11.109  0.5395  2.9713 -1.4985
 8358SOL    HW236708   1.762   4.036  11.072  1.4366 -0.9413  1.6389
 8359SOL     OW36709   3.147   3.500   8.368  0.1809 -0.4733 -0.2048
 8359SOL    HW136710   3.139   3.577   8.312  0.5308  0.2993  0.8120
 8359SOL    HW236711   3.096   3.512   8.448 -1.0008 -3.3421 -0.5065
 8360SOL     OW36712   1.211   1.752   4.024 -0.0580 -0.4700 -0.3360
 8360SOL    HW136713   1.229   1.826   4.081 -0.7073 -0.3585 -0.2803
 8360SOL    HW236714   1.116   1.742   4.026  0.4052 -4.6883  0.2570
 8361SOL     OW36715   0.003   4.417   7.101 -0.2900 -0.4195  0.3696
 8361SOL    HW136716   0.027   4.326   7.116 -0.8585 -0.6831 -0.3454
 8361SOL    HW236717   4.646   4.422   7.113 -0.2465 -0.2791  0.6613
 8362SOL     OW36718   3.514   0.110  11.681 -0.3747  0.1874  0.1646
 8362SOL    HW136719   3.496   0.160  11.602 -1.0277 -3.5964 -2.0926
 8362SOL    HW236720   3.453   0.130  11.752 -0.6416 -0.0984  0.0191
 8363SOL     OW36721   1.776   1.841   1.367  0.6620 -0.1014 -0.4826
 8363SOL    HW136722   1.748   1.816   1.278 -0.6444 -0.2200 -0.0301
 8363SOL    HW236723   1.689   1.851   1.404  0.9528 -1.0235  0.4675
 8364SOL     OW36724   3.488   1.700   6.383 -0.2628 -0.2706 -0.0098
 8364SOL    HW136725   3.528   1.613   6.380 -0.3806 -0.2387 -2.3100
 8364SOL    HW236726   3.488   1.719   6.477 -0.9001 -0.5416  0.0470
 8365SOL     OW36727   0.935   3.145   4.817 -0.3571 -0.2382 -0.2357
 8365SOL    HW136728   0.916   3.060   4.776 -1.0492 -0.4270  0.4535
 8365SOL    HW236729   1.009   3.189   4.775 -0.9327  1.2292  0.2872
 8366SOL     OW36730   3.833   4.102  13.697  0.0063  0.3199  0.2442
 8366SOL    HW136731   3.823   4.042  13.771 -0.2932 -0.3113 -0.3201
 8366SOL    HW236732   3.870   4.180  13.740 -0.1558 -0.1759  1.2986
 8367SOL     OW36733   4.362   0.013   2.221  0.1533  0.8786  0.3031
 8367SOL    HW136734   4.270   4.724   2.219  0.5699 -0.5875  0.4224
 8367SOL    HW236735   4.356   0.051   2.133  0.6053  0.9679  0.3118
 8368SOL     OW36736   0.369   0.972   7.706 -0.4531 -0.1182  0.1364
 8368SOL    HW136737   0.420   0.891   7.699 -0.6120 -0.4281  2.6485
 8368SOL    HW236738   0.282   0.942   7.680 -0.2443  0.5249 -1.3369
 8369SOL     OW36739   4.486   2.888   9.769 -0.2179 -0.6815  0.0066
 8369SOL    HW136740   4.492   2.959   9.832  0.4107 -0.2220 -0.5654
 8369SOL    HW236741   4.563   2.840   9.799  1.1039  0.9735 -0.7716
 8370SOL     OW36742   3.671   4.297   0.854 -0.4124 -0.1042 -0.3110
 8370SOL    HW136743   3.639   4.315   0.766 -0.1750 -0.5753 -0.4973
 8370SOL    HW236744   3.591   4.326   0.897 -0.7459  0.6878 -1.4875
 8371SOL     OW36745   0.639   2.333  14.458 -0.0645 -0.2077  0.0357
 8371SOL    HW136746   0.703   2.326  14.387  0.3021 -0.1373  0.3592
 8371SOL    HW236747   0.610   2.424  14.456  0.8278 -0.0273 -3.8068
 8372SOL     OW36748   0.053   4.690   5.991 -0.8542 -0.7386  0.3200
 8372SOL    HW136749   0.036   4.632   5.917  0.1158 -1.0982  0.3712
 8372SOL    HW236750   0.053   4.630   6.066 -1.6942 -3.0029 -1.4988
 8373SOL     OW36751   0.350   1.997   7.495  0.3984  0.1765 -0.1348
 8373SOL    HW136752   0.328   2.067   7.557 -0.6154  3.3024 -4.0438
 8373SOL    HW236753   0.369   1.921   7.551 -0.2044 -1.1991 -1.8133
 8374SOL     OW36754   0.340   3.326   6.304 -0.2481 -0.5871 -0.1792
 8374SOL    HW136755   0.374   3.243   6.271  1.7218 -0.2602  0.9801
 8374SOL    HW236756   0.410   3.391   6.292  0.2041 -1.2816 -1.2823
 8375SOL     OW36757   2.069   1.699   8.349 -0.6415  0.0878 -0.1748
 8375SOL    HW136758   2.048   1.616   8.391  0.1417 -0.5908 -1.1115
 8375SOL    HW236759   1.987   1.726   8.307 -0.9790 -1.3630 -0.4259
 8376SOL     OW36760   3.162   2.627   3.091 -0.1362 -0.4852  0.4748
 8376SOL    HW136761   3.186   2.614   2.999  0.4106  0.3022  0.5077
 8376SOL    HW236762   3.221   2.563   3.131  0.7945 -0.4993 -0.9209
 8377SOL     OW36763   1.024   1.658   6.920  0.2882  0.0417  0.3061
 8377SOL    HW136764   0.933   1.685   6.925  0.0695 -0.6564  0.0518
 8377SOL    HW236765   1.053   1.718   6.851 -0.9207 -0.1922 -0.4098
 8378SOL     OW36766   0.168   4.327   4.574  0.0936  0.0053 -0.4219
 8378SOL    HW136767   0.133   4.413   4.553 -1.2289 -0.1076  1.2838
 8378SOL    HW236768   0.156   4.291   4.486 -1.7850  0.6624 -0.4360
 8379SOL     OW36769   0.890   2.752   4.963  0.0670  0.0780  0.7166
 8379SOL    HW136770   0.891   2.656   4.956  1.3098 -0.0374  2.5571
 8379SOL    HW236771   0.909   2.781   4.874  2.2007  1.1869  1.5454
 8380SOL     OW36772   2.746   1.932   5.804  0.0821  0.2947  0.4078
 8380SOL    HW136773   2.688   1.872   5.851 -0.6976  2.2962  1.9967
 8380SOL    HW236774   2.756   2.016   5.849  0.9246 -0.5860  1.8776
 8381SOL     OW36775   3.889   0.174   3.556  0.0661 -0.1180  0.0624
 8381SOL    HW136776   3.930   0.261   3.558  2.4414 -1.2392 -0.1607
 8381SOL    HW236777   3.853   0.182   3.467 -1.1030 -1.4525  0.4119
 8382SOL     OW36778   2.584   0.711   1.273  0.2067  0.1276 -0.0875
 8382SOL    HW136779   2.527   0.738   1.201  1.5673 -0.4965 -1.4058
 8382SOL    HW236780   2.527   0.672   1.339 -1.8952  2.2745 -0.6476
 8383SOL     OW36781   0.387   4.279  10.897  0.5341  0.1226  0.3317
 8383SOL    HW136782   0.425   4.304  10.813 -0.2394 -2.8110 -0.8860
 8383SOL    HW236783   0.431   4.330  10.965 -1.5422  1.8729  0.3493
 8384SOL     OW36784   1.818   2.812   1.499 -0.2640  0.0505  0.2940
 8384SOL    HW136785   1.741   2.782   1.547 -0.8535  0.9374 -0.0986
 8384SOL    HW236786   1.778   2.862   1.428 -0.1993 -1.9138 -1.1265
 8385SOL     OW36787   1.622   3.334   9.431 -0.0053  0.1650 -0.9530
 8385SOL    HW136788   1.529   3.346   9.409 -0.1830 -0.0005 -0.2890
 8385SOL    HW236789   1.637   3.269   9.363  0.0810 -0.0228 -0.7521
 8386SOL     OW36790   1.262   2.926   3.266 -0.1560  0.2603 -0.1741
 8386SOL    HW136791   1.259   2.838   3.302 -0.1617  1.3182  2.4513
 8386SOL    HW236792   1.290   2.905   3.177  1.3698  3.2807 -0.4106
 8387SOL     OW36793   3.853   0.414   3.217  0.2691  0.6025  0.0671
 8387SOL    HW136794   3.832   0.506   3.201  0.5358  0.8430  1.1744
 8387SOL    HW236795   3.947   0.423   3.232  0.1223 -0.5971  1.5949
 8388SOL     OW36796   1.804   2.176   9.836  0.6174 -0.5241 -0.0401
 8388SOL    HW136797   1.759   2.152   9.918  0.4233  0.8295  0.2497
 8388SOL    HW236798   1.802   2.271   9.842 -0.9030 -0.5533  0.0967
 8389SOL     OW36799   4.366   0.493   3.989  0.1767  0.4821  0.3615
 8389SOL    HW136800   4.278   0.458   4.002  0.6964 -0.7372  0.5286
 8389SOL    HW236801   4.364   0.503   3.894 -0.9289 -0.7266  0.2517
 8390SOL     OW36802   2.655   2.084   8.008  0.7382 -0.1763  0.0131
 8390SOL    HW136803   2.626   2.162   8.056  1.0155 -1.4086  2.1724
 8390SOL    HW236804   2.594   2.021   8.046 -0.2631  1.0850  0.4959
 8391SOL     OW36805   2.584   1.061   9.093 -0.1151  0.1380  0.0649
 8391SOL    HW136806   2.612   0.970   9.103  1.2618  0.6322  0.8402
 8391SOL    HW236807   2.628   1.113   9.161  0.7429  0.1360 -0.4809
 8392SOL     OW36808   4.416   0.508   6.879 -0.3535 -0.3102 -0.7210
 8392SOL    HW136809   4.343   0.563   6.906 -0.2225 -0.5827  0.1883
 8392SOL    HW236810   4.380   0.452   6.811 -2.7569  1.9392 -1.2716
 8393SOL     OW36811   1.397   3.772   4.836  0.4766  0.4630  0.0123
 8393SOL    HW136812   1.367   3.751   4.748  0.9432 -2.8499  0.6331
 8393SOL    HW236813   1.426   3.863   4.831  2.0617 -0.0053  0.5733
 8394SOL     OW36814   2.519   0.481  12.725  0.4155 -0.0494  0.0352
 8394SOL    HW136815   2.590   0.417  12.720  0.1697 -0.4908  2.1275
 8394SOL    HW236816   2.512   0.483  12.821  0.6040  2.7525 -0.0244
 8395SOL     OW36817   1.182   3.846   7.476  0.0602  0.1808  0.1065
 8395SOL    HW136818   1.234   3.800   7.542 -0.0669 -0.5053 -0.2825
 8395SOL    HW236819   1.218   3.935   7.483 -2.5164  1.0188  2.8677
 8396SOL     OW36820   2.846   2.582   3.599 -0.6436 -0.1329  0.4550
 8396SOL    HW136821   2.854   2.672   3.632  0.0532 -0.1295  0.2729
 8396SOL    HW236822   2.840   2.600   3.505  0.0631  1.1875  0.6517
 8397SOL     OW36823   0.711   3.255  10.928  0.0887  0.5713 -0.3344
 8397SOL    HW136824   0.762   3.327  10.892  1.2597 -0.2653 -0.3518
 8397SOL    HW236825   0.784   3.207  10.968  0.0928  1.5102  0.7943
 8398SOL     OW36826   0.911   2.182   8.880  0.1250  0.2575 -0.5149
 8398SOL    HW136827   0.961   2.261   8.861 -0.2075  0.2879 -1.2451
 8398SOL    HW236828   0.838   2.220   8.929 -0.2971 -1.8341  0.4738
 8399SOL     OW36829   1.749   0.531  10.032  0.1594  0.2836  0.2854
 8399SOL    HW136830   1.831   0.534  10.081 -0.2202  2.9437  0.7555
 8399SOL    HW236831   1.708   0.597  10.086  1.2143  0.7205  0.5518
 8400SOL     OW36832   3.420   2.053   6.389  0.5805 -0.0852 -0.1111
 8400SOL    HW136833   3.337   2.029   6.347  1.8521  0.9490 -3.2209
 8400SOL    HW236834   3.434   1.974   6.442 -0.8593 -1.1339 -1.2737
 8401SOL     OW36835   4.305   1.788   5.708 -0.3132 -0.4684 -0.3259
 8401SOL    HW136836   4.256   1.732   5.649  1.6732 -0.4717 -1.9814
 8401SOL    HW236837   4.390   1.795   5.664 -2.0399  0.4558 -3.5214
 8402SOL     OW36838   2.616   1.500   9.364  0.5180 -0.2064 -0.0168
 8402SOL    HW136839   2.658   1.585   9.352  1.2925 -0.6931 -0.7763
 8402SOL    HW236840   2.610   1.482   9.270 -0.8813  0.4084 -0.0454
 8403SOL     OW36841   1.369   0.439   7.800 -0.0001 -0.0424 -0.1601
 8403SOL    HW136842   1.450   0.467   7.842 -0.5598  1.2027  0.0866
 8403SOL    HW236843   1.305   0.500   7.837 -0.8150 -1.6899  1.1693
 8404SOL     OW36844   1.532   4.341   8.179  0.3507 -0.3031  0.3550
 8404SOL    HW136845   1.544   4.338   8.274  0.1733 -1.4167  0.3447
 8404SOL    HW236846   1.546   4.248   8.162 -0.4879 -0.6363  1.4918
 8405SOL     OW36847   2.342   2.884   5.398  0.0506 -0.0879  0.3094
 8405SOL    HW136848   2.287   2.940   5.452 -1.0877  0.1031 -1.0565
 8405SOL    HW236849   2.283   2.811   5.379 -1.0153  0.7607  0.3753
 8406SOL     OW36850   2.116   2.454   6.395 -0.2728 -0.0314 -0.2614
 8406SOL    HW136851   2.134   2.442   6.488  0.7349 -0.0765 -0.4623
 8406SOL    HW236852   2.022   2.468   6.404 -0.0196  2.1802 -1.1335
 8407SOL     OW36853   3.142   2.393   4.283  0.4719 -0.1545 -0.0627
 8407SOL    HW136854   3.229   2.357   4.304  0.4446 -0.9223 -1.2539
 8407SOL    HW236855   3.172   2.423   4.196  1.1119 -0.7786 -0.0589
 8408SOL     OW36856   2.543   4.053  12.282 -0.0730 -0.4339  0.3917
 8408SOL    HW136857   2.539   3.961  12.254  0.1124 -0.3326  0.0305
 8408SOL    HW236858   2.482   4.053  12.356 -0.6816  0.4105 -0.1092
 8409SOL     OW36859   2.730   2.743   9.082  0.4765 -0.3113  0.4689
 8409SOL    HW136860   2.750   2.658   9.043 -1.2434  0.3561 -1.8818
 8409SOL    HW236861   2.651   2.726   9.133 -1.0396  1.0107 -1.4304
 8410SOL     OW36862   2.627   2.034   7.234 -0.0490 -0.8808 -0.6456
 8410SOL    HW136863   2.609   2.126   7.254 -0.7895 -0.9544 -0.9514
 8410SOL    HW236864   2.722   2.025   7.236 -0.0438 -0.4734  0.6871
 8411SOL     OW36865   3.242   1.185  11.864  0.0024 -0.1249  0.5355
 8411SOL    HW136866   3.336   1.178  11.848 -0.0491  2.1274 -0.6758
 8411SOL    HW236867   3.216   1.127  11.792  0.5439  1.1134 -0.6504
 8412SOL     OW36868   1.116   4.203  11.211 -0.3884 -0.2964 -0.2024
 8412SOL    HW136869   1.090   4.114  11.236 -0.5738 -0.5412 -1.2511
 8412SOL    HW236870   1.103   4.258  11.288  1.9309  0.9393 -0.6892
 8413SOL     OW36871   0.545   3.741   0.331 -0.5460  0.1767 -0.0437
 8413SOL    HW136872   0.531   3.693   0.249  0.5600  1.0526 -0.7333
 8413SOL    HW236873   0.577   3.828   0.311 -0.7122  0.6955  1.9213
 8414SOL     OW36874   1.253   3.011   0.499  0.1274 -0.2650 -0.3871
 8414SOL    HW136875   1.344   2.989   0.515  0.7436  0.5090 -2.7607
 8414SOL    HW236876   1.214   2.925   0.478 -0.4556 -0.2405  0.6302
 8415SOL     OW36877   4.285   3.281   3.968  0.0967 -0.1705 -0.0907
 8415SOL    HW136878   4.354   3.310   3.909  0.9935 -0.4124  0.8309
 8415SOL    HW236879   4.311   3.193   3.998  1.1488 -0.1948 -1.0599
 8416SOL     OW36880   1.324   0.874  12.386  0.0432  0.5391 -0.2470
 8416SOL    HW136881   1.375   0.852  12.464 -0.9441  2.1030  0.8590
 8416SOL    HW236882   1.250   0.814  12.396  0.9884 -0.9870 -2.3831
 8417SOL     OW36883   1.541   4.598  13.678  0.3715  0.3641 -0.0129
 8417SOL    HW136884   1.633   4.623  13.680  0.0396  1.4712  2.0448
 8417SOL    HW236885   1.533   4.558  13.592 -0.7938  0.1251  0.2064
 8418SOL     OW36886   0.551   2.185   2.865 -0.3287  0.8390 -0.4038
 8418SOL    HW136887   0.645   2.175   2.880 -0.8748 -0.4188  2.2474
 8418SOL    HW236888   0.515   2.134   2.938 -0.3463  0.7855 -0.4493
 8419SOL     OW36889   1.340   1.837   5.469  0.0576 -0.5625  0.8281
 8419SOL    HW136890   1.328   1.925   5.505  0.5440 -0.0611 -0.2386
 8419SOL    HW236891   1.254   1.828   5.428  0.5568 -1.1493 -0.0897
 8420SOL     OW36892   1.814   3.847   5.601 -0.0514 -0.0628  0.0637
 8420SOL    HW136893   1.859   3.774   5.644  0.4634  0.5127  0.5040
 8420SOL    HW236894   1.831   3.904   5.676 -1.0976  0.3077  0.0256
 8421SOL     OW36895   1.478   0.674   5.973  0.2115 -0.2980 -0.3173
 8421SOL    HW136896   1.531   0.745   6.009 -1.7046  0.4624  1.0220
 8421SOL    HW236897   1.547   0.621   5.934 -0.3714  0.8528 -2.8667
 8422SOL     OW36898   4.070   0.472   7.753  0.4503  0.0481  0.1079
 8422SOL    HW136899   4.112   0.550   7.789 -1.7758  0.8125  1.0476
 8422SOL    HW236900   3.979   0.490   7.777  0.9474  1.8358  0.5682
 8423SOL     OW36901   3.917   3.796   4.035 -0.3520 -0.2640 -0.0788
 8423SOL    HW136902   3.975   3.743   3.979 -0.3637 -0.0491 -0.2955
 8423SOL    HW236903   3.957   3.879   4.008 -1.0704  0.1554  0.1683
 8424SOL     OW36904   1.274   3.644  11.377 -0.1758  0.2543  0.6613
 8424SOL    HW136905   1.355   3.594  11.390  0.0192 -0.1604 -2.2364
 8424SOL    HW236906   1.242   3.654  11.466 -1.5708  1.7118 -0.0116
 8425SOL     OW36907   2.371   3.847   4.007 -0.4595  0.1996  0.0331
 8425SOL    HW136908   2.383   3.756   4.035  1.5432  0.6241  0.5332
 8425SOL    HW236909   2.288   3.830   3.962 -1.0325  1.8607  0.4855
 8426SOL     OW36910   2.806   1.233   0.816  0.4183  0.1893 -0.3196
 8426SOL    HW136911   2.794   1.328   0.815 -0.2126  0.1361  2.0383
 8426SOL    HW236912   2.836   1.218   0.905  1.2451 -0.7146 -0.7506
 8427SOL     OW36913   3.085   3.255   1.155 -0.2630  1.2686  0.7566
 8427SOL    HW136914   3.067   3.187   1.220  0.2797  2.0083  1.6794
 8427SOL    HW236915   3.177   3.237   1.135 -0.7333  0.2367 -0.5180
 8428SOL     OW36916   1.597   2.405   3.022 -0.5275 -0.2715 -0.0296
 8428SOL    HW136917   1.675   2.355   2.998 -0.7699 -0.8971  0.5007
 8428SOL    HW236918   1.583   2.472   2.955  0.7549  0.3775  0.3543
 8429SOL     OW36919   0.622   2.776  13.416 -0.7071 -0.2407 -0.2895
 8429SOL    HW136920   0.693   2.737  13.365 -0.9483  0.0622 -0.8450
 8429SOL    HW236921   0.547   2.768  13.357 -0.6843 -1.6503 -0.1220
 8430SOL     OW36922   0.237   1.740  16.978 -0.2309 -0.3996 -0.0023
 8430SOL    HW136923   0.171   1.715  16.914  0.1892 -0.6163 -0.3487
 8430SOL    HW236924   0.213   1.709  17.066  2.3252 -2.0628  0.0945
 8431SOL     OW36925   0.091   3.402   8.587  0.4483  0.6839  0.5552
 8431SOL    HW136926   0.154   3.343   8.547  0.1184  0.2111  0.7339
 8431SOL    HW236927   0.135   3.487   8.587  0.8617  0.4656  1.8644
 8432SOL     OW36928   2.139   0.406   5.034 -0.1175 -0.1833 -0.2233
 8432SOL    HW136929   2.165   0.315   5.045  1.6673  0.1365 -1.7649
 8432SOL    HW236930   2.162   0.448   5.117 -0.3816 -1.3309  0.4232
 8433SOL     OW36931   4.086   0.433   4.471 -0.2575 -0.3371 -0.3867
 8433SOL    HW136932   4.178   0.453   4.488 -0.0227 -0.6005 -1.3224
 8433SOL    HW236933   4.079   0.433   4.375 -1.4590 -1.8394 -0.3002
 8434SOL     OW36934   4.658   2.345   1.899  0.1335  0.6095 -0.3994
 8434SOL    HW136935   4.680   2.325   1.808 -0.2203 -4.8204  0.6858
 8434SOL    HW236936   0.002   2.330   1.946  0.1923  1.4712 -0.2244
 8435SOL     OW36937   4.271   0.970   2.465 -0.1735  0.1804 -1.1520
 8435SOL    HW136938   4.225   0.956   2.547  1.1777 -1.7032 -0.7054
 8435SOL    HW236939   4.361   0.954   2.494 -0.3949  0.3238 -0.4003
 8436SOL     OW36940   3.664   0.445   7.274  0.2058  0.2283  0.4885
 8436SOL    HW136941   3.662   0.523   7.220 -0.0164  1.1741  1.8689
 8436SOL    HW236942   3.757   0.443   7.298  0.1323  0.1583  0.7786
 8437SOL     OW36943   3.155   2.137   6.597 -0.2588 -0.7268  0.1896
 8437SOL    HW136944   3.215   2.212   6.593  0.3250 -1.2214 -0.5532
 8437SOL    HW236945   3.215   2.064   6.615  2.2708  2.1927  3.3905
 8438SOL     OW36946   4.307   4.635   1.786 -0.0425  0.3367 -0.9085
 8438SOL    HW136947   4.354   4.562   1.746 -0.3315  1.0612 -2.5808
 8438SOL    HW236948   4.226   4.594   1.815  0.3849  0.5611  0.6083
 8439SOL     OW36949   2.980   2.902   0.300 -0.2539  0.0705 -0.1298
 8439SOL    HW136950   2.962   2.972   0.363 -0.5646 -0.9141  0.8745
 8439SOL    HW236951   2.974   2.952   0.218 -2.6761 -1.3098 -0.7975
 8440SOL     OW36952   0.186   1.644   5.414 -0.7439 -0.2097 -0.5135
 8440SOL    HW136953   0.260   1.671   5.469  0.3725 -0.5554 -1.8362
 8440SOL    HW236954   0.124   1.604   5.475 -1.0070  0.5899 -0.2474
 8441SOL     OW36955   1.954   1.339   2.152 -0.1258 -0.8149 -0.2320
 8441SOL    HW136956   1.966   1.413   2.212  2.0875 -0.8951 -0.5675
 8441SOL    HW236957   2.044   1.310   2.134 -0.0403  1.1266 -2.7796
 8442SOL     OW36958   0.009   1.193   6.939 -0.4623  0.1877 -0.5210
 8442SOL    HW136959   0.062   1.220   7.013 -0.2143 -2.3294  0.2261
 8442SOL    HW236960   0.011   1.269   6.881 -0.7529 -0.3379 -1.2418
 8443SOL     OW36961   0.904   4.484   1.952  0.5818  0.9331  0.4491
 8443SOL    HW136962   0.980   4.425   1.955  0.1264  0.3033 -0.3815
 8443SOL    HW236963   0.891   4.499   2.046 -1.0432  1.6859  0.0896
 8444SOL     OW36964   2.342   4.648   5.565  0.8683  0.3432  0.4836
 8444SOL    HW136965   2.360   4.716   5.629 -0.0098  0.8694  0.1728
 8444SOL    HW236966   2.275   4.682   5.505 -0.1699 -1.3560  0.6773
 8445SOL     OW36967   2.125   2.911   3.780 -0.2915 -0.3223 -0.0343
 8445SOL    HW136968   2.174   2.990   3.802  0.6148 -0.5850 -1.0984
 8445SOL    HW236969   2.132   2.859   3.859  0.9005 -1.3262 -0.8069
 8446SOL     OW36970   0.368   1.706   3.882 -0.0485 -0.6761  0.2837
 8446SOL    HW136971   0.425   1.646   3.834  0.1337 -0.6912  0.5212
 8446SOL    HW236972   0.432   1.771   3.911 -2.5235  1.2440  1.4190
 8447SOL     OW36973   2.785   2.527   8.908 -0.2428  1.1474 -0.2248
 8447SOL    HW136974   2.727   2.458   8.940 -0.0454  0.4518 -1.3645
 8447SOL    HW236975   2.764   2.543   8.816  1.4527  1.0220 -0.6408
 8448SOL     OW36976   0.391   1.377   8.593 -0.0236 -0.2569 -0.1809
 8448SOL    HW136977   0.306   1.420   8.606  0.0122 -0.5832  1.1723
 8448SOL    HW236978   0.419   1.382   8.685  1.3438 -0.1480 -0.6057
 8449SOL     OW36979   0.524   2.466   4.140 -0.0558 -0.2444 -0.6884
 8449SOL    HW136980   0.486   2.379   4.132 -0.1274 -0.4435  1.8201
 8449SOL    HW236981   0.478   2.486   4.221  2.4658 -1.7365  1.1329
 8450SOL     OW36982   4.419   2.922   2.327  0.4230 -0.1960  0.1685
 8450SOL    HW136983   4.418   2.850   2.264 -1.0283  2.5957 -3.0512
 8450SOL    HW236984   4.491   2.901   2.386 -1.2685 -2.8634  1.2602
 8451SOL     OW36985   0.422   2.730   2.409 -0.2837  0.1508 -0.2164
 8451SOL    HW136986   0.371   2.807   2.382 -2.0486 -1.4480 -1.4096
 8451SOL    HW236987   0.504   2.774   2.431 -1.0125  1.5639 -0.3218
 8452SOL     OW36988   3.611   4.278   0.539  0.0000 -0.0564  0.2147
 8452SOL    HW136989   3.596   4.333   0.462 -0.8100 -1.3898 -0.5777
 8452SOL    HW236990   3.697   4.244   0.516  0.1994  0.2946  0.4210
 8453SOL     OW36991   4.234   2.676   5.854 -0.3531 -0.0301  0.3582
 8453SOL    HW136992   4.234   2.735   5.780  1.0895  0.0241  0.4014
 8453SOL    HW236993   4.299   2.609   5.833  0.3512  0.5651  0.6413
 8454SOL     OW36994   2.271   2.969   4.163 -0.2181 -0.2453  0.1375
 8454SOL    HW136995   2.269   2.892   4.106 -0.1259 -0.1296 -0.0234
 8454SOL    HW236996   2.178   2.995   4.164  0.0148  0.5149  2.5199
 8455SOL     OW36997   1.161   4.663   6.594 -0.1514  0.1248  0.1537
 8455SOL    HW136998   1.087   4.612   6.626  0.0549  0.1819  0.7287
 8455SOL    HW236999   1.165   4.725   6.667  0.4562 -0.1916  0.3847
 8456SOL     OW37000   1.552   3.460   2.099  0.1081 -0.4337 -0.8207
 8456SOL    HW137001   1.468   3.495   2.128  0.2457  1.0539 -2.1661
 8456SOL    HW237002   1.532   3.370   2.073  1.2667 -1.7351  2.7950
 8457SOL     OW37003   1.410   4.393  10.527 -0.6154  0.6301 -0.1407
 8457SOL    HW137004   1.504   4.378  10.531 -0.4274  1.1852 -2.2508
 8457SOL    HW237005   1.403   4.478  10.570 -0.9157  1.6558 -2.2047
 8458SOL     OW37006   1.577   3.778   2.542 -0.0591  0.0492 -0.0198
 8458SOL    HW137007   1.610   3.708   2.599  0.8092 -0.7103 -1.4557
 8458SOL    HW237008   1.499   3.797   2.595  2.0173 -0.3027  3.1310
 8459SOL     OW37009   3.363   3.964   6.382 -0.1932 -0.0430 -0.8567
 8459SOL    HW137010   3.373   4.011   6.465  1.3811 -0.2201 -0.9581
 8459SOL    HW237011   3.393   4.034   6.324  1.0165  1.0342  1.0881
 8460SOL     OW37012   3.618   3.983   4.533 -0.1982  0.2502  0.2056
 8460SOL    HW137013   3.557   3.918   4.497  1.0051 -1.1814  0.7353
 8460SOL    HW237014   3.703   3.939   4.539 -0.0491  0.2619 -1.6842
 8461SOL     OW37015   3.658   4.387   1.435 -0.6188 -0.0917  0.0428
 8461SOL    HW137016   3.673   4.295   1.411 -0.5741  0.1789 -0.9521
 8461SOL    HW237017   3.697   4.382   1.523  0.8525 -0.6818 -0.6487
 8462SOL     OW37018   2.246   2.549   1.959  0.3178 -0.3212 -0.0345
 8462SOL    HW137019   2.239   2.585   2.047  0.5636 -0.5496  0.0783
 8462SOL    HW237020   2.241   2.455   1.972  0.2069 -0.3850 -0.5523
 8463SOL     OW37021   2.948   0.149   4.464 -0.4664  0.3080 -0.2015
 8463SOL    HW137022   3.018   0.155   4.529  0.7257  0.8242 -1.5457
 8463SOL    HW237023   2.940   0.056   4.444  2.4625  0.5843 -2.5720
 8464SOL     OW37024   1.539   0.373   9.924 -0.2391  0.3149 -0.4616
 8464SOL    HW137025   1.594   0.449   9.907  1.0651 -0.5615 -0.1680
 8464SOL    HW237026   1.476   0.395   9.992 -0.7977 -0.4872 -0.7199
 8465SOL     OW37027   1.560   3.414   6.327 -0.2864  0.4382  0.1081
 8465SOL    HW137028   1.534   3.375   6.243  1.7112  0.9323 -0.7602
 8465SOL    HW237029   1.552   3.507   6.307  2.1097  0.5391 -0.3688
 8466SOL     OW37030   2.382   3.647  16.374  0.1139  0.0441 -0.3731
 8466SOL    HW137031   2.478   3.647  16.367 -0.0033 -0.1959 -2.0466
 8466SOL    HW237032   2.364   3.723  16.429 -1.5008 -0.9596  0.4791
 8467SOL     OW37033   0.286   1.632  10.337  0.0253  0.4001 -0.1415
 8467SOL    HW137034   0.220   1.700  10.352 -1.9658 -1.9167  1.5009
 8467SOL    HW237035   0.294   1.591  10.423  1.9372  0.7610 -0.1602
 8468SOL     OW37036   4.674   0.402   6.635  0.9421 -0.6859 -0.0997
 8468SOL    HW137037   0.025   0.417   6.667  0.7936  0.2264 -0.1248
 8468SOL    HW237038   4.624   0.412   6.716  2.0598 -1.4984  0.6904
 8469SOL     OW37039   4.199   2.254   7.316  0.0713  0.2840  0.1051
 8469SOL    HW137040   4.289   2.280   7.336  0.6167 -1.2694 -0.2787
 8469SOL    HW237041   4.208   2.227   7.225 -0.8083 -2.4634  0.8145
 8470SOL     OW37042   2.823   4.245   4.566 -0.7888 -0.2360  0.2687
 8470SOL    HW137043   2.802   4.154   4.588  0.6340 -0.1405  1.9518
 8470SOL    HW237044   2.919   4.242   4.564 -0.8305 -1.0367 -0.8323
 8471SOL     OW37045   0.491   0.264  10.631  0.3069  0.3808 -0.1256
 8471SOL    HW137046   0.563   0.233  10.688 -0.7129  0.0486  0.9945
 8471SOL    HW237047   0.416   0.253  10.689 -1.3560  1.7145 -2.0903
 8472SOL     OW37048   0.163   0.461   6.012 -0.4441  0.0427  0.8319
 8472SOL    HW137049   0.209   0.479   6.094  1.6635  0.9573 -0.5392
 8472SOL    HW237050   0.118   0.380   6.036  0.3659 -1.2099 -1.8558
 8473SOL     OW37051   1.531   4.057   2.303  0.1693 -0.0248  0.5502
 8473SOL    HW137052   1.537   3.962   2.294  1.3476 -0.0819  1.9257
 8473SOL    HW237053   1.603   4.089   2.249 -1.8896 -0.5963 -2.5556
 8474SOL     OW37054   3.369   1.991   6.712  0.8193  0.1274  0.4808
 8474SOL    HW137055   3.448   1.978   6.660  0.6199  1.8458 -0.2302
 8474SOL    HW237056   3.378   1.912   6.766  1.8193  0.2058  0.4360
 8475SOL     OW37057   1.966   0.608  12.251  0.3203  0.0033  0.2109
 8475SOL    HW137058   2.055   0.614  12.286 -0.6626 -0.2376  2.7790
 8475SOL    HW237059   1.920   0.677  12.298 -1.5818 -0.3186 -1.1987
 8476SOL     OW37060   3.558   0.940   3.049  0.0459 -0.2217 -0.5404
 8476SOL    HW137061   3.506   1.017   3.073  1.6266  0.8970 -0.6859
 8476SOL    HW237062   3.642   0.966   3.088  0.6811 -1.7036 -0.9119
 8477SOL     OW37063   2.337   0.156   8.687  0.1947 -0.3138 -0.0644
 8477SOL    HW137064   2.420   0.112   8.671 -0.1514 -0.5103 -1.3605
 8477SOL    HW237065   2.262   0.097   8.684  0.0907 -0.1717 -0.3562
 8478SOL     OW37066   3.660   1.336   7.228 -0.0088  0.2495 -0.2629
 8478SOL    HW137067   3.656   1.253   7.181 -1.3142  0.2259 -0.1007
 8478SOL    HW237068   3.569   1.362   7.215  0.0952  0.5695 -0.3535
 8479SOL     OW37069   4.406   1.700  13.007 -0.1078  0.1854  0.8280
 8479SOL    HW137070   4.428   1.774  12.950  1.4859 -0.1288  1.0274
 8479SOL    HW237071   4.316   1.687  12.978  0.7076  0.3267 -1.6863
 8480SOL     OW37072   0.946   1.236   6.100 -0.4304  0.0862 -0.0466
 8480SOL    HW137073   0.948   1.142   6.120  2.9543 -0.3843 -2.4428
 8480SOL    HW237074   0.925   1.238   6.007 -1.9383  0.8063  0.3079
 8481SOL     OW37075   2.705   0.360   0.749  0.0398 -0.3123  0.0292
 8481SOL    HW137076   2.792   0.382   0.715  0.2087 -0.0793  0.6299
 8481SOL    HW237077   2.655   0.397   0.676  0.2759  2.8963  1.5137
 8482SOL     OW37078   1.047   2.485   7.386  0.6165 -0.9750  0.1843
 8482SOL    HW137079   1.080   2.396   7.388  0.9392 -0.8730 -0.5491
 8482SOL    HW237080   0.952   2.480   7.393  0.7720 -2.4650  1.2205
 8483SOL     OW37081   3.550   0.617  11.640  0.3157 -0.0354  0.0205
 8483SOL    HW137082   3.603   0.679  11.589  1.1440 -2.4111 -2.0426
 8483SOL    HW237083   3.522   0.662  11.719 -1.0657  2.6972 -2.0633
 8484SOL     OW37084   4.422   2.399   3.323  0.2136  0.1332  0.4058
 8484SOL    HW137085   4.437   2.484   3.364 -0.8493  0.4387  0.1677
 8484SOL    HW237086   4.392   2.343   3.394 -0.7651 -1.2565 -1.0941
 8485SOL     OW37087   4.229   3.494   8.035 -0.7104  0.1702 -0.0161
 8485SOL    HW137088   4.200   3.460   7.951  0.5714 -0.6122 -0.1422
 8485SOL    HW237089   4.325   3.494   8.042 -0.8251  1.0726  1.4561
 8486SOL     OW37090   3.898   3.042   4.432  0.2403  0.3446 -0.2553
 8486SOL    HW137091   3.891   2.956   4.475 -0.1395  0.9077  0.8069
 8486SOL    HW237092   3.992   3.048   4.418  0.4458 -2.7278 -0.2062
 8487SOL     OW37093   1.361   4.256   3.325 -0.9596 -0.3795  0.0428
 8487SOL    HW137094   1.308   4.333   3.344 -1.5967 -0.8751  0.2850
 8487SOL    HW237095   1.341   4.204   3.403 -0.2905  0.2879  0.6542
 8488SOL     OW37096   1.092   2.851   5.150  0.2556 -0.1640 -0.0220
 8488SOL    HW137097   1.014   2.796   5.151  0.7552 -0.8979 -0.7627
 8488SOL    HW237098   1.060   2.934   5.116 -0.7353 -0.3796  0.3778
 8489SOL     OW37099   3.087   4.170  12.385  0.2540  0.3339  0.7163
 8489SOL    HW137100   3.028   4.098  12.407 -0.3024  1.1550  1.9331
 8489SOL    HW237101   3.114   4.141  12.298 -0.0181  0.4266  0.6028
 8490SOL     OW37102   2.340   3.422  16.824  0.1200  0.0357  0.1651
 8490SOL    HW137103   2.250   3.391  16.837 -0.7246  2.0590 -0.7374
 8490SOL    HW237104   2.368   3.382  16.741 -3.0981  3.2922 -2.4992
 8491SOL     OW37105   1.720   0.941   0.867 -0.3041  0.0097 -0.1565
 8491SOL    HW137106   1.736   1.017   0.923 -1.7550  0.6730 -0.6472
 8491SOL    HW237107   1.730   0.874   0.934 -2.6316 -0.8994 -0.7237
 8492SOL     OW37108   0.083   4.691   8.300 -0.1890  0.2333 -0.0636
 8492SOL    HW137109   0.067   0.046   8.278 -1.9094 -0.2522 -0.8720
 8492SOL    HW237110   4.732   4.655   8.293  0.7398 -2.1911  0.8491
 8493SOL     OW37111   1.256   3.744   5.601  0.0700  0.6196 -0.0649
 8493SOL    HW137112   1.303   3.743   5.517 -1.9893 -2.2891 -1.1744
 8493SOL    HW237113   1.162   3.750   5.582 -0.2722 -0.1363  1.3984
 8494SOL     OW37114   0.233   4.552  17.726  0.2234  0.5266  0.2557
 8494SOL    HW137115   0.251   4.528  17.635  0.6885  0.0429  0.4782
 8494SOL    HW237116   0.153   4.604  17.719  0.1277 -0.0129 -2.5512
 8495SOL     OW37117   0.987   2.786  16.231 -0.3562 -0.5738  0.4345
 8495SOL    HW137118   0.932   2.787  16.310 -1.0494  2.0013 -0.0656
 8495SOL    HW237119   1.073   2.820  16.254 -1.1929  1.9246 -0.1518
 8496SOL     OW37120   0.373   4.001  17.704 -0.0752 -0.5347 -0.0413
 8496SOL    HW137121   0.431   4.004   0.032  1.2460 -0.1930 -1.0526
 8496SOL    HW237122   0.312   4.070  17.732 -1.9667 -2.1809 -0.1418
 8497SOL     OW37123   3.831   1.470   2.341 -0.0849  0.2468  0.3584
 8497SOL    HW137124   3.826   1.564   2.324 -1.9944  0.3417  1.4290
 8497SOL    HW237125   3.739   1.448   2.355  0.2603 -1.4410  0.0052
 8498SOL     OW37126   4.272   1.189   3.930 -0.5493  0.0905 -0.1903
 8498SOL    HW137127   4.186   1.149   3.943 -0.8722 -0.1154 -2.8915
 8498SOL    HW237128   4.325   1.126   3.978 -1.5510 -0.8072 -0.2622
 8499SOL     OW37129   2.672   3.590   0.608  0.1079 -0.3486 -0.0924
 8499SOL    HW137130   2.617   3.526   0.563  1.3563 -1.1088 -0.5169
 8499SOL    HW237131   2.691   3.547   0.691  1.0956  1.1002  0.4367
 8500SOL     OW37132   3.182   2.987  15.160 -0.4347  0.2706 -0.0181
 8500SOL    HW137133   3.173   2.929  15.235  3.0417 -0.8867 -0.4945
 8500SOL    HW237134   3.264   3.032  15.178  1.5042 -2.2343 -2.5613
 8501SOL     OW37135   0.705   1.380   1.743  0.0615 -0.5474  0.1833
 8501SOL    HW137136   0.737   1.464   1.777 -1.0347  0.2583 -0.7855
 8501SOL    HW237137   0.663   1.400   1.659 -1.8447  1.5452  1.6443
 8502SOL     OW37138   1.063   2.019   9.163  0.9123  0.1433 -0.0410
 8502SOL    HW137139   1.015   1.965   9.225 -0.5654  2.1533  0.5574
 8502SOL    HW237140   1.019   2.103   9.178  0.8245  0.1326 -0.2327
 8503SOL     OW37141   2.899   1.940  10.249 -0.0664 -0.1884 -0.0669
 8503SOL    HW137142   2.892   1.949  10.154  0.8847 -3.0178 -0.4066
 8503SOL    HW237143   2.842   2.011  10.278  1.0965  0.4453  0.7090
 8504SOL     OW37144   0.117   1.762   4.453 -0.1588 -0.2621  0.2922
 8504SOL    HW137145   0.137   1.741   4.362 -0.9475 -0.3591  0.1376
 8504SOL    HW237146   0.109   1.856   4.437 -1.0637 -0.2897  0.6038
 8505SOL     OW37147   3.803   1.407   3.303  0.5955  0.3632 -0.3101
 8505SOL    HW137148   3.862   1.333   3.315 -0.8715 -0.5025  1.5500
 8505SOL    HW237149   3.834   1.440   3.218  1.5434 -2.0171 -0.8977
 8506SOL     OW37150   1.844   0.589   0.983  0.0549  0.3286  0.3634
 8506SOL    HW137151   1.915   0.634   1.029  0.4869  1.3538 -1.3089
 8506SOL    HW237152   1.770   0.644   1.008 -0.0761  0.2489  0.1519
 8507SOL     OW37153   0.398   2.504   7.885 -0.2666  0.1290  0.3190
 8507SOL    HW137154   0.387   2.425   7.938  1.6087  0.5281  1.3125
 8507SOL    HW237155   0.347   2.563   7.941 -2.2876 -1.1373 -0.1785
 8508SOL     OW37156   0.616   3.011   8.814 -0.1003 -0.5475 -0.2464
 8508SOL    HW137157   0.646   2.947   8.879  1.3837 -1.5948 -1.9500
 8508SOL    HW237158   0.684   3.077   8.820  0.1598 -0.6287 -2.0611
 8509SOL     OW37159   4.001   1.429   9.218 -0.4894 -0.0512 -0.0645
 8509SOL    HW137160   3.969   1.501   9.272 -0.2369  0.5935 -0.7630
 8509SOL    HW237161   4.087   1.463   9.191  0.4476 -1.7324  0.7622
 8510SOL     OW37162   3.141   1.435  16.693 -0.2250 -0.4713 -0.4978
 8510SOL    HW137163   3.185   1.359  16.732  0.4986  0.0948 -0.2259
 8510SOL    HW237164   3.206   1.470  16.632 -0.4225  1.0405  0.1710
 8511SOL     OW37165   3.882   1.146  12.938 -0.1766 -0.6562  0.0067
 8511SOL    HW137166   3.964   1.154  12.987 -2.3072 -1.5676  3.6373
 8511SOL    HW237167   3.825   1.142  13.014 -0.4146  1.2749 -0.0560
 8512SOL     OW37168   3.492   4.553   6.890  0.2333 -0.0621  0.6673
 8512SOL    HW137169   3.513   4.496   6.965  1.7893  0.4349  0.6170
 8512SOL    HW237170   3.450   4.615   6.949 -0.2966  0.2556 -0.0573
 8513SOL     OW37171   3.912   1.584  10.994 -0.3204  0.3159 -0.0192
 8513SOL    HW137172   3.886   1.599  11.085  0.5541  0.1218  0.2598
 8513SOL    HW237173   3.827   1.557  10.957  0.6182 -2.5818 -0.0362
 8514SOL     OW37174   3.760   3.684   4.705 -0.0926  0.3323 -0.2213
 8514SOL    HW137175   3.753   3.739   4.783  0.5267  1.3092 -0.8657
 8514SOL    HW237176   3.834   3.631   4.735 -1.5958 -1.2581  0.6727
 8515SOL     OW37177   0.968   4.028   7.457  0.7847  0.3349 -0.8841
 8515SOL    HW137178   1.049   3.990   7.491  1.8622  1.9436 -1.6603
 8515SOL    HW237179   0.982   4.013   7.363  4.4028  0.2583 -0.3312
 8516SOL     OW37180   4.274   2.564   3.608 -0.0876 -0.2288 -0.2160
 8516SOL    HW137181   4.186   2.545   3.641 -0.7562 -1.6815 -2.7678
 8516SOL    HW237182   4.275   2.659   3.613 -2.1878 -0.3430  2.1926
 8517SOL     OW37183   3.042   0.604   5.755  0.0910  0.4734  0.2175
 8517SOL    HW137184   2.977   0.671   5.776  1.8817  2.2238  0.2795
 8517SOL    HW237185   3.033   0.586   5.661 -0.5102 -0.1104  0.3873
 8518SOL     OW37186   4.039   1.095  12.681 -0.0156 -0.1978 -0.0970
 8518SOL    HW137187   3.975   1.089  12.752  0.4582  1.1650  0.4488
 8518SOL    HW237188   4.045   1.191  12.686 -1.0041 -0.2032  1.3873
 8519SOL     OW37189   3.981   2.855   1.877 -0.5443  0.5505  0.9619
 8519SOL    HW137190   3.968   2.761   1.872 -1.1234  0.6443  0.7724
 8519SOL    HW237191   3.976   2.882   1.785  1.6211  1.4042  1.0837
 8520SOL     OW37192   0.605   4.534   9.457 -0.3170 -0.0888  0.8257
 8520SOL    HW137193   0.526   4.500   9.498  0.7790 -1.8251  1.4886
 8520SOL    HW237194   0.569   4.571   9.376  1.6851 -2.6366 -1.2003
 8521SOL     OW37195   2.078   2.903  11.676  0.3047 -0.7029 -0.1107
 8521SOL    HW137196   2.075   2.881  11.769  1.6646  1.5290  0.4630
 8521SOL    HW237197   2.084   2.998  11.673 -2.6459 -0.4763  1.0348
 8522SOL     OW37198   3.278   4.072   4.979  0.1074 -0.7649  0.2787
 8522SOL    HW137199   3.353   4.026   4.941  2.2721  2.2030  0.8982
 8522SOL    HW237200   3.208   4.029   4.932  1.9799  0.7351 -3.8740
 8523SOL     OW37201   3.278   2.983   8.325 -0.2206  0.0315 -0.4943
 8523SOL    HW137202   3.217   3.042   8.369 -0.1877 -0.3564  0.0752
 8523SOL    HW237203   3.361   2.997   8.371 -0.3028 -0.7838 -0.1041
 8524SOL     OW37204   1.450   3.124   4.061 -0.0283 -0.2891  0.2992
 8524SOL    HW137205   1.440   3.105   3.968 -1.2668 -0.2732  0.4313
 8524SOL    HW237206   1.358   3.146   4.076 -0.2368 -0.0823 -1.2960
 8525SOL     OW37207   3.493   1.672  11.812 -0.2055  0.4915  0.2555
 8525SOL    HW137208   3.493   1.726  11.891 -1.4699 -1.2187  1.4207
 8525SOL    HW237209   3.585   1.675  11.783  0.2015 -1.7786  1.2894
 8526SOL     OW37210   1.393   1.696  15.171  0.2957  0.4131  0.1665
 8526SOL    HW137211   1.453   1.691  15.097  1.7026 -0.6401  1.3669
 8526SOL    HW237212   1.376   1.790  15.176 -2.1528  0.1164 -2.6428
 8527SOL     OW37213   4.114   0.386   9.455  0.0202  0.3869 -0.4131
 8527SOL    HW137214   4.053   0.372   9.527  0.7362 -0.8215 -0.0324
 8527SOL    HW237215   4.088   0.469   9.415 -2.2651  0.2612  0.8217
 8528SOL     OW37216   3.487   0.358   6.522  0.5725 -0.7616 -0.6384
 8528SOL    HW137217   3.566   0.396   6.561 -0.2137 -0.4371  0.6355
 8528SOL    HW237218   3.460   0.301   6.595  1.9481  1.3113  1.4787
 8529SOL     OW37219   3.943   1.363   7.810  0.0105 -0.2865  0.1169
 8529SOL    HW137220   3.925   1.413   7.731 -1.3625 -1.2634 -0.1992
 8529SOL    HW237221   4.036   1.380   7.821 -0.0212  0.5534 -0.9687
 8530SOL     OW37222   3.918   3.317   2.251  0.4585  0.2268 -0.2226
 8530SOL    HW137223   3.951   3.228   2.259  2.0742  0.6357 -2.2800
 8530SOL    HW237224   3.962   3.358   2.326 -1.6993  1.0951  0.5756
 8531SOL     OW37225   2.299   4.583   4.756  0.8012 -0.5733  0.5903
 8531SOL    HW137226   2.382   4.620   4.784 -0.2596  1.2230  1.3941
 8531SOL    HW237227   2.329   4.497   4.728  1.2603 -0.2393  0.0491
 8532SOL     OW37228   2.523   2.763   8.684 -1.0747  0.1594  0.0975
 8532SOL    HW137229   2.499   2.855   8.672 -2.7524 -0.1475  1.2316
 8532SOL    HW237230   2.442   2.718   8.661 -0.2754 -1.7036  0.9562
 8533SOL     OW37231   2.505   2.647   1.240  0.6091 -0.6353  0.4198
 8533SOL    HW137232   2.410   2.647   1.248  0.8555 -0.2764  3.3067
 8533SOL    HW237233   2.540   2.677   1.324 -0.7672 -0.1950  0.8277
 8534SOL     OW37234   2.346   1.712   1.539  0.0487 -0.5438  0.2107
 8534SOL    HW137235   2.428   1.666   1.558  1.3259  1.2179 -1.0631
 8534SOL    HW237236   2.358   1.780   1.605  0.1786  0.3227 -0.6957
 8535SOL     OW37237   1.552   1.706  14.926  0.4592 -0.2409  0.3097
 8535SOL    HW137238   1.471   1.731  14.883 -0.7646 -0.0459  2.7365
 8535SOL    HW237239   1.581   1.629  14.877 -0.5808 -0.1939 -0.3788
 8536SOL     OW37240   3.161   2.837   8.138  0.3647  0.0284 -0.3592
 8536SOL    HW137241   3.190   2.898   8.206 -0.2056 -0.9168  0.7414
 8536SOL    HW237242   3.087   2.800   8.187 -0.7467  0.4882 -1.7001
 8537SOL     OW37243   1.054   3.334   8.579 -0.2937  0.2514 -0.4067
 8537SOL    HW137244   1.128   3.338   8.639 -1.6177 -0.8410  1.3150
 8537SOL    HW237245   1.039   3.241   8.559 -3.2601  0.3177  1.5741
 8538SOL     OW37246   2.394   2.874   8.981  0.2481  0.0525 -0.2432
 8538SOL    HW137247   2.397   2.968   9.002 -4.5291 -0.2080  1.6170
 8538SOL    HW237248   2.474   2.852   8.933  1.8579  1.2234  1.9140
 8539SOL     OW37249   0.862   4.604   2.605 -0.0392  0.1382 -0.0144
 8539SOL    HW137250   0.839   4.680   2.658 -1.5943 -1.0745  1.0341
 8539SOL    HW237251   0.789   4.543   2.606  0.0637 -0.0648 -3.3468
 8540SOL     OW37252   0.302   4.112   3.075  0.3813  0.6095 -0.3565
 8540SOL    HW137253   0.305   4.207   3.061 -1.0351  0.2691 -2.9184
 8540SOL    HW237254   0.349   4.111   3.159  2.2579  1.1894 -1.3847
 8541SOL     OW37255   0.353   1.760   0.566 -0.7108 -0.4857  0.8207
 8541SOL    HW137256   0.369   1.778   0.473  0.4068  1.8771  1.4780
 8541SOL    HW237257   0.280   1.698   0.561 -1.0651  0.1535 -1.8548
 8542SOL     OW37258   0.210   1.803  11.703 -0.0684  0.1053 -0.0252
 8542SOL    HW137259   0.217   1.849  11.619  0.3813  0.6822  0.3277
 8542SOL    HW237260   0.236   1.713  11.685  1.4229  0.6681 -0.6673
 8543SOL     OW37261   2.816   2.950  12.763  0.4979 -0.0144  0.5284
 8543SOL    HW137262   2.743   2.982  12.711  0.3471  0.9925  1.3646
 8543SOL    HW237263   2.792   2.966  12.854  0.0420  1.2693  0.1786
 8544SOL     OW37264   3.535   2.840   7.112  0.5439  0.2745 -0.3399
 8544SOL    HW137265   3.477   2.915   7.124 -0.8753 -1.1364  1.6588
 8544SOL    HW237266   3.490   2.791   7.042 -0.6466  0.3269  0.3949
 8545SOL     OW37267   0.155   3.455   5.879  0.0098 -0.2003 -0.3014
 8545SOL    HW137268   0.165   3.516   5.806 -1.0617 -0.3734 -0.5955
 8545SOL    HW237269   0.248   3.460   5.897 -0.0508 -0.3741  0.0673
 8546SOL     OW37270   3.207   4.600   7.346  0.0005  0.2215 -0.2187
 8546SOL    HW137271   3.181   4.525   7.400 -2.1544  2.5560  1.9935
 8546SOL    HW237272   3.129   4.655   7.353 -1.0092 -0.7799 -3.5369
 8547SOL     OW37273   0.930   0.501  14.418  0.2078  0.1943 -0.0819
 8547SOL    HW137274   0.958   0.431  14.358 -0.9266 -0.6625  0.3811
 8547SOL    HW237275   0.906   0.452  14.497 -0.4197  1.3506  0.4409
 8548SOL     OW37276   2.430   0.486   9.741 -0.2585 -0.2514 -0.2654
 8548SOL    HW137277   2.366   0.553   9.719 -0.5113 -0.0073  1.2417
 8548SOL    HW237278   2.483   0.486   9.661  0.6048  2.9011  0.3107
 8549SOL     OW37279   3.510   3.607   9.131 -0.0709  0.1597  0.1770
 8549SOL    HW137280   3.564   3.553   9.073 -0.2633  0.5050 -0.3198
 8549SOL    HW237281   3.554   3.690   9.113  0.0686  0.7563  3.2525
 8550SOL     OW37282   1.218   1.037  10.976 -0.2688 -0.3965  0.2015
 8550SOL    HW137283   1.306   0.999  10.984  0.5695  1.5873  0.5082
 8550SOL    HW237284   1.222   1.050  10.882  2.4082 -0.1643  0.3386
 8551SOL     OW37285   3.095   0.668   2.497  0.3936 -0.0706 -0.3927
 8551SOL    HW137286   3.061   0.750   2.534  0.6842  0.4143 -1.2143
 8551SOL    HW237287   3.118   0.701   2.411 -1.8178  3.4618  0.3731
 8552SOL     OW37288   3.324   2.497  16.679 -0.5465 -0.4647 -0.5735
 8552SOL    HW137289   3.238   2.530  16.654  0.0277  1.3004 -0.2354
 8552SOL    HW237290   3.309   2.507  16.773 -3.4955 -0.8819 -1.0097
 8553SOL     OW37291   4.239   3.914  17.366 -0.5339 -0.2281  0.6200
 8553SOL    HW137292   4.332   3.897  17.352 -0.0029  3.0743  0.1973
 8553SOL    HW237293   4.193   3.838  17.329 -2.4926 -0.1068  2.7863
 8554SOL     OW37294   2.295   0.057   6.352  0.3535  0.8703  0.6987
 8554SOL    HW137295   2.226   0.022   6.409  2.3843 -0.6141  2.2781
 8554SOL    HW237296   2.361   4.726   6.366 -2.3908 -1.7267  1.1807
 8555SOL     OW37297   2.797   0.941   2.510  0.2011  0.2431  0.4381
 8555SOL    HW137298   2.772   1.002   2.580 -0.1853  0.1402  0.3923
 8555SOL    HW237299   2.892   0.940   2.524  0.0890 -1.2523  1.0619
 8556SOL     OW37300   2.560   0.799   3.609  0.0688  0.2691 -0.3964
 8556SOL    HW137301   2.550   0.745   3.531 -2.7129 -0.3738  0.3917
 8556SOL    HW237302   2.645   0.837   3.589 -0.0524 -1.2655 -3.7274
 8557SOL     OW37303   2.352   0.583   3.622 -0.3507  0.2672  0.2039
 8557SOL    HW137304   2.352   0.614   3.531  1.2342  2.2610  0.9017
 8557SOL    HW237305   2.257   0.585   3.630 -0.3253 -1.6833  0.9976
 8558SOL     OW37306   3.166   1.116   2.199 -0.0748  0.9274 -0.6177
 8558SOL    HW137307   3.240   1.168   2.233 -0.7424  0.5348  1.4312
 8558SOL    HW237308   3.103   1.187   2.210 -0.4891  0.6098 -0.9721
 8559SOL     OW37309   3.033   1.099   0.705 -0.2589  0.4267  0.0232
 8559SOL    HW137310   3.095   1.171   0.718 -0.7329  0.6352  1.1170
 8559SOL    HW237311   2.965   1.136   0.761  0.8507 -0.2293  1.8147
 8560SOL     OW37312   4.712   2.427   5.391 -0.3906 -0.5299  0.1788
 8560SOL    HW137313   4.620   2.427   5.419 -1.2319  0.9314 -2.6302
 8560SOL    HW237314   4.707   2.334   5.368  0.8391 -0.8911  1.3799
 8561SOL     OW37315   3.854   0.018  14.540  0.1303 -0.5081  0.1458
 8561SOL    HW137316   3.761   0.034  14.525  0.4907 -0.5027 -2.1220
 8561SOL    HW237317   3.865   4.665  14.510  0.2232 -1.4457  3.0584
 8562SOL     OW37318   0.161   4.595   7.280 -0.1314 -0.0195  0.7678
 8562SOL    HW137319   0.199   4.527   7.337  1.7269  0.1804 -0.2316
 8562SOL    HW237320   0.123   4.540   7.212  1.2679 -0.1438  0.0804
 8563SOL     OW37321   1.436   0.069  13.012 -0.2041 -0.6997 -0.3599
 8563SOL    HW137322   1.470   4.725  12.974 -1.7267 -1.2960 -0.4508
 8563SOL    HW237323   1.512   0.127  13.016  0.6225 -1.7321 -1.0801
 8564SOL     OW37324   1.723   1.719   4.662 -0.6183  0.3442 -0.8705
 8564SOL    HW137325   1.765   1.637   4.638 -0.8894 -0.7099  2.2350
 8564SOL    HW237326   1.698   1.690   4.750  0.9062  0.7983 -0.2858
 8565SOL     OW37327   1.673   0.602   6.678 -0.3794 -0.0017 -0.2224
 8565SOL    HW137328   1.635   0.593   6.590  3.0029  0.1131 -1.6678
 8565SOL    HW237329   1.632   0.528   6.723 -1.2668 -0.6837 -2.1395
 8566SOL     OW37330   1.865   2.879   2.665  0.1598  0.1594  0.3603
 8566SOL    HW137331   1.772   2.854   2.658  0.3817 -0.4153 -0.5642
 8566SOL    HW237332   1.864   2.963   2.710 -1.8998  0.9185 -1.0416
 8567SOL     OW37333   2.571   2.220   1.552  0.0364 -0.2638 -0.2241
 8567SOL    HW137334   2.530   2.195   1.469 -0.2101  0.8643 -0.4455
 8567SOL    HW237335   2.494   2.256   1.595  0.4183 -0.1974  0.4103
 8568SOL     OW37336   4.728   3.363   8.831 -0.2223 -0.2329 -0.1739
 8568SOL    HW137337   0.019   3.401   8.748 -1.8292 -0.1560 -0.6919
 8568SOL    HW237338   0.053   3.291   8.836  0.1729  0.1404  0.1707
 8569SOL     OW37339   3.695   3.846   3.671 -0.3511  0.1801 -0.1149
 8569SOL    HW137340   3.767   3.785   3.653  0.9395  1.1311  1.7877
 8569SOL    HW237341   3.665   3.808   3.753 -1.2990 -1.0902 -1.0501
 8570SOL     OW37342   3.700   2.563   0.366 -0.5262  0.0040 -0.3097
 8570SOL    HW137343   3.678   2.619   0.440  1.5157  0.8056 -0.3109
 8570SOL    HW237344   3.776   2.513   0.395 -0.7240 -0.1178 -0.0020
 8571SOL     OW37345   2.887   2.040   6.312 -0.0090  0.2992  0.4887
 8571SOL    HW137346   2.870   1.981   6.239  2.1942 -0.2954  0.4482
 8571SOL    HW237347   2.819   2.104   6.294 -0.7915 -0.6996 -0.0825
 8572SOL     OW37348   2.178   2.153   2.705 -0.1476 -0.2536  0.1528
 8572SOL    HW137349   2.118   2.218   2.741 -1.6323 -1.5847  0.0829
 8572SOL    HW237350   2.125   2.122   2.632 -1.2965 -1.0044  1.2970
 8573SOL     OW37351   4.167   3.807   8.056  0.1377 -0.2872 -0.5722
 8573SOL    HW137352   4.140   3.715   8.063 -1.5168  0.2545  0.2779
 8573SOL    HW237353   4.090   3.853   8.021  0.6092 -0.2280 -1.5356
 8574SOL     OW37354   2.053   1.533   3.311 -0.2713 -0.2543  0.5343
 8574SOL    HW137355   2.041   1.602   3.375 -4.2892 -0.2607 -0.2392
 8574SOL    HW237356   2.126   1.475   3.334  0.4626 -0.7816 -3.1044
 8575SOL     OW37357   0.117   2.975  13.887 -0.0788 -0.2299  0.1662
 8575SOL    HW137358   0.059   2.984  13.962 -1.0804  1.4649 -0.8252
 8575SOL    HW237359   0.175   2.900  13.902 -1.0039 -1.1491 -0.9053
 8576SOL     OW37360   3.633   1.212   5.884  0.5485  0.2213 -0.0466
 8576SOL    HW137361   3.592   1.194   5.800 -2.5529 -1.2005  1.8001
 8576SOL    HW237362   3.690   1.135   5.879  3.8076  2.4201  2.7933
 8577SOL     OW37363   4.665   2.338  15.557  0.3139 -0.4907  0.7948
 8577SOL    HW137364   4.717   2.302  15.629  0.9072 -2.9314 -0.8547
 8577SOL    HW237365   4.654   2.254  15.514 -1.0358 -0.3328  0.8320
 8578SOL     OW37366   4.565   1.028   6.372  0.3610  0.2085 -0.4691
 8578SOL    HW137367   4.613   1.108   6.355  0.4238  0.7980  2.3513
 8578SOL    HW237368   4.475   1.048   6.347 -0.6978 -1.3882  1.9816
 8579SOL     OW37369   4.649   4.129   1.980  0.4862 -0.0187 -0.3744
 8579SOL    HW137370   4.684   4.078   1.907  1.1464  0.7074 -0.5534
 8579SOL    HW237371   4.654   4.065   2.052 -2.4738 -1.6320 -1.5927
 8580SOL     OW37372   0.704   0.819   8.774 -0.2641  0.1135 -0.3543
 8580SOL    HW137373   0.713   0.882   8.702 -0.1346  1.1339  0.5461
 8580SOL    HW237374   0.721   0.883   8.843  0.7597 -1.2301  0.6504
 8581SOL     OW37375   0.919   2.993   7.081  0.2921 -0.6022  0.0714
 8581SOL    HW137376   0.871   2.925   7.130  1.2537 -1.8139 -0.6596
 8581SOL    HW237377   0.857   3.022   7.015 -1.3047 -0.8657  1.4539
 8582SOL     OW37378   0.763   3.240  14.958  0.7725  0.3415 -0.1531
 8582SOL    HW137379   0.726   3.173  14.901 -0.3479  1.2175 -0.4548
 8582SOL    HW237380   0.717   3.231  15.041 -1.3989  1.2118 -1.2797
 8583SOL     OW37381   0.517   2.626   5.619  0.4098 -0.0914  0.3332
 8583SOL    HW137382   0.573   2.633   5.696  0.3996 -0.7491  0.3960
 8583SOL    HW237383   0.582   2.626   5.548 -1.3189  1.7103 -1.2453
 8584SOL     OW37384   0.237   2.678   3.450 -0.3877 -0.1997  0.7443
 8584SOL    HW137385   0.315   2.733   3.453  0.4148 -1.2743 -0.4535
 8584SOL    HW237386   0.275   2.595   3.421  1.6454  0.5520  1.2748
 8585SOL     OW37387   2.620   3.763   7.151 -0.4678  0.3524  0.4464
 8585SOL    HW137388   2.624   3.750   7.246  0.5054  1.3269  0.5406
 8585SOL    HW237389   2.540   3.719   7.123  0.0373 -0.1621 -0.2118
 8586SOL     OW37390   2.213   2.564   9.500  0.0483 -0.1743 -0.8596
 8586SOL    HW137391   2.200   2.565   9.594  0.6462  4.0674 -0.8247
 8586SOL    HW237392   2.226   2.470   9.486  0.7349 -0.0912 -0.7401
 8587SOL     OW37393   4.708   1.604   6.542  0.1610  0.2911  0.0069
 8587SOL    HW137394   4.642   1.588   6.609  1.2258  0.0013  0.9720
 8587SOL    HW237395   0.003   1.687   6.576  0.5594 -0.4597  1.4240
 8588SOL     OW37396   3.496   1.843   9.823 -0.4886  0.7695  0.2646
 8588SOL    HW137397   3.589   1.854   9.843 -0.6336 -0.5951  1.6682
 8588SOL    HW237398   3.486   1.905   9.750 -1.4943 -0.6650 -0.8066
 8589SOL     OW37399   3.158   2.687   3.923  0.5826  0.0991  0.2932
 8589SOL    HW137400   3.155   2.725   3.835  1.5898  1.1581  0.7083
 8589SOL    HW237401   3.077   2.713   3.967 -0.5783 -1.3436 -0.9950
 8590SOL     OW37402   3.269   2.835  17.594  0.3402 -0.2216 -0.1665
 8590SOL    HW137403   3.233   2.874  17.674 -0.1411 -0.8348 -0.0860
 8590SOL    HW237404   3.349   2.804  17.637 -0.2648 -0.0172  1.1162
 8591SOL     OW37405   2.548   2.601   7.104  0.4794 -0.0158 -0.4368
 8591SOL    HW137406   2.464   2.555   7.106  0.4647  0.0962  1.6335
 8591SOL    HW237407   2.581   2.573   7.019  0.5147  1.7996 -1.0300
 8592SOL     OW37408   2.877   0.336  16.027  0.5243 -0.4123  0.9325
 8592SOL    HW137409   2.843   0.405  16.084 -0.2438  0.7378 -0.9052
 8592SOL    HW237410   2.816   0.265  16.046 -0.9666  0.4416 -0.6287
 8593SOL     OW37411   3.539   0.229   5.865 -0.2599  0.2328  0.4212
 8593SOL    HW137412   3.605   0.272   5.810 -0.6938 -1.2387 -1.2447
 8593SOL    HW237413   3.467   0.280   5.826  0.8692  1.7866  0.3534
 8594SOL     OW37414   3.513   4.056   4.256  0.7079  0.1263  0.0870
 8594SOL    HW137415   3.516   4.089   4.346 -0.0475  1.8405 -0.4971
 8594SOL    HW237416   3.601   4.071   4.221  1.6423  1.6091  3.0323
 8595SOL     OW37417   4.026   4.685  14.219 -0.3040  0.0605  0.0395
 8595SOL    HW137418   3.989   4.608  14.262 -0.7250  0.4454  0.3651
 8595SOL    HW237419   4.095   4.705  14.282  2.0159  2.2919 -3.2469
 8596SOL     OW37420   3.213   1.583   1.692  0.1622  0.0057  0.1960
 8596SOL    HW137421   3.274   1.525   1.646  0.2979  1.0267 -0.9114
 8596SOL    HW237422   3.250   1.671   1.685  2.7847 -1.0790  0.5395
 8597SOL     OW37423   0.095   3.506   2.156 -0.5808  0.3901 -0.5986
 8597SOL    HW137424   0.175   3.473   2.196 -0.6951  0.0862 -0.6174
 8597SOL    HW237425   0.118   3.598   2.144  1.4663  0.3010  2.6633
 8598SOL     OW37426   2.048   3.762  10.847 -0.4579 -0.0359  0.1845
 8598SOL    HW137427   2.006   3.718  10.920  0.0394  0.2265  0.6282
 8598SOL    HW237428   2.134   3.770  10.888  0.6024 -1.9439 -1.6567
 8599SOL     OW37429   3.964   1.260   1.817  0.0214 -0.3039 -0.1896
 8599SOL    HW137430   4.038   1.296   1.865  0.4736 -1.7093  0.1633
 8599SOL    HW237431   4.006   1.234   1.735  0.6431  0.3371 -0.0808
 8600SOL     OW37432   1.698   4.208  15.529 -0.0678 -0.0279 -0.3842
 8600SOL    HW137433   1.609   4.178  15.512 -0.0939 -1.4825  2.3621
 8600SOL    HW237434   1.737   4.200  15.441 -2.5113 -2.0711 -1.2829
 8601SOL     OW37435   4.295   3.829  15.545  0.1280  0.2650 -0.0978
 8601SOL    HW137436   4.267   3.921  15.552  2.3723  0.5658  4.6795
 8601SOL    HW237437   4.235   3.793  15.480  0.8332 -0.8329 -0.1434
 8602SOL     OW37438   0.860   4.669   1.732 -0.5310  0.2155 -0.6399
 8602SOL    HW137439   0.773   4.707   1.732 -0.6081  0.0373 -0.6366
 8602SOL    HW237440   0.846   4.601   1.798  2.2557 -0.6155 -0.9036
 8603SOL     OW37441   3.221   0.246   5.298 -0.8419  0.0497  0.4049
 8603SOL    HW137442   3.172   0.163   5.292  1.4775 -1.3648  1.0609
 8603SOL    HW237443   3.264   0.245   5.384  1.3390  0.1130 -0.7004
 8604SOL     OW37444   1.113   4.318   1.972 -0.3384  0.3309 -0.0713
 8604SOL    HW137445   1.168   4.345   2.046 -0.6433 -0.6065  0.4972
 8604SOL    HW237446   1.176   4.317   1.900 -0.1128 -2.1708  0.1794
 8605SOL     OW37447   2.372   2.299   8.986  0.3337 -0.1414 -0.1612
 8605SOL    HW137448   2.348   2.384   8.950  1.0690 -0.0653 -0.4683
 8605SOL    HW237449   2.289   2.289   9.032  0.0982 -1.0122 -0.7719
 8606SOL     OW37450   1.539   0.049   2.722  0.1730 -0.3295 -0.0244
 8606SOL    HW137451   1.536   4.692   2.736 -0.8414 -0.6033 -2.1574
 8606SOL    HW237452   1.627   0.082   2.739 -0.7302  1.6037  0.9596
 8607SOL     OW37453   1.167   1.477  14.480  0.1633 -0.5662 -0.0590
 8607SOL    HW137454   1.127   1.470  14.567 -1.0006  2.0980 -0.3628
 8607SOL    HW237455   1.102   1.424  14.435  0.3688 -1.4782  0.7196
 8608SOL     OW37456   2.350   0.990   1.882  0.3254 -0.7127 -0.1596
 8608SOL    HW137457   2.388   0.903   1.870 -0.2994 -0.9248 -0.6059
 8608SOL    HW237458   2.265   0.972   1.843  0.1056  0.8807 -0.4389
 8609SOL     OW37459   3.671   2.086   6.292 -0.0097  0.5130 -0.1196
 8609SOL    HW137460   3.576   2.071   6.296 -0.2988  1.5673 -2.5907
 8609SOL    HW237461   3.693   2.119   6.379 -0.8025 -2.0842  1.0484
 8610SOL     OW37462   4.467   3.739   6.644  0.3163  0.2558  0.0046
 8610SOL    HW137463   4.556   3.750   6.610  0.0928 -0.0022 -0.6514
 8610SOL    HW237464   4.411   3.796   6.592  0.9432 -0.2632 -1.2365
 8611SOL     OW37465   4.204   1.997   5.921  0.1880  0.1080  0.1317
 8611SOL    HW137466   4.261   1.943   5.865  1.1238  0.0364  1.1594
 8611SOL    HW237467   4.118   1.963   5.894  0.4590 -0.5980  0.1546
 8612SOL     OW37468   2.579   1.330   4.353 -0.0802 -0.3888 -0.1157
 8612SOL    HW137469   2.508   1.271   4.329  0.1424 -0.9706  0.6439
 8612SOL    HW237470   2.534   1.415   4.361 -2.5570 -1.7949  0.7279
 8613SOL     OW37471   1.693   4.106   4.862 -0.0606  0.1723  0.0659
 8613SOL    HW137472   1.747   4.145   4.931  2.2321 -0.8468 -1.1380
 8613SOL    HW237473   1.722   4.015   4.872  0.4605  0.3381  0.0350
 8614SOL     OW37474   1.968   0.534   7.911 -0.3265 -0.1373 -0.4809
 8614SOL    HW137475   2.047   0.494   7.947  0.1134  0.6464 -0.5782
 8614SOL    HW237476   1.982   0.507   7.821 -1.1923 -1.0136 -0.3567
 8615SOL     OW37477   0.414   0.573   3.738 -0.1101 -0.2384  0.4227
 8615SOL    HW137478   0.464   0.514   3.794 -0.7638 -1.7973 -0.6290
 8615SOL    HW237479   0.344   0.606   3.796 -0.7023 -0.8457  0.0500
 8616SOL     OW37480   1.523   2.175   7.805  0.2110  0.3813 -0.3610
 8616SOL    HW137481   1.544   2.082   7.797  0.9985  0.7281 -2.4595
 8616SOL    HW237482   1.432   2.172   7.835  0.1815  0.1660 -0.4715
 8617SOL     OW37483   3.121   2.705   8.960  0.0770 -0.0379  0.2489
 8617SOL    HW137484   3.147   2.722   9.050 -1.4988  1.2911  0.4664
 8617SOL    HW237485   3.187   2.755   8.912  2.9303 -1.6401  2.5742
 8618SOL     OW37486   4.559   3.793  10.836 -1.0631 -0.7092  0.7683
 8618SOL    HW137487   4.495   3.806  10.765 -0.7297 -3.7074 -0.0813
 8618SOL    HW237488   4.532   3.706  10.864 -0.7091  0.2029  3.9106
 8619SOL     OW37489   3.125   2.045   8.285  0.0534 -0.0225  0.1742
 8619SOL    HW137490   3.085   2.096   8.356  1.7379  1.3527  0.1514
 8619SOL    HW237491   3.108   1.952   8.300  0.0716 -0.2776 -1.4184
 8620SOL     OW37492   2.407   3.285   9.741  0.2053  0.7827  0.5956
 8620SOL    HW137493   2.389   3.207   9.793  1.6576 -0.8938 -1.4245
 8620SOL    HW237494   2.487   3.318   9.783 -0.6420 -0.0428  2.8682
 8621SOL     OW37495   3.839   2.570   9.622  0.4944 -0.2950 -0.2963
 8621SOL    HW137496   3.866   2.654   9.585 -2.2999  0.1848 -1.1675
 8621SOL    HW237497   3.894   2.565   9.701  0.6910 -1.8031 -0.5397
 8622SOL     OW37498   0.899   1.676  10.193 -0.2748  0.2245 -0.0238
 8622SOL    HW137499   0.911   1.661  10.099 -0.3262  2.5062 -0.4100
 8622SOL    HW237500   0.963   1.745  10.213  0.4726  0.4773 -3.1741
 8623SOL     OW37501   3.578   2.811   5.465  0.6547 -0.0400  0.4159
 8623SOL    HW137502   3.586   2.727   5.420  0.3231  0.2992 -0.2771
 8623SOL    HW237503   3.502   2.844   5.416  1.2299  0.2726 -0.2625
 8624SOL     OW37504   0.868   1.496   2.921 -0.3184  0.2896  0.1365
 8624SOL    HW137505   0.930   1.477   2.850 -1.0231  0.3718 -0.4961
 8624SOL    HW237506   0.865   1.592   2.915  2.4523  0.5438  2.4079
 8625SOL     OW37507   2.946   0.093   4.176 -0.1131  0.3704  0.2062
 8625SOL    HW137508   2.855   0.109   4.202 -0.6917 -1.5918 -0.6356
 8625SOL    HW237509   2.979   0.037   4.246 -4.1850 -1.6095  0.5678
 8626SOL     OW37510   1.653   3.215   8.082 -0.1022  0.0993  0.5926
 8626SOL    HW137511   1.743   3.207   8.113 -0.3075 -0.1588  1.1256
 8626SOL    HW237512   1.621   3.136   8.125  1.8836 -1.1435 -0.2141
 8627SOL     OW37513   0.341   3.524   7.124  0.4180 -0.2452  0.0241
 8627SOL    HW137514   0.313   3.468   7.196 -0.1434  0.1242  0.1000
 8627SOL    HW237515   0.295   3.479   7.053 -1.2715  1.3343  0.0994
 8628SOL     OW37516   3.630   3.913  14.728  0.0158 -0.0098 -0.0476
 8628SOL    HW137517   3.675   3.857  14.790  0.5302  2.0321  1.4191
 8628SOL    HW237518   3.553   3.939  14.778 -0.2014 -2.1074  0.7097
 8629SOL     OW37519   2.576   0.091  16.355  0.3433  0.0005  0.4178
 8629SOL    HW137520   2.522   0.165  16.381  0.3456 -0.0058  0.4407
 8629SOL    HW237521   2.519   0.015  16.373  1.4321 -0.9729 -0.2688
 8630SOL     OW37522   2.184   4.496   6.041 -0.4291  0.2110 -0.7947
 8630SOL    HW137523   2.253   4.535   5.989  1.0602 -0.8504  0.3690
 8630SOL    HW237524   2.149   4.579   6.073  1.7258 -0.1231  2.4675
 8631SOL     OW37525   2.485   2.715   5.771  0.0576 -0.0076  0.2322
 8631SOL    HW137526   2.488   2.709   5.676  1.0832 -1.0511  0.3329
 8631SOL    HW237527   2.420   2.648   5.793  1.4651 -1.6592 -0.5979
 8632SOL     OW37528   2.695   1.116   2.702  0.1982 -0.1898  0.0070
 8632SOL    HW137529   2.687   1.120   2.797  0.3052  0.2187 -0.0022
 8632SOL    HW237530   2.606   1.143   2.679  0.9444  0.6353 -1.9336
 8633SOL     OW37531   2.856   0.940   7.094  0.4799  0.2582 -0.6673
 8633SOL    HW137532   2.766   0.948   7.124  1.5308  0.6677  2.4992
 8633SOL    HW237533   2.858   0.846   7.076 -1.1173 -0.1149  1.1246
 8634SOL     OW37534   3.268   0.373   0.809  1.0007 -0.2787  0.1627
 8634SOL    HW137535   3.272   0.344   0.900 -1.5900 -0.3154  0.2731
 8634SOL    HW237536   3.177   0.402   0.798  1.4913  2.1864  2.7797
 8635SOL     OW37537   3.895   0.691   4.146  0.2235  0.3078  0.3486
 8635SOL    HW137538   3.822   0.659   4.199 -0.9148  0.8308 -0.9047
 8635SOL    HW237539   3.860   0.745   4.075  0.3409 -0.9499 -0.6430
 8636SOL     OW37540   0.079   3.300   6.240 -0.1227  0.6635 -0.1197
 8636SOL    HW137541   0.064   3.390   6.212 -1.0396  1.3525  2.5905
 8636SOL    HW237542   0.174   3.303   6.250 -0.0735 -0.8688 -0.0304
 8637SOL     OW37543   1.667   4.419   2.627 -0.4174 -0.0411 -0.4443
 8637SOL    HW137544   1.664   4.334   2.582  1.1492 -0.6505  0.6271
 8637SOL    HW237545   1.664   4.485   2.558  0.6812 -0.6636 -1.0841
 8638SOL     OW37546   4.375   3.624   5.957 -0.2867 -0.3788  0.3026
 8638SOL    HW137547   4.450   3.682   5.962 -0.6137  0.1017 -0.2872
 8638SOL    HW237548   4.413   3.546   5.916 -0.4514  2.1791 -4.6742
 8639SOL     OW37549   4.303   1.449   5.590 -0.1759 -0.2930 -0.1688
 8639SOL    HW137550   4.210   1.428   5.582 -0.3035  0.4385 -0.5548
 8639SOL    HW237551   4.344   1.365   5.570  3.1178  1.5180 -1.0008
 8640SOL     OW37552   1.952   3.978  11.276  0.5116 -0.2693  0.0002
 8640SOL    HW137553   1.897   3.931  11.213 -0.9204 -0.9466  1.7657
 8640SOL    HW237554   1.988   4.048  11.222 -1.0046  0.0987 -0.5402
 8641SOL     OW37555   1.315   1.183   4.419 -0.0910 -0.6438 -0.8535
 8641SOL    HW137556   1.245   1.146   4.364 -0.9869  3.7446 -2.6534
 8641SOL    HW237557   1.384   1.186   4.352 -0.7630 -0.0964 -1.5119
 8642SOL     OW37558   0.754   4.689   0.212  0.0637 -0.7021 -0.1296
 8642SOL    HW137559   0.845   4.706   0.234 -0.9824  2.3780  1.7589
 8642SOL    HW237560   0.711   0.027   0.252 -2.8438 -1.8063 -1.1549
 8643SOL     OW37561   3.035   0.527   1.292 -0.3070  0.1137  0.2427
 8643SOL    HW137562   3.005   0.585   1.361 -1.7748  0.1636 -0.4501
 8643SOL    HW237563   3.082   0.589   1.236 -1.5413 -1.0054 -1.9981
 8644SOL     OW37564   0.383   0.812   7.454 -0.4832  0.1022 -0.1995
 8644SOL    HW137565   0.361   0.777   7.368 -0.0620 -2.1142  0.5897
 8644SOL    HW237566   0.309   0.791   7.512  1.1182 -0.1321  1.7552
 8645SOL     OW37567   3.808   0.684  17.603 -0.3809 -0.3668  0.0474
 8645SOL    HW137568   3.745   0.726  17.546 -0.4317 -0.1378  0.2701
 8645SOL    HW237569   3.754   0.617  17.644  1.2649 -0.3722  2.2320
 8646SOL     OW37570   1.365   4.613  13.884 -0.3960 -0.1972  0.1265
 8646SOL    HW137571   1.443   4.604  13.829  0.7480  0.2351  1.6735
 8646SOL    HW237572   1.329   4.694  13.847 -3.4247 -1.6857 -0.1543
 8647SOL     OW37573   1.566   2.621   0.210  0.3811 -0.1530  0.3159
 8647SOL    HW137574   1.522   2.538   0.195 -0.4987  0.7836 -2.4240
 8647SOL    HW237575   1.492   2.675   0.236  0.9787  1.2044 -0.7883
 8648SOL     OW37576   0.809   0.479   4.915 -0.1242 -0.8559  0.2793
 8648SOL    HW137577   0.802   0.383   4.913 -0.1481 -0.8121 -1.9727
 8648SOL    HW237578   0.716   0.495   4.900  0.5038  1.8714 -0.6573
 8649SOL     OW37579   1.100   2.675   6.841  0.5053  0.2142  0.3864
 8649SOL    HW137580   1.070   2.707   6.925  0.4380  1.6163 -0.1667
 8649SOL    HW237581   1.194   2.693   6.846  0.7879 -0.9174 -0.7539
 8650SOL     OW37582   4.553   2.711   6.031  0.2790  0.5212  0.1082
 8650SOL    HW137583   4.537   2.642   5.966 -1.3929  0.0144  1.0603
 8650SOL    HW237584   4.555   2.789   5.976  0.0499  0.0662 -0.5469
 8651SOL     OW37585   2.854   2.555   3.305 -0.3648  0.5120  0.3120
 8651SOL    HW137586   2.851   2.520   3.216 -2.6573  0.7028  0.3319
 8651SOL    HW237587   2.863   2.477   3.360  0.3435  0.4622  0.1250
 8652SOL     OW37588   0.987   4.053   9.175 -0.4681  0.5637  0.3360
 8652SOL    HW137589   1.018   4.120   9.235  3.1888  0.0847 -1.0133
 8652SOL    HW237590   1.069   4.032   9.131  0.4991  1.6659  1.6393
 8653SOL     OW37591   1.528   2.303   9.420  0.0213 -0.2966 -0.3587
 8653SOL    HW137592   1.433   2.291   9.418 -0.0709  0.8069 -1.9671
 8653SOL    HW237593   1.549   2.311   9.327 -0.3690  0.3809 -0.3946
 8654SOL     OW37594   2.183   0.609   2.320  0.1692 -0.0163 -0.3331
 8654SOL    HW137595   2.220   0.590   2.234 -1.9542 -0.6944 -1.1169
 8654SOL    HW237596   2.259   0.589   2.374 -1.7065 -3.3480  1.0657
 8655SOL     OW37597   0.734   2.340   8.998  0.4209 -0.2046 -0.2158
 8655SOL    HW137598   0.709   2.308   9.085  1.1920 -0.7140 -0.1853
 8655SOL    HW237599   0.648   2.361   8.963  0.5990  2.1096  0.7404
 8656SOL     OW37600   1.574   1.927   0.974  0.5313  0.6180  0.0339
 8656SOL    HW137601   1.608   2.014   0.990 -0.2375  0.8894  0.2096
 8656SOL    HW237602   1.483   1.950   0.952  0.2254 -0.2847  0.3433
 8657SOL     OW37603   1.641   2.271   1.563 -0.5107 -0.2141 -0.1838
 8657SOL    HW137604   1.683   2.353   1.588 -0.9697  0.7458 -2.4955
 8657SOL    HW237605   1.719   2.216   1.551 -0.3573 -0.8351  3.7481
 8658SOL     OW37606   2.148   0.610   4.872 -0.3761 -0.6204  0.0431
 8658SOL    HW137607   2.122   0.529   4.917  1.0503 -2.5818 -2.6545
 8658SOL    HW237608   2.125   0.673   4.940  1.1855 -1.4362  1.3418
 8659SOL     OW37609   2.652   3.580  13.197 -0.2004  0.3883 -0.4806
 8659SOL    HW137610   2.720   3.623  13.145  1.8134 -0.0917  1.7526
 8659SOL    HW237611   2.595   3.550  13.127 -1.2165 -1.9020  1.3454
 8660SOL     OW37612   4.326   1.437  16.804  0.1851  0.2046  0.2157
 8660SOL    HW137613   4.348   1.502  16.737  1.8545 -1.1204 -0.4950
 8660SOL    HW237614   4.412   1.420  16.842 -0.3535 -1.1421  0.8215
 8661SOL     OW37615   3.360   2.047   9.959  0.6691  0.8393 -0.4422
 8661SOL    HW137616   3.355   2.131   9.913 -0.5111  1.0162 -0.0016
 8661SOL    HW237617   3.430   1.999   9.915  0.5752 -1.2260  1.6302
 8662SOL     OW37618   2.018   4.461   5.125 -0.0973 -0.7304  0.4166
 8662SOL    HW137619   1.993   4.546   5.091 -2.9648 -2.2208 -1.1836
 8662SOL    HW237620   2.112   4.457   5.106  0.2516  0.4454  1.8542
 8663SOL     OW37621   1.668   3.759   7.662  0.3927 -0.3930  0.1079
 8663SOL    HW137622   1.703   3.769   7.751  2.8582 -0.2001 -0.8935
 8663SOL    HW237623   1.730   3.811   7.611 -0.4130  1.9190  1.5116
 8664SOL     OW37624   1.675   3.085   3.671 -0.0601  0.0882  0.2641
 8664SOL    HW137625   1.658   3.096   3.578  1.5654 -0.0721 -0.0425
 8664SOL    HW237626   1.603   3.140   3.701 -1.4021 -1.3256 -0.3611
 8665SOL     OW37627   0.701   0.887   9.377  0.7212 -0.1712  0.5378
 8665SOL    HW137628   0.652   0.886   9.295  0.9975 -0.5745  0.3778
 8665SOL    HW237629   0.663   0.963   9.422  0.6535  1.3219 -2.0498
 8666SOL     OW37630   4.143   1.909   8.883  0.4184  0.4317 -0.7526
 8666SOL    HW137631   4.053   1.878   8.870 -0.4324  3.6041 -2.6012
 8666SOL    HW237632   4.181   1.837   8.933  0.5993  0.5839 -0.6687
 8667SOL     OW37633   2.466   1.335   3.626  0.2800  0.0335 -0.0836
 8667SOL    HW137634   2.559   1.328   3.648 -0.0135 -4.8416 -0.4212
 8667SOL    HW237635   2.425   1.342   3.712 -0.8163  0.3709 -0.6247
 8668SOL     OW37636   2.418   3.051   9.859 -0.4534  0.2377  0.1057
 8668SOL    HW137637   2.353   2.988   9.829 -0.2733 -0.7430  1.7361
 8668SOL    HW237638   2.502   3.014   9.833 -0.3081 -0.3259  1.3543
 8669SOL     OW37639   2.668   1.610   6.200  0.1355  0.0932 -0.1523
 8669SOL    HW137640   2.622   1.544   6.252 -1.9145  1.0871 -0.6806
 8669SOL    HW237641   2.735   1.562   6.152 -0.2560 -0.8082  0.2078
 8670SOL     OW37642   0.573   4.091  15.801  0.0504  0.2236  0.3355
 8670SOL    HW137643   0.656   4.043  15.791  0.0314 -0.0708  1.6089
 8670SOL    HW237644   0.597   4.175  15.762  0.7846  0.9261  2.2738
 8671SOL     OW37645   3.694   3.835  17.627  0.0479  0.2234 -0.6503
 8671SOL    HW137646   3.776   3.845  17.675  0.9923  1.4175 -2.4948
 8671SOL    HW237647   3.726   3.819  17.538  0.2340 -1.0510 -0.3532
 8672SOL     OW37648   2.559   1.464   5.671 -0.0192  0.3933 -0.6052
 8672SOL    HW137649   2.483   1.407   5.663  0.2462 -0.4035  2.6798
 8672SOL    HW237650   2.622   1.413   5.721 -0.1025  1.5476  0.6779
 8673SOL     OW37651   4.079   4.368   2.130  0.2441  0.0347  0.0978
 8673SOL    HW137652   4.118   4.282   2.113  0.1991  0.3085 -1.3851
 8673SOL    HW237653   3.988   4.340   2.137 -0.1938  0.9730 -1.7452
 8674SOL     OW37654   4.310   3.366  17.268 -0.3695  0.1762  0.3218
 8674SOL    HW137655   4.236   3.400  17.216 -1.2917 -0.7898  1.0068
 8674SOL    HW237656   4.383   3.374  17.207  0.0708 -1.4183  0.6347
 8675SOL     OW37657   1.905   2.753   4.208  0.1879 -0.5609 -0.5420
 8675SOL    HW137658   1.943   2.671   4.240 -0.7098 -0.8157 -0.1276
 8675SOL    HW237659   1.835   2.772   4.271  2.3400  0.8811  1.4002
 8676SOL     OW37660   2.490   3.299   8.607 -0.5953  0.2694  0.1088
 8676SOL    HW137661   2.464   3.320   8.697  0.7129  2.0514  0.0855
 8676SOL    HW237662   2.476   3.384   8.564 -2.8229 -0.4562 -0.5589
 8677SOL     OW37663   1.609   1.499   6.636  0.3109 -0.2355 -0.5047
 8677SOL    HW137664   1.652   1.492   6.551 -3.6885 -0.4624 -2.5157
 8677SOL    HW237665   1.540   1.561   6.612  0.6613  1.1105  1.9327
 8678SOL     OW37666   1.585   0.909   6.083  0.1302  0.2157  0.4193
 8678SOL    HW137667   1.539   0.986   6.116  0.7188  0.0501  1.6363
 8678SOL    HW237668   1.655   0.933   6.023  0.1550 -0.7144  0.0805
 8679SOL     OW37669   1.483   2.335   1.290 -0.0834  0.2370  0.2211
 8679SOL    HW137670   1.432   2.413   1.312 -0.5510  0.0435 -0.1620
 8679SOL    HW237671   1.469   2.285   1.371 -0.1529  2.0612  1.3235
 8680SOL     OW37672   0.105   2.803  12.539  0.2343  0.1623  0.6143
 8680SOL    HW137673   0.162   2.816  12.615  2.9143 -0.2757 -1.3277
 8680SOL    HW237674   0.154   2.839  12.465  0.4188  1.1572  1.2121
 8681SOL     OW37675   4.116   4.479   1.858 -0.1117  0.3883 -0.0400
 8681SOL    HW137676   4.125   4.400   1.804 -1.3139  0.6153 -0.5670
 8681SOL    HW237677   4.114   4.453   1.950 -1.8878  0.6296 -0.0169
 8682SOL     OW37678   2.651   0.235   5.081 -0.1771  0.4250 -0.0117
 8682SOL    HW137679   2.618   0.274   5.162 -0.7517 -0.6745  0.2942
 8682SOL    HW237680   2.667   0.319   5.039 -0.4945 -0.1364 -1.2691
 8683SOL     OW37681   1.610   1.189   3.085 -0.1531  0.0291  0.3274
 8683SOL    HW137682   1.611   1.248   3.161 -1.3446  0.2737  0.1575
 8683SOL    HW237683   1.638   1.246   3.014 -1.4783 -0.0510 -0.2527
 8684SOL     OW37684   2.495   0.147   6.070 -0.3659  0.1608 -0.0289
 8684SOL    HW137685   2.466   0.237   6.080 -0.8882 -0.5022  4.4476
 8684SOL    HW237686   2.464   0.133   5.980  0.7813 -2.9380  0.0610
 8685SOL     OW37687   2.698   4.708   8.103  0.2709 -0.2035 -0.1307
 8685SOL    HW137688   2.660   4.672   8.183  1.3856 -1.6795 -0.2579
 8685SOL    HW237689   2.792   4.716   8.118  0.1490  0.4011  0.2950
 8686SOL     OW37690   4.137   1.319   1.544  0.7244 -0.4576  0.2064
 8686SOL    HW137691   4.192   1.378   1.595 -0.3933 -0.1536  1.0701
 8686SOL    HW237692   4.059   1.374   1.533  2.5263  2.1513  0.4277
 8687SOL     OW37693   2.365   3.965  12.497 -0.0283  0.1249 -0.8014
 8687SOL    HW137694   2.347   3.938  12.587 -2.2155 -0.7426 -1.5023
 8687SOL    HW237695   2.393   4.052  12.524 -0.4931  0.1237 -0.3283
 8688SOL     OW37696   2.490   2.271   2.842  0.5602 -0.0810  0.2081
 8688SOL    HW137697   2.485   2.176   2.847 -0.5220 -0.0579 -0.2687
 8688SOL    HW237698   2.582   2.282   2.819  0.1125  1.2034 -0.9895
 8689SOL     OW37699   2.006   2.510   4.307  0.3912  0.1248  0.5534
 8689SOL    HW137700   1.973   2.555   4.385  1.4321  0.5851  0.7336
 8689SOL    HW237701   2.090   2.470   4.329  0.0256 -0.3288  1.1101
 8690SOL     OW37702   3.038   1.069   7.547 -0.4959 -0.3709  0.1138
 8690SOL    HW137703   3.037   1.131   7.620  0.1154 -0.3554  0.1072
 8690SOL    HW237704   3.132   1.054   7.544 -0.2742  0.4125  3.4640
 8691SOL     OW37705   1.939   2.965   9.277 -0.5583  0.0833 -0.0529
 8691SOL    HW137706   1.985   2.893   9.320 -0.4194  0.7400  0.9080
 8691SOL    HW237707   1.997   2.986   9.204  0.9120 -0.1978  1.0306
 8692SOL     OW37708   2.443   4.052  14.129 -0.3464  0.0266 -0.8463
 8692SOL    HW137709   2.464   4.099  14.049 -0.0350 -2.6798 -2.3601
 8692SOL    HW237710   2.370   3.998  14.098 -0.4908 -1.3732  1.8754
 8693SOL     OW37711   0.695   3.851   0.041  0.0257  0.6723  0.1291
 8693SOL    HW137712   0.699   3.879  17.697 -0.6273  0.6325  0.0881
 8693SOL    HW237713   0.639   3.922   0.072  0.7551  0.0839  2.7920
 8694SOL     OW37714   4.143   0.351   3.263  0.1038 -0.4617 -0.0327
 8694SOL    HW137715   4.158   0.393   3.347  1.0042 -0.3417 -0.2516
 8694SOL    HW237716   4.202   0.387   3.197  1.7336 -1.2276  1.0179
 8695SOL     OW37717   4.568   4.507  17.226  0.0510 -0.1372  0.5948
 8695SOL    HW137718   4.524   4.443  17.282  2.2320 -1.9582  0.1730
 8695SOL    HW237719   4.492   4.565  17.213  0.6053  0.4844  0.1213
 8696SOL     OW37720   3.930   0.107   7.902 -0.0412 -0.0019 -0.4279
 8696SOL    HW137721   4.007   0.098   7.959 -1.4416 -1.6516  1.2173
 8696SOL    HW237722   3.969   0.156   7.830 -0.7563 -1.8023 -2.0374
 8697SOL     OW37723   0.142   3.503   9.054  0.3704  0.0386 -0.0818
 8697SOL    HW137724   0.056   3.496   9.013 -0.0560  1.0388  0.6281
 8697SOL    HW237725   0.197   3.520   8.978 -1.3345  0.1465 -1.2787
 8698SOL     OW37726   3.812   2.661   1.366 -0.0747 -0.6243 -0.0881
 8698SOL    HW137727   3.737   2.641   1.422 -0.8396 -1.6568 -1.4885
 8698SOL    HW237728   3.882   2.619   1.415 -1.1249 -2.6703 -0.3611
 8699SOL     OW37729   2.795   2.369   1.814 -0.3732 -0.1917 -0.1459
 8699SOL    HW137730   2.850   2.425   1.868 -0.6867  0.1841 -0.2151
 8699SOL    HW237731   2.710   2.413   1.818 -1.3398 -2.2009  1.6379
 8700SOL     OW37732   0.238   3.306   1.598  0.1742 -0.2486  0.4341
 8700SOL    HW137733   0.169   3.241   1.611 -0.5180  0.4955  0.5224
 8700SOL    HW237734   0.286   3.250   1.538 -1.0978  0.6868 -1.4643
 8701SOL     OW37735   4.535   2.538   4.764  0.0064  0.1059  0.9871
 8701SOL    HW137736   4.548   2.581   4.848  1.4280 -2.2747  2.0009
 8701SOL    HW237737   4.448   2.498   4.773 -1.2125  2.4337 -0.5702
 8702SOL     OW37738   0.306   1.546  11.624 -0.8186 -0.0644 -0.7972
 8702SOL    HW137739   0.398   1.557  11.647 -0.1018 -2.2232 -2.7441
 8702SOL    HW237740   0.288   1.455  11.649 -0.3490 -0.0426 -0.3814
 8703SOL     OW37741   0.744   2.946   1.246  0.7131 -0.0581 -0.0328
 8703SOL    HW137742   0.726   3.032   1.208 -2.6020  0.2127  2.1864
 8703SOL    HW237743   0.805   2.900   1.188  0.6382  0.1033 -0.2370
 8704SOL     OW37744   3.630   2.649   1.870 -0.0001 -0.2032 -0.2288
 8704SOL    HW137745   3.647   2.653   1.965 -1.1690  0.2843 -0.0473
 8704SOL    HW237746   3.595   2.738   1.861 -2.0156 -0.9071  0.8549
 8705SOL     OW37747   1.919   3.810   5.972  0.0568  0.2625  0.0571
 8705SOL    HW137748   1.939   3.757   5.894  1.4404 -0.9311  1.2223
 8705SOL    HW237749   1.884   3.889   5.930 -1.3845 -1.0325 -1.1840
 8706SOL     OW37750   1.326   0.772   7.161  0.0598 -0.0919  0.2940
 8706SOL    HW137751   1.236   0.802   7.161 -0.2399 -0.9913 -0.4928
 8706SOL    HW237752   1.352   0.800   7.249 -2.4907 -0.8492  1.2825
 8707SOL     OW37753   3.404   3.001   8.782 -0.0795 -0.1628  0.0775
 8707SOL    HW137754   3.360   2.919   8.761 -0.7816  0.9011 -2.6352
 8707SOL    HW237755   3.496   2.977   8.794 -0.3955 -1.3663  0.0590
 8708SOL     OW37756   4.003   1.330   8.766  0.0189 -0.4767 -0.0384
 8708SOL    HW137757   4.007   1.243   8.805  2.6545 -0.4433 -0.2435
 8708SOL    HW237758   3.916   1.356   8.796  0.6525  2.7865 -0.9654
 8709SOL     OW37759   2.469   4.317   9.312  0.5487 -0.6944  0.6643
 8709SOL    HW137760   2.420   4.238   9.333  0.9640 -0.7381  1.5073
 8709SOL    HW237761   2.536   4.320   9.381  0.9255  2.4925  0.1585
 8710SOL     OW37762   2.848   3.173   6.728 -0.0932  0.2485 -0.3506
 8710SOL    HW137763   2.807   3.187   6.814 -0.1693 -2.3078  0.0341
 8710SOL    HW237764   2.777   3.150   6.668  0.1800 -1.7534  0.0980
 8711SOL     OW37765   3.581   1.535  10.597  0.5276 -0.5729 -0.0859
 8711SOL    HW137766   3.527   1.465  10.561  1.9600 -0.7910 -1.7688
 8711SOL    HW237767   3.656   1.525  10.540 -0.6655  1.4425 -2.0157
 8712SOL     OW37768   0.287   0.773   3.433 -0.5756 -0.2973 -0.0430
 8712SOL    HW137769   0.261   0.696   3.382 -0.3327 -0.2775 -0.1955
 8712SOL    HW237770   0.220   0.837   3.408 -0.2421  0.5339  1.1925
 8713SOL     OW37771   2.430   4.580   3.985 -0.0652 -0.4770 -0.5537
 8713SOL    HW137772   2.357   4.530   3.947  0.3185 -0.3979 -1.3952
 8713SOL    HW237773   2.448   4.636   3.910  1.5158  0.8142  0.7906
 8714SOL     OW37774   3.618   1.135  13.675  0.4817 -0.6363 -0.4365
 8714SOL    HW137775   3.647   1.199  13.740  0.2224  1.0969 -2.0241
 8714SOL    HW237776   3.571   1.182  13.606 -0.3185  1.3653  1.4700
 8715SOL     OW37777   3.280   3.783   7.082  0.3625  0.0102 -0.4573
 8715SOL    HW137778   3.224   3.802   7.157 -0.0146 -0.0135 -0.7321
 8715SOL    HW237779   3.355   3.737   7.120 -0.6683 -1.5529 -0.3322
 8716SOL     OW37780   0.392   4.257   7.831  0.3363 -0.1844  0.5139
 8716SOL    HW137781   0.353   4.255   7.918 -0.2933  0.9883  0.2572
 8716SOL    HW237782   0.324   4.277   7.766 -0.1750 -0.6741  0.8995
 8717SOL     OW37783   1.848   1.452   4.704 -0.1667  0.3526 -0.0434
 8717SOL    HW137784   1.818   1.413   4.787  2.2592 -1.5204 -0.0379
 8717SOL    HW237785   1.784   1.429   4.637  2.8686  0.1722 -2.8605
 8718SOL     OW37786   4.201   3.395   2.733 -0.3889  0.0182  0.3939
 8718SOL    HW137787   4.179   3.362   2.821  0.2033 -1.5075 -0.0310
 8718SOL    HW237788   4.282   3.349   2.713 -1.7782 -1.8289 -1.0656
 8719SOL     OW37789   2.597   3.832   5.234  0.0866 -0.1186  0.6636
 8719SOL    HW137790   2.521   3.783   5.263 -0.9669  0.2043 -1.5671
 8719SOL    HW237791   2.562   3.907   5.186  1.4472  0.6490  0.8482
 8720SOL     OW37792   4.156   2.602   2.950  0.4600 -0.2603  0.2545
 8720SOL    HW137793   4.069   2.611   2.989 -0.1897  0.2663 -1.3066
 8720SOL    HW237794   4.202   2.525   2.983  0.8902 -0.6091 -1.1602
 8721SOL     OW37795   0.157   3.827   9.173 -0.0835  0.3124  0.1839
 8721SOL    HW137796   0.105   3.801   9.097 -3.0434 -0.5713  2.5085
 8721SOL    HW237797   0.146   3.922   9.170  0.1900  0.3124 -0.9022
 8722SOL     OW37798   2.494   1.562   4.074  0.2391 -0.0008  0.0637
 8722SOL    HW137799   2.462   1.541   4.162  0.3859 -2.1722 -0.3876
 8722SOL    HW237800   2.516   1.654   4.086 -1.2334  0.4415 -0.6892
 8723SOL     OW37801   0.734   3.949   3.633 -0.4978 -0.2412  0.5824
 8723SOL    HW137802   0.727   4.040   3.663  0.8125 -0.6768  2.2441
 8723SOL    HW237803   0.819   3.936   3.590 -1.3935 -1.3119 -0.8487
 8724SOL     OW37804   2.822   3.440   9.511 -0.8483  0.0413 -0.2145
 8724SOL    HW137805   2.891   3.501   9.487  0.4998 -0.7867  1.5833
 8724SOL    HW237806   2.804   3.481   9.596  3.3554  0.5290  0.4254
 8725SOL     OW37807   0.444   3.073  14.634 -0.0929  0.2847 -0.0920
 8725SOL    HW137808   0.374   3.023  14.591 -1.5760  1.7418  0.6288
 8725SOL    HW237809   0.397   3.136  14.688 -1.2984  0.1963 -1.0304
 8726SOL     OW37810   0.360   3.303   1.872  0.4994  0.5507  0.1781
 8726SOL    HW137811   0.307   3.314   1.793  1.2941 -0.3974 -0.4887
 8726SOL    HW237812   0.304   3.241   1.919 -0.2528  0.0066 -1.4418
 8727SOL     OW37813   0.347   0.142  16.996  0.3355 -0.1318  0.1903
 8727SOL    HW137814   0.385   0.083  16.931  1.6228 -0.5632  1.3094
 8727SOL    HW237815   0.257   0.108  16.997 -0.3652  1.8204  2.4886
 8728SOL     OW37816   0.961   0.837  12.972  0.0394  0.4762 -0.0943
 8728SOL    HW137817   0.989   0.912  13.025  1.0354 -0.3262  0.5277
 8728SOL    HW237818   1.002   0.766  13.022  0.0409  0.4703 -0.1041
 8729SOL     OW37819   0.406   3.651   3.300  0.0988  0.0813 -0.0054
 8729SOL    HW137820   0.365   3.719   3.246  0.2554 -1.3012 -1.8483
 8729SOL    HW237821   0.358   3.581   3.256 -0.2268 -0.3559  1.0558
 8730SOL     OW37822   1.101   2.856   8.421 -0.2349 -0.5248  0.8441
 8730SOL    HW137823   1.161   2.790   8.456  0.7212  0.5440  1.2139
 8730SOL    HW237824   1.017   2.828   8.458 -1.5885  0.7998 -1.2976
 8731SOL     OW37825   1.764   2.374   6.710  0.3356  0.3285  0.5687
 8731SOL    HW137826   1.783   2.348   6.620 -0.2654 -0.5687  0.6976
 8731SOL    HW237827   1.733   2.292   6.748 -0.2809 -0.1581 -1.0312
 8732SOL     OW37828   3.420   1.911   1.281  0.3174 -0.2415  0.0714
 8732SOL    HW137829   3.331   1.945   1.270  0.5795  0.5977  0.6194
 8732SOL    HW237830   3.467   1.992   1.299 -2.6683  1.2650  1.0388
 8733SOL     OW37831   1.827   3.700  10.716 -0.2591 -0.2149 -0.1957
 8733SOL    HW137832   1.896   3.727  10.777  0.4872  0.8689 -1.5084
 8733SOL    HW237833   1.775   3.780  10.703 -0.7291 -0.4373  0.3224
 8734SOL     OW37834   3.279   3.520   1.173  0.9195 -0.5788  0.2536
 8734SOL    HW137835   3.188   3.511   1.201  0.5300  0.3886 -0.6608
 8734SOL    HW237836   3.331   3.509   1.252  1.3064  2.9330  0.5041
 8735SOL     OW37837   1.340   0.050   7.709  0.0412 -0.0048  0.5633
 8735SOL    HW137838   1.311   4.700   7.735  0.0115 -0.7455 -1.8824
 8735SOL    HW237839   1.261   0.102   7.724 -0.4822 -0.8723  0.7916
 8736SOL     OW37840   1.551   1.707  11.275 -0.5198 -0.0910  0.6548
 8736SOL    HW137841   1.561   1.700  11.370  3.3644  0.5806  0.3128
 8736SOL    HW237842   1.632   1.664  11.247 -0.9166 -0.1780 -0.3618
 8737SOL     OW37843   0.016   3.703   2.467  0.3958 -0.3219  0.6453
 8737SOL    HW137844   4.659   3.697   2.479  0.3142  0.8487  0.6357
 8737SOL    HW237845   0.039   3.680   2.557 -0.4031 -0.9878  0.6759
 8738SOL     OW37846   1.372   0.272   4.632 -0.0858 -0.5226 -0.7298
 8738SOL    HW137847   1.349   0.207   4.566  0.3442 -1.0004 -0.4101
 8738SOL    HW237848   1.318   0.342   4.596  1.3404  0.7936 -0.2817
 8739SOL     OW37849   0.029   1.709   2.796 -0.4849  0.0899 -0.6165
 8739SOL    HW137850   0.074   1.788   2.822  0.7562 -0.3184 -1.5554
 8739SOL    HW237851   0.100   1.663   2.752  0.7819  0.3158  1.1962
 8740SOL     OW37852   0.738   1.558   7.161 -0.3751  0.6058  0.1504
 8740SOL    HW137853   0.648   1.585   7.179 -1.3556 -1.1840 -2.0361
 8740SOL    HW237854   0.782   1.569   7.245  0.4400  1.6477 -0.4170
 8741SOL     OW37855   1.795   0.176   2.764 -0.0469 -0.0352  0.0261
 8741SOL    HW137856   1.870   0.131   2.803  0.7242  0.4230 -0.9218
 8741SOL    HW237857   1.834   0.213   2.685 -1.2655  0.2974 -0.4287
 8742SOL     OW37858   3.917   3.553   4.422  0.5586 -0.0007 -0.5584
 8742SOL    HW137859   3.870   3.471   4.405 -1.0844  0.7328  0.4656
 8742SOL    HW237860   3.859   3.611   4.372 -3.4111 -2.4092  1.1852
 8743SOL     OW37861   0.836   4.378   9.419  0.0998  0.1044  0.2396
 8743SOL    HW137862   0.773   4.445   9.444  0.3748  0.4237  0.0716
 8743SOL    HW237863   0.779   4.303   9.401  0.4209 -0.2012  0.4965
 8744SOL     OW37864   0.403   1.562  17.394 -0.3295 -0.1798  0.2665
 8744SOL    HW137865   0.365   1.646  17.422  1.3564  0.3504  0.9293
 8744SOL    HW237866   0.341   1.538  17.325 -0.2978  0.9189 -0.1541
 8745SOL     OW37867   1.057   2.693   4.290  0.0724 -0.6942  0.5998
 8745SOL    HW137868   1.134   2.749   4.300 -1.0984  1.0432 -0.2426
 8745SOL    HW237869   1.058   2.654   4.378 -0.6869  0.4228  1.0928
 8746SOL     OW37870   0.874   1.191   2.553  0.3304 -0.1181 -0.0109
 8746SOL    HW137871   0.930   1.152   2.485 -1.0790  0.6733 -1.6085
 8746SOL    HW237872   0.800   1.225   2.503  0.0253  0.2168  0.6678
 8747SOL     OW37873   3.980   2.542   3.291 -0.0751  0.1768  0.0219
 8747SOL    HW137874   3.930   2.579   3.218  0.2421  0.2699 -0.1493
 8747SOL    HW237875   4.062   2.592   3.290  1.0513 -1.6720  0.3775
 8748SOL     OW37876   3.464   3.924   9.073  0.0075 -0.3766  0.7486
 8748SOL    HW137877   3.481   3.862   9.002 -0.3760 -0.4261  0.7015
 8748SOL    HW237878   3.484   4.013   9.043  0.8831 -1.0668 -0.7092
 8749SOL     OW37879   0.947   2.827  15.735 -0.1579 -0.2782  0.1491
 8749SOL    HW137880   0.928   2.829  15.829  0.1676  1.5487  0.1809
 8749SOL    HW237881   0.888   2.760  15.700 -1.5119  0.6059  0.7354
 8750SOL     OW37882   2.739   0.528   1.166  0.2998  0.3246 -0.3347
 8750SOL    HW137883   2.691   0.600   1.207  0.6074 -0.9393  2.2242
 8750SOL    HW237884   2.829   0.554   1.185  0.5665 -0.0070 -1.1387
 8751SOL     OW37885   1.057   3.029  16.136  0.3252 -0.2420  0.4093
 8751SOL    HW137886   0.985   2.968  16.115 -0.9550  1.4862 -0.2180
 8751SOL    HW237887   1.054   3.026  16.231 -2.6034 -0.1783  0.3172
 8752SOL     OW37888   3.736   3.568   7.587  0.3135  0.5352 -0.7181
 8752SOL    HW137889   3.723   3.480   7.552 -1.9425  0.3920  0.5467
 8752SOL    HW237890   3.731   3.538   7.677 -3.1663 -0.3859 -1.2106
 8753SOL     OW37891   0.029   4.408  13.279  0.3739 -0.2719  0.3188
 8753SOL    HW137892   0.012   4.372  13.191 -2.0239  0.1903  0.5916
 8753SOL    HW237893   0.102   4.461  13.247  0.7167 -0.7010  0.3848
 8754SOL     OW37894   2.612   0.466   7.930  0.2426 -0.0580  0.8740
 8754SOL    HW137895   2.698   0.471   7.971  0.0369 -2.2602  1.5462
 8754SOL    HW237896   2.594   0.372   7.922  2.7179 -0.3765 -0.7852
 8755SOL     OW37897   4.193   1.714   7.927  0.1287 -0.2125 -0.0377
 8755SOL    HW137898   4.230   1.626   7.926 -1.0845 -0.7009 -1.5756
 8755SOL    HW237899   4.238   1.753   8.002 -3.0998 -0.2566  1.9243
 8756SOL     OW37900   0.787   1.445   6.150 -0.1617 -0.2958  0.1051
 8756SOL    HW137901   0.845   1.371   6.134 -0.7433 -0.8739  0.6634
 8756SOL    HW237902   0.712   1.404   6.194  0.2905 -1.2783 -0.0614
 8757SOL     OW37903   0.005   1.773   4.796 -0.0289  0.1092 -0.2798
 8757SOL    HW137904   0.063   1.710   4.754  1.1002 -0.1678  1.6794
 8757SOL    HW237905   4.659   1.725   4.798 -1.3054  2.3999  1.5541
 8758SOL     OW37906   2.683   2.980   9.803 -0.5067 -0.4455  0.0029
 8758SOL    HW137907   2.679   2.922   9.727  1.2031  0.8950 -1.1159
 8758SOL    HW237908   2.733   2.921   9.859 -0.1784 -0.7036 -0.5583
 8759SOL     OW37909   0.516   0.463   6.693  0.2092 -0.6284  0.1302
 8759SOL    HW137910   0.548   0.474   6.603  0.7828  0.8627  0.5203
 8759SOL    HW237911   0.583   0.501   6.749 -0.1567 -1.0898  0.8869
 8760SOL     OW37912   3.108   4.092   6.357  0.0705  0.0351  0.1177
 8760SOL    HW137913   3.141   4.121   6.272  2.4574 -3.0232 -0.0062
 8760SOL    HW237914   3.195   4.086   6.398 -0.0694 -0.4987  0.3296
 8761SOL     OW37915   0.515   3.437   8.386 -0.1080 -0.2544  0.2563
 8761SOL    HW137916   0.528   3.528   8.361  0.1055  0.0526  1.5013
 8761SOL    HW237917   0.600   3.409   8.420 -0.7116 -1.9970  0.3664
 8762SOL     OW37918   1.316   0.197   0.306  0.1820 -0.0868 -0.0694
 8762SOL    HW137919   1.298   0.149   0.225 -2.0734 -1.6330  1.3997
 8762SOL    HW237920   1.235   0.185   0.355 -1.4596  0.7382 -2.5520
 8763SOL     OW37921   2.263   1.812   8.506 -0.5420 -0.2676  0.4064
 8763SOL    HW137922   2.217   1.805   8.590 -2.0209 -0.9342 -0.4580
 8763SOL    HW237923   2.195   1.779   8.448  1.1299 -1.6647 -0.7373
 8764SOL     OW37924   2.178   3.494   6.233 -0.2453  0.1596 -0.3076
 8764SOL    HW137925   2.085   3.513   6.221 -0.7001 -2.5897 -1.0765
 8764SOL    HW237926   2.184   3.415   6.179  0.7072  0.0918 -0.1078
 8765SOL     OW37927   4.308   4.049   1.302 -0.0630  0.6668 -0.0273
 8765SOL    HW137928   4.363   4.059   1.225  0.4025 -0.9008  0.0956
 8765SOL    HW237929   4.360   3.977   1.339  0.8774 -0.3797 -3.4016
 8766SOL     OW37930   0.272   0.775  16.454 -0.5139  0.1005  0.3345
 8766SOL    HW137931   0.204   0.792  16.389 -0.2959  1.9070  0.5617
 8766SOL    HW237932   0.310   0.859  16.480  1.2402 -0.4503 -0.4143
 8767SOL     OW37933   1.649   2.849   5.968 -0.4925 -0.0033  0.3518
 8767SOL    HW137934   1.649   2.759   5.936 -1.0092  0.3115 -0.5401
 8767SOL    HW237935   1.653   2.836   6.062 -1.0013 -0.6977  0.2753
 8768SOL     OW37936   4.368   0.718   3.180 -0.6693 -0.8577 -0.8875
 8768SOL    HW137937   4.310   0.761   3.244  0.8827  1.1612 -0.8268
 8768SOL    HW237938   4.370   0.778   3.105 -2.1243  0.3619  0.0414
 8769SOL     OW37939   1.259   3.373   8.770  0.0759 -0.6328  0.2132
 8769SOL    HW137940   1.240   3.288   8.811  0.9409 -0.9731 -0.0949
 8769SOL    HW237941   1.338   3.350   8.721 -0.7441  0.4064 -1.5981
 8770SOL     OW37942   2.089   0.856   6.477  0.4163 -0.3674 -0.1002
 8770SOL    HW137943   2.013   0.808   6.446  1.6732 -1.3320 -1.6809
 8770SOL    HW237944   2.156   0.790   6.458 -0.3103 -0.8469 -1.0222
 8771SOL     OW37945   1.698   3.213  15.694  0.2090 -0.0992 -0.5121
 8771SOL    HW137946   1.664   3.129  15.664  1.2023 -0.6512 -0.0987
 8771SOL    HW237947   1.637   3.232  15.765  0.0978 -0.8134 -0.4187
 8772SOL     OW37948   2.286   0.667   8.207 -0.3424  0.0612 -0.6114
 8772SOL    HW137949   2.326   0.627   8.130 -0.0172  1.9420 -1.4328
 8772SOL    HW237950   2.199   0.630   8.202 -0.1841 -0.3863 -0.0442
 8773SOL     OW37951   4.581   4.629   1.632  0.1928 -0.0280 -0.8067
 8773SOL    HW137952   4.500   4.671   1.603  0.7156  1.1247 -0.5912
 8773SOL    HW237953   4.629   4.610   1.552  0.2689  1.9758 -1.2276
 8774SOL     OW37954   2.074   0.731   0.998  0.4135  0.4346 -0.3548
 8774SOL    HW137955   2.096   0.822   1.014 -0.1057  0.5269 -0.1673
 8774SOL    HW237956   2.141   0.680   1.043  0.2344  1.9396  1.5880
 8775SOL     OW37957   3.796   4.088   3.605  0.0156  0.4065  0.3623
 8775SOL    HW137958   3.885   4.071   3.574  0.9259  0.6733  2.7740
 8775SOL    HW237959   3.774   4.002   3.641 -0.6033  1.3909  2.3617
 8776SOL     OW37960   4.171   2.819   6.401 -0.1761 -0.3786 -0.2866
 8776SOL    HW137961   4.232   2.757   6.440 -0.0883  0.7195  1.3655
 8776SOL    HW237962   4.177   2.781   6.314  1.4544  0.3625 -0.4968
 8777SOL     OW37963   1.240   2.654   8.565  0.4583 -0.7324  0.1715
 8777SOL    HW137964   1.260   2.599   8.490 -1.8585  0.3890 -1.2782
 8777SOL    HW237965   1.314   2.648   8.625  0.0523 -1.1599  0.6268
 8778SOL     OW37966   0.536   0.893   2.606 -0.0651 -0.9570 -0.0955
 8778SOL    HW137967   0.622   0.890   2.649  0.4505  2.1632 -0.9495
 8778SOL    HW237968   0.554   0.837   2.530  1.1873 -0.9755  0.2061
 8779SOL     OW37969   1.352   2.794   6.955  0.1942 -0.0718  0.0795
 8779SOL    HW137970   1.433   2.805   7.004  0.2049  0.8722 -0.1613
 8779SOL    HW237971   1.294   2.866   6.981 -0.8873 -1.0133  0.2769
 8780SOL     OW37972   0.674   4.468   0.361  0.1088  0.2354 -0.2698
 8780SOL    HW137973   0.741   4.483   0.427  0.0414 -2.2799  0.3640
 8780SOL    HW237974   0.691   4.542   0.302  0.4758 -0.8088 -1.4651
 8781SOL     OW37975   2.020   0.847   1.719  0.4674  0.0554 -0.4319
 8781SOL    HW137976   1.928   0.850   1.745  0.2924  2.4333 -1.3625
 8781SOL    HW237977   2.052   0.936   1.733 -0.8286  0.7253 -1.6607
 8782SOL     OW37978   2.401   3.952   9.252  0.8130 -0.1393 -0.0391
 8782SOL    HW137979   2.333   3.897   9.213  0.1276  1.5388 -1.2108
 8782SOL    HW237980   2.437   3.991   9.173 -0.6798  0.0905 -0.6089
 8783SOL     OW37981   0.021   2.201   8.474 -0.2774  0.2428  0.0068
 8783SOL    HW137982   0.025   2.294   8.496 -2.6484 -0.0368  1.6597
 8783SOL    HW237983   4.713   2.161   8.548  0.3289  0.9123  0.7382
 8784SOL     OW37984   1.785   4.187   8.130 -0.2664  0.3846  0.2503
 8784SOL    HW137985   1.854   4.134   8.091 -1.1130  0.4205 -1.2956
 8784SOL    HW237986   1.712   4.131   8.104 -0.6279  0.6313  0.7405
 8785SOL     OW37987   0.512   4.717   3.367 -0.0258  0.4782 -0.0264
 8785SOL    HW137988   0.461   0.056   3.337 -1.4944  0.0126  1.2968
 8785SOL    HW237989   0.452   4.686   3.434 -1.1182  0.7045 -0.8983
 8786SOL     OW37990   1.955   0.087  15.179 -0.2151  0.6051 -0.1995
 8786SOL    HW137991   1.876   0.078  15.125  0.8086 -1.6786 -1.3262
 8786SOL    HW237992   2.023   0.055  15.120  0.5505 -0.5605  1.3209
 8787SOL     OW37993   1.835   4.649   4.580  0.1438  0.1585 -0.2221
 8787SOL    HW137994   1.852   4.562   4.545  0.2267  0.2407 -0.3881
 8787SOL    HW237995   1.922   4.668   4.616 -0.4243  1.6815  0.3411
 8788SOL     OW37996   0.837   4.733   8.619 -0.1117 -0.0106  0.6885
 8788SOL    HW137997   0.860   0.088   8.610 -4.2637  1.1622  2.3117
 8788SOL    HW237998   0.883   4.700   8.542 -1.4890 -1.6620  0.5722
 8789SOL     OW37999   2.083   2.635   0.497 -0.3056 -0.3198  0.4804
 8789SOL    HW138000   2.049   2.545   0.489 -1.7851  0.4965 -2.3857
 8789SOL    HW238001   2.012   2.686   0.459  1.4458  1.2548 -0.6153
 8790SOL     OW38002   4.411   0.940   8.978  0.3882  0.1775 -0.1486
 8790SOL    HW138003   4.365   0.919   9.059  1.3890  0.9620  0.6155
 8790SOL    HW238004   4.449   1.026   8.996 -0.8204  0.7859 -0.4746
 8791SOL     OW38005   4.199   4.660   0.781 -0.0560  0.6421  0.6600
 8791SOL    HW138006   4.233   4.577   0.814  1.0384  0.4314 -0.9970
 8791SOL    HW238007   4.106   4.658   0.805 -0.3586 -0.5852 -0.6428
 8792SOL     OW38008   2.475   3.480   7.837 -0.2050  0.4469  0.2871
 8792SOL    HW138009   2.412   3.503   7.905 -1.8557 -1.6442 -0.5436
 8792SOL    HW238010   2.477   3.385   7.851 -1.1563  0.3048 -0.5222
 8793SOL     OW38011   0.335   4.118   4.333 -0.7662 -0.4125 -0.1100
 8793SOL    HW138012   0.312   4.206   4.364  0.4870 -0.9091  2.2296
 8793SOL    HW238013   0.293   4.113   4.247 -1.0844  0.1216  0.0129
 8794SOL     OW38014   2.807   4.009  15.884 -0.2411  0.4115  0.4739
 8794SOL    HW138015   2.881   4.046  15.835 -0.6604  2.6151  1.5140
 8794SOL    HW238016   2.800   3.919  15.854 -0.0690  0.4073  0.4430
 8795SOL     OW38017   0.871   4.393   9.099  0.2305  0.1477 -0.3985
 8795SOL    HW138018   0.914   4.438   9.027 -0.8212  2.0071  0.1314
 8795SOL    HW238019   0.938   4.388   9.168 -0.8505 -1.3005  0.5672
 8796SOL     OW38020   3.053   2.839   4.710  0.3931 -0.2787 -0.6017
 8796SOL    HW138021   3.131   2.808   4.665  1.4279  2.1121 -0.4305
 8796SOL    HW238022   3.068   2.931   4.690  1.8177 -0.2529  0.5803
 8797SOL     OW38023   1.362   2.807   3.057 -0.0368  0.4441 -0.6236
 8797SOL    HW138024   1.441   2.840   3.014  0.7604  0.4512  0.8668
 8797SOL    HW238025   1.308   2.787   2.981 -0.7490 -0.5781  0.1543
 8798SOL     OW38026   1.936   0.841  14.919  0.2373 -0.7589 -0.9294
 8798SOL    HW138027   1.859   0.820  14.866  0.2913  0.3183 -1.4306
 8798SOL    HW238028   1.929   0.775  14.989 -0.4217 -2.3995 -2.5306
 8799SOL     OW38029   2.468   4.050   5.646  0.1301 -0.3054 -0.0210
 8799SOL    HW138030   2.436   4.042   5.736  0.2615  0.5109  0.0944
 8799SOL    HW238031   2.423   3.975   5.608  1.2194 -0.9826  0.0256
 8800SOL     OW38032   3.435   1.318  11.456  0.2791  0.2426 -0.1379
 8800SOL    HW138033   3.530   1.305  11.465  0.0710 -1.2738 -0.0697
 8800SOL    HW238034   3.424   1.395  11.512 -2.3523 -0.0120 -0.2889
 8801SOL     OW38035   3.991   0.741   3.338 -0.7775 -0.0271  0.6762
 8801SOL    HW138036   3.977   0.743   3.243 -0.8077 -0.0877  0.6796
 8801SOL    HW238037   4.071   0.790   3.358  0.9241 -1.9186 -1.5057
 8802SOL     OW38038   3.978   0.879   7.620 -0.6511  0.0489  0.2951
 8802SOL    HW138039   3.916   0.810   7.599 -1.6656  0.9186  0.4247
 8802SOL    HW238040   4.058   0.842   7.582 -0.7274  2.2969 -2.1322
 8803SOL     OW38041   1.679   0.221  12.989 -0.3232  0.1191 -0.3076
 8803SOL    HW138042   1.702   0.205  13.080  0.0474 -0.9782 -0.6056
 8803SOL    HW238043   1.761   0.253  12.952 -0.1470  0.9151  0.7714
 8804SOL     OW38044   2.205   0.354   7.503 -0.2760  0.7061 -0.6679
 8804SOL    HW138045   2.296   0.381   7.488  0.5701 -1.7059 -0.0048
 8804SOL    HW238046   2.183   0.330   7.413 -0.9266  1.3669 -0.6806
 8805SOL     OW38047   0.902   1.638  10.869  0.1202  0.3161  0.4016
 8805SOL    HW138048   0.905   1.543  10.856 -0.4611  0.3888 -0.2549
 8805SOL    HW238049   0.977   1.646  10.928 -0.4842 -1.4284  1.4108
 8806SOL     OW38050   0.121   3.959  10.066  0.1003  0.0986  0.0970
 8806SOL    HW138051   0.104   3.896   9.996  0.4714 -0.8015  0.8190
 8806SOL    HW238052   0.031   3.991  10.071  0.2508  0.3128  1.4662
 8807SOL     OW38053   2.678   1.657   5.852 -0.1006 -0.3382  0.2156
 8807SOL    HW138054   2.616   1.620   5.789  1.4737 -1.5473 -0.6309
 8807SOL    HW238055   2.676   1.588   5.919 -0.8871 -0.8040 -0.2903
 8808SOL     OW38056   0.857   3.597   4.404 -0.3737 -0.6332  0.3930
 8808SOL    HW138057   0.792   3.639   4.461 -1.5491 -3.2475  0.9728
 8808SOL    HW238058   0.850   3.505   4.430  2.1917 -0.5241  1.4172
 8809SOL     OW38059   0.930   3.830   2.119 -0.2388  0.0004  0.0352
 8809SOL    HW138060   1.022   3.852   2.135 -0.1368 -0.5955  0.2978
 8809SOL    HW238061   0.894   3.915   2.096 -0.2276 -0.3416 -1.2014
 8810SOL     OW38062   1.555   0.355   6.576 -0.3682 -0.2803 -0.4356
 8810SOL    HW138063   1.539   0.292   6.646 -1.7492  2.3383  1.5750
 8810SOL    HW238064   1.471   0.334   6.535 -0.6424  1.1277 -0.6128
 8811SOL     OW38065   4.434   2.765   3.012  0.3756  1.1909  0.3744
 8811SOL    HW138066   4.370   2.727   2.952  1.3021 -0.3556  0.3587
 8811SOL    HW238067   4.412   2.858   3.010 -0.6446  0.9157 -1.5809
 8812SOL     OW38068   2.923   2.941   4.280 -0.0421  0.0400 -1.2696
 8812SOL    HW138069   2.851   3.003   4.275  0.2813  0.6531  1.3876
 8812SOL    HW238070   2.910   2.911   4.370 -0.0875 -2.0279 -1.9592
 8813SOL     OW38071   3.251   1.814   6.283 -0.4265 -0.3516 -0.4814
 8813SOL    HW138072   3.319   1.750   6.304  0.4490  0.6533 -0.2576
 8813SOL    HW238073   3.287   1.840   6.198  2.3493  0.1428  0.8334
 8814SOL     OW38074   0.851   4.514   3.110  0.3752 -0.2306  0.2172
 8814SOL    HW138075   0.858   4.428   3.151  0.1969  0.0060  0.7454
 8814SOL    HW238076   0.925   4.498   3.052  0.7315  1.3401  0.2525
 8815SOL     OW38077   2.603   0.136   3.331  0.8615  0.1896  0.1120
 8815SOL    HW138078   2.624   0.097   3.246  1.0685  1.1591 -0.2860
 8815SOL    HW238079   2.664   0.092   3.391  1.4059  1.8040  0.7671
 8816SOL     OW38080   1.714   2.410   4.434  0.1320  0.2005  0.6380
 8816SOL    HW138081   1.726   2.319   4.405  0.6361  0.8023 -1.0202
 8816SOL    HW238082   1.799   2.453   4.424  0.5012 -0.7709 -0.4537
 8817SOL     OW38083   4.239   1.549   7.650 -0.2508 -0.1195  0.4400
 8817SOL    HW138084   4.152   1.588   7.647 -0.4160 -0.4565  0.6825
 8817SOL    HW238085   4.234   1.509   7.738  0.4217 -2.2544 -0.4785
 8818SOL     OW38086   0.673   0.501   5.337  0.5190  0.0638 -0.0788
 8818SOL    HW138087   0.685   0.419   5.385  5.0069  0.7576 -0.0014
 8818SOL    HW238088   0.584   0.493   5.302 -0.2513  0.0157  1.9165
 8819SOL     OW38089   0.585   3.999   4.650  0.3267  0.0526  0.3823
 8819SOL    HW138090   0.529   4.076   4.642  0.6480  0.3236  0.7174
 8819SOL    HW238091   0.544   3.937   4.710 -0.0291 -0.9461 -0.8982
 8820SOL     OW38092   1.822   2.378  15.065 -0.1891 -0.3412 -0.4912
 8820SOL    HW138093   1.767   2.450  15.034 -0.0070 -0.2693 -0.6493
 8820SOL    HW238094   1.805   2.314  14.996  1.1319  0.0320 -1.1568
 8821SOL     OW38095   2.654   1.230   7.563  0.3612 -0.0075 -0.6874
 8821SOL    HW138096   2.699   1.304   7.521  0.4461  0.7268  0.6930
 8821SOL    HW238097   2.561   1.247   7.545 -0.2948 -3.9023 -0.9910
 8822SOL     OW38098   3.816   2.421   8.439  0.4190  0.7241  0.2513
 8822SOL    HW138099   3.895   2.368   8.428  0.5554  1.2928 -1.5127
 8822SOL    HW238100   3.849   2.501   8.481  3.3002 -1.4386  2.0839
 8823SOL     OW38101   1.963   1.575   4.294  0.1666 -0.1800 -0.1699
 8823SOL    HW138102   1.896   1.512   4.270  1.8107 -2.5133  1.3985
 8823SOL    HW238103   2.040   1.518   4.302 -0.3193 -0.5046  1.9568
 8824SOL     OW38104   2.397   1.417   2.454  0.1984 -0.0648  0.1076
 8824SOL    HW138105   2.355   1.502   2.437 -0.9687 -0.7285 -0.2774
 8824SOL    HW238106   2.489   1.440   2.436  0.3672 -0.3473  0.5996
 8825SOL     OW38107   4.447   1.311   4.398  0.0657  0.1886 -0.1837
 8825SOL    HW138108   4.369   1.337   4.349  0.6735  0.7118 -0.8892
 8825SOL    HW238109   4.510   1.384   4.404  0.0659  0.2451 -0.7853
 8826SOL     OW38110   3.102   2.858   7.540 -0.0660  0.4297 -0.0050
 8826SOL    HW138111   3.076   2.950   7.533 -1.3687  0.2457  2.5800
 8826SOL    HW238112   3.089   2.837   7.632  0.2287  0.5603  0.0654
 8827SOL     OW38113   2.463   1.033   6.651  0.1627  0.1830  0.0125
 8827SOL    HW138114   2.537   1.045   6.711  0.2799 -0.7427  0.0559
 8827SOL    HW238115   2.460   0.938   6.646  0.8189  0.1370  0.4526
 8828SOL     OW38116   4.166   4.075   8.399  0.1890 -0.3553  0.2652
 8828SOL    HW138117   4.187   4.136   8.329  2.0388 -1.5782 -0.2660
 8828SOL    HW238118   4.252   4.032   8.402 -0.4291 -1.6166  0.1928
 8829SOL     OW38119   1.298   2.481  14.891 -0.1026  0.4485 -0.4545
 8829SOL    HW138120   1.204   2.499  14.896  0.2489  1.8367  1.0003
 8829SOL    HW238121   1.318   2.457  14.800 -0.1507 -1.2423 -0.0071
 8830SOL     OW38122   3.812   2.738   5.745 -0.1385 -0.2372 -0.4209
 8830SOL    HW138123   3.743   2.769   5.803 -0.3413  0.7157 -1.1765
 8830SOL    HW238124   3.875   2.716   5.813  0.2158 -1.5831 -1.1750
 8831SOL     OW38125   2.531   1.884   5.165  0.1405  0.0387  0.1279
 8831SOL    HW138126   2.538   1.975   5.139  1.3806 -0.7940 -2.5048
 8831SOL    HW238127   2.465   1.842   5.110  1.3068  0.4813 -1.6114
 8832SOL     OW38128   2.298   2.682  17.284 -0.1827  0.2169  0.1826
 8832SOL    HW138129   2.267   2.765  17.319 -0.5135  0.1972 -0.0698
 8832SOL    HW238130   2.230   2.627  17.323  0.5782 -1.2394 -0.5378
 8833SOL     OW38131   1.297   1.518  16.856  0.3851 -0.1557  0.1010
 8833SOL    HW138132   1.272   1.464  16.782  0.9167 -0.7366  0.3487
 8833SOL    HW238133   1.388   1.539  16.833  0.4435 -1.0506 -0.4522
 8834SOL     OW38134   2.404   3.773   8.085  0.0327  0.1317  0.1568
 8834SOL    HW138135   2.385   3.798   8.176 -2.2473 -0.1555 -0.2248
 8834SOL    HW238136   2.483   3.824   8.067  0.6435 -0.8615  0.0522
 8835SOL     OW38137   1.361   0.024  10.052 -0.2167  0.3870 -0.2013
 8835SOL    HW138138   1.295   4.706  10.094 -0.2504 -1.7786 -3.0901
 8835SOL    HW238139   1.377   4.709   9.973 -0.5998  0.8438 -0.5781
 8836SOL     OW38140   1.512   3.299  14.362  0.5949 -0.1474 -0.3248
 8836SOL    HW138141   1.553   3.216  14.340  2.0263  0.3828  0.3874
 8836SOL    HW238142   1.568   3.329  14.433  0.2826 -0.7840  0.1967
 8837SOL     OW38143   2.916   3.229   9.214  0.1818  0.2477  0.1429
 8837SOL    HW138144   2.893   3.151   9.265 -1.0203  0.2028 -0.4557
 8837SOL    HW238145   2.974   3.183   9.154  0.7893 -0.6324  1.3949
 8838SOL     OW38146   0.353   2.848  14.976 -0.4850 -0.5945 -0.2963
 8838SOL    HW138147   0.396   2.764  14.960 -0.6141 -0.9531  1.2226
 8838SOL    HW238148   0.272   2.834  14.927  0.4860 -2.6974 -1.3112
 8839SOL     OW38149   3.071   0.260  14.559  0.3159 -0.4134  0.0488
 8839SOL    HW138150   3.034   0.268  14.472 -2.3587 -2.1354  1.0373
 8839SOL    HW238151   3.024   0.331  14.602  0.9214 -0.4449  0.7664
 8840SOL     OW38152   2.468   1.570  11.308 -0.0104 -0.2480 -0.9868
 8840SOL    HW138153   2.410   1.620  11.366  2.4102  1.6952 -0.2268
 8840SOL    HW238154   2.460   1.612  11.223  1.9470  2.5958  0.2268
 8841SOL     OW38155   3.743   1.171   0.904  0.0352 -0.5829 -0.6588
 8841SOL    HW138156   3.731   1.083   0.867 -1.5658 -0.3238 -0.7656
 8841SOL    HW238157   3.790   1.142   0.982 -0.0683  1.7815  0.2498
 8842SOL     OW38158   2.141   3.977   1.948  0.2514  0.1133 -0.6702
 8842SOL    HW138159   2.138   3.994   1.854 -0.5447  1.3044 -0.4226
 8842SOL    HW238160   2.160   4.063   1.983  0.4520  0.6762 -2.1878
 8843SOL     OW38161   0.788   1.676   6.739  0.3899  0.5588  0.2853
 8843SOL    HW138162   0.828   1.699   6.655  2.6051  0.0480  1.1817
 8843SOL    HW238163   0.705   1.722   6.732 -0.0217 -0.5395 -2.2158
 8844SOL     OW38164   2.763   2.123  11.759  0.6429 -0.5347  0.5516
 8844SOL    HW138165   2.738   2.078  11.839 -3.3725  0.2961 -0.2231
 8844SOL    HW238166   2.752   2.216  11.779  0.7931 -0.2705 -0.5935
 8845SOL     OW38167   3.123   2.880   5.102 -0.2539 -0.1023  0.2469
 8845SOL    HW138168   3.070   2.927   5.038 -0.5365 -1.6740 -0.6623
 8845SOL    HW238169   3.079   2.797   5.085 -2.4657  1.2730 -0.7255
 8846SOL     OW38170   0.744   3.199   2.755  0.4332 -0.1472  0.2813
 8846SOL    HW138171   0.677   3.130   2.753 -0.8408  1.0921  0.7012
 8846SOL    HW238172   0.691   3.278   2.747 -2.3206 -1.9820  0.4554
 8847SOL     OW38173   4.218   2.736   6.140  0.5319  0.2024 -0.5709
 8847SOL    HW138174   4.231   2.721   6.047  0.1592  2.3779 -0.9855
 8847SOL    HW238175   4.269   2.817   6.145  0.6590 -0.0529  2.2991
 8848SOL     OW38176   2.315   1.844  10.833 -0.3946 -0.1212 -0.4156
 8848SOL    HW138177   2.338   1.778  10.768  0.9583  0.2080 -0.2776
 8848SOL    HW238178   2.227   1.866  10.803 -0.0147  0.0401 -1.3982
 8849SOL     OW38179   1.803   0.167  16.918 -0.3866 -0.0155  0.4853
 8849SOL    HW138180   1.732   0.107  16.942 -1.3106  1.1540  0.6486
 8849SOL    HW238181   1.791   0.227  16.991 -1.4703 -0.3542  0.5863
 8850SOL     OW38182   1.691   1.067   5.836 -0.0876 -0.0090 -0.1133
 8850SOL    HW138183   1.603   1.096   5.812  0.5352 -0.2105 -2.6996
 8850SOL    HW238184   1.693   0.985   5.785 -0.7912 -1.2821  1.8987
 8851SOL     OW38185   1.414   3.762   6.389 -0.6163  0.3051  0.2485
 8851SOL    HW138186   1.496   3.765   6.340 -0.5341 -2.4515  0.2231
 8851SOL    HW238187   1.445   3.739   6.477 -0.9201  1.5998  0.6909
 8852SOL     OW38188   1.120   4.736  13.505  0.0006  0.4000  0.3212
 8852SOL    HW138189   1.138   4.651  13.464  3.0160  1.3990 -0.4092
 8852SOL    HW238190   1.031   4.719  13.535 -1.0551  1.8214 -2.1016
 8853SOL     OW38191   0.376   0.157   5.046 -0.2000 -0.3149 -0.4031
 8853SOL    HW138192   0.299   0.130   5.095 -0.3211 -0.2431 -0.5544
 8853SOL    HW238193   0.368   0.105   4.965  0.0382  1.1204 -1.3465
 8854SOL     OW38194   4.427   3.969  15.799 -0.1095  0.5331 -0.1264
 8854SOL    HW138195   4.446   3.947  15.707  2.8958  2.2606  0.0675
 8854SOL    HW238196   4.513   4.005  15.823  0.1984 -0.1419 -0.2094
 8855SOL     OW38197   4.632   0.023  15.675  0.7232 -0.2365  0.1887
 8855SOL    HW138198   4.719   0.048  15.644 -0.1298  0.7778 -1.3413
 8855SOL    HW238199   4.645   0.020  15.770  0.4105 -1.9029  0.1696
 8856SOL     OW38200   2.068   2.060   5.611  0.8176  0.0258  0.6976
 8856SOL    HW138201   1.991   2.006   5.631  0.6188 -0.8836 -2.6108
 8856SOL    HW238202   2.129   2.026   5.677 -0.3055  0.0840  1.7611
 8857SOL     OW38203   2.475   0.827  13.612 -0.1202  0.1967  0.4039
 8857SOL    HW138204   2.517   0.911  13.596  0.0562 -0.2540 -1.3882
 8857SOL    HW238205   2.439   0.863  13.694 -1.0383 -0.3906  0.2638
 8858SOL     OW38206   2.327   2.401   2.300 -0.0216 -0.2774 -0.4764
 8858SOL    HW138207   2.403   2.454   2.276 -1.5443  0.7506 -2.9845
 8858SOL    HW238208   2.336   2.431   2.390 -0.3686 -0.5718 -0.3450
 8859SOL     OW38209   2.935   0.987   0.465  0.0036 -0.5491  0.2010
 8859SOL    HW138210   2.979   1.024   0.541 -2.9865  0.3195  1.5298
 8859SOL    HW238211   2.873   0.933   0.514 -1.6255  1.2081  0.0720
 8860SOL     OW38212   2.137   2.714   8.310 -0.2023  0.3594  0.6935
 8860SOL    HW138213   2.107   2.634   8.266  0.1169  0.8887 -0.4815
 8860SOL    HW238214   2.176   2.762   8.238  1.5280 -0.8983  0.7816
 8861SOL     OW38215   4.049   3.595   2.617 -0.4906  0.3107  0.6090
 8861SOL    HW138216   4.034   3.541   2.539 -0.5697  0.7175  0.3360
 8861SOL    HW238217   4.088   3.537   2.681  0.7410  1.2783  0.7272
 8862SOL     OW38218   4.022   3.053   7.088 -0.0582  0.1673 -0.1536
 8862SOL    HW138219   4.090   3.002   7.045  0.5513  0.1887  0.7922
 8862SOL    HW238220   3.943   3.007   7.058  1.3363 -1.3175 -1.5712
 8863SOL     OW38221   2.714   4.426  16.485 -0.1012 -0.3994  0.2116
 8863SOL    HW138222   2.638   4.385  16.445 -0.8453  1.5749 -0.3849
 8863SOL    HW238223   2.683   4.516  16.496  0.1838 -0.4731  1.6926
 8864SOL     OW38224   2.387   0.131   2.620 -0.0293 -0.5718  0.1448
 8864SOL    HW138225   2.299   0.125   2.584  0.4968 -1.6554 -0.9389
 8864SOL    HW238226   2.367   0.148   2.712 -2.6411  1.0734 -0.7186
 8865SOL     OW38227   2.044   3.772   6.546 -0.6265  0.4194  0.4895
 8865SOL    HW138228   2.123   3.721   6.530 -1.0851  0.6317 -2.4762
 8865SOL    HW238229   2.035   3.821   6.465  1.5274 -0.1282 -0.0786
 8866SOL     OW38230   2.953   0.011   6.205  0.1721 -0.3575  0.0912
 8866SOL    HW138231   2.956   0.098   6.166  2.0189 -0.9297 -1.0675
 8866SOL    HW238232   2.860   0.001   6.228 -0.1255  1.0990 -0.5071
 8867SOL     OW38233   4.466   3.739   7.471 -0.3711 -0.6236  0.1950
 8867SOL    HW138234   4.400   3.671   7.486 -2.6553  1.1277 -1.7816
 8867SOL    HW238235   4.448   3.793   7.548  1.5459  2.5152 -1.5643
 8868SOL     OW38236   2.976   2.839  15.034 -0.1130 -0.9497  0.3332
 8868SOL    HW138237   3.022   2.904  15.087  0.6878 -0.6369 -0.7475
 8868SOL    HW238238   3.049   2.821  14.975  1.1368  4.3248  0.2980
 8869SOL     OW38239   0.334   0.676   4.568  0.3420 -0.0690 -0.0695
 8869SOL    HW138240   0.286   0.639   4.494  2.8220  0.7560 -2.0773
 8869SOL    HW238241   0.326   0.768   4.545 -2.3542 -0.8203 -2.1895
 8870SOL     OW38242   2.352   1.472   1.767  0.1264 -0.4286 -0.0104
 8870SOL    HW138243   2.387   1.455   1.855 -0.2466 -0.1857  0.1860
 8870SOL    HW238244   2.308   1.557   1.767  1.0427  0.0575  2.9646
 8871SOL     OW38245   0.790   2.266   7.158  0.0457 -0.0025  0.1929
 8871SOL    HW138246   0.770   2.190   7.103 -2.7416 -0.0658  1.3028
 8871SOL    HW238247   0.765   2.231   7.243  0.3143 -0.9293 -0.1046
 8872SOL     OW38248   2.407   3.406   8.260  0.1602 -0.2240  0.0595
 8872SOL    HW138249   2.375   3.450   8.339  1.1674 -2.2367  1.5711
 8872SOL    HW238250   2.501   3.408   8.278  0.3447  2.4134 -1.1392
 8873SOL     OW38251   4.119   4.035   3.048  0.4925 -0.1978  0.0991
 8873SOL    HW138252   4.045   4.061   3.103 -0.5850 -0.9572 -0.9757
 8873SOL    HW238253   4.080   3.967   2.992  0.0071 -1.7991  2.3978
 8874SOL     OW38254   0.300   4.081  15.825  0.1150 -0.3855 -0.0899
 8874SOL    HW138255   0.274   3.989  15.819  0.2407 -0.3232 -1.4025
 8874SOL    HW238256   0.395   4.073  15.833  0.0225 -1.3279  0.0999
 8875SOL     OW38257   4.195   0.996   6.634 -0.0734  0.1984  0.2789
 8875SOL    HW138258   4.272   0.944   6.614 -1.4392 -1.1799 -1.4162
 8875SOL    HW238259   4.224   1.073   6.683  1.7625 -1.3995  1.6637
 8876SOL     OW38260   0.156   2.547   9.785  0.4482 -0.2260  0.1583
 8876SOL    HW138261   0.147   2.501   9.701 -1.4663  1.0449 -0.3191
 8876SOL    HW238262   0.130   2.474   9.841  2.5304 -0.8122  0.3807
 8877SOL     OW38263   3.328   0.181   2.455  0.1891  0.2005 -0.4197
 8877SOL    HW138264   3.291   0.265   2.426 -0.6590  0.1900  0.6798
 8877SOL    HW238265   3.356   0.200   2.544 -1.0110 -0.7869  0.1564
 8878SOL     OW38266   2.700   1.869  16.145 -0.3660  0.1030 -0.0727
 8878SOL    HW138267   2.641   1.883  16.219  1.0585  0.3559  1.0101
 8878SOL    HW238268   2.677   1.941  16.086  0.2259  0.6523  0.3753
 8879SOL     OW38269   4.159   3.960  13.818 -0.2909 -0.1043  0.0405
 8879SOL    HW138270   4.103   4.002  13.884 -3.0080 -2.0849 -0.9723
 8879SOL    HW238271   4.195   3.886  13.866  0.4035 -0.4921 -1.0899
 8880SOL     OW38272   2.337   2.888   1.817 -0.0508  0.1841  0.3118
 8880SOL    HW138273   2.417   2.934   1.844  0.5133 -1.2188  1.0067
 8880SOL    HW238274   2.298   2.949   1.754  1.7049  1.4697  0.4620
 8881SOL     OW38275   0.412   3.150  14.983  0.3741 -0.2527 -0.1340
 8881SOL    HW138276   0.358   3.082  15.023 -1.3186  1.2684  0.1741
 8881SOL    HW238277   0.500   3.140  15.020 -0.6137 -0.6539  2.1127
 8882SOL     OW38278   1.751   2.337   3.825 -0.0122 -0.0172  0.4056
 8882SOL    HW138279   1.670   2.317   3.872  1.0152 -1.7782  1.4095
 8882SOL    HW238280   1.756   2.427   3.858 -1.2018 -0.4456  1.7609
 8883SOL     OW38281   1.071   4.368  10.992  0.1199  0.1592 -0.5404
 8883SOL    HW138282   1.089   4.315  11.069 -2.2747 -0.5309 -0.4560
 8883SOL    HW238283   1.086   4.304  10.923  2.8030 -0.4924  0.6480
 8884SOL     OW38284   2.027   1.129   6.930  0.4694  0.2188 -0.0314
 8884SOL    HW138285   1.945   1.114   6.881  0.0806  0.6214  0.5003
 8884SOL    HW238286   2.082   1.161   6.859  0.4195  0.0489 -0.1483
 8885SOL     OW38287   1.689   3.572   4.204  0.1269 -0.2709 -0.2314
 8885SOL    HW138288   1.634   3.514   4.152 -1.0459  0.2945  0.3598
 8885SOL    HW238289   1.669   3.656   4.162 -1.0444  0.2623  1.3719
 8886SOL     OW38290   2.279   4.277   8.306 -0.3251 -0.1603  0.3889
 8886SOL    HW138291   2.190   4.270   8.340 -1.3923 -0.5295 -2.4832
 8886SOL    HW238292   2.333   4.282   8.386 -1.8595  2.0457  1.2940
 8887SOL     OW38293   4.350   3.640   1.428 -0.3927  0.9527  0.2600
 8887SOL    HW138294   4.369   3.548   1.449  0.1615  0.8824 -0.5834
 8887SOL    HW238295   4.409   3.647   1.353 -1.6510  0.8918 -0.7282
 8888SOL     OW38296   1.429   0.036   8.607 -0.5461  0.4514 -0.1757
 8888SOL    HW138297   1.404   0.126   8.630  2.7786  1.3792 -0.1846
 8888SOL    HW238298   1.440   4.732   8.692 -0.2262  1.1309  0.1180
 8889SOL     OW38299   0.996   2.032   8.671 -0.6624 -0.1648  0.4255
 8889SOL    HW138300   0.999   2.077   8.755 -2.2043  0.4965  0.1230
 8889SOL    HW238301   1.084   2.041   8.635 -0.0445 -2.2737  1.4128
 8890SOL     OW38302   2.506   3.542   2.276  0.5644  0.0062 -0.3093
 8890SOL    HW138303   2.421   3.535   2.232  1.0729 -0.4745 -1.1933
 8890SOL    HW238304   2.488   3.520   2.368 -2.4179  0.9231 -0.6565
 8891SOL     OW38305   0.663   0.618  13.192 -0.2391 -0.3989 -0.6072
 8891SOL    HW138306   0.751   0.586  13.212 -0.2010 -0.7036 -1.2517
 8891SOL    HW238307   0.615   0.593  13.270  0.9329 -0.2714  0.1608
 8892SOL     OW38308   2.977   2.521   9.479 -0.0733  0.7249 -0.4317
 8892SOL    HW138309   3.005   2.596   9.427  1.4776 -0.3883 -1.2067
 8892SOL    HW238310   3.043   2.456   9.456  1.1337  1.2614  1.5105
 8893SOL     OW38311   4.362   0.640  15.396 -0.1200  0.0522  0.0901
 8893SOL    HW138312   4.356   0.552  15.433 -2.0821 -0.0645 -0.5024
 8893SOL    HW238313   4.267   0.654  15.394 -0.0476  0.2429 -1.8603
 8894SOL     OW38314   0.311   2.390   2.559  0.2218  0.3259  0.1619
 8894SOL    HW138315   0.248   2.318   2.564  2.0593 -1.4026 -1.0712
 8894SOL    HW238316   0.390   2.337   2.545  0.0080  0.0320  0.0644
 8895SOL     OW38317   4.234   3.590   9.243 -0.1589  0.5415 -0.3828
 8895SOL    HW138318   4.251   3.497   9.259  0.3779  1.3811  4.0209
 8895SOL    HW238319   4.148   3.571   9.206 -0.8453 -3.2196  3.1664
 8896SOL     OW38320   4.002   4.260  12.570 -0.4839  0.1035  0.1099
 8896SOL    HW138321   3.979   4.349  12.596  0.6206  1.2206 -2.6375
 8896SOL    HW238322   4.094   4.276  12.551  0.1120 -1.5010  1.7342
 8897SOL     OW38323   0.749   0.152   6.669  0.7789  0.1378  0.0796
 8897SOL    HW138324   0.750   0.128   6.577 -2.2844  0.5018 -0.0398
 8897SOL    HW238325   0.762   0.063   6.703 -0.5003  0.2110  0.7584
 8898SOL     OW38326   3.765   3.566  15.943 -0.0976  0.2259 -0.7936
 8898SOL    HW138327   3.813   3.491  15.908  0.1142 -0.4345  0.9165
 8898SOL    HW238328   3.790   3.565  16.035  0.3337 -1.8576 -0.9388
 8899SOL     OW38329   0.170   3.127   8.717 -0.1381  0.4699 -0.7020
 8899SOL    HW138330   0.138   3.037   8.712 -1.1331  0.7259  0.8342
 8899SOL    HW238331   0.238   3.128   8.650 -0.1734 -1.4800 -0.7555
 8900SOL     OW38332   4.456   1.362   4.680  0.0691  0.1155 -0.2138
 8900SOL    HW138333   4.360   1.366   4.671 -0.0602 -0.0021  1.0792
 8900SOL    HW238334   4.475   1.318   4.598  2.5610 -0.1157  0.4898
 8901SOL     OW38335   3.153   2.737   2.290  0.2032  0.6959 -0.0302
 8901SOL    HW138336   3.243   2.771   2.296  0.9968 -1.8977  3.0796
 8901SOL    HW238337   3.155   2.644   2.315 -1.1493  0.7200  0.1220
 8902SOL     OW38338   1.139   0.050   2.824 -0.2347 -0.3060  0.0385
 8902SOL    HW138339   1.089   0.132   2.826 -0.2795 -0.2866 -2.7779
 8902SOL    HW238340   1.222   0.080   2.861  0.5741  1.6043 -3.3965
 8903SOL     OW38341   1.181   3.896  17.074 -0.3899  0.0771  0.2832
 8903SOL    HW138342   1.138   3.971  17.116 -0.9555  0.1401 -0.4151
 8903SOL    HW238343   1.166   3.825  17.138 -0.7812 -1.8254 -1.9224
 8904SOL     OW38344   3.532   1.127   3.303 -0.0676  0.2241  0.2901
 8904SOL    HW138345   3.457   1.142   3.360 -1.1823 -0.4605 -1.0035
 8904SOL    HW238346   3.591   1.136   3.378  1.2161 -1.7673 -0.4846
 8905SOL     OW38347   1.312   3.433   4.320  0.1071 -0.5249  0.1889
 8905SOL    HW138348   1.401   3.413   4.346  1.0540  0.5513 -2.2562
 8905SOL    HW238349   1.330   3.495   4.250 -0.4409 -0.8214 -0.2225
 8906SOL     OW38350   1.549   1.159   9.575  0.4384 -0.3774 -0.1508
 8906SOL    HW138351   1.490   1.094   9.536 -0.7068  0.6238 -0.0989
 8906SOL    HW238352   1.481   1.192   9.633  0.1587 -1.2284  0.0150
 8907SOL     OW38353   3.921   4.174   6.526 -0.3100 -0.1486  0.3235
 8907SOL    HW138354   3.887   4.140   6.443  0.8402  1.2226 -0.7116
 8907SOL    HW238355   3.844   4.224   6.556 -0.1934 -0.7810  1.6504
 8908SOL     OW38356   3.313   2.593  11.752  0.1984  0.1329  0.1788
 8908SOL    HW138357   3.330   2.606  11.658 -1.1391  0.9465  0.0589
 8908SOL    HW238358   3.382   2.530  11.774 -0.9688 -0.3397  2.4551
 8909SOL     OW38359   0.611   0.625   7.289  0.2768 -0.2192  0.4015
 8909SOL    HW138360   0.543   0.563   7.260 -1.3528  1.0521  1.4659
 8909SOL    HW238361   0.675   0.622   7.218 -1.0306  0.2240 -0.7957
 8910SOL     OW38362   0.880   1.702   4.477  0.0103 -0.0102 -0.2929
 8910SOL    HW138363   0.851   1.677   4.389  1.1994  1.6148 -1.1484
 8910SOL    HW238364   0.806   1.683   4.535  0.6949 -0.2150  0.5150
 8911SOL     OW38365   2.608   0.322   1.862 -0.3539  0.2011  0.0178
 8911SOL    HW138366   2.669   0.266   1.910  0.1393  1.4349  0.8267
 8911SOL    HW238367   2.555   0.367   1.928  0.5596  1.0886  0.1448
 8912SOL     OW38368   1.621   4.229   6.932 -0.3034  0.8637  0.1439
 8912SOL    HW138369   1.574   4.293   6.985  1.1269  0.6557  1.6502
 8912SOL    HW238370   1.651   4.294   6.868 -0.3794  1.3739  0.6297
 8913SOL     OW38371   4.177   0.184   8.278 -0.3243 -0.2670  0.0294
 8913SOL    HW138372   4.223   0.120   8.224  0.5511  1.7220 -1.5606
 8913SOL    HW238373   4.207   0.170   8.368  2.7524 -1.0271 -1.1032
 8914SOL     OW38374   1.199   1.158  10.415  0.1511  0.2909 -0.3936
 8914SOL    HW138375   1.281   1.148  10.367 -0.3938  1.3383 -1.5384
 8914SOL    HW238376   1.183   1.065  10.432 -2.0942  0.3489 -2.1041
 8915SOL     OW38377   0.364   1.730   2.788  0.2013 -0.1377  0.2806
 8915SOL    HW138378   0.389   1.681   2.866 -1.9852 -0.7550  0.5646
 8915SOL    HW238379   0.324   1.664   2.732  0.8295  0.9634 -1.4764
 8916SOL     OW38380   0.355   2.272   4.172 -0.1080 -0.3625  0.6733
 8916SOL    HW138381   0.352   2.179   4.152  0.9657 -0.4948  1.1193
 8916SOL    HW238382   0.262   2.288   4.187  0.0144  1.9384 -0.9832
 8917SOL     OW38383   2.225   1.410   3.474  0.6972  0.0938 -0.5104
 8917SOL    HW138384   2.163   1.361   3.529  0.9462  0.0856 -0.2395
 8917SOL    HW238385   2.299   1.410   3.534  0.4435  1.4019 -0.2156
 8918SOL     OW38386   0.447   0.445  14.600 -0.2863 -0.1061 -0.1199
 8918SOL    HW138387   0.459   0.410  14.688  2.5357 -0.6378 -0.7077
 8918SOL    HW238388   0.516   0.405  14.546 -1.4059  0.1693 -1.7513
 8919SOL     OW38389   4.427   3.178   9.387  0.1497  0.0077 -0.1266
 8919SOL    HW138390   4.446   3.087   9.367 -0.1774  0.4460 -2.4238
 8919SOL    HW238391   4.515   3.197   9.421 -0.8913  0.1151  2.5065
 8920SOL     OW38392   2.339   1.709  15.925  0.0237  0.0024  0.6924
 8920SOL    HW138393   2.396   1.734  15.853 -0.7503  1.2580  0.5153
 8920SOL    HW238394   2.345   1.786  15.982  1.4895 -0.0939  0.6551
 8921SOL     OW38395   2.043   1.682   3.546 -0.6614  0.4984 -0.0415
 8921SOL    HW138396   2.119   1.740   3.545 -1.1994  1.2092  0.4182
 8921SOL    HW238397   2.059   1.659   3.637  1.6721 -2.2637 -1.1583
 8922SOL     OW38398   0.596   3.407  15.734  0.0195  0.3250 -0.3228
 8922SOL    HW138399   0.664   3.458  15.689  0.0900  0.4307 -0.0929
 8922SOL    HW238400   0.539   3.480  15.756  0.1801 -0.1141  1.4955
 8923SOL     OW38401   3.939   1.659  13.136 -0.3395 -0.4191  0.7519
 8923SOL    HW138402   3.916   1.744  13.175 -0.8374 -0.0507 -0.3592
 8923SOL    HW238403   3.897   1.607  13.204  0.6779  0.3310  1.9657
 8924SOL     OW38404   2.394   1.596   9.957  0.7859  0.0904 -0.6221
 8924SOL    HW138405   2.424   1.522   9.903  1.1103 -1.6568  1.9861
 8924SOL    HW238406   2.304   1.573   9.980  1.1161  0.1283  0.6590
 8925SOL     OW38407   3.400   0.973   7.122  0.0439  0.0552  0.5277
 8925SOL    HW138408   3.309   0.973   7.151 -0.0530 -1.3061  0.2616
 8925SOL    HW238409   3.399   0.892   7.071  1.0759 -0.3340  1.1089
 8926SOL     OW38410   2.737   0.137  16.145 -0.4060  0.2600 -0.4632
 8926SOL    HW138411   2.724   0.076  16.072  1.6592 -1.3598  0.5175
 8926SOL    HW238412   2.683   0.107  16.218  1.4710  0.2123  0.9059
 8927SOL     OW38413   0.532   2.677   2.752 -0.1509 -0.5188 -0.5290
 8927SOL    HW138414   0.576   2.598   2.721  0.6414 -0.8189  1.3266
 8927SOL    HW238415   0.449   2.639   2.781 -0.3218 -0.0893 -0.4509
 8928SOL     OW38416   4.377   3.010   6.659 -0.2310 -0.5084 -0.4629
 8928SOL    HW138417   4.441   2.956   6.612  0.5426 -2.8210  3.2278
 8928SOL    HW238418   4.424   3.091   6.680 -0.7448 -0.5533  0.8890
 8929SOL     OW38419   3.437   4.573   8.671  0.7262 -0.5752  0.4665
 8929SOL    HW138420   3.480   4.496   8.633 -1.2042 -0.0680 -2.7398
 8929SOL    HW238421   3.449   4.562   8.765  0.3467 -0.4781  0.5278
 8930SOL     OW38422   4.366   3.892   7.695  0.5892 -0.1206  0.1539
 8930SOL    HW138423   4.416   3.972   7.710 -0.1603  0.5523 -0.9928
 8930SOL    HW238424   4.362   3.839   7.775 -1.4664  0.1335  0.2298
 8931SOL     OW38425   2.195   3.584   8.850 -0.7515 -0.3737  0.5749
 8931SOL    HW138426   2.125   3.643   8.821 -0.5709  0.0498  0.9967
 8931SOL    HW238427   2.148   3.560   8.930 -2.4057  0.0689 -0.2756
 8932SOL     OW38428   1.183   1.860   7.794 -0.6554 -0.0162  0.0644
 8932SOL    HW138429   1.236   1.840   7.871 -1.2856 -1.1503  0.2082
 8932SOL    HW238430   1.197   1.775   7.752  0.4734  0.7246 -1.0377
 8933SOL     OW38431   1.642   3.625   9.366  0.2000 -0.1559 -0.3596
 8933SOL    HW138432   1.633   3.550   9.425 -1.6028 -1.5794 -2.4039
 8933SOL    HW238433   1.549   3.650   9.364  0.2120 -0.0907  0.0329
 8934SOL     OW38434   0.954   2.502  11.484 -0.1302 -0.2277 -0.5645
 8934SOL    HW138435   0.988   2.458  11.406 -1.7464  1.5799 -2.2857
 8934SOL    HW238436   0.886   2.561  11.452  0.0217  1.1725  1.7294
 8935SOL     OW38437   3.829   2.069   8.809 -0.9027  0.2227  0.0404
 8935SOL    HW138438   3.778   2.149   8.793 -0.1035  1.0919  1.8602
 8935SOL    HW238439   3.783   2.016   8.743 -2.9329  3.7340 -1.3822
 8936SOL     OW38440   1.697   0.350   2.962  0.1310  0.5012 -0.3098
 8936SOL    HW138441   1.702   0.292   2.886 -0.9278  3.0380 -2.3283
 8936SOL    HW238442   1.754   0.304   3.023 -2.0962  0.2397  1.5724
 8937SOL     OW38443   1.760   0.332   6.366  0.4287  0.3251 -0.2381
 8937SOL    HW138444   1.748   0.423   6.342 -1.1759  0.1352 -0.1229
 8937SOL    HW238445   1.689   0.320   6.430 -1.5081  3.4038 -1.8480
 8938SOL     OW38446   2.957   4.616   4.412 -0.1294  0.3329  0.9498
 8938SOL    HW138447   3.024   4.548   4.404 -0.3059  0.3037 -0.2098
 8938SOL    HW238448   2.885   4.554   4.401 -0.1690  0.3523  1.0945
 8939SOL     OW38449   4.046   0.716   1.939 -0.4175  0.3045  0.8199
 8939SOL    HW138450   4.051   0.807   1.910  0.7716  0.4513  1.4789
 8939SOL    HW238451   4.129   0.700   1.985 -0.6855  2.9915  2.2690
 8940SOL     OW38452   3.992   1.542   8.191 -0.0062  0.5518  0.2320
 8940SOL    HW138453   4.020   1.452   8.203 -3.6501 -0.6289 -0.1914
 8940SOL    HW238454   4.061   1.598   8.227 -1.5069  1.8407  1.1001
 8941SOL     OW38455   0.126   2.644   6.670  0.2180  0.0647  0.4668
 8941SOL    HW138456   0.211   2.678   6.642 -1.0843  2.8809 -0.0291
 8941SOL    HW238457   0.139   2.689   6.754 -0.4956  0.0521  0.5768
 8942SOL     OW38458   3.065   3.751   5.108 -0.5386  0.0491 -0.3740
 8942SOL    HW138459   3.156   3.764   5.135 -0.5208  0.5398 -0.6577
 8942SOL    HW238460   3.018   3.803   5.173 -2.0800  0.1750 -1.5884
 8943SOL     OW38461   1.031   0.136  10.114  0.0357  0.4599  0.1912
 8943SOL    HW138462   0.998   0.111  10.201 -0.8445  3.1123  0.6241
 8943SOL    HW238463   1.050   0.051  10.075 -0.2686 -0.1404  1.3465
 8944SOL     OW38464   0.981   1.333   4.556  0.3278 -0.0937  0.5332
 8944SOL    HW138465   0.893   1.341   4.593 -0.7786 -0.1057 -2.0936
 8944SOL    HW238466   0.992   1.242   4.584  1.7036 -0.8829 -2.6657
 8945SOL     OW38467   3.986   3.079   5.584 -0.0078 -0.0007  0.1169
 8945SOL    HW138468   3.950   3.001   5.541  1.2038  0.7324 -2.2462
 8945SOL    HW238469   4.080   3.059   5.580 -0.3388 -1.7332  0.9743
 8946SOL     OW38470   0.385   0.370   1.510  0.1647 -0.1209 -0.6191
 8946SOL    HW138471   0.469   0.329   1.531 -1.4669 -2.0722  2.0867
 8946SOL    HW238472   0.400   0.399   1.420 -1.2314  1.0394 -0.4825
 8947SOL     OW38473   1.100   2.793   0.497 -0.1403  0.2065  0.0713
 8947SOL    HW138474   1.100   2.702   0.527  3.6514 -0.1687 -1.0384
 8947SOL    HW238475   1.051   2.781   0.416 -1.3056  1.2468  0.6188
 8948SOL     OW38476   2.932   1.466   6.116 -0.3712  0.5309 -0.5244
 8948SOL    HW138477   2.987   1.508   6.050 -0.5695 -0.4392 -1.2921
 8948SOL    HW238478   3.007   1.445   6.172 -0.7868  0.0172 -0.1682
 8949SOL     OW38479   0.993   3.812  11.803 -0.4834  0.3000 -0.1570
 8949SOL    HW138480   0.945   3.884  11.761  0.7808  1.3169  0.1568
 8949SOL    HW238481   0.971   3.741  11.743 -0.1356 -0.2622  0.3911
 8950SOL     OW38482   0.931   4.537   5.531  0.0240 -0.4133 -0.6371
 8950SOL    HW138483   0.863   4.554   5.466 -0.3528 -1.9139 -0.6290
 8950SOL    HW238484   0.984   4.470   5.488 -0.7168 -1.6952  0.4746
 8951SOL     OW38485   2.240   4.692  14.141  0.2151  0.5888  0.3288
 8951SOL    HW138486   2.201   4.665  14.058  2.4765 -0.9884 -0.2134
 8951SOL    HW238487   2.218   4.626  14.207  2.2880 -0.5868 -0.1747
 8952SOL     OW38488   4.661   0.426  15.453  0.3653 -0.5563 -0.1263
 8952SOL    HW138489   4.572   0.390  15.456 -0.6149  1.8647 -0.4517
 8952SOL    HW238490   4.663   0.490  15.524 -0.3074 -1.0021  0.2930
 8953SOL     OW38491   0.700   2.600   5.381 -0.4688  0.3220 -0.1243
 8953SOL    HW138492   0.755   2.575   5.455 -1.4229  1.3183  0.9186
 8953SOL    HW238493   0.758   2.664   5.339 -0.9028 -0.4626 -1.9339
 8954SOL     OW38494   0.657   2.798   6.449 -0.3362  0.0356 -0.8257
 8954SOL    HW138495   0.648   2.777   6.542 -1.1904  1.2044 -0.6485
 8954SOL    HW238496   0.567   2.792   6.417 -0.1280 -0.9647 -1.2207
 8955SOL     OW38497   3.878   0.200   8.927  0.0179  0.7844 -0.5139
 8955SOL    HW138498   3.960   0.204   8.976  0.3940  2.8331 -1.3085
 8955SOL    HW238499   3.870   0.279   8.874 -0.4984 -1.0580 -3.1732
 8956SOL     OW38500   0.257   0.641   2.630  0.3388  0.2623  0.0936
 8956SOL    HW138501   0.339   0.592   2.639 -0.3052 -0.8897 -0.3181
 8956SOL    HW238502   0.253   0.697   2.706 -0.0678 -1.9374  1.6991
 8957SOL     OW38503   2.549   4.105   5.042  0.1263  0.2645 -0.1227
 8957SOL    HW138504   2.591   4.022   5.020  0.0515  0.2014 -0.0263
 8957SOL    HW238505   2.630   4.157   5.046  0.4995 -0.4118  1.1574
 8958SOL     OW38506   2.879   2.625   6.599  0.2264  0.1057 -0.1560
 8958SOL    HW138507   2.843   2.709   6.627 -0.0002 -0.1256  0.2398
 8958SOL    HW238508   2.889   2.581   6.683  0.5596 -1.0556 -0.8007
 8959SOL     OW38509   0.532   2.154   8.622 -0.3046  0.3551  0.8722
 8959SOL    HW138510   0.497   2.066   8.612 -0.5789  0.4947  0.5764
 8959SOL    HW238511   0.617   2.141   8.581 -0.4166 -0.2396  0.8272
 8960SOL     OW38512   4.436   0.449   3.162 -0.3650  0.0460 -0.3287
 8960SOL    HW138513   4.460   0.412   3.077  4.8343 -0.1202  1.2202
 8960SOL    HW238514   4.429   0.543   3.146  2.6080  0.0895 -1.3330
 8961SOL     OW38515   0.739   4.623   6.548  0.1824 -0.7744  0.2547
 8961SOL    HW138516   0.671   4.559   6.565 -0.7286  0.4688  1.2818
 8961SOL    HW238517   0.817   4.584   6.588  2.1482  0.0100 -2.8062
 8962SOL     OW38518   1.798   3.073   5.819  0.1258  0.1640  0.6212
 8962SOL    HW138519   1.885   3.046   5.791  1.0098  1.7754  1.7396
 8962SOL    HW238520   1.758   2.996   5.858 -1.7290  0.5721 -0.5003
 8963SOL     OW38521   1.778   3.419   7.872 -0.4531  0.8673  0.3837
 8963SOL    HW138522   1.809   3.495   7.921 -0.0451  1.2930 -0.5407
 8963SOL    HW238523   1.849   3.409   7.808 -1.2212  2.1570 -0.6591
 8964SOL     OW38524   1.155   2.305   5.991 -0.3582 -0.1170  0.0490
 8964SOL    HW138525   1.076   2.255   5.974  2.0329 -3.7002 -0.6369
 8964SOL    HW238526   1.144   2.311   6.085 -1.0616  0.1179 -0.0469
 8965SOL     OW38527   0.273   2.020   0.898 -0.0076  0.3412 -0.7167
 8965SOL    HW138528   0.194   2.028   0.951 -0.4238 -0.2733 -1.2352
 8965SOL    HW238529   0.306   2.110   0.897  1.9460 -0.3895 -1.7890
 8966SOL     OW38530   3.334   1.016   1.689 -0.6287 -0.4835  0.5134
 8966SOL    HW138531   3.416   1.005   1.737  0.2544 -1.3726 -1.1659
 8966SOL    HW238532   3.276   0.961   1.742 -1.2056  1.4292  1.8588
 8967SOL     OW38533   2.534   1.982  15.557  0.0210 -0.2808  0.6795
 8967SOL    HW138534   2.551   2.065  15.514  0.9344 -0.4658  0.6792
 8967SOL    HW238535   2.592   1.988  15.633 -0.2316  1.7524  0.6893
 8968SOL     OW38536   2.323   2.384  12.487 -0.2008  0.0920 -0.2191
 8968SOL    HW138537   2.260   2.347  12.426 -0.4078  1.1712 -0.6663
 8968SOL    HW238538   2.354   2.464  12.444  0.7322 -1.1372 -1.8579
 8969SOL     OW38539   1.181   4.555   4.639 -0.6076 -0.0898 -0.4926
 8969SOL    HW138540   1.147   4.643   4.657  1.1082  0.4143  0.2715
 8969SOL    HW238541   1.099   4.506   4.628 -2.3886  2.6907  0.1970
 8970SOL     OW38542   3.479   0.464   2.042 -0.0583 -0.3900  0.1689
 8970SOL    HW138543   3.489   0.501   1.954 -0.5508 -0.4705  0.0815
 8970SOL    HW238544   3.535   0.387   2.039  0.2232 -0.1075 -1.8575
 8971SOL     OW38545   0.559   0.176   6.953 -0.2357 -0.3565  0.0402
 8971SOL    HW138546   0.547   0.147   7.043 -0.0503  1.8936  0.7854
 8971SOL    HW238547   0.623   0.116   6.914 -1.1849 -2.6295  1.9894
 8972SOL     OW38548   4.301   0.689   8.559  0.1858 -0.1993  0.5367
 8972SOL    HW138549   4.349   0.643   8.628 -0.0121 -1.5265 -0.2147
 8972SOL    HW238550   4.294   0.774   8.601  1.0751 -0.1876  0.6540
 8973SOL     OW38551   4.717   4.044   6.103  0.1839 -0.0519  0.3094
 8973SOL    HW138552   4.665   4.112   6.061 -0.8388  0.1755  1.9143
 8973SOL    HW238553   0.014   4.090   6.180 -1.4532  1.1511  0.3068
 8974SOL     OW38554   4.668   2.847   4.208 -0.3943  0.1215  0.3707
 8974SOL    HW138555   4.612   2.784   4.252 -1.9136  1.7240  0.7266
 8974SOL    HW238556   4.658   2.923   4.264  1.2363  1.2802 -0.8992
 8975SOL     OW38557   3.141   1.325   9.943  0.0534  0.1512  0.5233
 8975SOL    HW138558   3.171   1.393  10.003 -1.1898  0.9815  0.1933
 8975SOL    HW238559   3.105   1.382   9.875  1.1178 -0.7540 -0.8002
 8976SOL     OW38560   3.018   1.848   5.667 -0.6845  0.0712 -0.1143
 8976SOL    HW138561   3.112   1.856   5.682 -0.8388 -0.2246  1.0649
 8976SOL    HW238562   2.974   1.904   5.732 -0.0713 -2.1396  2.2136
 8977SOL     OW38563   1.943   2.366   8.588 -0.3880 -0.4655 -0.6771
 8977SOL    HW138564   1.881   2.334   8.654  1.7514 -0.0068  1.5866
 8977SOL    HW238565   1.962   2.454   8.621 -1.2555  0.4448 -2.5836
 8978SOL     OW38566   2.562   0.186   7.983  0.0988  0.5246 -0.1218
 8978SOL    HW138567   2.617   0.112   8.011 -1.4604 -0.8315 -0.6537
 8978SOL    HW238568   2.489   0.139   7.944  1.5584 -1.0103 -0.9943
 8979SOL     OW38569   2.361   4.217   7.124  0.3309  0.5900  0.0754
 8979SOL    HW138570   2.324   4.134   7.094  1.3693 -0.1457  0.8376
 8979SOL    HW238571   2.397   4.250   7.041 -0.9088 -0.0374 -0.7013
 8980SOL     OW38572   0.554   0.575   7.556  0.0604 -0.3470  0.0546
 8980SOL    HW138573   0.461   0.598   7.565 -0.1065 -0.7559 -0.6414
 8980SOL    HW238574   0.585   0.620   7.477 -4.3227  0.9610 -0.9124
 8981SOL     OW38575   4.182   1.689   2.495  0.4449  0.6184 -0.1416
 8981SOL    HW138576   4.267   1.661   2.458  0.2650 -1.8993  1.3349
 8981SOL    HW238577   4.145   1.612   2.539  1.3479  0.8228  0.9936
 8982SOL     OW38578   4.549   3.635   8.403  0.4621 -0.2647 -0.7196
 8982SOL    HW138579   4.464   3.679   8.414  0.2769 -0.9798  0.7666
 8982SOL    HW238580   4.601   3.661   8.479 -1.7965  1.0971  0.3737
 8983SOL     OW38581   4.203   2.648   4.973 -0.4296  0.4091 -0.4014
 8983SOL    HW138582   4.194   2.735   4.933  0.4633  1.1805  1.0819
 8983SOL    HW238583   4.152   2.647   5.054 -0.2010  0.6303 -0.2529
 8984SOL     OW38584   3.701   0.599  13.370  0.0882 -0.2905  0.1114
 8984SOL    HW138585   3.614   0.638  13.365  1.2533  1.8621 -3.4752
 8984SOL    HW238586   3.748   0.643  13.299  0.1131 -0.3469  0.0929
 8985SOL     OW38587   0.086   1.625  17.193  0.8427 -0.1696  0.7147
 8985SOL    HW138588   4.732   1.612  17.166  1.3141 -0.9608 -0.4865
 8985SOL    HW238589   0.073   1.627  17.288 -2.0633 -1.7373  0.3596
 8986SOL     OW38590   2.126   2.596   2.208  0.0928 -0.5681 -0.1877
 8986SOL    HW138591   2.167   2.512   2.227  0.8403 -0.3170 -0.7080
 8986SOL    HW238592   2.138   2.645   2.289 -2.2347 -2.2679  1.1873
 8987SOL     OW38593   3.536   1.872  11.991  0.7378  0.0562  0.1175
 8987SOL    HW138594   3.496   1.928  11.925  0.1034 -1.7565 -1.0452
 8987SOL    HW238595   3.515   1.912  12.075 -0.6550 -1.6277  0.5688
 8988SOL     OW38596   0.710   1.029   6.545 -0.4124 -0.0804 -0.1906
 8988SOL    HW138597   0.739   1.055   6.457  1.3416 -1.5018 -0.0360
 8988SOL    HW238598   0.761   0.949   6.559 -2.0212 -1.1079 -0.2435
 8989SOL     OW38599   2.191   3.388   2.463  0.4800  0.0656  0.2683
 8989SOL    HW138600   2.209   3.318   2.400 -0.1578  0.5871 -0.4953
 8989SOL    HW238601   2.111   3.359   2.508  0.0088  0.1355 -0.5094
 8990SOL     OW38602   1.781   2.566   3.481  0.2108  0.3833 -0.5684
 8990SOL    HW138603   1.704   2.619   3.503 -0.3662 -0.6224 -0.1563
 8990SOL    HW238604   1.753   2.475   3.490 -0.3760  0.6418  0.2474
 8991SOL     OW38605   3.113   2.964   9.230 -0.0286  0.4521 -0.8754
 8991SOL    HW138606   3.155   2.964   9.144  1.5212  1.4993 -0.0980
 8991SOL    HW238607   3.048   2.894   9.221  1.4814 -1.0464 -0.0599
 8992SOL     OW38608   2.725   3.955   5.884 -0.0602 -0.3583 -0.0871
 8992SOL    HW138609   2.630   3.957   5.882  0.0020  2.7370 -0.1031
 8992SOL    HW238610   2.737   3.907   5.965 -0.9578  1.1418  0.9346
 8993SOL     OW38611   3.803   3.873  13.877  0.4052  0.9576 -0.7751
 8993SOL    HW138612   3.840   3.829  13.953 -1.1986  0.2036 -0.4326
 8993SOL    HW238613   3.716   3.877  13.917  0.7549 -0.6896  0.1321
 8994SOL     OW38614   2.403   3.023   8.637  0.8837  0.4260 -0.1334
 8994SOL    HW138615   2.314   3.059   8.645 -0.2441 -1.7308 -2.8728
 8994SOL    HW238616   2.452   3.094   8.679  0.8399 -0.7232  1.8731
 8995SOL     OW38617   3.442   4.053   3.130 -0.2141  0.0769  0.2282
 8995SOL    HW138618   3.447   4.006   3.047 -3.4882 -2.2047  1.2834
 8995SOL    HW238619   3.377   3.995   3.170 -0.6443  0.1438 -0.3715
 8996SOL     OW38620   4.632   4.690   2.580 -0.7546 -0.3880 -0.6682
 8996SOL    HW138621   4.690   4.722   2.511  0.0496  0.8798  0.5963
 8996SOL    HW238622   4.561   0.016   2.579 -0.3147  0.1319  0.9367
 8997SOL     OW38623   4.678   2.641   5.648 -0.0163  0.2643 -0.2659
 8997SOL    HW138624   0.009   2.669   5.708  0.0551 -1.2508  0.3447
 8997SOL    HW238625   4.722   2.637   5.563  3.7413  0.6867  1.6523
 8998SOL     OW38626   0.447   3.938   8.057 -0.1316 -0.0230 -0.0352
 8998SOL    HW138627   0.354   3.959   8.057 -0.2774 -0.6674 -1.2557
 8998SOL    HW238628   0.438   3.845   8.037  1.0963  0.0915 -1.0990
 8999SOL     OW38629   0.700   3.774   7.353 -0.0207  0.2991 -0.1170
 8999SOL    HW138630   0.640   3.778   7.278  0.0475 -0.2694 -0.1977
 8999SOL    HW238631   0.749   3.855   7.343 -2.0563  1.4607 -0.7087
 9000SOL     OW38632   2.212   2.410  17.102  0.1083 -0.6187 -0.7886
 9000SOL    HW138633   2.135   2.450  17.143 -1.3126 -0.5938 -3.5078
 9000SOL    HW238634   2.176   2.327  17.072  0.7560 -1.2079  0.0490
 9001SOL     OW38635   1.162   2.514  13.318  0.6197  0.4559  0.6053
 9001SOL    HW138636   1.209   2.596  13.334  0.1729  0.5538  1.4405
 9001SOL    HW238637   1.100   2.548  13.253  1.2668 -0.4335 -0.4753
 9002SOL     OW38638   0.180   0.651   2.071 -0.2517  0.3666 -0.0815
 9002SOL    HW138639   0.172   0.736   2.028  0.3012  2.3351  3.6366
 9002SOL    HW238640   0.233   0.600   2.010  1.2547  0.4342  1.1451
 9003SOL     OW38641   0.640   4.393   8.238 -0.4441  0.1435  0.0665
 9003SOL    HW138642   0.567   4.449   8.212 -0.0956  2.1440  3.5471
 9003SOL    HW238643   0.600   4.306   8.230 -0.3384  0.2871 -2.1139
 9004SOL     OW38644   0.841   0.081   1.306  0.9121  0.0837 -0.3583
 9004SOL    HW138645   0.915   0.041   1.261 -0.8559  0.1391 -3.2933
 9004SOL    HW238646   0.885   0.111   1.386  1.0600 -2.0177  0.3538
 9005SOL     OW38647   0.045   1.284   8.066 -0.0500  0.3771 -0.6730
 9005SOL    HW138648   0.074   1.243   8.147  1.0722  0.4700 -1.0204
 9005SOL    HW238649   0.103   1.242   8.002  0.4618  1.5995 -1.0318
 9006SOL     OW38650   0.798   1.418  17.021 -0.0381 -0.4073 -0.3187
 9006SOL    HW138651   0.759   1.492  16.973 -0.0841 -0.2486 -0.0339
 9006SOL    HW238652   0.723   1.362  17.039  2.3919 -1.8254  5.1950
 9007SOL     OW38653   4.589   0.639   4.075  0.3775 -0.1675 -0.3540
 9007SOL    HW138654   4.651   0.589   4.021 -0.0383  0.3626 -1.3176
 9007SOL    HW238655   4.508   0.593   4.049 -0.3135  1.1616 -0.5261
 9008SOL     OW38656   0.865   2.592  13.596  0.0828  0.0032 -0.4545
 9008SOL    HW138657   0.927   2.665  13.597  0.7009 -0.5339  0.6700
 9008SOL    HW238658   0.851   2.569  13.504  1.0615 -1.4041 -0.2569
 9009SOL     OW38659   3.458   2.012  10.208 -0.2069  0.3330  0.4536
 9009SOL    HW138660   3.417   1.930  10.234  0.1814 -0.4935 -1.5634
 9009SOL    HW238661   3.403   2.029  10.132 -0.3209 -0.3164  0.3883
 9010SOL     OW38662   0.063   4.082   8.542  0.8034 -0.6011  0.2430
 9010SOL    HW138663   4.723   4.053   8.590  1.2346  1.2978  2.0943
 9010SOL    HW238664   0.050   4.176   8.527 -1.1723 -0.8858  0.1072
 9011SOL     OW38665   1.088   1.354   0.619  0.0197  0.1966  0.1201
 9011SOL    HW138666   1.130   1.270   0.640 -1.5128 -0.5053  0.4206
 9011SOL    HW238667   1.150   1.414   0.661  1.5081 -1.9282  0.9991
 9012SOL     OW38668   2.147   2.322   9.151 -0.0795  0.3132 -0.1078
 9012SOL    HW138669   2.064   2.369   9.157  1.7585  3.6646 -1.1092
 9012SOL    HW238670   2.125   2.242   9.200  1.7179  0.5289  1.0555
 9013SOL     OW38671   2.295   0.718   6.398 -0.1099  0.0823  0.0028
 9013SOL    HW138672   2.356   0.710   6.471  0.1557  0.2547 -0.2003
 9013SOL    HW238673   2.318   0.642   6.345  0.4093  0.0944  0.2047
 9014SOL     OW38674   2.580   4.484  12.943 -0.2517  0.4351 -0.6399
 9014SOL    HW138675   2.641   4.461  13.013  1.0225 -1.2249 -2.3380
 9014SOL    HW238676   2.650   4.490  12.878  0.5126  2.8259  0.3885
 9015SOL     OW38677   3.305   3.915   8.544 -0.1593  0.4442 -0.3692
 9015SOL    HW138678   3.351   3.886   8.623 -0.3210  0.1165 -0.3945
 9015SOL    HW238679   3.363   3.892   8.472 -0.0469 -0.6138  0.0653
 9016SOL     OW38680   3.729   0.520   5.389 -0.2294  0.2238 -0.2950
 9016SOL    HW138681   3.763   0.538   5.301  0.5468 -1.4274 -0.3349
 9016SOL    HW238682   3.813   0.493   5.426 -0.1515  0.2992 -0.4154
 9017SOL     OW38683   1.670   2.518   8.858  0.3851  0.3981  0.5894
 9017SOL    HW138684   1.750   2.569   8.872 -0.4638  1.6964  0.6714
 9017SOL    HW238685   1.701   2.428   8.849  1.5072  0.6677  1.7117
 9018SOL     OW38686   3.842   4.642   2.220  0.0199  0.1306  0.0945
 9018SOL    HW138687   3.774   4.708   2.234  1.3174  1.4445  0.1839
 9018SOL    HW238688   3.834   4.592   2.301  0.2585 -0.0614 -0.0012
 9019SOL     OW38689   1.387   0.718   2.898 -0.4335 -0.0711  0.1726
 9019SOL    HW138690   1.435   0.799   2.879 -0.0904 -0.2220  0.3984
 9019SOL    HW238691   1.444   0.671   2.959  0.6325  0.3448 -0.5094
 9020SOL     OW38692   3.958   4.191   5.866  0.0075  1.1057 -0.2098
 9020SOL    HW138693   3.983   4.207   5.957 -1.4741 -0.2155  0.4354
 9020SOL    HW238694   3.863   4.189   5.879  0.1912 -0.3679  0.8716
 9021SOL     OW38695   3.667   1.592  11.285  0.4842  0.1801 -0.1096
 9021SOL    HW138696   3.722   1.514  11.281  2.4679  1.7207 -2.9429
 9021SOL    HW238697   3.614   1.579  11.207 -0.1354  0.5419  0.2545
 9022SOL     OW38698   0.260   3.938   0.298  0.0350 -0.0216 -0.2334
 9022SOL    HW138699   0.354   3.956   0.297  0.2349 -1.0616 -0.0065
 9022SOL    HW238700   0.245   3.852   0.338 -0.9441 -0.4232 -1.4730
 9023SOL     OW38701   0.512   1.890   4.334 -0.2576  0.4927 -0.3864
 9023SOL    HW138702   0.445   1.830   4.369 -1.5371  1.2850 -1.4616
 9023SOL    HW238703   0.473   1.976   4.352  3.4491  1.6971  1.9648
 9024SOL     OW38704   3.376   0.071   7.594  0.1120 -0.0696 -0.0040
 9024SOL    HW138705   3.299   0.042   7.545  0.0547 -1.6200  1.0326
 9024SOL    HW238706   3.410   0.130   7.527  2.6791  0.6166  1.9224
 9025SOL     OW38707   4.479   3.856  14.736  0.2434 -0.9527  0.6423
 9025SOL    HW138708   4.385   3.874  14.741  0.9758  1.8306  4.1660
 9025SOL    HW238709   4.480   3.803  14.816 -1.3423 -1.6476  0.2032
 9026SOL     OW38710   3.428   2.236   7.735  0.2720 -0.5930  0.1495
 9026SOL    HW138711   3.453   2.210   7.824 -0.1630  1.0486  0.7533
 9026SOL    HW238712   3.348   2.286   7.755 -0.4459 -2.2652  1.4272
 9027SOL     OW38713   3.626   1.185  16.510  0.1765  0.4754  0.1569
 9027SOL    HW138714   3.581   1.176  16.426  0.7678  1.3352 -0.2565
 9027SOL    HW238715   3.694   1.120  16.490  0.6672  1.1506 -0.3559
 9028SOL     OW38716   3.160   3.577  16.865  0.2216 -0.7669 -0.3431
 9028SOL    HW138717   3.093   3.596  16.800 -0.9209 -0.0478  1.0463
 9028SOL    HW238718   3.236   3.584  16.806 -0.1032  0.6327 -0.5850
 9029SOL     OW38719   0.704   4.436   3.376  0.0221 -0.4922  0.0895
 9029SOL    HW138720   0.739   4.377   3.443 -0.4482  0.8491  1.5031
 9029SOL    HW238721   0.718   4.520   3.419  0.1707 -1.2670  1.5343
 9030SOL     OW38722   3.806   1.456   1.943  0.4933 -0.6786  0.0292
 9030SOL    HW138723   3.826   1.416   1.859 -1.6841  1.9989 -1.7631
 9030SOL    HW238724   3.850   1.397   2.004 -1.4912 -3.7924 -1.5876
 9031SOL     OW38725   1.104   3.424   8.306  0.2847  0.2717  0.6028
 9031SOL    HW138726   1.021   3.430   8.258  0.2205 -4.0548  0.1728
 9031SOL    HW238727   1.071   3.396   8.391 -0.8188  0.8166  0.3560
 9032SOL     OW38728   1.253   0.022   0.059 -0.2660 -0.6258  0.0330
 9032SOL    HW138729   1.304   0.069  17.741  0.7994 -1.9616 -0.1196
 9032SOL    HW238730   1.314   4.687   0.075  1.8390  1.0777 -0.3337
 9033SOL     OW38731   3.403   4.225   1.252 -0.1355 -0.5848  0.1593
 9033SOL    HW138732   3.323   4.183   1.283  0.5746 -1.5629  0.6774
 9033SOL    HW238733   3.403   4.301   1.310  1.5816  0.5912 -1.3808
 9034SOL     OW38734   4.640   3.760   8.630  0.1063 -0.1014 -0.1263
 9034SOL    HW138735   4.610   3.846   8.659 -0.1066 -0.5528  1.0068
 9034SOL    HW238736   4.579   3.711   8.685 -0.2895  1.5911  0.9574
 9035SOL     OW38737   3.754   0.341  10.180  0.3764 -0.5451 -0.1374
 9035SOL    HW138738   3.837   0.342  10.227  1.3964 -0.1411 -1.9391
 9035SOL    HW238739   3.731   0.248  10.189  1.1215 -1.0480 -3.5239
 9036SOL     OW38740   1.642   3.066  14.327  0.2219  0.3817  0.6535
 9036SOL    HW138741   1.617   2.974  14.322  1.6510 -0.0672  1.7659
 9036SOL    HW238742   1.691   3.064  14.245 -0.7751 -0.9381  0.1023
 9037SOL     OW38743   2.927   2.083   3.187  0.1003  0.0108 -0.2025
 9037SOL    HW138744   2.912   2.009   3.247 -2.0087 -0.3019 -1.0935
 9037SOL    HW238745   2.991   2.133   3.237 -0.2282  1.4103 -1.1925
 9038SOL     OW38746   2.736   2.231  12.085 -0.5471  0.7053 -0.0860
 9038SOL    HW138747   2.807   2.269  12.033  0.4813 -0.7054  0.2821
 9038SOL    HW238748   2.767   2.142  12.103  0.5722  0.8999 -1.0579
 9039SOL     OW38749   4.049   3.446  16.601  0.1898 -0.2282  0.2851
 9039SOL    HW138750   4.041   3.474  16.509 -2.4045 -1.6687  0.0697
 9039SOL    HW238751   4.072   3.530  16.641  1.9193 -0.5187 -0.0988
 9040SOL     OW38752   2.294   0.335   8.896 -0.4345 -0.4655  0.2842
 9040SOL    HW138753   2.313   0.280   8.821 -0.1416  1.1595 -0.8181
 9040SOL    HW238754   2.222   0.390   8.866  0.8748  0.3717 -1.2852
 9041SOL     OW38755   1.651   2.683   6.446  0.5496  0.7153 -0.0069
 9041SOL    HW138756   1.699   2.620   6.392 -0.3457  0.3174 -0.3429
 9041SOL    HW238757   1.704   2.761   6.428 -0.2853  1.1694 -0.4950
 9042SOL     OW38758   4.099   0.209   9.050  0.1895 -0.5558 -0.1126
 9042SOL    HW138759   4.171   0.216   8.988  0.6408  0.9771  0.5676
 9042SOL    HW238760   4.149   0.216   9.132  0.0946 -1.1174 -0.0013
 9043SOL     OW38761   2.918   3.000   4.991 -0.1540 -0.1138  0.2325
 9043SOL    HW138762   2.862   2.924   5.008 -1.8328  0.2576 -3.8890
 9043SOL    HW238763   2.856   3.069   4.968  2.0024  2.2291  1.4781
 9044SOL     OW38764   1.570   4.714  11.565 -0.2671 -0.1184 -0.4944
 9044SOL    HW138765   1.642   4.733  11.626 -1.4149  1.4578  0.3818
 9044SOL    HW238766   1.591   0.022  11.484  0.5248  0.9577  0.2989
 9045SOL     OW38767   1.268   2.825   3.599 -1.0281  0.5431 -0.1190
 9045SOL    HW138768   1.230   2.758   3.655 -2.7797  0.0688 -1.8714
 9045SOL    HW238769   1.273   2.898   3.661 -2.9248  0.2779  0.3154
 9046SOL     OW38770   2.446   3.487   5.771 -0.3202 -0.0376  0.2485
 9046SOL    HW138771   2.479   3.402   5.741 -0.4904 -0.4953  1.3467
 9046SOL    HW238772   2.502   3.558   5.741  0.2198 -1.2737 -1.6455
 9047SOL     OW38773   2.783   1.377  13.802  0.4035  0.6312  0.2753
 9047SOL    HW138774   2.728   1.417  13.734 -0.3228 -0.7191  0.0740
 9047SOL    HW238775   2.802   1.291  13.764 -0.3703  0.5071  0.1847
 9048SOL     OW38776   2.769   0.629  11.211 -0.1003 -0.2301  0.4991
 9048SOL    HW138777   2.686   0.652  11.171  0.6679 -2.7828 -2.6021
 9048SOL    HW238778   2.738   0.637  11.301 -1.1824  0.6196  0.0461
 9049SOL     OW38779   2.970   3.141   8.094 -0.7615 -0.2467  0.0239
 9049SOL    HW138780   2.906   3.077   8.126  0.1243  0.2721  2.8571
 9049SOL    HW238781   2.975   3.211   8.160 -0.9935 -0.1891 -0.0197
 9050SOL     OW38782   3.191   1.004   5.565  0.2952 -0.4291 -0.7544
 9050SOL    HW138783   3.108   0.981   5.522 -0.1795  1.5865 -0.9067
 9050SOL    HW238784   3.213   0.929   5.620 -0.3524 -2.6986 -3.5391
 9051SOL     OW38785   3.179   3.275   0.235  0.1076  0.3064 -0.2953
 9051SOL    HW138786   3.247   3.218   0.269 -0.1415  0.2923  0.1777
 9051SOL    HW238787   3.098   3.235   0.269 -1.2657  2.2025 -1.3102
 9052SOL     OW38788   2.753   0.302  14.631 -0.4755 -0.5712  0.0968
 9052SOL    HW138789   2.730   0.358  14.557  1.3847  0.2908  0.1682
 9052SOL    HW238790   2.811   0.360  14.680 -0.2926 -0.2583 -0.4989
 9053SOL     OW38791   2.731   2.043   9.548 -0.1494 -0.2226  0.2871
 9053SOL    HW138792   2.811   2.056   9.497  1.2842 -1.0900  2.2755
 9053SOL    HW238793   2.663   2.059   9.484 -0.0384  1.3537  0.5549
 9054SOL     OW38794   4.536   1.076  11.082 -0.5226 -0.0485 -0.0988
 9054SOL    HW138795   4.599   1.005  11.087 -1.3600 -0.7504  0.5817
 9054SOL    HW238796   4.459   1.027  11.054 -0.0799 -1.8054  1.7403
 9055SOL     OW38797   1.286   2.260   9.040  0.3114  0.2867  0.3280
 9055SOL    HW138798   1.377   2.234   9.028  0.1596 -1.1716  2.4300
 9055SOL    HW238799   1.234   2.182   9.056  0.7595  0.2088  1.4145
 9056SOL     OW38800   1.512   4.057   3.789  0.1730 -0.0382  0.3868
 9056SOL    HW138801   1.440   4.025   3.843  2.0836 -2.1279  1.7184
 9056SOL    HW238802   1.570   4.113   3.842  1.4271 -1.8975  1.0019
 9057SOL     OW38803   0.592   2.489   2.356  0.0857 -0.4508  0.1008
 9057SOL    HW138804   0.531   2.562   2.355 -0.3051 -0.7705  0.4484
 9057SOL    HW238805   0.631   2.496   2.443  1.5609 -1.1698 -0.4924
 9058SOL     OW38806   4.060   1.232   2.828  0.1438  0.5516  0.5353
 9058SOL    HW138807   4.103   1.317   2.816 -0.6562  1.1312  1.6907
 9058SOL    HW238808   3.982   1.254   2.777  1.8442 -0.9645 -2.6982
 9059SOL     OW38809   2.626   0.434   5.419  0.2893  0.4081 -0.5028
 9059SOL    HW138810   2.708   0.474   5.393  1.0355  0.7317  2.4172
 9059SOL    HW238811   2.652   0.376   5.490 -0.0116 -0.2192 -0.9055
 9060SOL     OW38812   4.581   1.491   8.991  0.2375  0.3426 -0.0878
 9060SOL    HW138813   4.676   1.490   8.980 -0.0173  3.8219 -2.4870
 9060SOL    HW238814   4.561   1.584   8.998  1.3642  0.6359 -0.9097
 9061SOL     OW38815   0.180   3.880   8.382  0.5670 -0.1748  0.4327
 9061SOL    HW138816   0.137   3.934   8.448  1.6328  0.9465  0.1943
 9061SOL    HW238817   0.107   3.878   8.320  0.7682  2.8525  0.1118
 9062SOL     OW38818   1.578   3.418   4.398 -0.0037  0.0022  0.0209
 9062SOL    HW138819   1.612   3.445   4.313  0.5103 -2.8241 -0.6634
 9062SOL    HW238820   1.664   3.421   4.441  0.2687 -0.3444 -0.5099
 9063SOL     OW38821   3.795   2.203  16.812 -0.6928  0.1379 -0.3913
 9063SOL    HW138822   3.884   2.221  16.841 -0.4160  0.5892 -1.4983
 9063SOL    HW238823   3.776   2.117  16.849  2.5914 -0.2393  0.4216
 9064SOL     OW38824   2.696   2.280   0.521 -0.5439 -0.4875 -1.2304
 9064SOL    HW138825   2.639   2.225   0.575 -2.7963  0.1414 -2.9330
 9064SOL    HW238826   2.667   2.246   0.437  0.9348 -1.1636 -1.4603
 9065SOL     OW38827   0.730   3.078   5.155 -0.1028  0.1292 -0.4415
 9065SOL    HW138828   0.822   3.098   5.136 -0.0111  1.6415  1.6857
 9065SOL    HW238829   0.702   3.169   5.158  0.5513  0.3528 -0.9405
 9066SOL     OW38830   3.815   0.950   3.179 -0.2239 -0.1905 -0.2225
 9066SOL    HW138831   3.821   0.976   3.271 -3.6771 -1.8774  0.4751
 9066SOL    HW238832   3.873   1.014   3.137 -0.0192 -0.5020 -0.4137
 9067SOL     OW38833   4.401   0.861   3.574  0.4467 -0.5168 -0.5619
 9067SOL    HW138834   4.489   0.877   3.538  1.3135  0.5665  1.9969
 9067SOL    HW238835   4.385   0.940   3.626 -0.4584 -0.6736 -0.6032
 9068SOL     OW38836   3.885   1.091   5.030  0.3828  0.3108 -0.7086
 9068SOL    HW138837   3.811   1.146   5.005 -1.3230 -0.9196  1.5582
 9068SOL    HW238838   3.964   1.129   4.991  0.5938 -0.4304 -1.0168
 9069SOL     OW38839   1.219   2.901  13.037  0.4495  0.3594  0.0630
 9069SOL    HW138840   1.167   2.967  12.991 -1.4511  1.0984  3.2157
 9069SOL    HW238841   1.195   2.934  13.124 -2.3625  0.8179 -0.9203
 9070SOL     OW38842   1.326   2.129  10.385  0.4999  0.0937 -0.0879
 9070SOL    HW138843   1.323   2.176  10.302 -0.9926  1.3936  0.6889
 9070SOL    HW238844   1.286   2.050  10.352  0.8303 -0.6396  1.2522
 9071SOL     OW38845   2.642   0.470   8.567  0.5487  0.5585 -0.3999
 9071SOL    HW138846   2.679   0.550   8.530 -0.3806  1.0050 -0.3463
 9071SOL    HW238847   2.563   0.507   8.606  0.5556  0.9155 -0.7178
 9072SOL     OW38848   2.434   3.188   2.804  0.0224  0.2224 -0.1377
 9072SOL    HW138849   2.412   3.152   2.718  0.5192 -2.3967  0.8448
 9072SOL    HW238850   2.461   3.279   2.792  0.9643  0.3071  2.4857
 9073SOL     OW38851   4.444   1.595  16.527 -0.1025 -0.3984 -0.3805
 9073SOL    HW138852   4.472   1.684  16.547  1.4617 -0.9076 -0.3611
 9073SOL    HW238853   4.350   1.609  16.544  0.2657  1.3705  0.2430
 9074SOL     OW38854   0.545   4.633  12.757 -0.3369 -0.2819  0.0321
 9074SOL    HW138855   0.453   4.655  12.742 -0.4304  0.0632  1.0614
 9074SOL    HW238856   0.541   4.635  12.853  2.2630 -0.5292  0.1369
 9075SOL     OW38857   3.260   2.754   4.502 -0.1424  0.6602 -0.0714
 9075SOL    HW138858   3.261   2.765   4.407 -2.4046  2.3173  0.0918
 9075SOL    HW238859   3.344   2.793   4.526 -0.4003  1.0710  0.1687
 9076SOL     OW38860   3.424   3.766   4.512  0.0219 -0.4562  0.2348
 9076SOL    HW138861   3.344   3.770   4.459 -1.4427  0.3317  2.5466
 9076SOL    HW238862   3.397   3.777   4.603  1.5002 -1.9136  0.8493
 9077SOL     OW38863   4.045   0.164  14.693  0.0351 -0.1073  0.1493
 9077SOL    HW138864   3.968   0.120  14.657  0.6747 -0.9905 -0.1325
 9077SOL    HW238865   3.987   0.229  14.733 -0.1321 -1.2543  1.7206
 9078SOL     OW38866   2.882   1.988   9.982  0.3132 -0.1196 -0.3292
 9078SOL    HW138867   2.856   2.076   9.954  0.9906  0.9255  2.3080
 9078SOL    HW238868   2.808   1.938   9.949  0.2801  0.8125 -1.6962
 9079SOL     OW38869   1.728   2.359   1.135 -0.3560 -0.0076 -0.4696
 9079SOL    HW138870   1.642   2.379   1.173 -1.3278 -0.9874 -2.1395
 9079SOL    HW238871   1.779   2.416   1.192 -0.8006  0.3089 -0.3831
 9080SOL     OW38872   3.124   1.600   1.344  0.5263 -0.3429 -0.2353
 9080SOL    HW138873   3.092   1.529   1.399 -1.7806  1.7511  1.1569
 9080SOL    HW238874   3.039   1.613   1.302  0.6386 -1.0377 -0.6661
 9081SOL     OW38875   4.211   2.528   2.645  0.5575  0.0689  0.3652
 9081SOL    HW138876   4.243   2.618   2.654  1.9203 -0.5658  1.8201
 9081SOL    HW238877   4.252   2.476   2.714  0.6169 -1.1013 -0.5378
 9082SOL     OW38878   3.389   1.876   1.909  0.1432 -0.1565 -0.0869
 9082SOL    HW138879   3.437   1.915   1.982 -0.3693 -1.1303  0.7754
 9082SOL    HW238880   3.446   1.880   1.833 -0.1458  3.9535 -0.1147
 9083SOL     OW38881   0.208   2.669  11.917 -0.4001  0.2244  0.2214
 9083SOL    HW138882   0.120   2.666  11.955 -0.7736 -1.1567 -0.7311
 9083SOL    HW238883   0.198   2.722  11.837  0.7955 -0.6740 -0.5145
 9084SOL     OW38884   0.874   4.041   0.441 -0.5066  0.1439  0.3677
 9084SOL    HW138885   0.857   4.116   0.498  0.1372  1.5197 -1.2577
 9084SOL    HW238886   0.831   3.974   0.494 -0.7618 -1.2314 -1.5712
 9085SOL     OW38887   3.188   3.153  15.531 -0.6390 -0.4484 -0.5717
 9085SOL    HW138888   3.217   3.062  15.541  1.6978  0.4043  0.4194
 9085SOL    HW238889   3.270   3.199  15.550 -0.9893 -0.2392  0.4546
 9086SOL     OW38890   0.790   1.319   5.201 -0.0748  0.0457 -0.3949
 9086SOL    HW138891   0.828   1.238   5.233 -3.2949 -1.1492  0.3543
 9086SOL    HW238892   0.747   1.356   5.278  1.1431  1.7740 -0.5376
 9087SOL     OW38893   2.372   3.340   8.850 -0.4472  0.0611 -0.2162
 9087SOL    HW138894   2.317   3.414   8.874 -0.9493  0.1004 -1.4881
 9087SOL    HW238895   2.331   3.273   8.904 -0.3315 -0.4019 -0.6991
 9088SOL     OW38896   3.502   3.959   3.515 -0.0819  0.0920 -0.1426
 9088SOL    HW138897   3.570   3.997   3.460  1.2576 -4.0441 -1.3257
 9088SOL    HW238898   3.552   3.909   3.579 -3.1944 -0.8807  1.5407
 9089SOL     OW38899   1.891   4.482  13.256  0.0575 -0.2710 -0.4759
 9089SOL    HW138900   1.893   4.452  13.165  2.7823  1.1413 -0.8938
 9089SOL    HW238901   1.963   4.545  13.253  0.6303 -1.0439 -3.3636
 9090SOL     OW38902   4.302   3.908   5.422  0.2939  0.4840  0.1432
 9090SOL    HW138903   4.212   3.916   5.455 -0.1860  1.9241 -1.5634
 9090SOL    HW238904   4.345   3.984   5.460  0.9422 -0.7317  1.8513
 9091SOL     OW38905   1.698   2.486   6.945  0.2406  0.1195 -0.4016
 9091SOL    HW138906   1.718   2.436   6.866 -1.1259  0.8765 -1.2291
 9091SOL    HW238907   1.603   2.481   6.946  0.2541 -0.2219 -0.9142
 9092SOL     OW38908   2.815   3.258   7.009 -0.1856  0.4430  0.4662
 9092SOL    HW138909   2.761   3.323   7.054  0.5924  0.7511  0.9549
 9092SOL    HW238910   2.765   3.177   7.016  0.2368  0.2453  1.2550
 9093SOL     OW38911   4.027   2.009   3.012  0.1967  0.2449  0.4278
 9093SOL    HW138912   4.112   2.003   3.055 -0.0144 -1.3525  0.6362
 9093SOL    HW238913   4.032   2.090   2.961 -0.6166  0.2283  0.3309
 9094SOL     OW38914   3.332   2.564  13.332  0.0902 -0.1429 -0.2138
 9094SOL    HW138915   3.309   2.646  13.376  2.8764  1.0205 -0.9227
 9094SOL    HW238916   3.408   2.590  13.279  0.5015 -2.1420 -0.6294
 9095SOL     OW38917   1.288   4.331   4.841  0.3056 -0.0124  0.2605
 9095SOL    HW138918   1.377   4.364   4.853  0.7799 -0.5889 -1.6495
 9095SOL    HW238919   1.282   4.336   4.746  1.5723  0.2291  0.1980
 9096SOL     OW38920   1.050   2.042  16.602 -0.0193 -0.0118  0.1732
 9096SOL    HW138921   1.089   2.127  16.623  0.6323 -0.3338  0.2672
 9096SOL    HW238922   1.107   1.984  16.654 -0.7728 -0.7230  0.2106
 9097SOL     OW38923   3.114   0.392   2.388 -0.2181 -0.4086 -0.6281
 9097SOL    HW138924   3.058   0.362   2.316 -2.8206  1.0550  0.8137
 9097SOL    HW238925   3.072   0.475   2.410 -0.6154 -0.9513  0.6716
 9098SOL     OW38926   1.012   0.850   5.317 -0.4204  0.1323 -0.2180
 9098SOL    HW138927   0.937   0.796   5.292  0.1620 -0.6252 -0.3455
 9098SOL    HW238928   1.079   0.829   5.252 -1.5307  0.4190 -1.4503
 9099SOL     OW38929   2.895   2.024  10.674 -0.0479  0.1390  0.7822
 9099SOL    HW138930   2.990   2.026  10.660 -0.2568  3.5793 -0.1636
 9099SOL    HW238931   2.904   1.977  10.756  0.6088  1.6643  1.5910
 9100SOL     OW38932   4.699   2.150   6.604 -0.0285  0.3096  0.3991
 9100SOL    HW138933   4.699   2.229   6.659  0.4610  0.3202  0.3796
 9100SOL    HW238934   0.033   2.177   6.547 -0.8040 -1.4960 -1.3988
 9101SOL     OW38935   1.173   4.098   4.886 -0.0200 -0.1656  0.7297
 9101SOL    HW138936   1.188   4.191   4.871 -1.4709 -0.2202 -1.1788
 9101SOL    HW238937   1.260   4.064   4.863 -0.5156  0.0122 -1.4008
 9102SOL     OW38938   0.102   1.188   4.534 -0.0762  0.3949 -0.1727
 9102SOL    HW138939   0.055   1.234   4.464 -0.2676  0.7361  0.1758
 9102SOL    HW238940   0.034   1.140   4.582  1.1365  0.2288  1.3850
 9103SOL     OW38941   0.608   2.372   2.651  0.2247 -0.0672  0.2145
 9103SOL    HW138942   0.591   2.316   2.726 -2.1932  2.5296  1.6060
 9103SOL    HW238943   0.551   2.320   2.593  1.1235 -0.2919 -0.4609
 9104SOL     OW38944   3.998   2.571   2.195  0.6513 -0.0025  0.5672
 9104SOL    HW138945   3.964   2.626   2.266 -0.3810 -0.3712  0.3533
 9104SOL    HW238946   3.938   2.595   2.124  0.4834  0.6399  0.9271
 9105SOL     OW38947   3.528   2.861   4.907  0.1214 -0.5135  0.4194
 9105SOL    HW138948   3.480   2.923   4.852  1.2149 -0.3748 -0.3917
 9105SOL    HW238949   3.567   2.923   4.969  0.7398  0.7942 -1.2728
 9106SOL     OW38950   2.292   3.876   7.164  0.1351  0.4582  0.0296
 9106SOL    HW138951   2.255   3.799   7.120 -2.7327  1.6180  0.4011
 9106SOL    HW238952   2.285   3.858   7.258  2.4237  0.7971  0.2748
 9107SOL     OW38953   3.038   2.545   4.513  0.7484 -0.0701 -0.3702
 9107SOL    HW138954   3.086   2.494   4.447  0.2930 -1.5946  0.4711
 9107SOL    HW238955   3.088   2.625   4.529 -1.8937  1.2998  0.9103
 9108SOL     OW38956   1.520   3.834   9.609 -0.4080  0.0477 -0.5658
 9108SOL    HW138957   1.578   3.765   9.642 -0.7990  0.9135  1.9270
 9108SOL    HW238958   1.427   3.809   9.607 -0.9561  2.0647  0.3274
 9109SOL     OW38959   0.801   3.136   5.776 -0.6093  0.0944  0.3437
 9109SOL    HW138960   0.859   3.209   5.756 -2.1150  1.3286  0.5561
 9109SOL    HW238961   0.780   3.143   5.869  0.1859 -2.9521  0.7784
 9110SOL     OW38962   3.345   2.487   2.068  0.0144  0.0191  0.2460
 9110SOL    HW138963   3.270   2.429   2.080 -0.1077  0.4004  1.3321
 9110SOL    HW238964   3.338   2.519   1.978  1.0591  0.3356  0.2765
 9111SOL     OW38965   0.962   0.250   6.786 -0.0343  0.3478 -0.2808
 9111SOL    HW138966   0.963   0.345   6.789 -0.5340  0.3729 -0.9365
 9111SOL    HW238967   0.899   0.236   6.715 -0.6036  0.4924  0.2007
 9112SOL     OW38968   3.446   1.372   3.495 -0.2597  0.6622  0.1319
 9112SOL    HW138969   3.398   1.401   3.572  1.2870  1.5420  0.7575
 9112SOL    HW238970   3.424   1.278   3.495 -1.2237  0.8952  1.6753
 9113SOL     OW38971   3.265   4.231   5.214  0.4529 -0.0031 -0.4002
 9113SOL    HW138972   3.185   4.224   5.266  1.3116  1.6406  1.1604
 9113SOL    HW238973   3.251   4.179   5.136 -0.9897 -0.9470  0.4843
 9114SOL     OW38974   4.256   1.330   1.882  0.3856  0.0880 -0.0739
 9114SOL    HW138975   4.291   1.412   1.847 -2.3853  1.0491 -0.6117
 9114SOL    HW238976   4.285   1.265   1.818 -4.5390 -0.5517 -1.6589
 9115SOL     OW38977   4.590   3.564   4.916 -0.0943 -0.1042 -0.3994
 9115SOL    HW138978   4.516   3.504   4.900  0.5646 -1.1800  0.5960
 9115SOL    HW238979   4.657   3.528   4.859 -1.2339 -2.2327 -0.4217
 9116SOL     OW38980   4.651   0.761   8.615  0.5962 -0.1548  0.2550
 9116SOL    HW138981   4.711   0.686   8.611  2.3307  1.1691  1.5792
 9116SOL    HW238982   4.595   0.743   8.690 -1.4236 -1.2768 -1.5205
 9117SOL     OW38983   1.383   1.597  16.545  0.0036 -0.0613 -0.1414
 9117SOL    HW138984   1.350   1.508  16.558 -0.9664  0.7051  2.7584
 9117SOL    HW238985   1.395   1.600  16.450 -0.0298 -0.3609 -0.1545
 9118SOL     OW38986   3.652   2.543   5.654  0.6759  0.3619 -0.1597
 9118SOL    HW138987   3.695   2.628   5.661 -0.4851  0.9607 -0.3602
 9118SOL    HW238988   3.624   2.557   5.563 -0.1242  4.2584  0.6764
 9119SOL     OW38989   3.243   0.338   4.186 -0.0926  0.0534 -0.3412
 9119SOL    HW138990   3.316   0.277   4.193 -0.7860 -0.7355 -0.0693
 9119SOL    HW238991   3.248   0.384   4.270 -1.0320  1.3569 -1.0024
 9120SOL     OW38992   1.048   4.383   0.060  0.4648  0.3727  0.7371
 9120SOL    HW138993   1.004   4.309   0.102  1.6104 -0.9728 -0.4236
 9120SOL    HW238994   1.105   4.416   0.129  2.5169 -1.1751 -0.2139
 9121SOL     OW38995   0.029   3.314   2.905  0.0111  0.3027  0.2329
 9121SOL    HW138996   0.050   3.222   2.922  1.8121  0.9220  1.2948
 9121SOL    HW238997   0.092   3.365   2.956 -0.1512  1.5844 -0.8323
 9122SOL     OW38998   3.599   1.511   8.845  0.0172  0.4590  0.1615
 9122SOL    HW138999   3.649   1.528   8.765  0.8848 -1.1083  0.3732
 9122SOL    HW239000   3.654   1.453   8.898  0.8083 -0.5723 -1.7899
 9123SOL     OW39001   2.926   2.356   7.937  0.3408 -0.0338  0.3205
 9123SOL    HW139002   2.905   2.294   8.007 -1.8330 -0.1483 -0.4459
 9123SOL    HW239003   2.954   2.438   7.978  0.1613  0.1644  0.0477
 9124SOL     OW39004   2.174   2.533   3.203 -0.4319 -0.0526  0.5779
 9124SOL    HW139005   2.131   2.461   3.248  1.3931 -0.4295  1.7247
 9124SOL    HW239006   2.139   2.610   3.248  1.2952  1.3268 -0.4506
 9125SOL     OW39007   2.789   2.979   9.413 -0.1735 -0.0626 -0.2928
 9125SOL    HW139008   2.751   2.914   9.472  0.3921 -2.1217 -2.1741
 9125SOL    HW239009   2.781   3.062   9.461 -0.2737 -0.0838 -0.2739
 9126SOL     OW39010   1.638   3.681   8.246 -0.0351  0.5561  0.0045
 9126SOL    HW139011   1.590   3.598   8.239  0.6362  0.2689 -1.1485
 9126SOL    HW239012   1.730   3.656   8.256  0.1504  1.0886 -0.3814
 9127SOL     OW39013   2.333   3.985   0.675  0.5911  0.2439  0.7053
 9127SOL    HW139014   2.397   4.009   0.742 -0.6273  0.5096  1.7453
 9127SOL    HW239015   2.274   4.059   0.686 -1.6687 -1.6942  1.5857
 9128SOL     OW39016   1.204   1.189   8.139  0.0658 -0.3080  0.0178
 9128SOL    HW139017   1.177   1.168   8.050  3.6805 -0.4479 -1.0501
 9128SOL    HW239018   1.130   1.234   8.180  0.2094  0.0662 -0.1327
 9129SOL     OW39019   1.629   2.698   1.672  0.1681 -0.2887 -0.1307
 9129SOL    HW139020   1.535   2.684   1.684  0.7021 -1.9561  2.0757
 9129SOL    HW239021   1.663   2.667   1.756 -0.8698 -2.2646 -0.4516
 9130SOL     OW39022   0.685   0.679   2.815 -0.5389  0.0351  0.2548
 9130SOL    HW139023   0.713   0.741   2.748  0.8201  0.1391  0.9262
 9130SOL    HW239024   0.666   0.604   2.758  0.0105  0.0049  0.1139
 9131SOL     OW39025   4.569   0.056   8.156 -0.1305  0.8466 -0.2554
 9131SOL    HW139026   4.541   0.083   8.243 -1.2902  0.4531 -0.5114
 9131SOL    HW239027   4.556   0.140   8.112  1.9277  0.3824 -1.7740
 9132SOL     OW39028   3.593   4.720  14.537  0.3448  0.0397  0.0228
 9132SOL    HW139029   3.517   4.718  14.595  0.6592  0.3943  0.4553
 9132SOL    HW239030   3.559   0.012  14.452  1.2554 -0.2596 -0.4466
 9133SOL     OW39031   0.840   0.266   7.028  0.2095 -0.2456  0.0466
 9133SOL    HW139032   0.858   0.177   7.058  0.4359  0.2438  1.3660
 9133SOL    HW239033   0.878   0.255   6.940 -2.9958 -1.6453 -1.1479
 9134SOL     OW39034   2.288   2.272   3.009 -1.2402 -0.1549  0.2767
 9134SOL    HW139035   2.355   2.292   2.944 -0.1363  0.5848  1.6397
 9134SOL    HW239036   2.203   2.272   2.964 -0.5786  1.8833 -0.9602
 9135SOL     OW39037   0.383   4.048   5.706 -0.2605  0.2278 -0.5719
 9135SOL    HW139038   0.344   4.022   5.622  0.7604  0.6722 -1.1791
 9135SOL    HW239039   0.398   4.141   5.690 -0.5683  0.1392 -1.3932
 9136SOL     OW39040   2.707   0.048   3.750 -0.0143  0.3693  0.1004
 9136SOL    HW139041   2.714   0.026   3.657  1.2710  0.6628  0.1145
 9136SOL    HW239042   2.759   4.710   3.778  0.2012  0.8507  0.9902
 9137SOL     OW39043   0.045   0.546   3.901 -0.4081  0.1765  0.1017
 9137SOL    HW139044   0.004   0.478   3.846  0.0486  0.4285 -0.5436
 9137SOL    HW239045   0.075   0.610   3.837 -0.6353  0.0769 -0.1082
 9138SOL     OW39046   3.869   0.170  16.366  0.3280 -0.1265 -0.7139
 9138SOL    HW139047   3.791   0.172  16.422  0.6247 -0.2650 -0.2930
 9138SOL    HW239048   3.840   0.224  16.293 -1.1976  1.3067  0.9593
 9139SOL     OW39049   0.841   2.754   8.538 -0.3716  0.0558 -0.1920
 9139SOL    HW139050   0.813   2.737   8.448  0.0553  0.5058 -0.4102
 9139SOL    HW239051   0.755   2.790   8.563  1.0105  2.6632  0.8300
 9140SOL     OW39052   2.456   2.096   0.103 -0.0889 -0.0997  0.4524
 9140SOL    HW139053   2.381   2.046   0.134 -0.4477  0.5122  0.5644
 9140SOL    HW239054   2.418   2.183   0.092 -1.9097 -0.6802  2.0228
 9141SOL     OW39055   2.753   2.552   2.682 -0.2344  0.2914 -0.1202
 9141SOL    HW139056   2.680   2.579   2.626  0.3934  0.5183 -0.8213
 9141SOL    HW239057   2.742   2.602   2.763 -0.3774  0.7967 -0.4476
 9142SOL     OW39058   1.284   3.521   3.356 -0.0191  0.3713 -0.0716
 9142SOL    HW139059   1.318   3.438   3.324 -0.2611  0.1681  0.2009
 9142SOL    HW239060   1.359   3.580   3.369 -0.2097  0.8742 -1.3075
 9143SOL     OW39061   3.031   3.902  12.265  0.1045 -0.2628  0.0669
 9143SOL    HW139062   2.948   3.863  12.294  2.1837 -3.6841  1.4021
 9143SOL    HW239063   3.089   3.827  12.259 -0.4793 -0.6420 -0.7824
 9144SOL     OW39064   2.356   3.034   6.546 -0.2628 -0.7637 -0.3643
 9144SOL    HW139065   2.366   2.996   6.634 -2.6755  1.0635  0.7161
 9144SOL    HW239066   2.444   3.063   6.523 -0.2347 -0.8034 -0.3080
 9145SOL     OW39067   0.455   0.504   7.837  0.1195 -0.4138 -0.0826
 9145SOL    HW139068   0.520   0.478   7.771  1.5524 -0.6092  1.4224
 9145SOL    HW239069   0.434   0.425   7.887 -0.4983  0.1730  0.5793
 9146SOL     OW39070   3.995   0.928  14.008  0.0305  0.1445 -0.1467
 9146SOL    HW139071   3.985   0.890  13.921  1.7684 -0.6535  0.0003
 9146SOL    HW239072   3.922   0.988  14.021  0.6417  0.6055  1.1912
 9147SOL     OW39073   2.006   1.119   6.026  0.3023 -0.4766  0.3257
 9147SOL    HW139074   1.970   1.149   6.109  0.7022 -1.0845  0.7163
 9147SOL    HW239075   1.965   1.172   5.958 -0.3085 -0.4068  0.7507
 9148SOL     OW39076   1.739   2.670   9.180  0.2773 -0.0277  0.2791
 9148SOL    HW139077   1.751   2.750   9.231 -1.2074  1.9260 -2.4654
 9148SOL    HW239078   1.658   2.637   9.221 -1.0684  1.4754 -1.1580
 9149SOL     OW39079   2.197   1.451   7.425 -0.1905  0.4723 -0.4117
 9149SOL    HW139080   2.190   1.544   7.447  2.4451  0.2071  1.5676
 9149SOL    HW239081   2.120   1.415   7.470  1.1100 -1.0307  0.6013
 9150SOL     OW39082   2.888   4.108   2.111  0.4841  0.1034 -0.3935
 9150SOL    HW139083   2.819   4.171   2.134 -0.8126 -1.6654  0.5551
 9150SOL    HW239084   2.878   4.055   2.190  0.1789  0.0193 -0.4859
 9151SOL     OW39085   1.615   3.745   6.223 -0.1254  0.3954  0.1945
 9151SOL    HW139086   1.621   3.751   6.128 -0.6396 -0.1849  0.1182
 9151SOL    HW239087   1.694   3.796   6.239 -1.5056  1.8315  2.3703
 9152SOL     OW39088   3.149   0.719   8.385  0.3771 -0.2173  0.3420
 9152SOL    HW139089   3.212   0.722   8.313 -0.1972  0.0189 -0.1419
 9152SOL    HW239090   3.105   0.803   8.374  0.7414 -0.0619  0.0630
 9153SOL     OW39091   1.677   0.490   2.739 -0.5244  0.0051  0.0483
 9153SOL    HW139092   1.722   0.573   2.720  0.1546 -0.2705  0.4668
 9153SOL    HW239093   1.690   0.475   2.832  0.5683 -0.6565 -0.2214
 9154SOL     OW39094   3.159   0.865   2.300  0.0040 -0.3544  0.2954
 9154SOL    HW139095   3.251   0.843   2.315 -0.3833 -0.3054  2.9118
 9154SOL    HW239096   3.164   0.953   2.264  0.2143  0.4442  2.2424
 9155SOL     OW39097   3.701   2.530   7.742 -0.1514  0.5791  0.3011
 9155SOL    HW139098   3.668   2.513   7.654  1.6751 -0.7297 -0.1061
 9155SOL    HW239099   3.621   2.523   7.795 -0.6187 -1.0954 -0.6312
 9156SOL     OW39100   2.776   0.231   2.051 -0.2603  0.3535 -0.2642
 9156SOL    HW139101   2.832   0.258   2.124  0.0696  1.4007 -0.9089
 9156SOL    HW239102   2.844   0.225   1.984 -0.2587  1.7127 -0.3726
 9157SOL     OW39103   1.941   3.152   8.093  0.5537 -0.4074  0.2472
 9157SOL    HW139104   1.993   3.169   8.172 -0.3449 -0.2750  0.8028
 9157SOL    HW239105   2.003   3.098   8.044 -0.0609 -0.9853  0.1062
 9158SOL     OW39106   2.296   3.296   7.381  0.1068 -0.2899 -0.1193
 9158SOL    HW139107   2.265   3.371   7.332  1.1708  1.4179  1.8342
 9158SOL    HW239108   2.389   3.307   7.363  0.7402 -0.7349  2.8650
 9159SOL     OW39109   4.493   2.658   2.500 -0.5849 -0.2728 -0.5300
 9159SOL    HW139110   4.513   2.647   2.408  0.2848 -0.4975 -0.3143
 9159SOL    HW239111   4.580   2.646   2.539 -0.4438  0.0798 -0.7452
 9160SOL     OW39112   3.944   1.245   3.833  0.0224 -0.3899 -0.0365
 9160SOL    HW139113   3.874   1.181   3.841  0.8841 -1.5396 -1.6805
 9160SOL    HW239114   3.947   1.276   3.924 -1.5697  1.5340 -0.6190
 9161SOL     OW39115   1.699   1.320   2.500  0.3926  0.1348 -0.1914
 9161SOL    HW139116   1.750   1.394   2.534  0.4953  0.2313 -0.5517
 9161SOL    HW239117   1.729   1.249   2.556 -1.7192 -1.7675 -1.4779
 9162SOL     OW39118   1.249   3.107   2.781  0.0340  0.0488  0.3284
 9162SOL    HW139119   1.221   3.017   2.768 -0.2534 -0.0416  1.5811
 9162SOL    HW239120   1.189   3.141   2.847  0.1600  1.5393 -0.3158
 9163SOL     OW39121   0.399   0.472  10.454  0.1746  0.2591  0.5006
 9163SOL    HW139122   0.436   0.396  10.497 -0.2213 -1.4078 -2.0852
 9163SOL    HW239123   0.347   0.417  10.395  1.4322 -0.3376 -0.0438
 9164SOL     OW39124   4.001   1.505  14.357  0.1620 -0.7595  0.2284
 9164SOL    HW139125   4.014   1.509  14.452  2.4558 -1.2779 -0.0628
 9164SOL    HW239126   3.994   1.592  14.318  0.1992  0.2004  2.3600
 9165SOL     OW39127   4.438   3.544   3.860  0.0263 -0.0466 -0.0774
 9165SOL    HW139128   4.534   3.541   3.859 -0.0307 -1.1678 -1.6103
 9165SOL    HW239129   4.423   3.578   3.948  1.2323  2.6841 -0.9313
 9166SOL     OW39130   4.645   1.025  16.988  0.8414  0.2739  0.9058
 9166SOL    HW139131   4.604   0.988  16.910 -0.7812 -0.0846  1.9517
 9166SOL    HW239132   4.567   1.066  17.025  0.8863  0.3884  0.8747
 9167SOL     OW39133   0.468   2.782   6.015 -0.3226  0.3838 -0.8862
 9167SOL    HW139134   0.492   2.819   5.930  2.7714  0.1674 -0.1044
 9167SOL    HW239135   0.450   2.689   6.002  0.4469  0.0559  0.3227
 9168SOL     OW39136   1.538   3.772   1.961  0.2927  0.4470  0.1422
 9168SOL    HW139137   1.534   3.713   2.036  1.5155 -1.0099 -0.9372
 9168SOL    HW239138   1.630   3.799   1.962  0.0562  1.1159  2.6725
 9169SOL     OW39139   2.737   3.617   5.653  0.4635 -0.0510  0.7077
 9169SOL    HW139140   2.719   3.707   5.624 -0.0787 -0.9578 -1.8261
 9169SOL    HW239141   2.826   3.610   5.618 -0.0913  1.6424 -1.0908
 9170SOL     OW39142   4.199   4.287   7.634  0.3433  0.1624  0.8838
 9170SOL    HW139143   4.264   4.247   7.576  0.1373  1.6485 -0.3823
 9170SOL    HW239144   4.251   4.347   7.688  0.6318 -0.4514  1.2891
 9171SOL     OW39145   0.068   2.452   8.521  0.4352  0.2430  0.1831
 9171SOL    HW139146   4.717   2.473   8.489  1.2597 -0.7568 -2.7693
 9171SOL    HW239147   0.054   2.441   8.615 -0.1559  1.7995  0.2842
 9172SOL     OW39148   1.084   1.771   3.477 -0.3477 -0.3253 -0.3175
 9172SOL    HW139149   0.993   1.798   3.473 -0.2432 -0.0367 -0.7547
 9172SOL    HW239150   1.123   1.828   3.544  0.8595 -2.4844  0.8344
 9173SOL     OW39151   0.927   0.760   1.803  0.1265 -0.0839  0.9820
 9173SOL    HW139152   0.953   0.849   1.828 -0.0373  0.4380 -0.7016
 9173SOL    HW239153   0.833   0.767   1.785  0.4395  0.7658 -0.3711
 9174SOL     OW39154   3.841   4.469   8.323  0.4382 -0.0465  0.1011
 9174SOL    HW139155   3.906   4.508   8.265 -0.5332 -1.2142 -1.7734
 9174SOL    HW239156   3.770   4.463   8.259  0.4845  0.5598 -0.0003
 9175SOL     OW39157   3.608   2.859  14.597 -0.4311 -0.3073 -0.2075
 9175SOL    HW139158   3.543   2.905  14.542 -0.6567 -0.4786 -0.0844
 9175SOL    HW239159   3.645   2.796  14.535 -1.0375 -0.8293 -0.0346
 9176SOL     OW39160   2.238   1.625   4.550  0.0077 -0.0525  0.3100
 9176SOL    HW139161   2.198   1.538   4.551  0.0541 -0.0936 -1.1630
 9176SOL    HW239162   2.172   1.672   4.601  0.3506  0.1035  0.6056
 9177SOL     OW39163   3.059   1.327   4.244  0.2612  0.5332  0.2703
 9177SOL    HW139164   2.975   1.301   4.206  1.6002 -4.7915  0.9173
 9177SOL    HW239165   3.115   1.266   4.195 -0.4248 -0.3137  0.5578
 9178SOL     OW39166   2.974   1.951  11.252  0.0672 -0.1899 -0.2738
 9178SOL    HW139167   3.008   1.929  11.339  0.4836 -2.8382 -1.1073
 9178SOL    HW239168   2.973   1.863  11.214  0.1879 -0.4250  0.2696
 9179SOL     OW39169   4.101   0.171   5.664  0.4497 -0.1216 -0.2015
 9179SOL    HW139170   4.135   0.234   5.728  2.9868 -3.0374  1.3201
 9179SOL    HW239171   4.144   0.193   5.581 -0.2231 -0.2086 -0.5711
 9180SOL     OW39172   1.450   1.502  15.641  0.0590  0.2073 -0.0934
 9180SOL    HW139173   1.428   1.573  15.580  2.1627  1.4040  0.5584
 9180SOL    HW239174   1.433   1.424  15.588 -2.2131 -0.5042  1.6963
 9181SOL     OW39175   3.550   0.083   7.806  0.2316 -0.1442 -0.2780
 9181SOL    HW139176   3.552   0.179   7.808  0.5587 -0.1669  0.6754
 9181SOL    HW239177   3.489   0.066   7.735 -0.1477  0.9358 -0.2209
 9182SOL     OW39178   2.140   1.985  13.001 -0.1283  0.2148 -0.1263
 9182SOL    HW139179   2.171   2.074  12.985 -1.0016  0.7778  1.3766
 9182SOL    HW239180   2.219   1.937  13.024 -0.4247 -0.3316 -0.2281
 9183SOL     OW39181   0.833   3.518  15.245  0.1602  0.3078  0.2907
 9183SOL    HW139182   0.908   3.493  15.192 -0.6892 -1.4970 -0.0883
 9183SOL    HW239183   0.829   3.448  15.311 -2.0617 -0.5195 -0.6893
 9184SOL     OW39184   4.680   0.263   6.909 -0.3737 -0.2563  0.3276
 9184SOL    HW139185   4.691   0.251   7.004  0.4077  0.8169  0.3748
 9184SOL    HW239186   4.727   0.346   6.908 -0.9126  0.0290 -0.8462
 9185SOL     OW39187   2.523   2.116   5.591 -0.2868 -0.3781  0.6349
 9185SOL    HW139188   2.520   2.153   5.503  0.2092 -1.6120  0.1047
 9185SOL    HW239189   2.583   2.043   5.576  0.1496 -0.1438  1.2774
 9186SOL     OW39190   3.694   4.649   8.494  0.4269 -0.3416  0.0183
 9186SOL    HW139191   3.758   4.598   8.445  1.4443  0.3380  0.6525
 9186SOL    HW239192   3.662   4.582   8.556  0.9055  0.1398  0.7867
 9187SOL     OW39193   1.542   2.867   2.456  0.4346  0.1390 -0.1142
 9187SOL    HW139194   1.584   2.850   2.372  0.7637 -1.3021  0.3417
 9187SOL    HW239195   1.571   2.956   2.476 -2.8287  1.1568  0.1236
 9188SOL     OW39196   3.895   3.877   7.925 -0.1533  0.1707  0.0569
 9188SOL    HW139197   3.812   3.890   7.879 -0.0390 -0.1991 -0.2503
 9188SOL    HW239198   3.882   3.928   8.005  0.1965  0.8101 -0.2941
 9189SOL     OW39199   4.101   0.577   5.668  0.6194 -0.1951  0.4138
 9189SOL    HW139200   4.093   0.509   5.735 -2.1101 -1.5544 -1.2651
 9189SOL    HW239201   4.116   0.658   5.716 -1.2639  1.1358 -1.1901
 9190SOL     OW39202   3.011   1.579   5.869 -0.9183  0.0229 -0.2690
 9190SOL    HW139203   3.097   1.572   5.828 -1.4910 -3.7721 -0.8768
 9190SOL    HW239204   2.949   1.561   5.798  1.9726 -2.2649 -2.1730
 9191SOL     OW39205   4.700   0.145   3.517  0.0495  0.0273 -0.1072
 9191SOL    HW139206   4.606   0.124   3.518  0.0063  0.2532  0.8777
 9191SOL    HW239207   4.708   0.188   3.432  1.7635  0.9406  0.5319
 9192SOL     OW39208   0.539   0.170   5.774  0.3543 -0.1770 -0.7434
 9192SOL    HW139209   0.568   0.103   5.711  2.3023  0.1357 -0.1719
 9192SOL    HW239210   0.492   0.118   5.839 -0.5475  1.1234 -0.3640
 9193SOL     OW39211   3.254   0.271   1.063 -0.1149  0.2147  0.2854
 9193SOL    HW139212   3.180   0.244   1.118  0.6630 -1.1032  0.6978
 9193SOL    HW239213   3.320   0.204   1.083 -0.6592  0.2827  2.3473
 9194SOL     OW39214   3.947   2.980  11.482 -0.2394 -0.2547 -0.4485
 9194SOL    HW139215   3.966   2.942  11.568  1.0042  0.2552 -0.5005
 9194SOL    HW239216   3.863   2.942  11.456  0.9122 -3.4604  0.4858
 9195SOL     OW39217   1.265   2.565   5.907  0.0974  0.4619 -0.1463
 9195SOL    HW139218   1.343   2.526   5.868  0.4749  1.0633  0.0134
 9195SOL    HW239219   1.221   2.485   5.936 -0.6315  0.8600 -0.1364
 9196SOL     OW39220   4.372   1.433   3.892  0.3086 -0.4590 -0.2420
 9196SOL    HW139221   4.340   1.344   3.910  0.6330 -0.5126  0.0806
 9196SOL    HW239222   4.288   1.478   3.906 -0.9690 -3.1055  0.6501
 9197SOL     OW39223   2.426   3.625   0.829  0.0254  0.2562  0.1348
 9197SOL    HW139224   2.429   3.611   0.734 -2.8853  1.0391 -0.0513
 9197SOL    HW239225   2.361   3.693   0.844  0.0812 -0.3977  3.2662
 9198SOL     OW39226   3.357   1.306   7.242 -0.0417  0.3674  0.3981
 9198SOL    HW139227   3.362   1.274   7.152  0.5535 -1.0749  0.9295
 9198SOL    HW239228   3.336   1.398   7.228 -2.3022 -0.5596 -2.2712
 9199SOL     OW39229   1.905   0.739  17.615  0.1164 -0.4748 -0.7073
 9199SOL    HW139230   1.855   0.820  17.606 -0.0348 -0.2971  1.5574
 9199SOL    HW239231   1.868   0.710  17.699 -0.5154 -2.1125 -1.5465
 9200SOL     OW39232   3.449   2.793  16.706 -0.0396  0.2856 -0.2537
 9200SOL    HW139233   3.360   2.782  16.740  0.6322 -0.3729  1.2756
 9200SOL    HW239234   3.435   2.873  16.656  0.4965 -0.1890 -1.1548
 9201SOL     OW39235   4.213   4.102   8.751 -0.0583  0.4222 -0.0545
 9201SOL    HW139236   4.140   4.059   8.795  0.1309  0.4215  0.2635
 9201SOL    HW239237   4.273   4.099   8.826  0.6835 -0.6809 -0.6933
 9202SOL     OW39238   4.620   2.510  15.955 -0.2666 -0.0244 -0.1568
 9202SOL    HW139239   4.686   2.579  15.949 -0.1307  0.0380  2.0834
 9202SOL    HW239240   4.554   2.553  16.008  0.7669  1.7623 -0.3164
 9203SOL     OW39241   1.069   4.557   8.161  0.2668  0.0456 -0.2447
 9203SOL    HW139242   1.132   4.485   8.174 -0.2091 -0.2504  0.4301
 9203SOL    HW239243   1.045   4.551   8.069  1.1407 -0.4816 -0.4427
 9204SOL     OW39244   1.759   4.503   3.366  0.3879 -0.1537  0.1748
 9204SOL    HW139245   1.848   4.533   3.384  0.3919  0.8319 -1.5339
 9204SOL    HW239246   1.738   4.463   3.451  2.7918  2.4357  1.9779
 9205SOL     OW39247   4.675   2.920   3.032  0.3123 -0.1673 -0.1580
 9205SOL    HW139248   4.583   2.897   3.025  0.1489  0.4660 -0.1077
 9205SOL    HW239249   4.709   2.831   3.045 -0.1443 -0.3952 -0.5509
 9206SOL     OW39250   2.218   4.467   2.065  0.0144  0.8257 -0.3697
 9206SOL    HW139251   2.199   4.534   1.999  3.2775  1.6041 -0.5320
 9206SOL    HW239252   2.237   4.522   2.141  1.1544 -1.8425  1.2706
 9207SOL     OW39253   3.070   0.246   7.602 -0.2087 -0.0004 -0.2712
 9207SOL    HW139254   3.104   0.334   7.590 -0.2091  0.0076 -0.2128
 9207SOL    HW239255   3.127   0.223   7.676 -0.3569  1.3224  0.2640
 9208SOL     OW39256   2.089   1.101   1.743  0.0665 -0.1753  0.0395
 9208SOL    HW139257   2.155   1.155   1.698  0.0952  0.3976  0.7789
 9208SOL    HW239258   2.006   1.131   1.707  0.5340 -0.4733 -1.3033
 9209SOL     OW39259   1.166   3.883   8.175  0.0141 -0.6162 -0.7923
 9209SOL    HW139260   1.140   3.864   8.264 -0.0415 -1.1495 -0.9252
 9209SOL    HW239261   1.243   3.826   8.172  0.6479  0.2432 -0.8961
 9210SOL     OW39262   0.257   0.516   5.085  0.2230  0.5848 -0.4296
 9210SOL    HW139263   0.243   0.521   4.991  1.1589 -1.7331 -0.7133
 9210SOL    HW239264   0.306   0.597   5.101 -0.2648  0.8226 -0.1520
 9211SOL     OW39265   2.153   1.572  10.088  0.1749 -0.0235 -0.2817
 9211SOL    HW139266   2.170   1.659  10.125  1.0425 -1.0713  1.8016
 9211SOL    HW239267   2.180   1.514  10.159 -0.1749 -0.2077 -0.2990
 9212SOL     OW39268   2.360   3.022  14.970 -0.4776  0.1104 -0.0117
 9212SOL    HW139269   2.321   3.092  15.022 -2.3906 -0.4170 -0.7500
 9212SOL    HW239270   2.369   2.967  15.048  0.8273  0.8936  0.3822
 9213SOL     OW39271   1.757   0.403   3.819  0.7285 -0.1888 -0.1940
 9213SOL    HW139272   1.755   0.406   3.724 -0.5172 -0.5740 -0.1860
 9213SOL    HW239273   1.677   0.454   3.833  0.4512 -0.2401 -1.6813
 9214SOL     OW39274   1.612   1.209  14.699 -0.1005 -0.7322 -0.4020
 9214SOL    HW139275   1.623   1.151  14.775 -0.1962  0.2534  0.3693
 9214SOL    HW239276   1.516   1.214  14.698 -0.0118  1.4827  1.8098
 9215SOL     OW39277   2.789   3.282   5.557 -0.2590 -0.7648 -0.8004
 9215SOL    HW139278   2.789   3.263   5.651  1.1329 -0.4368 -0.7320
 9215SOL    HW239279   2.822   3.195   5.534 -1.2849 -1.1008 -0.9970
 9216SOL     OW39280   4.488   1.494   9.312  0.1982  0.0186  0.1891
 9216SOL    HW139281   4.536   1.472   9.392 -1.2037 -2.1042  0.4605
 9216SOL    HW239282   4.548   1.470   9.242  1.1729 -1.2199  1.4361
 9217SOL     OW39283   2.609   4.733   7.691 -0.1967  0.0488  0.4209
 9217SOL    HW139284   2.674   0.067   7.693 -0.0156 -0.0925 -1.0224
 9217SOL    HW239285   2.528   0.045   7.674 -0.1765  0.4360  1.4396
 9218SOL     OW39286   4.654   3.634  14.183  0.0539  0.1635 -0.2877
 9218SOL    HW139287   0.008   3.608  14.167  0.3186  0.3209  0.9154
 9218SOL    HW239288   4.647   3.613  14.276  2.9615  0.6756  0.0632
 9219SOL     OW39289   3.956   2.762   0.476 -0.0325 -0.0740 -0.1227
 9219SOL    HW139290   4.044   2.763   0.513 -0.4463  2.5237  0.7575
 9219SOL    HW239291   3.945   2.667   0.470  0.4210 -0.0266 -1.5861
 9220SOL     OW39292   2.478   4.645   8.684  0.4384 -0.4073  0.1300
 9220SOL    HW139293   2.496   4.606   8.598  1.0687 -0.4837  0.2972
 9220SOL    HW239294   2.443   4.568   8.728  0.0573  1.2469  2.7113
 9221SOL     OW39295   0.029   0.153  16.833 -0.0199 -0.1196 -0.2469
 9221SOL    HW139296   0.059   0.113  16.914 -0.6492 -0.5046 -0.2041
 9221SOL    HW239297   0.037   0.079  16.772 -0.7940 -0.3319 -0.0885
 9222SOL     OW39298   4.236   0.913   5.098  0.5952  0.0840  0.1361
 9222SOL    HW139299   4.302   0.980   5.082  0.2599  0.2051 -0.7564
 9222SOL    HW239300   4.159   0.952   5.057  1.0641 -1.4623 -2.2490
 9223SOL     OW39301   0.190   0.822  15.999 -0.7117  0.0069  0.3243
 9223SOL    HW139302   0.134   0.853  16.070 -0.2517 -0.5218  0.9238
 9223SOL    HW239303   0.274   0.826  16.045 -0.1519 -1.6112 -0.5450
 9224SOL     OW39304   0.112   0.472   6.882  0.0347  0.1736  1.1148
 9224SOL    HW139305   0.160   0.533   6.826 -0.3814  0.2611  0.8452
 9224SOL    HW239306   0.185   0.412   6.894  0.4663  0.9612  2.3308
 9225SOL     OW39307   2.742   4.706   5.717 -0.1378 -0.2624 -0.4474
 9225SOL    HW139308   2.683   0.043   5.700 -0.1423 -0.3709 -0.8877
 9225SOL    HW239309   2.713   4.645   5.649  0.0854  0.3401 -1.0821
 9226SOL     OW39310   3.833   2.235   2.177 -0.2720 -0.0276 -0.4112
 9226SOL    HW139311   3.816   2.207   2.267 -0.4223 -0.8857 -0.7072
 9226SOL    HW239312   3.744   2.264   2.155 -0.0389  1.1161  0.1389
 9227SOL     OW39313   2.077   0.758   5.104 -0.1401  0.0815  0.1203
 9227SOL    HW139314   2.127   0.837   5.126 -1.5012  0.6026  1.3221
 9227SOL    HW239315   1.993   0.780   5.143  2.0868  1.2921  4.2935
 9228SOL     OW39316   4.331   2.138  17.028 -0.0064 -0.1667 -0.2394
 9228SOL    HW139317   4.255   2.175  17.073 -0.4434 -2.6301  1.0638
 9228SOL    HW239318   4.355   2.211  16.971 -0.8344  2.5016  2.8254
 9229SOL     OW39319   1.916   3.040  13.640 -0.3411 -0.2570  0.8510
 9229SOL    HW139320   1.833   3.033  13.689 -1.3848  1.2210 -0.7083
 9229SOL    HW239321   1.960   2.963  13.676  0.0680 -0.1468  0.5856
 9230SOL     OW39322   3.592   3.729   5.065 -0.0487  0.6952 -0.3047
 9230SOL    HW139323   3.514   3.684   5.031 -0.3597  0.4453  0.7271
 9230SOL    HW239324   3.628   3.786   4.997  4.6843 -0.8212  0.9265
 9231SOL     OW39325   3.443   3.184   9.380  0.6141  0.1923 -0.4394
 9231SOL    HW139326   3.486   3.269   9.368 -0.2564  0.4659 -1.6851
 9231SOL    HW239327   3.469   3.163   9.469 -0.3115  2.3340  0.3484
 9232SOL     OW39328   0.398   1.013   6.980  0.4853  0.0011  0.1120
 9232SOL    HW139329   0.483   1.057   6.971  1.1428 -0.9479  1.5942
 9232SOL    HW239330   0.417   0.948   7.048 -4.6338  0.9248  2.4494
 9233SOL     OW39331   1.129   0.546  12.916  0.5208 -0.2616  0.0260
 9233SOL    HW139332   1.167   0.574  13.000  1.6660 -1.1939 -0.1882
 9233SOL    HW239333   1.205   0.498  12.884 -0.3302 -2.1198  0.8221
 9234SOL     OW39334   4.080   2.092   6.225 -0.2032  0.4191 -0.0697
 9234SOL    HW139335   4.172   2.087   6.199  0.0662  0.8047  0.7879
 9234SOL    HW239336   4.049   2.004   6.205 -2.0372  0.8419  0.9316
 9235SOL     OW39337   3.075   4.135  15.117  0.4898 -0.4583  0.7780
 9235SOL    HW139338   3.005   4.094  15.065 -0.5432  1.0396  1.0096
 9235SOL    HW239339   3.105   4.065  15.175  2.0179  0.1597  0.7230
 9236SOL     OW39340   0.962   1.412   8.502 -0.3808  0.0071  0.1869
 9236SOL    HW139341   1.010   1.416   8.585 -0.1084 -1.1433  0.0980
 9236SOL    HW239342   0.899   1.482   8.516  0.3506  0.4772  1.1546
 9237SOL     OW39343   4.460   0.606   8.764 -0.3752 -0.1789 -0.9011
 9237SOL    HW139344   4.522   0.637   8.829 -1.0552 -0.4571 -0.1255
 9237SOL    HW239345   4.455   0.511   8.778  0.2123  0.1880  1.7554
 9238SOL     OW39346   4.669   0.249   9.905 -0.0584  0.8180  0.4110
 9238SOL    HW139347   4.706   0.197   9.834  1.7048  2.0720  0.4205
 9238SOL    HW239348   4.574   0.236   9.903  0.3974 -2.1836 -0.9382
 9239SOL     OW39349   0.468   1.483  14.001  0.5387 -0.6917  0.0042
 9239SOL    HW139350   0.403   1.536  13.955  0.0275 -0.8760  0.5192
 9239SOL    HW239351   0.413   1.412  14.034  1.4344 -0.8256  1.2355
 9240SOL     OW39352   3.189   3.486   4.848 -0.1587  0.6727  0.9674
 9240SOL    HW139353   3.201   3.493   4.754 -1.6571  2.3520  0.9035
 9240SOL    HW239354   3.167   3.394   4.858 -0.9154  0.5003 -2.5976
 9241SOL     OW39355   2.743   3.415  13.823  0.3457 -0.3044 -0.2152
 9241SOL    HW139356   2.713   3.492  13.872 -1.4060 -0.5050 -0.9904
 9241SOL    HW239357   2.715   3.347  13.884  0.1123  0.9654  1.0982
 9242SOL     OW39358   3.763   4.425   6.655  0.3243 -0.3660 -0.4386
 9242SOL    HW139359   3.794   4.450   6.742 -0.2227  0.8779 -0.5992
 9242SOL    HW239360   3.836   4.453   6.599  1.7357 -1.6699  0.7730
 9243SOL     OW39361   1.639   0.619  11.835  0.4093  0.2066 -0.1293
 9243SOL    HW139362   1.567   0.609  11.898  1.7185 -2.0835  1.0120
 9243SOL    HW239363   1.654   0.709  11.805  2.3501  0.6576  2.1576
 9244SOL     OW39364   1.586   0.766  12.960 -0.4649 -0.0730  0.9228
 9244SOL    HW139365   1.575   0.744  12.867 -2.4313  1.5242  0.7860
 9244SOL    HW239366   1.680   0.784  12.966 -0.3597 -0.5127  0.6140
 9245SOL     OW39367   2.703   0.806  11.661 -0.0055 -0.0163 -0.4898
 9245SOL    HW139368   2.625   0.852  11.692 -0.5221 -0.2288 -1.4542
 9245SOL    HW239369   2.703   0.847  11.574 -3.6952  1.4152  0.1759
 9246SOL     OW39370   0.656   2.267   6.339  0.4530 -0.1588  0.1501
 9246SOL    HW139371   0.592   2.256   6.409 -1.2763 -1.1367 -1.5994
 9246SOL    HW239372   0.656   2.362   6.329  1.1029 -0.3543 -1.8210
 9247SOL     OW39373   3.428   0.233   3.727 -0.5744  0.1659  0.1562
 9247SOL    HW139374   3.495   0.167   3.745 -0.8166  1.0817  4.3201
 9247SOL    HW239375   3.447   0.301   3.791 -4.1168 -0.2607  1.6502
 9248SOL     OW39376   2.435   2.352   3.258 -0.4219 -0.2610  0.1855
 9248SOL    HW139377   2.370   2.325   3.192  0.1888 -1.5915  0.1310
 9248SOL    HW239378   2.379   2.363   3.335 -2.0381 -0.2320 -0.9780
 9249SOL     OW39379   0.041   1.220   1.548  0.3047  0.4259  0.4019
 9249SOL    HW139380   0.072   1.281   1.481 -1.6761 -0.9742 -1.8082
 9249SOL    HW239381   0.068   1.136   1.511 -1.4239  0.1263 -0.1528
 9250SOL     OW39382   3.668   1.206   3.545  0.1838 -0.4148  0.3494
 9250SOL    HW139383   3.621   1.201   3.628  0.1678 -1.6059  0.2643
 9250SOL    HW239384   3.700   1.295   3.557 -3.0329  0.6262  1.1959
 9251SOL     OW39385   1.539   3.509   6.887  0.1184  0.6134 -0.6110
 9251SOL    HW139386   1.466   3.451   6.863 -0.8821  0.9889  1.5704
 9251SOL    HW239387   1.517   3.516   6.980  2.9955 -0.9174  0.1689
 9252SOL     OW39388   4.346   1.924   2.352 -0.2033 -0.2875  0.3920
 9252SOL    HW139389   4.311   1.884   2.272  1.2340  1.5299 -1.1844
 9252SOL    HW239390   4.424   1.966   2.315 -1.6271  2.0926  0.0946
 9253SOL     OW39391   2.373   3.607   4.731 -0.7007  0.1917 -0.3696
 9253SOL    HW139392   2.347   3.531   4.784 -1.3529  1.2054  0.7752
 9253SOL    HW239393   2.303   3.582   4.671 -1.2113  2.2769 -0.6405
 9254SOL     OW39394   3.189   1.938   4.630 -0.0884  0.2576  0.1819
 9254SOL    HW139395   3.195   1.984   4.547  2.0655  0.0733  0.2301
 9254SOL    HW239396   3.214   2.007   4.691 -0.2539  0.2951  0.2057
 9255SOL     OW39397   1.282   1.515   3.426  0.6416  0.7112  0.1181
 9255SOL    HW139398   1.212   1.577   3.406  0.5070  0.5360  0.0344
 9255SOL    HW239399   1.312   1.548   3.510 -0.7223  0.6910  0.6088
 9256SOL     OW39400   1.022   2.114  15.684 -0.0577  0.2812  0.4136
 9256SOL    HW139401   1.102   2.162  15.706 -0.8368  2.0121 -0.5945
 9256SOL    HW239402   1.059   2.028  15.663  0.1779  0.7541 -1.1479
 9257SOL     OW39403   3.721   4.556   5.178  0.1932 -0.3775 -0.3153
 9257SOL    HW139404   3.808   4.527   5.151  0.3433  0.7658 -1.0992
 9257SOL    HW239405   3.697   4.606   5.099 -0.8936 -1.1465 -0.4650
 9258SOL     OW39406   1.010   1.208   7.536  0.5108  0.1249  0.1597
 9258SOL    HW139407   1.013   1.218   7.441  1.4257  0.5595  0.2310
 9258SOL    HW239408   0.963   1.288   7.557  0.1370  0.2987 -1.3305
 9259SOL     OW39409   1.755   2.615   3.183  0.4000  0.0428  0.2831
 9259SOL    HW139410   1.690   2.617   3.254  1.4908  0.9616  1.2441
 9259SOL    HW239411   1.719   2.543   3.131  2.2273  0.2156 -1.2194
 9260SOL     OW39412   1.544   1.880  16.763  0.6481  0.2372 -0.3369
 9260SOL    HW139413   1.531   1.793  16.800  0.1355  0.6459  0.4314
 9260SOL    HW239414   1.613   1.916  16.818  0.0127 -0.6252  1.0198
 9261SOL     OW39415   4.301   2.077   6.789 -0.1973  0.2249 -0.2033
 9261SOL    HW139416   4.263   2.034   6.712 -0.8959  1.0377 -0.3073
 9261SOL    HW239417   4.390   2.040   6.789 -0.0523  0.5903  0.6264
 9262SOL     OW39418   3.764   0.205   9.544 -0.6292  0.2965 -0.2326
 9262SOL    HW139419   3.795   0.266   9.478  2.0006  0.7585  1.4401
 9262SOL    HW239420   3.713   0.144   9.490 -0.1935 -1.4600  1.3349
 9263SOL     OW39421   0.804   0.149   3.647  0.3354  0.8115  0.3338
 9263SOL    HW139422   0.811   0.237   3.611  0.8918  0.7305  0.2525
 9263SOL    HW239423   0.739   0.148   3.717 -1.2258  2.3798 -1.1044
 9264SOL     OW39424   2.544   0.162   1.223 -0.2916  0.0313 -0.1404
 9264SOL    HW139425   2.462   0.180   1.270  0.4091  0.7689  0.8062
 9264SOL    HW239426   2.553   0.072   1.255  1.0314  1.1578  2.6826
 9265SOL     OW39427   4.529   1.838   2.748 -0.0574 -0.7213 -0.2272
 9265SOL    HW139428   4.506   1.801   2.663 -2.0339 -1.5068  0.6411
 9265SOL    HW239429   4.609   1.790   2.770  0.6091  0.0473 -1.0135
 9266SOL     OW39430   1.622   3.199  10.047  0.5330  0.1112  0.2691
 9266SOL    HW139431   1.698   3.184   9.991  0.2579 -1.5952  0.3573
 9266SOL    HW239432   1.584   3.112  10.033  0.2961  0.2984 -0.2695
 9267SOL     OW39433   2.402   4.265   8.555  0.0180  0.0797 -0.0409
 9267SOL    HW139434   2.394   4.341   8.612 -0.8183  0.1392 -0.2299
 9267SOL    HW239435   2.430   4.191   8.608  0.3045  0.9127  0.9527
 9268SOL     OW39436   4.484   0.369   2.085 -0.8496 -0.1424 -0.0428
 9268SOL    HW139437   4.405   0.317   2.073 -0.2338 -0.9152 -0.8243
 9268SOL    HW239438   4.468   0.420   2.164  0.5712  0.3071 -0.0386
 9269SOL     OW39439   0.874   2.358  13.011  0.8544 -0.5301  0.5615
 9269SOL    HW139440   0.817   2.408  12.953  1.9036  1.4747  1.2358
 9269SOL    HW239441   0.957   2.353  12.963  0.8141 -0.2083  0.4599
 9270SOL     OW39442   2.352   3.401   3.428  0.5476  0.3318 -0.5741
 9270SOL    HW139443   2.350   3.308   3.405  0.7216  0.2766 -0.3656
 9270SOL    HW239444   2.386   3.406   3.518 -1.8298 -0.2475  0.3692
 9271SOL     OW39445   2.219   0.853   5.415  0.0314  1.0790  0.6417
 9271SOL    HW139446   2.173   0.912   5.473 -2.3072 -0.4658  0.3463
 9271SOL    HW239447   2.205   0.769   5.460  0.5529  0.1296 -0.9541
 9272SOL     OW39448   0.890   0.850  12.545  0.4861  0.3513  0.1678
 9272SOL    HW139449   0.961   0.802  12.502  0.1862 -2.2778  2.5991
 9272SOL    HW239450   0.881   0.918  12.479 -3.6035 -1.2670 -0.9282
 9273SOL     OW39451   3.239   1.556   7.236  0.4007  0.4072  0.2878
 9273SOL    HW139452   3.251   1.650   7.248  0.8474  0.4126 -0.1932
 9273SOL    HW239453   3.191   1.537   7.317 -1.3710  1.9356 -0.3961
 9274SOL     OW39454   1.606   2.986  12.526 -0.2005  0.2964  0.1280
 9274SOL    HW139455   1.639   3.074  12.505 -2.6591  1.1671 -0.1199
 9274SOL    HW239456   1.524   3.000  12.573 -1.2832 -2.6544 -0.8617
 9275SOL     OW39457   2.649   3.763  16.312  0.2682 -0.2192 -0.0414
 9275SOL    HW139458   2.681   3.709  16.384 -1.0803  1.2701  1.6854
 9275SOL    HW239459   2.727   3.794  16.267  2.0128 -0.6896  2.6282
 9276SOL     OW39460   3.352   0.961   3.870 -0.0063 -0.1594  0.5672
 9276SOL    HW139461   3.369   0.908   3.793  0.2595  0.3548  0.2760
 9276SOL    HW239462   3.443   0.970   3.900  0.0367 -0.4521  0.5218
 9277SOL     OW39463   2.510   0.722   8.027  0.1212 -0.3512  0.1650
 9277SOL    HW139464   2.587   0.756   7.981 -1.6642  1.3634 -1.5691
 9277SOL    HW239465   2.494   0.636   7.988 -1.9271 -0.0749  0.3874
 9278SOL     OW39466   2.221   0.585   1.229  0.0750 -0.5370  0.2433
 9278SOL    HW139467   2.297   0.614   1.178  0.0136  0.3662  0.6734
 9278SOL    HW239468   2.195   0.666   1.273 -1.8212 -0.0158 -1.8259
 9279SOL     OW39469   0.709   0.926   1.706  0.1493 -0.1565 -0.0292
 9279SOL    HW139470   0.744   1.004   1.750  1.0661 -0.9871  0.6874
 9279SOL    HW239471   0.618   0.928   1.737  0.0883 -0.1820 -0.2077
 9280SOL     OW39472   3.413   0.552  17.164  0.1690  0.2451 -0.0416
 9280SOL    HW139473   3.395   0.480  17.104  2.2871 -0.3638  0.0554
 9280SOL    HW239474   3.348   0.613  17.130  0.4075  1.0797  1.0000
 9281SOL     OW39475   1.706   2.930   3.105  0.3748 -0.0264 -0.0101
 9281SOL    HW139476   1.700   2.996   3.174  1.3170 -1.5892  1.5581
 9281SOL    HW239477   1.721   2.847   3.150 -0.1140  0.2233  0.6102
 9282SOL     OW39478   4.548   4.478   1.214  0.4436 -0.1466 -0.4317
 9282SOL    HW139479   4.519   4.569   1.213  0.0972 -0.2829 -2.4597
 9282SOL    HW239480   4.530   4.443   1.127 -1.1656  2.1378 -0.9970
 9283SOL     OW39481   1.795   2.756   6.900 -0.2525  0.0773 -0.6156
 9283SOL    HW139482   1.814   2.674   6.944 -1.9213 -0.0889 -0.2068
 9283SOL    HW239483   1.779   2.724   6.812 -0.5133  1.4605 -1.0759
 9284SOL     OW39484   4.409   3.379   8.696 -0.1301 -0.2964 -0.6870
 9284SOL    HW139485   4.447   3.462   8.668  0.8764 -0.3586  0.4947
 9284SOL    HW239486   4.485   3.344   8.742 -1.0623 -1.9913 -0.4103
 9285SOL     OW39487   4.596   2.301   8.243 -0.0556 -0.2203  0.0790
 9285SOL    HW139488   4.555   2.340   8.166  2.6016 -0.0686 -1.2671
 9285SOL    HW239489   4.683   2.289   8.204  0.5440  1.0011  0.9997
 9286SOL     OW39490   1.462   2.696   9.683  0.0621 -0.8667  0.5001
 9286SOL    HW139491   1.413   2.653   9.613 -1.8878  2.5591 -0.2471
 9286SOL    HW239492   1.532   2.741   9.635  1.9247 -3.3532  0.8930
 9287SOL     OW39493   4.181   1.091   9.464 -0.3413  0.1015 -0.3985
 9287SOL    HW139494   4.088   1.095   9.488  0.0086  0.7081  0.8480
 9287SOL    HW239495   4.232   1.083   9.544 -1.8474  0.0450  0.5435
 9288SOL     OW39496   3.080   3.282   7.056  0.1039 -0.2991 -0.2644
 9288SOL    HW139497   2.989   3.252   7.059 -0.7077  2.2680  0.6931
 9288SOL    HW239498   3.068   3.377   7.052 -1.9885 -0.6382 -1.8207
 9289SOL     OW39499   0.756   3.289  12.910 -0.4662  0.4043 -0.6397
 9289SOL    HW139500   0.708   3.320  12.834 -0.8490 -0.3187 -0.6978
 9289SOL    HW239501   0.690   3.300  12.979  2.1127 -3.2621  2.4658
 9290SOL     OW39502   4.722   1.404   4.348  0.4449 -0.8044 -0.1333
 9290SOL    HW139503   0.029   1.367   4.271  1.4916  0.6989 -0.2530
 9290SOL    HW239504   4.706   1.492   4.315  2.1238 -0.3095  0.3945
 9291SOL     OW39505   0.038   1.611   8.004 -0.6606 -0.1675  0.1370
 9291SOL    HW139506   4.697   1.608   7.950 -0.4698  2.4493 -0.2573
 9291SOL    HW239507   0.036   1.521   8.039  0.9110  0.2791  1.3878
 9292SOL     OW39508   0.158   2.659   7.262 -1.2433  0.2475  0.0663
 9292SOL    HW139509   0.106   2.593   7.308  0.0190 -1.2494 -0.6501
 9292SOL    HW239510   0.140   2.731   7.322 -1.0510 -0.5446  1.0688
 9293SOL     OW39511   1.492   0.128   1.718  0.4586  0.0733 -0.2821
 9293SOL    HW139512   1.575   0.176   1.715  1.3672 -1.3553  1.9893
 9293SOL    HW239513   1.528   0.055   1.770 -0.7076  0.9467  1.7604
 9294SOL     OW39514   4.369   0.171   6.490 -0.1712 -0.2468  0.1680
 9294SOL    HW139515   4.463   0.187   6.493 -0.1339  0.2362 -3.0632
 9294SOL    HW239516   4.341   0.259   6.516  1.9115  1.1929 -2.5019
 9295SOL     OW39517   2.412   0.735   1.850 -0.4145  0.2948  0.0786
 9295SOL    HW139518   2.494   0.733   1.801 -0.0130 -0.1974  0.7671
 9295SOL    HW239519   2.360   0.694   1.781  0.8636  1.0880 -1.3360
 9296SOL     OW39520   2.628   0.453   4.028  0.1749 -0.3547 -0.0946
 9296SOL    HW139521   2.607   0.497   3.946  1.5618  1.7510  0.6958
 9296SOL    HW239522   2.682   0.382   3.992 -1.7157 -1.0791 -1.5406
 9297SOL     OW39523   3.323   1.777  10.268  0.6843  0.2960 -0.5215
 9297SOL    HW139524   3.238   1.736  10.286  0.7583  0.8091  1.0263
 9297SOL    HW239525   3.359   1.767  10.356  1.7088 -1.2237 -1.1094
 9298SOL     OW39526   0.153   3.770  14.055  0.1414 -0.5419  0.2070
 9298SOL    HW139527   0.114   3.844  14.008  0.2002 -1.1525 -0.8209
 9298SOL    HW239528   0.168   3.696  13.995 -0.5765 -1.4350  1.1453
 9299SOL     OW39529   0.478   0.405   8.380  0.3065  0.5431 -0.9979
 9299SOL    HW139530   0.522   0.467   8.439  0.4737 -1.0260  0.5372
 9299SOL    HW239531   0.522   0.321   8.398 -1.3501 -0.1529 -0.2464
 9300SOL     OW39532   4.737   2.570   8.162  0.0516  0.6080 -0.0201
 9300SOL    HW139533   0.029   2.483   8.189 -0.4108  0.3066 -0.5123
 9300SOL    HW239534   0.084   2.613   8.149  0.2207  0.0539 -0.7447
 9301SOL     OW39535   4.267   0.424   8.915  0.0688 -0.6526  0.1480
 9301SOL    HW139536   4.250   0.518   8.912  1.7205 -0.3611  0.0570
 9301SOL    HW239537   4.354   0.417   8.955  0.2293 -1.6636 -0.3885
 9302SOL     OW39538   3.367   1.468   4.674 -0.2134  0.0726 -0.1583
 9302SOL    HW139539   3.332   1.454   4.586 -0.5151 -2.5269  0.3839
 9302SOL    HW239540   3.329   1.552   4.698  0.2871  0.3391 -0.2963
 9303SOL     OW39541   3.802   3.187   8.943 -0.1413 -0.1020 -0.1149
 9303SOL    HW139542   3.863   3.137   8.998  0.5592 -0.3304 -1.1026
 9303SOL    HW239543   3.772   3.117   8.886 -2.2588 -0.3718  1.3113
 9304SOL     OW39544   0.541   2.133   3.485  0.3881 -0.0664 -0.4152
 9304SOL    HW139545   0.567   2.042   3.471 -1.1077 -0.4208 -0.9012
 9304SOL    HW239546   0.496   2.109   3.566  0.6315 -0.0194 -0.2663
 9305SOL     OW39547   0.765   1.237  14.161  0.1808 -0.0150 -0.2503
 9305SOL    HW139548   0.781   1.148  14.189 -1.4963  0.2976  1.6898
 9305SOL    HW239549   0.773   1.230  14.065  0.9714 -4.0514  0.1231
 9306SOL     OW39550   2.295   1.924   4.188 -0.4616 -0.4314  0.8812
 9306SOL    HW139551   2.372   1.952   4.237 -0.4446  1.9811 -0.5413
 9306SOL    HW239552   2.332   1.906   4.102 -0.5253  0.6500  0.6353
 9307SOL     OW39553   2.930   4.258  16.516  0.0707  0.0515 -0.0836
 9307SOL    HW139554   2.992   4.329  16.503 -1.6580  1.5567 -0.0884
 9307SOL    HW239555   2.846   4.303  16.504  0.1772  0.8970  2.2471
 9308SOL     OW39556   2.437   3.508   2.547 -0.4015 -0.1826 -0.0029
 9308SOL    HW139557   2.367   3.446   2.526 -0.8684 -0.3376  2.0741
 9308SOL    HW239558   2.453   3.482   2.637  2.4993 -0.1057 -0.4996
 9309SOL     OW39559   2.806   2.306   2.785  0.4916 -0.3419  0.2273
 9309SOL    HW139560   2.784   2.373   2.721 -0.8368  1.6174  2.7695
 9309SOL    HW239561   2.889   2.262   2.765  0.5029 -0.7365  1.1560
 9310SOL     OW39562   3.627   0.356  13.455 -0.3215 -0.2335  0.2512
 9310SOL    HW139563   3.710   0.308  13.462  0.1960  0.8628  1.5593
 9310SOL    HW239564   3.663   0.440  13.425 -0.7991 -0.3419 -0.6041
 9311SOL     OW39565   0.160   2.427   3.720 -0.0886 -0.2317  0.3488
 9311SOL    HW139566   0.235   2.466   3.675  0.3945  0.0027  1.3489
 9311SOL    HW239567   0.093   2.431   3.652  0.7485  1.4256 -0.3673
 9312SOL     OW39568   2.441   4.245   7.374 -0.0378 -0.6557 -0.0923
 9312SOL    HW139569   2.415   4.234   7.283 -1.7594 -1.3754  0.4989
 9312SOL    HW239570   2.511   4.310   7.367 -0.3412 -0.3790 -0.4998
 9313SOL     OW39571   1.794   4.448   8.453  0.3359 -0.3910 -0.2517
 9313SOL    HW139572   1.719   4.401   8.418 -0.2411  0.3651 -0.0218
 9313SOL    HW239573   1.754   4.493   8.528  2.4347  0.8664  0.1176
 9314SOL     OW39574   3.003   2.477   9.055  0.1094 -0.0581 -0.1884
 9314SOL    HW139575   3.068   2.510   8.994  0.7244 -1.7987 -0.4550
 9314SOL    HW239576   2.921   2.504   9.013  1.0077  3.2388  0.1813
 9315SOL     OW39577   1.376   4.106   9.396  0.4526 -0.6820  0.3097
 9315SOL    HW139578   1.330   4.181   9.359  1.1300  0.2520  1.3954
 9315SOL    HW239579   1.402   4.138   9.482  1.6763  1.0804 -0.7144
 9316SOL     OW39580   0.192   2.441   7.021 -0.4738  0.0264  0.3935
 9316SOL    HW139581   0.282   2.433   7.052 -0.7960  1.3314  1.6620
 9316SOL    HW239582   0.162   2.530   7.041  1.0673  1.1798 -2.4640
 9317SOL     OW39583   2.920   3.020   2.353 -0.2295 -0.1137 -0.9504
 9317SOL    HW139584   2.939   3.056   2.266  0.6682  2.7909  0.4186
 9317SOL    HW239585   2.854   3.081   2.386 -0.4167 -0.2984 -0.9854
 9318SOL     OW39586   2.423   4.581   2.921 -0.4936  0.0236 -0.0803
 9318SOL    HW139587   2.352   4.517   2.925  1.4410 -2.0613  0.8420
 9318SOL    HW239588   2.426   4.604   3.014  1.5548 -1.6046  0.2464
 9319SOL     OW39589   3.703   0.972  11.405  0.7102 -0.1874 -0.0743
 9319SOL    HW139590   3.690   0.901  11.342  2.6708 -1.0164  0.4530
 9319SOL    HW239591   3.797   0.980  11.420  1.3554 -0.6448 -3.7479
 9320SOL     OW39592   1.891   4.277  13.425 -0.2496 -0.1694  0.2538
 9320SOL    HW139593   1.894   4.357  13.373 -1.0577  0.3745  1.0545
 9320SOL    HW239594   1.970   4.276  13.479 -1.6141  1.8182  2.2781
 9321SOL     OW39595   4.217   0.363   7.967 -0.2273  0.6405  0.1440
 9321SOL    HW139596   4.144   0.344   7.907 -0.4914  1.0842  0.3179
 9321SOL    HW239597   4.200   0.456   7.983 -0.4546  1.0445 -2.4591
 9322SOL     OW39598   2.212   1.667   3.108 -0.0704  0.3095  0.1042
 9322SOL    HW139599   2.149   1.615   3.058  0.7481  0.7721 -1.4048
 9322SOL    HW239600   2.206   1.627   3.195  1.0245  1.6045  0.7702
 9323SOL     OW39601   1.185   4.591   1.807  0.3402 -0.2527 -0.1802
 9323SOL    HW139602   1.103   4.594   1.758  0.3087 -1.1789 -0.1840
 9323SOL    HW239603   1.223   4.504   1.800 -3.2657 -1.8680  0.2171
 9324SOL     OW39604   3.616   0.106   3.901 -0.0858  0.3061  0.4060
 9324SOL    HW139605   3.689   0.073   3.848  1.1632  0.8511  1.7986
 9324SOL    HW239606   3.577   0.021   3.920  0.0603  0.4450  1.2950
 9325SOL     OW39607   3.760   3.795   6.250 -0.7250 -0.3686  0.1852
 9325SOL    HW139608   3.714   3.794   6.334  0.8939  0.2351  1.0774
 9325SOL    HW239609   3.756   3.704   6.221 -0.2366 -0.6011  0.8337
 9326SOL     OW39610   4.551   0.146   4.415  0.3682  0.8857  0.9082
 9326SOL    HW139611   4.480   0.208   4.427 -0.5427  0.3637 -1.7577
 9326SOL    HW239612   4.538   0.103   4.499 -3.5641 -0.9008 -0.6377
 9327SOL     OW39613   4.117   3.999   6.474 -0.1657  0.3306 -0.2949
 9327SOL    HW139614   4.075   3.979   6.391 -0.6142  0.3580 -0.0729
 9327SOL    HW239615   4.057   4.068   6.502  0.4930  0.7522  0.1014
 9328SOL     OW39616   3.348   2.854   3.292 -0.3240  0.0611 -0.7233
 9328SOL    HW139617   3.304   2.771   3.305 -0.8151  0.6966  1.7188
 9328SOL    HW239618   3.369   2.875   3.384  0.1953  3.0706 -1.5161
 9329SOL     OW39619   3.094   0.927   6.367  0.3336  0.2456 -0.3416
 9329SOL    HW139620   3.032   0.921   6.439  0.9691  1.2292  0.2938
 9329SOL    HW239621   3.170   0.957   6.417  1.8004 -1.5758 -1.4865
 9330SOL     OW39622   1.594   2.680   8.471 -0.4762  0.0956 -0.1805
 9330SOL    HW139623   1.628   2.763   8.505 -1.7607 -0.0032  1.3401
 9330SOL    HW239624   1.523   2.716   8.417 -2.1309 -0.3962  1.6589
 9331SOL     OW39625   2.430   4.014   9.725  0.1483 -0.0250  0.2021
 9331SOL    HW139626   2.512   4.063   9.730 -0.7346  1.6883 -2.0991
 9331SOL    HW239627   2.451   3.929   9.764 -1.5370 -0.7186 -0.3853
 9332SOL     OW39628   3.960   0.228   4.303  0.3271  0.0798  0.2889
 9332SOL    HW139629   3.888   0.222   4.241  0.0285  2.3721  0.4036
 9332SOL    HW239630   4.032   0.213   4.242  0.6756  0.0900  0.6950
 9333SOL     OW39631   4.293   2.144   7.077  0.1779 -0.0559  0.0866
 9333SOL    HW139632   4.325   2.160   6.988  0.8089  0.3077  0.3756
 9333SOL    HW239633   4.264   2.053   7.077  2.3978 -0.7444  0.9061
 9334SOL     OW39634   3.889   2.777   4.867 -0.1040 -0.6125 -0.1606
 9334SOL    HW139635   3.831   2.797   4.941  2.1760 -0.6797  1.6388
 9334SOL    HW239636   3.971   2.814   4.898 -0.5330  1.0796 -1.0161
 9335SOL     OW39637   2.087   1.629  10.634  0.2478 -0.2669 -0.8016
 9335SOL    HW139638   2.165   1.619  10.580 -0.7654 -0.6386 -2.1814
 9335SOL    HW239639   2.041   1.696  10.584 -1.1243  0.4125  1.3733
 9336SOL     OW39640   0.364   4.641  16.310 -0.0481 -0.1704 -0.3950
 9336SOL    HW139641   0.354   4.736  16.308  0.5694 -0.0546  1.4447
 9336SOL    HW239642   0.421   4.635  16.387 -0.7392  2.7255  0.3365
 9337SOL     OW39643   2.297   0.591   2.075  0.2128  0.0561  0.7300
 9337SOL    HW139644   2.344   0.508   2.073  0.4745  0.2342 -0.2903
 9337SOL    HW239645   2.359   0.636   2.017 -0.8139 -0.1654 -0.5330
 9338SOL     OW39646   4.670   3.380   5.228 -0.3185  0.2535 -0.7812
 9338SOL    HW139647   0.006   3.434   5.257  0.2442 -0.9285  0.0099
 9338SOL    HW239648   4.612   3.411   5.297  1.5518  0.1344  0.8408
 9339SOL     OW39649   2.113   2.738   5.258 -0.0962  0.2116  0.0631
 9339SOL    HW139650   2.119   2.793   5.179  0.2285  0.1800  0.0652
 9339SOL    HW239651   2.037   2.774   5.302 -1.8724 -0.8177 -2.1771
 9340SOL     OW39652   3.116   4.670   3.174 -0.2952 -0.1261  0.5094
 9340SOL    HW139653   3.146   4.632   3.091  1.1905  1.0703  0.5031
 9340SOL    HW239654   3.185   4.640   3.232 -0.9480  0.3872  1.5570
 9341SOL     OW39655   4.683   0.079   8.832  0.5900 -0.2903  0.0091
 9341SOL    HW139656   4.595   0.083   8.794  0.7680 -0.5852 -0.4455
 9341SOL    HW239657   4.718   0.153   8.782 -0.2676 -0.2103 -0.4725
 9342SOL     OW39658   0.686   3.453   0.863  0.7583 -0.1390 -0.4090
 9342SOL    HW139659   0.728   3.367   0.855  0.6106 -0.1898 -0.6263
 9342SOL    HW239660   0.605   3.440   0.814 -1.1145 -1.9910  3.1777
 9343SOL     OW39661   4.368   1.666   5.928 -0.2797 -0.5451 -0.1832
 9343SOL    HW139662   4.459   1.671   5.958 -0.1994  0.6362 -0.5929
 9343SOL    HW239663   4.362   1.723   5.851 -0.1057 -0.1806  0.0697
 9344SOL     OW39664   4.459   4.506  13.107 -0.3636  0.0564  0.2579
 9344SOL    HW139665   4.474   4.549  13.191  1.7497  0.8826 -0.5464
 9344SOL    HW239666   4.549   4.476  13.096 -0.4354 -0.8183  2.1901
 9345SOL     OW39667   1.186   2.327   9.633 -0.0834  0.3982 -0.7864
 9345SOL    HW139668   1.160   2.257   9.572 -1.1359  0.3775 -0.3150
 9345SOL    HW239669   1.161   2.281   9.713 -0.0509 -0.6209 -1.3578
 9346SOL     OW39670   1.433   1.755  13.488  0.1858  0.6115 -0.1079
 9346SOL    HW139671   1.442   1.849  13.473 -1.9474  0.7373 -0.6401
 9346SOL    HW239672   1.339   1.759  13.505  0.2481 -0.0030  0.3935
 9347SOL     OW39673   3.107   0.864   5.969 -0.1824 -0.0192 -0.5664
 9347SOL    HW139674   3.017   0.864   6.001 -0.1753 -2.6840 -0.5349
 9347SOL    HW239675   3.153   0.919   6.033 -1.2461  0.3048 -0.0825
 9348SOL     OW39676   0.726   2.193   5.699  0.6486  0.2940 -0.1295
 9348SOL    HW139677   0.696   2.105   5.678  1.2758  0.1220 -0.3080
 9348SOL    HW239678   0.792   2.208   5.631 -0.7774  0.0161 -1.5786
 9349SOL     OW39679   4.251   1.851   3.901 -0.2620  0.4566 -0.3943
 9349SOL    HW139680   4.198   1.916   3.855  0.0507  0.0331 -1.3468
 9349SOL    HW239681   4.244   1.887   3.990 -0.3395 -1.4226  0.3503
 9350SOL     OW39682   4.081   2.406   7.512  0.0990 -0.3177 -0.0013
 9350SOL    HW139683   4.042   2.477   7.461  0.8213  0.7729  0.9492
 9350SOL    HW239684   4.115   2.337   7.455 -1.0986 -0.6002 -0.3701
 9351SOL     OW39685   4.599   2.146   2.521 -0.2182  0.1350 -0.2949
 9351SOL    HW139686   4.589   2.059   2.483  0.1512  0.6659 -1.6077
 9351SOL    HW239687   4.515   2.181   2.493  0.6034 -0.4344 -3.4348
 9352SOL     OW39688   1.189   3.177   4.681 -0.0825  0.4820  0.7343
 9352SOL    HW139689   1.183   3.082   4.691 -1.0914  0.4597 -0.1513
 9352SOL    HW239690   1.224   3.190   4.593  1.3357 -1.0249  1.0589
 9353SOL     OW39691   1.089   4.400   1.172  0.3164  0.2620  0.1787
 9353SOL    HW139692   1.132   4.316   1.189 -0.9688  0.0414  2.2039
 9353SOL    HW239693   1.042   4.412   1.254  0.0339  1.6567 -0.1952
 9354SOL     OW39694   2.345   4.612   1.653 -0.0055  0.2248 -0.2176
 9354SOL    HW139695   2.314   4.656   1.574  0.3810 -1.3856 -1.2672
 9354SOL    HW239696   2.360   4.525   1.616 -1.4009  0.5042 -1.4470
 9355SOL     OW39697   3.371   0.424   5.697 -0.1788  0.0366 -0.2577
 9355SOL    HW139698   3.321   0.356   5.653 -0.0997 -0.8525  1.0175
 9355SOL    HW239699   3.390   0.489   5.630  0.7163  1.2624  1.1879
 9356SOL     OW39700   3.072   1.209   8.378 -0.5811  0.3972 -0.5997
 9356SOL    HW139701   3.117   1.216   8.294  0.0750  1.4262 -0.1744
 9356SOL    HW239702   3.131   1.251   8.440 -0.0174 -2.4273  0.7751
 9357SOL     OW39703   1.645   2.186   6.910  0.0907 -0.4200 -0.0299
 9357SOL    HW139704   1.607   2.180   6.997  0.5447  0.5562  0.2359
 9357SOL    HW239705   1.573   2.145   6.863  0.2010 -1.6956  0.9488
 9358SOL     OW39706   4.162   2.925   7.407  0.4838 -0.0124 -0.4741
 9358SOL    HW139707   4.147   2.837   7.372 -0.8790 -0.1585  0.4917
 9358SOL    HW239708   4.194   2.974   7.332 -1.0438  1.2048 -0.3167
 9359SOL     OW39709   0.369   3.453   8.874  0.0387 -0.2513 -0.3738
 9359SOL    HW139710   0.460   3.430   8.855  0.0442  0.6789 -1.5098
 9359SOL    HW239711   0.341   3.485   8.788 -1.3158  0.0308  0.1718
 9360SOL     OW39712   0.360   4.199   4.768 -0.8106 -0.2759 -0.1606
 9360SOL    HW139713   0.356   4.177   4.861  2.3926 -0.5376 -0.1070
 9360SOL    HW239714   0.275   4.160   4.745 -0.5925 -0.1034 -1.2434
 9361SOL     OW39715   3.280   4.495   5.324  0.1334  0.5627  0.7938
 9361SOL    HW139716   3.369   4.472   5.353 -0.4541 -1.3137  1.1024
 9361SOL    HW239717   3.257   4.409   5.289  2.3092  0.4910 -0.4798
 9362SOL     OW39718   2.344   4.504   7.910  0.1175 -0.5522  0.1624
 9362SOL    HW139719   2.346   4.431   7.849  0.7412 -2.3347  2.2908
 9362SOL    HW239720   2.433   4.496   7.945  0.0752 -0.1472  0.3608
 9363SOL     OW39721   1.738   3.652   8.808  0.1522 -0.0619 -0.2576
 9363SOL    HW139722   1.700   3.665   8.895  2.3980  1.4038  0.4883
 9363SOL    HW239723   1.655   3.637   8.761  0.4244 -1.0082 -0.4307
 9364SOL     OW39724   0.008   2.274  16.188 -0.0083 -0.0836 -0.3779
 9364SOL    HW139725   4.691   2.335  16.238  0.5018 -0.4950  0.6692
 9364SOL    HW239726   0.058   2.341  16.141 -3.6037  1.5247 -1.9237
 9365SOL     OW39727   3.750   1.118  11.023  0.2081  0.6899  0.1830
 9365SOL    HW139728   3.688   1.116  10.950 -0.8486  0.5226  1.0917
 9365SOL    HW239729   3.696   1.148  11.095  0.1232  0.9037  0.0303
 9366SOL     OW39730   2.050   1.518   6.241 -0.1710  0.1085 -0.4096
 9366SOL    HW139731   2.076   1.427   6.228  0.0213  0.1513 -0.3189
 9366SOL    HW239732   2.140   1.543   6.261 -0.4884  1.5622 -0.8461
 9367SOL     OW39733   3.182   3.687   8.844  0.2153  0.4788 -0.2818
 9367SOL    HW139734   3.190   3.594   8.860 -1.0864  0.1980 -1.2555
 9367SOL    HW239735   3.109   3.700   8.904 -0.5205 -0.9368 -0.8721
 9368SOL     OW39736   4.476   1.135  17.352 -0.2598  0.2465 -0.3201
 9368SOL    HW139737   4.478   1.230  17.367  1.7427 -0.1282  1.8269
 9368SOL    HW239738   4.447   1.133  17.261  0.3758  1.1321 -0.5480
 9369SOL     OW39739   3.456   0.700   5.812 -0.2264  0.5992  0.0105
 9369SOL    HW139740   3.490   0.691   5.723 -3.3599 -1.5821 -0.9551
 9369SOL    HW239741   3.369   0.738   5.799 -1.3051 -1.5171  1.0665
 9370SOL     OW39742   2.859   2.124  16.491  0.6699 -0.1148 -0.5950
 9370SOL    HW139743   2.764   2.120  16.476  0.5277 -0.4913  0.3955
 9370SOL    HW239744   2.866   2.181  16.568 -0.5394 -0.1841 -0.4326
 9371SOL     OW39745   2.595   3.746  15.238 -0.3857 -0.1018 -0.1303
 9371SOL    HW139746   2.505   3.752  15.269  0.1550  2.9699  0.9313
 9371SOL    HW239747   2.643   3.741  15.321 -1.9832  1.9911  0.9113
 9372SOL     OW39748   4.527   0.587   5.551 -0.2054  0.1669 -0.4398
 9372SOL    HW139749   4.455   0.552   5.499 -0.0909  1.1914 -1.3020
 9372SOL    HW239750   4.602   0.546   5.508 -2.3552 -1.0565 -3.0371
 9373SOL     OW39751   1.067   1.516   8.028  0.5821 -0.1108  0.4334
 9373SOL    HW139752   1.035   1.584   8.087 -2.6032 -0.2675 -1.1218
 9373SOL    HW239753   0.991   1.494   7.974  1.5289  1.5648 -1.5580
 9374SOL     OW39754   1.778   4.176   4.257 -0.1920  0.4390  0.6630
 9374SOL    HW139755   1.728   4.199   4.335  0.6692  0.5129  1.1897
 9374SOL    HW239756   1.856   4.138   4.297  1.5242  0.7655 -2.4006
 9375SOL     OW39757   0.290   0.641  11.202 -0.5378 -0.0145  0.0250
 9375SOL    HW139758   0.350   0.568  11.215  1.4376  1.7385  0.7114
 9375SOL    HW239759   0.209   0.599  11.173 -0.0158  0.1484 -1.6657
 9376SOL     OW39760   1.989   4.387   4.237  1.0158  0.2373  0.1053
 9376SOL    HW139761   1.920   4.414   4.298  1.1813 -1.1532  0.9067
 9376SOL    HW239762   1.984   4.292   4.239  0.1134  0.2551 -1.2042
 9377SOL     OW39763   2.249   0.730  14.916  0.0836 -0.4361 -0.0377
 9377SOL    HW139764   2.284   0.806  14.962 -1.9732  0.0967  0.6563
 9377SOL    HW239765   2.203   0.776  14.846  0.6048  0.8007  0.4410
 9378SOL     OW39766   3.203   1.271   2.755 -0.3007  0.4627  0.1907
 9378SOL    HW139767   3.118   1.243   2.720 -0.8144  0.9830  1.0277
 9378SOL    HW239768   3.178   1.339   2.818  1.4715  0.4039  0.9494
 9379SOL     OW39769   3.551   2.133   8.013 -0.3396  0.4114 -0.0205
 9379SOL    HW139770   3.564   2.137   8.108  0.3821  1.2093 -0.1517
 9379SOL    HW239771   3.642   2.109   7.993 -0.7690 -1.2388 -0.0386
 9380SOL     OW39772   2.265   3.562   3.247  0.7536  0.5677  0.5327
 9380SOL    HW139773   2.171   3.549   3.257  0.4287  3.2292  1.1233
 9380SOL    HW239774   2.293   3.500   3.314 -0.0583 -1.9784 -1.4850
 9381SOL     OW39775   1.134   0.187   0.549  0.4667  0.1299  0.2296
 9381SOL    HW139776   1.148   0.234   0.631 -1.5373  0.0811  0.5925
 9381SOL    HW239777   1.061   0.245   0.527  3.2425  3.2861 -0.5407
 9382SOL     OW39778   4.708   1.997   8.316 -0.0274  0.1771 -0.0227
 9382SOL    HW139779   4.722   2.007   8.222 -0.6393 -1.0047 -0.2390
 9382SOL    HW239780   0.004   2.078   8.353 -0.1723  0.3353 -0.2352
 9383SOL     OW39781   1.207   3.198   0.847 -0.0819 -0.0341 -0.0978
 9383SOL    HW139782   1.165   3.142   0.782  0.8632 -2.7421  1.6000
 9383SOL    HW239783   1.169   3.149   0.921 -0.7821  0.2914 -0.2415
 9384SOL     OW39784   3.584   1.403   1.505  0.1892  0.6449  0.1665
 9384SOL    HW139785   3.523   1.474   1.485  0.3997  0.6750 -0.3787
 9384SOL    HW239786   3.593   1.420   1.599  0.1529  0.5155  0.1940
 9385SOL     OW39787   2.012   0.439   7.657 -0.3132 -0.7193  0.2960
 9385SOL    HW139788   2.077   0.396   7.603  1.7285  1.5445  0.9535
 9385SOL    HW239789   1.982   0.505   7.595  2.2691  0.7565  0.6225
 9386SOL     OW39790   2.740   4.497   7.613  0.3346 -0.4624  0.1890
 9386SOL    HW139791   2.694   4.580   7.599 -0.9339 -1.1953  0.0169
 9386SOL    HW239792   2.710   4.485   7.703  1.7812 -1.7522  0.4896
 9387SOL     OW39793   0.357   4.051   7.472  0.1377  0.0617 -0.5467
 9387SOL    HW139794   0.359   4.125   7.411 -0.6997  0.3212 -0.2512
 9387SOL    HW239795   0.282   3.995   7.449  1.5477 -2.3351  0.6457
 9388SOL     OW39796   0.845   3.994   7.698 -0.2826  0.1955  0.0517
 9388SOL    HW139797   0.889   4.006   7.614  0.0122  1.2516  0.3508
 9388SOL    HW239798   0.871   3.904   7.717  0.8888  0.0633 -2.1392
 9389SOL     OW39799   2.287   3.930   1.407 -0.4087 -0.1774  0.1750
 9389SOL    HW139800   2.239   4.003   1.369  0.6659  2.2100  3.3615
 9389SOL    HW239801   2.347   3.899   1.340 -0.8889 -1.1228  0.1771
 9390SOL     OW39802   3.274   4.251  13.428  0.1862  0.5100 -0.5240
 9390SOL    HW139803   3.277   4.285  13.339  1.0039  0.3895 -0.5438
 9390SOL    HW239804   3.276   4.156  13.414 -0.5066  0.5606 -0.9945
 9391SOL     OW39805   0.050   0.039   4.097  0.2814 -0.1097 -0.4786
 9391SOL    HW139806   0.041   0.013   4.006 -2.0607 -1.0324  0.0199
 9391SOL    HW239807   0.026   4.698   4.147 -1.1830 -0.2209 -1.3603
 9392SOL     OW39808   2.255   0.175   4.201 -0.2019  0.4544 -0.4769
 9392SOL    HW139809   2.176   0.216   4.165 -0.7258 -0.9648 -0.9403
 9392SOL    HW239810   2.252   0.202   4.292  1.0176 -2.4560  0.4229
 9393SOL     OW39811   1.427   2.528   2.390  0.4087  0.2927 -0.2631
 9393SOL    HW139812   1.490   2.569   2.331 -0.4530  2.0518  0.0048
 9393SOL    HW239813   1.341   2.549   2.353  0.3841  3.0788  1.2848
 9394SOL     OW39814   1.668   3.330  17.587  0.0741 -0.1990 -0.4887
 9394SOL    HW139815   1.657   3.388  17.663 -0.5416 -1.4797  0.4022
 9394SOL    HW239816   1.743   3.374  17.548  0.0385  0.0837 -0.2428
 9395SOL     OW39817   0.415   3.629   7.510  0.0578  0.2499  0.0875
 9395SOL    HW139818   0.360   3.704   7.533 -0.6114 -0.1787 -0.0991
 9395SOL    HW239819   0.421   3.577   7.590 -1.7828 -0.0171  0.0625
 9396SOL     OW39820   3.766   4.450   4.549  0.2282  0.0222 -0.6183
 9396SOL    HW139821   3.798   4.540   4.546  0.6911 -0.1060  0.6905
 9396SOL    HW239822   3.697   4.465   4.613  0.7193  1.1457 -0.3468
 9397SOL     OW39823   0.315   3.162   5.073 -0.3926 -0.1789  0.8522
 9397SOL    HW139824   0.283   3.242   5.032 -1.7093  0.3890  2.9696
 9397SOL    HW239825   0.305   3.105   4.997  1.6747 -1.1657  1.3082
 9398SOL     OW39826   2.216   1.667   5.613  0.6015 -0.2595  0.0902
 9398SOL    HW139827   2.227   1.754   5.650  0.9938 -0.5040  0.5421
 9398SOL    HW239828   2.159   1.616   5.670 -1.3512  3.7077  1.6419
 9399SOL     OW39829   4.534   1.769   8.955  0.1510 -0.2751  0.0592
 9399SOL    HW139830   4.533   1.796   8.863 -0.8805  2.2494  0.8250
 9399SOL    HW239831   4.440   1.769   8.973 -0.2022 -0.2619 -1.8126
 9400SOL     OW39832   4.074   4.695   4.634  0.0382  0.2759  0.1048
 9400SOL    HW139833   4.000   4.699   4.574  0.4040  2.4446 -0.2018
 9400SOL    HW239834   4.152   4.719   4.584 -0.2635 -2.0956 -1.4770
 9401SOL     OW39835   1.765   4.041   9.224 -0.5710 -0.0353  0.0632
 9401SOL    HW139836   1.765   4.098   9.301 -0.7831 -1.4079  1.0816
 9401SOL    HW239837   1.857   4.017   9.228 -1.5197 -3.3624  1.5541
 9402SOL     OW39838   1.031   3.996   5.722 -0.3906 -0.6941  0.7815
 9402SOL    HW139839   0.948   4.042   5.715 -1.0659 -1.7853  1.6211
 9402SOL    HW239840   1.044   3.974   5.629  1.0088 -1.7544  1.2269
 9403SOL     OW39841   0.690   3.011   3.523 -0.1872  0.3351  0.3234
 9403SOL    HW139842   0.756   3.078   3.543 -2.2498  2.9793 -1.8157
 9403SOL    HW239843   0.631   3.018   3.597 -1.3992 -0.2263 -0.5916
 9404SOL     OW39844   1.524   2.352   3.979 -0.0462  0.2506 -0.0292
 9404SOL    HW139845   1.431   2.349   4.001 -0.5064  2.3284 -1.7390
 9404SOL    HW239846   1.556   2.313   4.060 -3.5021 -2.3124  0.0811
 9405SOL     OW39847   0.839   1.033   7.300  0.0256  0.4870 -0.3016
 9405SOL    HW139848   0.772   1.096   7.273 -1.9717 -2.0340 -1.3267
 9405SOL    HW239849   0.786   0.988   7.366 -0.3041 -1.1605 -1.6621
 9406SOL     OW39850   4.439   3.669   4.654  0.7404  0.2100  0.4198
 9406SOL    HW139851   4.444   3.715   4.738 -1.0270  0.0115  0.6405
 9406SOL    HW239852   4.525   3.695   4.621  0.7440 -0.4903 -0.1109
 9407SOL     OW39853   0.783   3.405   5.979  0.3832  0.5161 -1.0056
 9407SOL    HW139854   0.832   3.371   5.905 -1.3619  0.7029 -2.2500
 9407SOL    HW239855   0.828   3.486   6.002  1.0932 -0.3832  0.7774
 9408SOL     OW39856   2.595   1.938  11.596  0.0210  1.0537  0.1463
 9408SOL    HW139857   2.628   1.967  11.510  1.7675  0.0834  0.4810
 9408SOL    HW239858   2.628   2.005  11.655  1.5438  1.4540 -1.1280
 9409SOL     OW39859   0.392   4.300   6.362  0.0138  0.2741 -0.2722
 9409SOL    HW139860   0.425   4.214   6.340 -1.9931 -0.4879 -0.3082
 9409SOL    HW239861   0.447   4.324   6.437  1.7568 -1.2140 -1.0826
 9410SOL     OW39862   3.568   4.732   3.361  0.1615 -0.1389  0.1725
 9410SOL    HW139863   3.642   4.671   3.367  0.9786  0.9556  1.0956
 9410SOL    HW239864   3.626   0.068   3.341 -0.6300  0.1183 -1.1567
 9411SOL     OW39865   3.609   0.029   6.735 -0.2917  0.2799  0.6180
 9411SOL    HW139866   3.543   0.076   6.685  0.0878  1.1365  0.9289
 9411SOL    HW239867   3.568   4.692   6.779  1.5305 -0.2072  1.5165
 9412SOL     OW39868   2.801   1.208   4.567 -0.2745 -0.1740  0.4485
 9412SOL    HW139869   2.724   1.266   4.569 -0.2232 -0.0867  0.0487
 9412SOL    HW239870   2.749   1.131   4.591  0.6837 -0.6265  1.0504
 9413SOL     OW39871   3.735   0.803   0.244  0.5939 -0.1832 -0.4825
 9413SOL    HW139872   3.788   0.724   0.256  1.8401  0.4073 -2.1061
 9413SOL    HW239873   3.787   0.838   0.171  1.9668  0.0019  0.5879
 9414SOL     OW39874   0.914   0.514   4.159 -0.3064 -0.1431 -0.2364
 9414SOL    HW139875   0.848   0.554   4.216 -1.1123  0.7020 -1.7609
 9414SOL    HW239876   0.934   0.572   4.085  0.6514 -1.4926 -1.0379
 9415SOL     OW39877   3.255   1.573  10.101  0.4321  0.9285 -0.1769
 9415SOL    HW139878   3.313   1.627  10.155  1.3178  1.5050 -1.7114
 9415SOL    HW239879   3.297   1.593  10.018  2.3458 -0.5225  0.4457
 9416SOL     OW39880   4.368   2.069   8.568 -0.8604 -0.3743  0.1412
 9416SOL    HW139881   4.379   2.082   8.474 -0.4496 -0.0584  0.2311
 9416SOL    HW239882   4.400   2.154   8.600 -0.1102 -0.5090 -0.2490
 9417SOL     OW39883   2.648   1.984   6.478 -0.2362 -0.2325  0.0129
 9417SOL    HW139884   2.677   2.074   6.461  0.4910 -0.2359  1.2493
 9417SOL    HW239885   2.726   1.936   6.504  0.5276  0.0447 -1.7531
 9418SOL     OW39886   1.334   2.775   7.908 -0.1139 -0.4869  0.1303
 9418SOL    HW139887   1.370   2.843   7.852  0.8122 -1.9038 -1.0015
 9418SOL    HW239888   1.402   2.770   7.976  0.9495 -1.5470 -1.0014
 9419SOL     OW39889   3.501   0.079   1.128 -0.5210  0.4454 -0.2791
 9419SOL    HW139890   3.500   4.721   1.125  1.0172  0.4838 -1.7203
 9419SOL    HW239891   3.429   0.095   1.189 -0.7374  0.2655 -0.4864
 9420SOL     OW39892   4.000   0.643  10.164  0.3444  0.0923  0.2074
 9420SOL    HW139893   4.024   0.580  10.096 -1.9564 -0.1523 -0.3960
 9420SOL    HW239894   4.087   0.665  10.198 -0.0366  0.1133  1.1793
 9421SOL     OW39895   0.331   4.009   5.419  0.4415 -0.0978 -0.1680
 9421SOL    HW139896   0.242   4.023   5.386  0.4188 -0.9400 -0.4630
 9421SOL    HW239897   0.376   4.084   5.379  1.4386 -1.2706 -1.2630
 9422SOL     OW39898   2.639   4.069  16.273 -0.8672  0.8301  0.0644
 9422SOL    HW139899   2.717   4.123  16.262  0.0402 -0.4390  0.3577
 9422SOL    HW239900   2.661   4.000  16.211 -1.5074  0.0222  0.7410
 9423SOL     OW39901   2.144   4.149  13.869 -0.5003 -0.1950  0.1974
 9423SOL    HW139902   2.130   4.126  13.961  2.1895  0.4111  0.7687
 9423SOL    HW239903   2.091   4.080  13.828  0.2740  0.0534 -1.2481
 9424SOL     OW39904   3.294   1.710   4.729 -0.5844 -0.1857 -0.2786
 9424SOL    HW139905   3.339   1.747   4.805 -0.5130 -0.7949 -0.0209
 9424SOL    HW239906   3.243   1.788   4.709 -1.5051 -0.7576 -0.1718
 9425SOL     OW39907   1.219   0.640  15.017 -0.4086  0.2602  0.0209
 9425SOL    HW139908   1.156   0.712  15.021  0.0461  0.6520  0.2442
 9425SOL    HW239909   1.171   0.580  15.073 -1.7867 -0.1158 -1.5580
 9426SOL     OW39910   3.998   0.796   9.861 -0.1713 -0.1217 -0.1495
 9426SOL    HW139911   3.935   0.855   9.820  1.5724  1.7753 -0.0726
 9426SOL    HW239912   3.936   0.754   9.922  1.9204 -0.6159  1.6396
 9427SOL     OW39913   4.092   3.692   6.125  0.1401 -0.2621  0.2220
 9427SOL    HW139914   4.014   3.649   6.088  0.1632  0.1633 -0.3144
 9427SOL    HW239915   4.146   3.614   6.111 -1.0935 -1.1736  0.5037
 9428SOL     OW39916   4.263   2.161   1.480 -0.2734  0.6053 -0.0556
 9428SOL    HW139917   4.308   2.235   1.521 -2.3251  0.6328  2.1154
 9428SOL    HW239918   4.248   2.202   1.395  1.9466  1.6338  0.0231
 9429SOL     OW39919   1.244   2.629  16.867 -0.4614  0.2033  0.4477
 9429SOL    HW139920   1.326   2.636  16.818 -1.6973  0.1518 -1.6222
 9429SOL    HW239921   1.180   2.616  16.797  1.1605  1.9241 -1.3503
 9430SOL     OW39922   1.800   2.929   6.390  0.5696  0.5227 -0.5351
 9430SOL    HW139923   1.730   2.995   6.396 -0.1913 -0.5875  2.9759
 9430SOL    HW239924   1.867   2.955   6.453  0.9684  1.1133 -1.2060
 9431SOL     OW39925   2.718   3.895   8.183 -0.6646  0.3183 -0.5520
 9431SOL    HW139926   2.672   3.939   8.255 -0.7757 -1.1281  0.2569
 9431SOL    HW239927   2.765   3.970   8.147  0.6704 -0.3998 -0.3119
 9432SOL     OW39928   0.236   3.959   1.344  0.0143 -0.4526 -0.1207
 9432SOL    HW139929   0.182   3.986   1.269  0.5283 -1.9492 -1.0161
 9432SOL    HW239930   0.231   3.864   1.338  2.2935 -0.6773  1.6378
 9433SOL     OW39931   1.448   3.062   5.917 -0.1909  0.1593 -0.3020
 9433SOL    HW139932   1.368   3.021   5.882 -0.7989 -0.0776  1.3594
 9433SOL    HW239933   1.516   2.994   5.913 -0.8545 -0.6572  2.2583
 9434SOL     OW39934   3.354   2.132   6.022  0.6523  0.0701  0.3953
 9434SOL    HW139935   3.336   2.176   6.105  1.2818  2.3965 -0.7022
 9434SOL    HW239936   3.272   2.086   6.002 -0.1036  1.9502 -0.9156
 9435SOL     OW39937   2.348   2.965   5.788  0.4567  0.5437  0.2090
 9435SOL    HW139938   2.303   2.934   5.866 -2.5353 -0.0960 -1.7688
 9435SOL    HW239939   2.421   2.903   5.786  1.1928  1.4466 -0.9373
 9436SOL     OW39940   4.621   3.664   9.416  0.5447  0.2385  0.4407
 9436SOL    HW139941   4.697   3.721   9.426 -0.4459  1.1100  2.7957
 9436SOL    HW239942   4.645   3.608   9.490  1.2420  0.6112  0.4923
 9437SOL     OW39943   1.812   3.435   6.880  0.5068 -0.2995  0.4066
 9437SOL    HW139944   1.720   3.428   6.854  0.0739  1.8000  1.3093
 9437SOL    HW239945   1.855   3.466   6.801 -0.6524  1.0293  0.2761
 9438SOL     OW39946   3.079   0.822   3.570  0.5040 -0.1923 -0.0581
 9438SOL    HW139947   3.089   0.734   3.608 -2.0758 -0.7344 -0.6310
 9438SOL    HW239948   3.129   0.818   3.489 -0.6686  1.3387 -0.8289
 9439SOL     OW39949   2.835   2.758  10.819  0.2591 -0.0757  0.2668
 9439SOL    HW139950   2.807   2.703  10.746  1.2998 -1.3537  0.8432
 9439SOL    HW239951   2.800   2.841  10.785 -0.1440  0.5721  2.2707
 9440SOL     OW39952   4.481   0.183   8.396  0.2243 -0.3371 -0.0802
 9440SOL    HW139953   4.484   0.275   8.420 -2.3787 -0.4699  0.7827
 9440SOL    HW239954   4.428   0.141   8.464 -0.8758 -1.3897 -1.5763
 9441SOL     OW39955   2.785   0.546   9.787 -0.3222 -0.2849 -0.4670
 9441SOL    HW139956   2.772   0.623   9.842  2.5057  1.0538 -1.6930
 9441SOL    HW239957   2.784   0.587   9.700  0.5356  1.4979  0.3603
 9442SOL     OW39958   1.462   2.640   8.749 -0.2146 -0.1996  0.2862
 9442SOL    HW139959   1.542   2.602   8.784 -0.0290  0.9956  1.1726
 9442SOL    HW239960   1.422   2.649   8.835  0.4098  3.3371  0.2009
 9443SOL     OW39961   1.211   1.197  12.917 -0.2003  0.2925  0.5408
 9443SOL    HW139962   1.298   1.182  12.955  0.7632  2.8774 -0.6249
 9443SOL    HW239963   1.223   1.258  12.844 -3.1714  0.2370  0.0045
 9444SOL     OW39964   2.941   2.744   4.056  0.0745  0.8067 -0.0314
 9444SOL    HW139965   2.905   2.786   4.134 -2.0706 -1.5613  0.2658
 9444SOL    HW239966   2.888   2.668   4.031  1.4928  0.0050 -0.5579
 9445SOL     OW39967   1.912   1.055   4.654  0.1336  0.5254 -0.0111
 9445SOL    HW139968   1.850   1.094   4.593  0.2902 -0.3746 -0.7360
 9445SOL    HW239969   1.861   1.067   4.735 -0.4303 -1.6820 -0.0412
 9446SOL     OW39970   4.408   0.728   6.096  0.3939 -0.6553 -0.7212
 9446SOL    HW139971   4.377   0.665   6.161 -2.0459 -0.7319 -1.9489
 9446SOL    HW239972   4.494   0.706   6.061  0.9093 -0.5185  0.4767
 9447SOL     OW39973   3.361   1.819   6.034  0.4755 -0.4651 -0.0317
 9447SOL    HW139974   3.329   1.788   5.949  0.8989 -1.6328  0.2274
 9447SOL    HW239975   3.455   1.811   6.020  0.1878 -0.5998 -1.9403
 9448SOL     OW39976   3.993   4.498   5.087  0.3802 -0.7092  0.1083
 9448SOL    HW139977   4.075   4.479   5.132  0.5858  0.8218  0.3852
 9448SOL    HW239978   3.993   4.593   5.095  0.2822 -0.6631 -0.4606
 9449SOL     OW39979   4.078   4.639   7.510 -0.7249 -0.3235  0.3194
 9449SOL    HW139980   4.045   4.549   7.511 -3.1234  0.5465  0.1378
 9449SOL    HW239981   4.003   4.687   7.474  2.8608  3.3169 -2.2923
 9450SOL     OW39982   2.925   4.396   5.758  0.1010 -0.3639  0.2861
 9450SOL    HW139983   2.939   4.434   5.671 -2.5091 -2.2350 -0.9273
 9450SOL    HW239984   2.859   4.329   5.743 -0.5840  0.1095  1.2177
 9451SOL     OW39985   0.828   0.021   4.367 -0.1520  0.1506 -0.5279
 9451SOL    HW139986   0.884   0.093   4.339  1.2785 -0.3339  1.0898
 9451SOL    HW239987   0.739   0.055   4.358 -0.6464 -0.6315  1.3400
 9452SOL     OW39988   0.154   0.560   6.399 -0.2632 -0.2746 -0.7575
 9452SOL    HW139989   0.170   0.481   6.347 -3.9342  0.0741 -2.4225
 9452SOL    HW239990   0.174   0.538   6.490 -2.2246  1.0143  0.0075
 9453SOL     OW39991   1.652   1.820   8.333  0.5943  0.0750  0.0111
 9453SOL    HW139992   1.616   1.885   8.274 -1.5837 -0.4409  0.7841
 9453SOL    HW239993   1.728   1.797   8.280  0.9056  0.4369  0.3016
 9454SOL     OW39994   1.472   0.484  17.086  0.1965  0.2408  0.0079
 9454SOL    HW139995   1.431   0.540  17.152  1.2488 -0.6990  1.4647
 9454SOL    HW239996   1.422   0.501  17.006 -0.4556 -1.6811  0.0052
 9455SOL     OW39997   0.064   4.699   4.554  0.2173 -0.2834 -0.5193
 9455SOL    HW139998   0.038   4.640   4.625 -1.0723  1.6871  0.6238
 9455SOL    HW239999   0.011   0.036   4.581 -0.0896 -0.9594  0.7426
 9456SOL     OW40000   0.543   3.465   3.429  0.1857 -0.0768  0.0115
 9456SOL    HW140001   0.459   3.447   3.472 -0.3474 -1.6733 -1.6747
 9456SOL    HW240002   0.516   3.534   3.368 -0.5770 -0.3155  0.0744
 9457SOL     OW40003   0.963   2.928   3.242 -0.2270 -0.1129  0.4870
 9457SOL    HW140004   0.927   3.015   3.257  2.8671  1.0566  1.0998
 9457SOL    HW240005   1.054   2.945   3.265 -0.4696 -0.9495  2.0044
 9458SOL     OW40006   3.645   0.961   0.736  0.5506  0.0666  0.7358
 9458SOL    HW140007   3.553   0.958   0.710  0.6648  1.6104  0.1818
 9458SOL    HW240008   3.676   1.037   0.687  0.2285  0.4904  1.1930
 9459SOL     OW40009   3.254   4.026   3.409  0.5445 -0.2895  0.0596
 9459SOL    HW140010   3.242   3.952   3.350 -1.2575 -0.2352  0.3709
 9459SOL    HW240011   3.345   4.010   3.436  0.5697  0.0673  0.1770
 9460SOL     OW40012   1.285   3.064  16.017 -0.4033 -0.2855 -0.0740
 9460SOL    HW140013   1.202   3.037  16.055 -0.5961  1.2504  0.5762
 9460SOL    HW240014   1.355   3.054  16.082 -0.1239  0.3315 -0.2820
 9461SOL     OW40015   0.091   0.728  13.991  0.0307  0.4371  0.3310
 9461SOL    HW140016   0.041   0.699  13.915  1.4872  0.6280 -0.6987
 9461SOL    HW240017   0.060   0.672  14.063 -1.8746  1.3153  0.1868
 9462SOL     OW40018   2.209   1.840  10.159 -0.1074  0.3732  0.7090
 9462SOL    HW140019   2.143   1.902  10.128  0.8699  1.4991  0.8442
 9462SOL    HW240020   2.283   1.901  10.160 -0.4173  0.7637  0.1263
 9463SOL     OW40021   0.257   1.620   7.839 -0.4711 -0.1096 -0.2919
 9463SOL    HW140022   0.303   1.537   7.836  1.3779  0.8370  1.9334
 9463SOL    HW240023   0.171   1.610   7.881 -1.3078 -1.5328 -2.3167
 9464SOL     OW40024   3.826   0.620  11.909 -0.0158  0.5557 -0.2049
 9464SOL    HW140025   3.768   0.671  11.965 -0.9397  0.1646 -0.8054
 9464SOL    HW240026   3.785   0.646  11.827  1.9191  0.8750 -1.0705
 9465SOL     OW40027   2.346   0.928   8.068 -0.0107  0.3683  0.4990
 9465SOL    HW140028   2.415   0.866   8.044 -0.2945  0.2181  0.0646
 9465SOL    HW240029   2.281   0.883   8.122  0.0895  0.0694  0.3701
 9466SOL     OW40030   3.778   2.842   3.305  0.0720  0.4510 -0.5860
 9466SOL    HW140031   3.724   2.913   3.340  1.5389  0.2701  2.0292
 9466SOL    HW240032   3.811   2.879   3.223  0.7576  4.1641  1.3460
 9467SOL     OW40033   4.008   3.004  10.128 -0.0427  0.2660  0.2705
 9467SOL    HW140034   4.089   3.007  10.077  0.5658 -1.0525  1.1517
 9467SOL    HW240035   3.972   3.085  10.092 -0.3264  1.5333  3.4140
 9468SOL     OW40036   2.255   0.189  13.894  0.0762 -0.2899 -0.4606
 9468SOL    HW140037   2.270   0.119  13.830  2.0716 -0.3922  0.1289
 9468SOL    HW240038   2.343   0.223  13.910  0.5495 -0.7718 -2.0001
 9469SOL     OW40039   0.335   3.294   8.494 -0.1943 -0.4217  0.5274
 9469SOL    HW140040   0.401   3.353   8.460  0.0148 -1.8962 -1.6402
 9469SOL    HW240041   0.313   3.235   8.422  1.3025 -1.2378  0.7429
 9470SOL     OW40042   4.704   1.240  13.274  0.1428 -0.3752  0.2533
 9470SOL    HW140043   0.029   1.297  13.228 -1.7328  1.3914 -0.0866
 9470SOL    HW240044   0.003   1.154  13.252  1.1451 -0.1862  1.1286
 9471SOL     OW40045   4.077   3.640   1.327  0.2184 -0.4993 -0.2466
 9471SOL    HW140046   4.154   3.690   1.355 -0.5033  1.2478 -1.3789
 9471SOL    HW240047   4.020   3.655   1.402 -1.1739  0.4741 -1.5083
 9472SOL     OW40048   3.468   3.082   6.766  0.3314 -0.0078 -0.1825
 9472SOL    HW140049   3.438   2.992   6.755  2.3423 -0.6715 -0.1533
 9472SOL    HW240050   3.405   3.120   6.827 -1.0836 -0.9224 -1.0915
 9473SOL     OW40051   1.785   0.135   9.391  0.1949  0.0105  0.6822
 9473SOL    HW140052   1.730   0.189   9.334 -0.1588  0.9177  1.8783
 9473SOL    HW240053   1.873   0.172   9.393 -0.0730  0.6808 -0.3658
 9474SOL     OW40054   1.585   2.171   8.647  0.1816  0.8620 -0.2169
 9474SOL    HW140055   1.578   2.257   8.604  0.4191  0.9446 -0.0930
 9474SOL    HW240056   1.492   2.157   8.661  0.1632  0.5905 -0.6102
 9475SOL     OW40057   3.767   2.310   4.303  0.0668 -0.0300  0.2506
 9475SOL    HW140058   3.753   2.218   4.324 -1.9520  0.6744  2.0190
 9475SOL    HW240059   3.758   2.346   4.391  1.1951 -1.0737  0.7921
 9476SOL     OW40060   3.069   4.109   6.744  0.3077  0.3530  0.9878
 9476SOL    HW140061   3.093   4.087   6.834  1.1992 -0.8366  0.4596
 9476SOL    HW240062   3.053   4.203   6.746  0.9936  0.5327 -1.7291
 9477SOL     OW40063   0.371   2.101   4.427 -0.0204  0.0321 -0.1643
 9477SOL    HW140064   0.283   2.068   4.446  0.1209 -0.3060 -0.0864
 9477SOL    HW240065   0.363   2.185   4.382 -0.2021  0.1497  0.0885
 9478SOL     OW40066   1.064   3.638   9.420 -0.1267 -0.7797 -0.4547
 9478SOL    HW140067   1.153   3.658   9.451 -0.4513  0.0329 -0.0389
 9478SOL    HW240068   1.071   3.659   9.326  2.2295  0.6941  0.0527
 9479SOL     OW40069   3.060   1.662  10.917 -0.2946 -0.1794  0.5483
 9479SOL    HW140070   3.150   1.631  10.906 -0.6107 -0.1587 -2.0372
 9479SOL    HW240071   3.016   1.587  10.877  0.0614  0.3936 -0.8948
 9480SOL     OW40072   2.081   1.918  10.533 -0.0590 -0.3279 -0.6469
 9480SOL    HW140073   2.165   1.938  10.490  0.6516  1.2725  1.5115
 9480SOL    HW240074   2.024   1.976  10.483 -2.3498 -1.1812  0.9906
 9481SOL     OW40075   2.045   2.121  10.030 -0.0097 -0.2434  0.8670
 9481SOL    HW140076   2.010   2.082   9.950  2.3439 -2.3914  0.8745
 9481SOL    HW240077   1.994   2.202  10.028  1.6747  0.7880  0.0114
 9482SOL     OW40078   2.337   3.739   2.908  0.1940  0.4025 -0.6122
 9482SOL    HW140079   2.309   3.784   2.828 -0.2950  0.2283 -0.5356
 9482SOL    HW240080   2.292   3.654   2.907  0.0524  0.4504  1.2613
 9483SOL     OW40081   0.376   3.055   5.578  0.4777 -0.2155 -0.2650
 9483SOL    HW140082   0.318   2.980   5.568 -0.3821  0.3104  0.7440
 9483SOL    HW240083   0.444   3.020   5.521 -0.2686 -1.2560 -0.5101
 9484SOL     OW40084   2.962   3.289   7.538  0.2835 -0.4369 -0.0296
 9484SOL    HW140085   2.970   3.378   7.573 -0.5460 -0.2111 -0.4056
 9484SOL    HW240086   3.050   3.255   7.547  0.1042 -0.5235  1.3252
 9485SOL     OW40087   3.169   1.212   0.032 -0.1041  0.7206  0.8157
 9485SOL    HW140088   3.090   1.194  17.728  0.9342 -0.4127 -0.3613
 9485SOL    HW240089   3.213   1.128   0.019 -0.3836  0.8492 -0.9899
 9486SOL     OW40090   1.006   1.726  16.133 -0.2290  0.1628 -0.2248
 9486SOL    HW140091   0.973   1.815  16.119 -2.8848 -0.6329  0.8732
 9486SOL    HW240092   0.975   1.720  16.224 -1.5880 -2.5601 -0.8725
 9487SOL     OW40093   3.120   2.706   3.368 -0.3155 -0.1195  0.3898
 9487SOL    HW140094   3.066   2.785   3.357 -0.1825  0.0857  1.1638
 9487SOL    HW240095   3.099   2.666   3.284 -0.8731 -0.5504  0.7300
 9488SOL     OW40096   3.181   4.038   6.984  0.1421  0.4275  0.1549
 9488SOL    HW140097   3.252   4.061   7.043 -1.2875  3.5158  0.6675
 9488SOL    HW240098   3.154   3.956   7.026  0.3707  1.8567  3.0515
 9489SOL     OW40099   1.167   2.099   6.670 -0.6808  0.6525 -0.0088
 9489SOL    HW140100   1.105   2.106   6.597 -2.1274 -2.0796  0.9453
 9489SOL    HW240101   1.180   2.190   6.697  2.4522 -0.4794  2.3320
 9490SOL     OW40102   4.510   0.264  11.556  0.1078  0.4541  0.1713
 9490SOL    HW140103   4.579   0.311  11.509 -0.1071 -0.2523 -0.8454
 9490SOL    HW240104   4.546   0.250  11.643 -0.1087 -1.5148 -0.0586
 9491SOL     OW40105   1.145   0.537   4.264 -0.1602 -0.4890  0.6099
 9491SOL    HW140106   1.062   0.510   4.224  0.3164 -0.4112 -0.4352
 9491SOL    HW240107   1.209   0.473   4.234 -0.4364 -0.3931 -0.1935
 9492SOL     OW40108   0.199   1.156   7.855 -0.8589 -0.3218  0.1872
 9492SOL    HW140109   0.278   1.127   7.810 -0.4813 -1.7851  1.8042
 9492SOL    HW240110   0.137   1.139   7.784  0.5845 -0.9539 -0.9026
 9493SOL     OW40111   1.910   1.335   6.570 -0.0069  0.2057  0.0255
 9493SOL    HW140112   1.972   1.274   6.531  0.8555  0.3972  1.0861
 9493SOL    HW240113   1.944   1.357   6.657 -0.3694 -1.3752  0.5584
 9494SOL     OW40114   0.024   1.795   3.255 -0.1719  0.0416  0.0530
 9494SOL    HW140115   0.104   1.743   3.261 -0.4501 -0.4187 -0.1760
 9494SOL    HW240116   4.718   1.753   3.181 -1.0777 -0.1207  0.6852
 9495SOL     OW40117   2.008   3.768   8.787  0.3025  0.1432 -0.1425
 9495SOL    HW140118   1.989   3.851   8.829 -0.0872 -0.8485  1.6336
 9495SOL    HW240119   1.922   3.727   8.783  1.3625 -2.0260 -1.1238
 9496SOL     OW40120   1.430   0.198  17.608  0.5883 -0.6292 -0.6034
 9496SOL    HW140121   1.519   0.217  17.579  0.8180 -0.1143  0.4225
 9496SOL    HW240122   1.391   0.285  17.606 -1.7092 -1.6640 -1.5520
 9497SOL     OW40123   0.534   2.779   1.727  0.7283 -0.1517 -0.0606
 9497SOL    HW140124   0.517   2.686   1.709  1.7194 -0.3920  0.2149
 9497SOL    HW240125   0.605   2.766   1.791  0.7252 -2.2630 -0.4721
 9498SOL     OW40126   0.792   0.450  14.658  0.3238 -0.2712  0.1363
 9498SOL    HW140127   0.742   0.459  14.739 -0.8523 -0.7403 -0.5329
 9498SOL    HW240128   0.762   0.363  14.631 -0.3355  0.4838 -1.5663
 9499SOL     OW40129   4.016   1.931  12.647  0.0526  0.4486  0.3211
 9499SOL    HW140130   4.071   1.966  12.577  0.0627 -0.3228 -0.0574
 9499SOL    HW240131   3.939   1.899  12.601  0.3197  0.0127  0.1823
 9500SOL     OW40132   0.402   4.599  17.002 -0.3185  0.2752  0.0536
 9500SOL    HW140133   0.473   4.663  17.005 -0.1097  0.0537 -0.1410
 9500SOL    HW240134   0.421   4.563  16.915 -1.1220  0.4977 -0.2142
 9501SOL     OW40135   4.564   1.709   5.669 -0.2393  0.8896 -0.3972
 9501SOL    HW140136   4.565   1.783   5.729 -1.9927 -0.6469  1.5452
 9501SOL    HW240137   4.656   1.684   5.660 -0.1636  1.0837 -0.1499
 9502SOL     OW40138   4.698   0.295   4.958  0.3769 -0.1892 -0.2039
 9502SOL    HW140139   0.001   0.352   5.023  0.4028 -1.6173  1.0422
 9502SOL    HW240140   4.635   0.357   4.923  2.2378  0.7571 -1.8564
 9503SOL     OW40141   1.030   0.272   6.438  0.2107 -0.1230 -0.8202
 9503SOL    HW140142   0.958   0.288   6.378 -0.6757  4.3026  1.3956
 9503SOL    HW240143   1.027   0.176   6.440  0.2970 -0.1092  0.3328
 9504SOL     OW40144   1.823   0.729   2.684 -0.2271 -0.1222 -0.2413
 9504SOL    HW140145   1.830   0.768   2.597  2.0160  1.7889  0.7827
 9504SOL    HW240146   1.905   0.682   2.700 -2.2249 -3.8226 -0.8094
 9505SOL     OW40147   2.974   1.183   6.420 -0.0719 -0.2131  0.7275
 9505SOL    HW140148   2.927   1.115   6.469 -0.9027 -0.2499 -0.1219
 9505SOL    HW240149   2.909   1.231   6.369 -0.4972 -0.6819  0.8248
 9506SOL     OW40150   2.407   4.302   1.459 -0.3485 -0.2486  0.4922
 9506SOL    HW140151   2.442   4.365   1.396  1.2318  0.3140  1.9350
 9506SOL    HW240152   2.462   4.224   1.468 -0.0653 -0.1627 -0.4306
 9507SOL     OW40153   2.941   3.047   0.047 -0.6813 -0.0139  0.4932
 9507SOL    HW140154   2.878   2.983   0.013  0.2182 -1.5228  1.6546
 9507SOL    HW240155   2.878   3.116   0.067  1.6638  2.0723  0.6864
 9508SOL     OW40156   3.154   0.693   1.107 -0.6155  0.8725  0.2256
 9508SOL    HW140157   3.168   0.742   1.027 -2.4548  0.8153 -0.1315
 9508SOL    HW240158   3.237   0.697   1.155 -1.5317  1.9559  1.7238
 9509SOL     OW40159   3.928   1.659  15.599 -0.0832  0.3914  0.1458
 9509SOL    HW140160   3.888   1.579  15.564  0.4966  0.5196 -0.8086
 9509SOL    HW240161   3.865   1.682  15.667 -0.7877 -0.3098 -0.2607
 9510SOL     OW40162   4.061   3.834  15.306  0.6368 -0.7554 -0.2693
 9510SOL    HW140163   4.032   3.921  15.281 -0.0495 -1.1998 -1.0160
 9510SOL    HW240164   3.995   3.800  15.367 -0.2525  0.8242 -0.3599
 9511SOL     OW40165   0.428   3.013   5.290  0.0303 -0.0852 -0.5973
 9511SOL    HW140166   0.395   3.049   5.209 -0.8057  0.5724  0.0390
 9511SOL    HW240167   0.409   2.919   5.279 -0.1775 -0.1131  0.0069
 9512SOL     OW40168   1.900   3.513   6.248  0.6929  0.3963 -0.1514
 9512SOL    HW140169   1.852   3.586   6.288  1.6270  1.3292 -0.7175
 9512SOL    HW240170   1.839   3.492   6.177 -0.4283  0.0855  0.8996
 9513SOL     OW40171   2.566   3.758  12.352 -0.2729  0.3744  0.2590
 9513SOL    HW140172   2.646   3.732  12.306  0.5654  2.9226  0.2901
 9513SOL    HW240173   2.509   3.775  12.277 -1.2391 -0.2504  0.8606
 9514SOL     OW40174   3.804   0.392   4.063 -0.1485  0.7586  0.3730
 9514SOL    HW140175   3.749   0.327   4.108  1.5774 -2.8895 -2.7511
 9514SOL    HW240176   3.773   0.468   4.111  0.1429  0.8385  0.4339
 9515SOL     OW40177   1.806   1.417   5.004 -0.6896 -0.2632  0.4848
 9515SOL    HW140178   1.833   1.460   5.085  0.4397  1.0277 -0.5756
 9515SOL    HW240179   1.820   1.324   5.022 -1.1690 -0.6649 -1.2524
 9516SOL     OW40180   3.212   0.802   5.735 -0.3506  0.2168  0.3512
 9516SOL    HW140181   3.188   0.824   5.825 -1.6712  0.7499 -0.1219
 9516SOL    HW240182   3.149   0.732   5.721  0.1942  0.1051 -1.5406
 9517SOL     OW40183   0.866   2.897   6.121 -0.1347  0.2192 -0.3080
 9517SOL    HW140184   0.796   2.833   6.110 -0.2454  0.3621 -0.4423
 9517SOL    HW240185   0.867   2.907   6.216 -1.1999  0.4190 -0.3152
 9518SOL     OW40186   3.298   4.622   3.360  0.5729  0.1030 -0.2848
 9518SOL    HW140187   3.347   4.646   3.439 -1.7477 -0.5079  1.3625
 9518SOL    HW240188   3.364   4.643   3.294 -0.5069 -0.6125 -1.5880
 9519SOL     OW40189   2.678   0.808  14.337 -0.3613 -0.0267  0.0830
 9519SOL    HW140190   2.678   0.865  14.259  0.8857 -0.9422 -0.5950
 9519SOL    HW240191   2.772   0.793  14.348  0.2042  2.7330 -0.9210
 9520SOL     OW40192   4.420   2.862  12.277 -0.8594  0.2199  0.0907
 9520SOL    HW140193   4.511   2.891  12.271 -1.2866  1.3089 -1.0714
 9520SOL    HW240194   4.411   2.827  12.188 -0.5566  2.0160 -0.6400
 9521SOL     OW40195   2.387   1.342  15.651 -0.3766 -0.0757  0.1324
 9521SOL    HW140196   2.298   1.307  15.642 -0.4872  0.4237 -0.7562
 9521SOL    HW240197   2.361   1.420  15.600 -1.8076 -0.1557  0.7195
 9522SOL     OW40198   0.960   2.398  16.564  0.3702 -0.0282  0.1884
 9522SOL    HW140199   1.017   2.448  16.506 -2.7017  3.8369  0.5434
 9522SOL    HW240200   1.020   2.377  16.635  0.2690  0.8671  0.5311
 9523SOL     OW40201   4.554   3.102   0.686  0.2408  0.2337  0.1628
 9523SOL    HW140202   4.626   3.055   0.645  0.4163 -0.3272  1.1039
 9523SOL    HW240203   4.568   3.192   0.658  1.4572 -0.3780 -1.1800
 9524SOL     OW40204   3.139   4.398   5.914  0.2701 -0.3253 -0.7261
 9524SOL    HW140205   3.142   4.490   5.939 -1.0620  0.2323 -2.6330
 9524SOL    HW240206   3.072   4.404   5.846  1.3519  0.3345 -1.7243
 9525SOL     OW40207   4.132   2.223  10.286  0.0540  0.0777  0.0590
 9525SOL    HW140208   4.200   2.217  10.219 -1.3064 -1.1305 -1.2352
 9525SOL    HW240209   4.152   2.136  10.323 -0.4774 -0.1569 -0.2065
 9526SOL     OW40210   1.642   0.024   9.084  0.3883 -0.0718  0.3870
 9526SOL    HW140211   1.685   0.110   9.082  0.8487 -0.2949  0.7745
 9526SOL    HW240212   1.720   4.708   9.099  0.7496 -0.3459 -2.4352
 9527SOL     OW40213   3.135   2.499  11.966 -0.1875  0.5358 -0.5746
 9527SOL    HW140214   3.210   2.499  12.025  0.1053 -1.2295 -0.9566
 9527SOL    HW240215   3.180   2.527  11.886 -2.3399 -0.8941 -2.2815
 9528SOL     OW40216   2.091   2.332   3.371  0.1126 -0.3379 -0.4069
 9528SOL    HW140217   2.057   2.326   3.460  1.1074 -0.2305 -0.0125
 9528SOL    HW240218   2.083   2.244   3.335 -0.2216 -1.0083  1.3474
 9529SOL     OW40219   3.704   2.719   2.698  0.6264  0.3191  0.1211
 9529SOL    HW140220   3.729   2.649   2.638  1.2802  2.3690 -1.9977
 9529SOL    HW240221   3.701   2.674   2.782 -1.3610 -2.6008 -1.5155
 9530SOL     OW40222   2.169   2.821   3.540 -0.4587  0.2884 -0.7488
 9530SOL    HW140223   2.142   2.838   3.630  0.9831  0.9596 -0.4468
 9530SOL    HW240224   2.149   2.728   3.536  3.0535 -0.4881  0.7758
 9531SOL     OW40225   1.067   4.325   5.443  0.0378  0.3344 -0.0886
 9531SOL    HW140226   1.054   4.285   5.357  2.9168 -2.5985  0.8135
 9531SOL    HW240227   1.001   4.274   5.489 -0.0400 -1.4324 -2.1874
 9532SOL     OW40228   2.080   4.237   7.416  0.1306  0.8224 -0.2944
 9532SOL    HW140229   2.061   4.148   7.387  2.2562  0.9836 -2.1560
 9532SOL    HW240230   2.018   4.284   7.359  2.6627  4.3629 -0.1650
 9533SOL     OW40231   1.403   3.759   8.171  0.6288  0.4342 -0.0833
 9533SOL    HW140232   1.490   3.784   8.204  0.7179  1.2320 -0.9334
 9533SOL    HW240233   1.392   3.672   8.210  0.0395  1.0007  1.0330
 9534SOL     OW40234   1.300   2.353   3.372  0.2705  0.5495  0.0771
 9534SOL    HW140235   1.287   2.440   3.334 -0.8446  0.5899  0.5700
 9534SOL    HW240236   1.394   2.341   3.361 -0.0339 -0.6640 -1.2258
 9535SOL     OW40237   0.006   4.564   1.404  0.0775  0.1726 -0.0972
 9535SOL    HW140238   0.080   4.577   1.346 -0.9795  0.7297 -1.3127
 9535SOL    HW240239   4.672   4.550   1.342 -1.2666 -0.7566  1.6339
 9536SOL     OW40240   1.319   0.886   0.616 -0.7643 -0.5742 -0.0802
 9536SOL    HW140241   1.402   0.845   0.591  0.0159  0.4711  0.8003
 9536SOL    HW240242   1.254   0.828   0.575 -1.9092  0.4746  0.2755
 9537SOL     OW40243   3.821   3.802   7.399 -0.2469 -0.0912 -0.3628
 9537SOL    HW140244   3.831   3.762   7.485 -1.0054  3.2605  1.2815
 9537SOL    HW240245   3.740   3.851   7.413 -0.9318 -0.9081 -1.5350
 9538SOL     OW40246   2.266   4.427   5.006 -0.2969  0.4071 -0.1178
 9538SOL    HW140247   2.359   4.404   5.010 -0.4755 -0.2573  0.4166
 9538SOL    HW240248   2.267   4.456   4.915  0.5644  2.2901  0.5096
 9539SOL     OW40249   4.711   0.434   1.924  0.0013 -0.0769  0.0673
 9539SOL    HW140250   4.633   0.407   1.971 -0.8218 -0.4601 -1.5257
 9539SOL    HW240251   4.668   0.498   1.866 -1.1818 -1.3712 -0.4669
 9540SOL     OW40252   1.962   2.173  11.931  0.3697  0.7742 -0.2817
 9540SOL    HW140253   2.046   2.134  11.955 -1.2929 -2.7963 -0.2294
 9540SOL    HW240254   1.929   2.200  12.017  0.4488  2.5670 -0.8162
 9541SOL     OW40255   4.461   1.162  11.846 -0.1274  0.3210 -0.1438
 9541SOL    HW140256   4.474   1.245  11.800 -3.0463 -0.4464 -2.3906
 9541SOL    HW240257   4.527   1.164  11.915 -0.0502 -1.0522 -0.1705
 9542SOL     OW40258   1.519   2.104   9.037  0.1707  0.5947 -0.5966
 9542SOL    HW140259   1.471   2.022   9.031 -0.5870  0.8301  2.6122
 9542SOL    HW240260   1.606   2.064   9.044 -1.2229 -2.0145  1.5693
 9543SOL     OW40261   2.521   0.838  12.892 -0.0558  0.0332  0.2697
 9543SOL    HW140262   2.587   0.775  12.861  0.6541  0.5448  0.7498
 9543SOL    HW240263   2.557   0.867  12.975 -0.0953  2.0719 -0.4101
 9544SOL     OW40264   2.472   4.090   4.677 -0.5125 -0.7775 -0.1384
 9544SOL    HW140265   2.501   3.999   4.685  1.5129 -0.0634  0.4916
 9544SOL    HW240266   2.454   4.090   4.583 -0.7744  2.1447 -0.0888
 9545SOL     OW40267   4.533   3.363   3.464 -0.3979 -0.0779 -0.3797
 9545SOL    HW140268   4.449   3.396   3.495 -0.6477 -0.7991 -0.2942
 9545SOL    HW240269   4.581   3.446   3.461  1.5940 -1.2186 -0.4791
 9546SOL     OW40270   2.811   3.669   5.215 -0.4619  0.4108  0.4175
 9546SOL    HW140271   2.862   3.690   5.293  1.5898  0.0607 -0.8259
 9546SOL    HW240272   2.744   3.738   5.223  0.1094  0.7076  2.4475
 9547SOL     OW40273   3.627   1.191   4.952 -0.3370 -0.5194 -0.3683
 9547SOL    HW140274   3.557   1.182   5.016  0.9728  1.1535  1.2911
 9547SOL    HW240275   3.591   1.147   4.875  0.5519 -0.9410 -0.5481
 9548SOL     OW40276   3.921   2.842   3.972  0.3860 -0.2319 -0.3681
 9548SOL    HW140277   3.922   2.748   3.954  0.3151  0.2616 -2.8351
 9548SOL    HW240278   3.826   2.838   3.984  0.6197 -2.4733  0.8583
 9549SOL     OW40279   4.237   0.013   0.167 -0.7301  0.0065 -0.7002
 9549SOL    HW140280   4.210   0.082   0.228  1.2562  0.1536  0.0004
 9549SOL    HW240281   4.261   0.068   0.093  1.3255 -0.5433 -0.4428
 9550SOL     OW40282   1.550   1.105   4.757 -0.3887 -0.3062  0.4020
 9550SOL    HW140283   1.528   1.173   4.694 -1.0465  0.5856  1.6103
 9550SOL    HW240284   1.469   1.094   4.807 -1.1255 -1.5695 -1.0718
 9551SOL     OW40285   4.729   1.575   5.031 -0.1897  0.0137 -0.3940
 9551SOL    HW140286   4.702   1.516   4.960 -1.2877 -1.7701  1.5208
 9551SOL    HW240287   4.645   1.593   5.073  0.1627  2.3105 -0.6716
 9552SOL     OW40288   1.820   3.757   2.031 -0.3210  0.4007 -0.1494
 9552SOL    HW140289   1.882   3.689   2.007 -1.2430 -1.0752  1.6249
 9552SOL    HW240290   1.874   3.799   2.098  0.7551  1.9809 -2.0085
 9553SOL     OW40291   0.731   0.647   8.210  0.7798 -0.2459  0.1460
 9553SOL    HW140292   0.756   0.559   8.238  0.0630 -0.6305 -0.4300
 9553SOL    HW240293   0.798   0.681   8.269  2.5440 -2.8094 -0.3542
 9554SOL     OW40294   2.391   3.467  13.857 -0.6159  0.2519 -0.0212
 9554SOL    HW140295   2.471   3.477  13.908 -0.7919 -2.6412  0.7667
 9554SOL    HW240296   2.394   3.550  13.808 -2.2181  0.7953  0.7910
 9555SOL     OW40297   4.573   1.301   6.179  0.1175  0.2105 -0.7143
 9555SOL    HW140298   4.655   1.252   6.184 -1.0266 -1.7319 -0.8592
 9555SOL    HW240299   4.570   1.346   6.264  2.1788 -0.2187 -0.4302
 9556SOL     OW40300   3.838   1.058  10.406  0.3132  0.4963  0.3718
 9556SOL    HW140301   3.745   1.060  10.385  0.2285 -0.1308  0.6668
 9556SOL    HW240302   3.864   0.978  10.359 -1.6395  0.9274 -1.4208
 9557SOL     OW40303   4.466   3.176   5.973 -0.6405 -0.3214 -0.1420
 9557SOL    HW140304   4.554   3.213   5.963 -0.6301 -0.2344  0.2708
 9557SOL    HW240305   4.435   3.222   6.051  0.1079  0.1274 -0.1091
 9558SOL     OW40306   1.277   2.151  16.873 -0.8597 -0.7271  0.2081
 9558SOL    HW140307   1.232   2.094  16.936  0.9207 -0.2433  1.9212
 9558SOL    HW240308   1.271   2.236  16.916  0.8174  0.5398 -2.0510
 9559SOL     OW40309   1.023   0.397   7.858  0.5782 -0.1116  0.2853
 9559SOL    HW140310   0.991   0.357   7.940  1.4789  0.5808  0.9753
 9559SOL    HW240311   1.080   0.468   7.889  0.4861 -0.0383  0.2868
 9560SOL     OW40312   4.445   1.467  13.172  0.4256 -0.0059 -0.0855
 9560SOL    HW140313   4.350   1.481  13.173  0.1820 -1.6226 -0.7154
 9560SOL    HW240314   4.479   1.527  13.105 -1.1688  0.9196 -0.0775
 9561SOL     OW40315   1.677   1.937  13.414  0.0967 -0.2334 -0.2628
 9561SOL    HW140316   1.770   1.914  13.425 -0.0354 -0.2330  0.8151
 9561SOL    HW240317   1.673   1.947  13.319  1.6662  1.1600 -0.1805
 9562SOL     OW40318   0.976   3.992   1.817  0.0028 -0.3286 -0.3918
 9562SOL    HW140319   1.064   3.982   1.854  0.3268  0.6362 -0.8894
 9562SOL    HW240320   0.940   4.068   1.863  0.1840 -0.0360 -0.7343
 9563SOL     OW40321   1.198   3.109   5.375 -0.1447  0.5506  0.2195
 9563SOL    HW140322   1.238   3.034   5.330  1.7201  0.8276  1.4606
 9563SOL    HW240323   1.151   3.157   5.306 -3.2318 -1.1737  1.1219
 9564SOL     OW40324   1.563   2.704   7.723 -0.0410  0.5764 -0.5793
 9564SOL    HW140325   1.591   2.795   7.713 -0.4752  0.5391 -2.0644
 9564SOL    HW240326   1.644   2.653   7.724 -0.1188  0.4396 -1.4869
 9565SOL     OW40327   0.233   0.844   8.356  0.1967  0.0104 -0.4561
 9565SOL    HW140328   0.245   0.779   8.425  0.0762  0.1155 -0.3374
 9565SOL    HW240329   0.319   0.854   8.316  0.2113  1.7747  0.0081
 9566SOL     OW40330   0.767   3.963  16.654 -0.1825  0.1352 -0.7899
 9566SOL    HW140331   0.740   3.983  16.743 -0.1579 -0.1788 -0.7107
 9566SOL    HW240332   0.747   4.046  16.612  1.9531  1.6394  1.1783
 9567SOL     OW40333   0.803   0.927   2.698 -0.7518 -0.7355  0.4444
 9567SOL    HW140334   0.884   0.876   2.690  0.5280  1.3855 -0.0183
 9567SOL    HW240335   0.820   1.008   2.650  1.6131 -0.1941  2.2080
 9568SOL     OW40336   4.081   3.752   2.238  0.1627  0.8500 -0.3070
 9568SOL    HW140337   3.995   3.754   2.279 -1.1159 -2.3305 -2.8972
 9568SOL    HW240338   4.129   3.811   2.296  1.5787 -0.1408 -0.4637
 9569SOL     OW40339   2.576   1.130   1.927 -0.4427  0.6197 -0.4020
 9569SOL    HW140340   2.500   1.080   1.898 -0.0023 -0.0200 -0.4452
 9569SOL    HW240341   2.650   1.088   1.882  0.8180  0.6265  1.6403
 9570SOL     OW40342   3.025   3.548   6.083 -0.1056  0.3772  0.8004
 9570SOL    HW140343   3.014   3.522   6.174 -3.1058 -1.7017 -0.1682
 9570SOL    HW240344   2.989   3.466   6.050  0.5782 -0.4302  2.0809
 9571SOL     OW40345   1.954   0.182   3.160  0.4889 -0.5522 -0.3186
 9571SOL    HW140346   2.016   0.130   3.109  0.3665 -1.3001  0.2965
 9571SOL    HW240347   1.875   0.130   3.146  1.2479 -2.0897  1.0774
   4.73741   4.73741  17.74793
