Membrane in water
40347
    1TMC1    C1    1   1.930   3.878  11.275 -0.5547 -0.1202  0.1574
    1TMC1    C2    2   2.067   3.906  11.257 -0.2387 -0.6339  0.5819
    1TMC1    C3    3   2.102   4.004  11.166  0.8566 -0.4957  0.1633
    1TMC1    C4    4   1.834   3.942  11.200 -0.5186 -0.3882  0.1913
    1TMC1    C5    5   1.876   4.037  11.107 -0.6952 -0.2571 -0.1909
    1TMC1    C6    6   2.011   4.072  11.093 -0.0432 -0.1881  0.2907
    1TMC1     C    7   1.890   3.782  11.377 -0.2814  0.3132  0.3406
    1TMC1     O    8   1.774   3.785  11.417 -0.6964  0.2210  0.1104
    1TMC1     H    9   2.136   3.867  11.331  2.2600 -2.5426 -2.7900
    1TMC1    H1   10   1.728   3.928  11.215 -0.6555  0.5246  0.0551
    1TMC1    H2   11   2.049   4.126  11.007  2.3102  0.7117  1.8965
    1TMC1    C7   12   1.787   4.077  11.004 -0.4470 -0.2447 -0.6289
    1TMC1    C8   13   2.238   4.041  11.152 -0.5598 -0.3545 -0.3606
    1TMC1    O1   14   1.697   4.007  10.964  0.1581  0.1396 -0.3312
    1TMC1    O2   15   2.265   4.117  11.058  0.2865 -0.1335 -0.6283
    1TMC1    O3   16   1.850   4.167  10.928  0.5894 -0.6297 -0.3648
    1TMC1    H3   17   1.913   4.223  10.977 -0.2974 -1.6674  1.9448
    1TMC1    O5   18   2.314   3.950  11.213  0.6514  0.0965 -0.6492
    1TMC1    H5   19   2.278   3.864  11.244 -1.1128  2.6425  4.2627
    2MPD2     C   20   1.966   3.340  11.621 -0.8524  0.0244  0.1354
    2MPD2    C1   21   1.861   3.426  11.623 -0.0035  0.6174 -0.8801
    2MPD2    C2   22   1.865   3.538  11.546 -0.0477  0.5330  0.3118
    2MPD2    C3   23   1.974   3.571  11.472 -0.2665  0.1027 -0.3014
    2MPD2    C4   24   2.081   3.489  11.474 -0.1733 -0.0573 -0.5607
    2MPD2    C5   25   2.078   3.376  11.549  0.4690  0.0749  0.0564
    2MPD2     H   26   1.795   3.618  11.561 -1.4425 -0.8132  0.9603
    2MPD2    H1   27   2.173   3.518  11.425 -0.4335 -0.3272 -1.2112
    2MPD2    H2   28   1.979   3.255  11.688  0.3298  0.2383  0.1696
    2MPD2    H3   29   2.175   3.328  11.556 -0.5245 -1.9151  0.3854
    2MPD2     N   30   1.982   3.683  11.396 -0.1838 -0.3449 -0.2483
    2MPD2    H5   31   2.067   3.689  11.340 -1.1972 -0.6839 -1.8282
    2MPD2    N1   32   1.748   3.416  11.712  0.6512  0.2443 -0.4071
    2MPD2    H7   33   1.666   3.472  11.690 -0.5975 -2.4894 -2.7703
    3TMC1    C1   34   1.156   4.286  10.850  0.4524 -0.3018 -0.3952
    3TMC1    C2   35   1.120   4.378  10.746  0.3589  0.3770  0.6503
    3TMC1    C3   36   1.215   4.396  10.645  0.7140 -0.4284 -0.9651
    3TMC1    C4   37   1.273   4.221  10.837 -0.0898  0.0674  0.8892
    3TMC1    C5   38   1.354   4.229  10.722 -0.2392 -1.2212 -0.0089
    3TMC1    C6   39   1.332   4.323  10.624  0.4442 -0.3914  0.1967
    3TMC1     C   40   1.059   4.247  10.950  0.2811  0.7646 -0.8419
    3TMC1     O   41   1.057   4.130  10.996 -0.2694 -0.0377 -0.1158
    3TMC1     H   42   1.033   4.443  10.742  1.6961  2.1604  0.8302
    3TMC1    H1   43   1.286   4.141  10.909 -0.6462  0.5336  1.5104
    3TMC1    H2   44   1.396   4.340  10.538  0.7512 -1.0656  0.2865
    3TMC1    C7   45   1.460   4.129  10.710  0.5457  0.1072 -0.0513
    3TMC1    C8   46   1.153   4.467  10.543 -0.1284  0.0111 -0.3192
    3TMC1    O1   47   1.425   4.011  10.695  0.2787  0.1055 -0.0864
    3TMC1    O2   48   1.035   4.467  10.509  0.2651  0.2133 -0.3467
    3TMC1    O3   49   1.561   4.190  10.647 -0.7045 -0.0130 -0.5619
    3TMC1    H3   50   1.586   4.275  10.690 -1.2367  0.2959 -0.8671
    3TMC1    O5   51   1.247   4.544  10.491  0.6377  0.2311 -0.3874
    3TMC1    H5   52   1.319   4.560  10.556 -0.3315  4.4736 -0.3426
    4MPD2     C   53   0.678   4.403  11.271 -0.5555  0.3974  0.1928
    4MPD2    C1   54   0.744   4.513  11.224  1.0657  0.5232  0.3484
    4MPD2    C2   55   0.846   4.497  11.127 -0.0263 -0.1358  0.5184
    4MPD2    C3   56   0.889   4.368  11.095  0.2522  0.1394  0.1335
    4MPD2    C4   57   0.830   4.263  11.155 -0.0954 -0.1920  1.1838
    4MPD2    C5   58   0.729   4.278  11.246  0.2231 -0.8963  0.1693
    4MPD2     H   59   0.890   4.579  11.071 -0.8420 -0.1763 -0.1732
    4MPD2    H1   60   0.865   4.161  11.136 -2.3393 -0.8535  0.6406
    4MPD2    H2   61   0.591   4.406  11.335 -0.9301 -1.7549 -0.1890
    4MPD2    H3   62   0.673   4.199  11.294  0.6344 -0.3531  1.5422
    4MPD2     N   63   0.982   4.355  10.981 -0.5139  1.0814  0.1446
    4MPD2    H5   64   1.008   4.440  10.931 -2.2457 -0.6764 -3.7780
    4MPD2    N1   65   0.710   4.646  11.259 -1.1648  0.2037 -0.1959
    4MPD2    H7   66   0.779   4.717  11.237 -1.4043 -0.8089 -4.3406
    5TCq1    O1   67   0.782   1.406  11.191 -0.3811  0.5570  0.3231
    5TCq1    C1   68   0.906   1.370  11.196  0.8914  0.0187  0.8131
    5TCq1    O2   69   0.985   1.410  11.280 -0.4366  0.0257 -0.3546
    5TCq1    C2   70   0.938   1.310  11.068  0.1256 -0.2944 -0.0156
    5TCq1    C3   71   0.876   1.192  11.034  0.1109  0.3490  0.2531
    5TCq1    C4   72   0.939   1.101  10.949  0.0977 -0.4261  0.3900
    5TCq1    C5   73   1.061   1.133  10.892  0.2290  1.5711  0.0551
    5TCq1    C6   74   1.118   1.253  10.925  0.2362  0.1383  0.0326
    5TCq1    C7   75   1.058   1.345  11.014  0.3195 -0.0619 -0.5195
    5TCq1    C8   76   1.258   1.263  10.900 -0.2069  0.4579 -0.0646
    5TCq1    O4   77   1.332   1.167  10.900  0.1569 -0.1046 -0.3142
    5TCq1    C9   78   0.880   0.964  10.930  0.0130 -0.1800 -0.3239
    5TCq1    O5   79   0.763   0.952  10.984 -0.2058 -0.3298  0.8404
    5TCq1    O6   80   0.956   0.862  10.917  0.4675  0.4851 -0.6296
    5TCq1    H1   81   0.742   1.377  11.106 -0.7070 -2.9276  1.6612
    5TCq1    H2   82   0.786   1.168  11.088  0.4772  1.9373  1.5636
    5TCq1    H3   83   1.118   1.068  10.827 -1.6377 -2.6617  2.6596
    5TCq1    H4   84   1.104   1.437  11.049 -2.0305  1.3403 -1.1411
    6MPD2     C   85   1.446   1.584  10.809 -0.0903 -0.8475 -0.5112
    6MPD2    C1   86   1.431   1.447  10.839  0.1886  0.0118 -0.5174
    6MPD2    C2   87   1.542   1.365  10.826 -0.0441  0.9777 -0.0608
    6MPD2    C3   88   1.662   1.404  10.767 -1.0979  0.1769 -1.0082
    6MPD2    C4   89   1.675   1.539  10.736  0.3279  0.7257  0.0074
    6MPD2    C5   90   1.574   1.626  10.754  0.8484 -0.1002 -0.5006
    6MPD2     H   91   1.526   1.259  10.847  2.5137  0.2888 -1.5295
    6MPD2    H1   92   1.768   1.566  10.688  0.8442  0.6312  0.9665
    6MPD2    H2   93   1.365   1.656  10.816  1.4977  1.0021 -1.0911
    6MPD2    H3   94   1.593   1.730  10.730 -0.7075  1.1973  3.9454
    6MPD2     N   95   1.771   1.317  10.758  0.9314 -0.0977  0.3189
    6MPD2    H5   96   1.748   1.220  10.778  1.2244 -0.0780  0.7360
    6MPD2    N1   97   1.300   1.397  10.884 -0.1309 -0.7734 -0.5837
    6MPD2    H7   98   1.221   1.460  10.875  0.1717 -0.3419 -0.2254
    7TCq1    O1   99   3.248   0.925  12.784 -0.1156  0.0297  0.2977
    7TCq1    C1  100   3.348   0.914  12.868 -0.0278 -0.6597  0.0131
    7TCq1    O2  101   3.362   0.994  12.960 -0.3682  0.2160  0.0594
    7TCq1    C2  102   3.398   0.778  12.883 -0.4958  0.2531 -0.3092
    7TCq1    C3  103   3.323   0.672  12.849 -0.1072 -0.4579  0.1040
    7TCq1    C4  104   3.372   0.548  12.878 -0.6080  0.1181 -0.3154
    7TCq1    C5  105   3.491   0.529  12.950  0.7340 -0.0075 -0.5616
    7TCq1    C6  106   3.560   0.643  12.978 -0.3857  0.1712  1.3216
    7TCq1    C7  107   3.523   0.767  12.940 -0.4207 -0.3349  0.1059
    7TCq1    C8  108   3.681   0.636  13.061  1.0683  0.2544 -0.4639
    7TCq1    O4  109   3.754   0.733  13.055  0.0498  0.1008 -0.7137
    7TCq1    C9  110   3.293   0.430  12.842  0.2476 -0.5706 -0.5386
    7TCq1    O5  111   3.339   0.313  12.834 -0.0019 -0.2210 -0.0264
    7TCq1    O6  112   3.179   0.456  12.794  0.6208  0.0856 -0.0950
    7TCq1    H1  113   3.247   0.848  12.723 -0.0768  0.9000 -0.7900
    7TCq1    H2  114   3.224   0.689  12.809  0.2100  0.7522 -0.1781
    7TCq1    H3  115   3.515   0.433  12.995 -2.3166 -0.9590 -0.9666
    7TCq1    H4  116   3.565   0.854  12.989  0.3457  0.2419 -1.5735
    8MPD2     C  117   4.009   0.378  13.364 -0.3912 -0.6210 -0.5677
    8MPD2    C1  118   3.897   0.300  13.344 -0.1645  0.0782 -0.2252
    8MPD2    C2  119   3.794   0.350  13.268 -0.2555 -0.5293 -0.1937
    8MPD2    C3  120   3.789   0.482  13.221  0.2430 -0.3558  0.3822
    8MPD2    C4  121   3.898   0.558  13.240  0.2319 -0.1515 -0.0580
    8MPD2    C5  122   4.006   0.507  13.315  0.5382  0.1188  0.6276
    8MPD2     H  123   3.712   0.283  13.245  1.4435 -2.2443 -1.3033
    8MPD2    H1  124   3.909   0.657  13.197 -0.6041 -0.8942 -1.9850
    8MPD2    H2  125   4.095   0.355  13.426  0.5463  0.4925 -1.4277
    8MPD2    H3  126   4.086   0.575  13.343  0.8505 -0.5782  1.4182
    8MPD2     N  127   3.682   0.524  13.144 -0.3799  0.4339 -0.5923
    8MPD2    H5  128   3.606   0.456  13.147 -2.4050  2.6524 -2.0017
    8MPD2    N1  129   3.908   0.167  13.392  0.3090  0.1130  0.4494
    8MPD2    H7  130   4.006   0.145  13.406  0.4945 -0.0207 -1.0997
    9TMC1    C1  131   1.695   4.680  11.175 -0.2428  0.5488  0.3681
    9TMC1    C2  132   1.645   4.556  11.124 -0.5897 -0.2557  0.1450
    9TMC1    C3  133   1.683   4.507  11.007 -0.1883 -0.0424  0.4571
    9TMC1    C4  134   1.791   0.000  11.108  0.3143 -0.7691 -0.0098
    9TMC1    C5  135   1.831   4.686  10.990 -0.1901  0.5203  1.2165
    9TMC1    C6  136   1.770   4.579  10.927  0.7915 -0.0886 -0.6778
    9TMC1     C  137   1.623   0.021  11.264 -0.2597 -0.2200  0.0776
    9TMC1     O  138   1.632   0.139  11.247  0.1166  0.6648  0.0075
    9TMC1     H  139   1.565   4.502  11.173 -0.4730  0.5240  1.2130
    9TMC1    H1  140   1.836   0.088  11.153 -1.7350  0.9665 -1.3281
    9TMC1    H2  141   1.799   4.536  10.832 -1.2820  0.7463 -1.6734
    9TMC1    C7  142   1.907   0.038  10.908  0.2011 -0.3845 -0.1528
    9TMC1    C8  143   1.615   4.389  10.945  0.0547 -1.1823 -0.6681
    9TMC1    O1  144   1.891   0.041  10.786  0.5650 -0.5929  0.4331
    9TMC1    O2  145   1.614   4.374  10.823 -0.1464 -0.0666 -0.3743
    9TMC1    O3  146   2.024   0.068  10.971 -0.3297  0.0182 -0.0466
    9TMC1    H3  147   2.015   0.045  11.066  2.7070 -2.0692 -0.2796
    9TMC1    O5  148   1.602   4.293  11.033  0.5519 -0.0960 -0.6290
    9TMC1    H5  149   1.639   4.314  11.122 -1.6350  0.1820  0.2043
   10MPD2     C  150   1.452   0.154  11.459  0.5590 -0.1197  0.6681
   10MPD2    C1  151   1.478   0.021  11.458 -0.0531  0.3005  0.1244
   10MPD2    C2  152   1.419   4.684  11.560  0.0278 -0.1454  0.3177
   10MPD2    C3  153   1.357   0.004  11.665 -0.2674  1.1011 -0.4621
   10MPD2    C4  154   1.338   0.140  11.679 -0.6229 -0.4198 -0.8049
   10MPD2    C5  155   1.386   0.210  11.570  0.6251 -0.3724  0.6328
   10MPD2     H  156   1.449   4.580  11.569 -0.6466 -0.0100  4.3326
   10MPD2    H1  157   1.287   0.188  11.762  1.7769 -1.0779  1.0333
   10MPD2    H2  158   1.478   0.211  11.370 -2.0999 -2.3952 -1.5910
   10MPD2    H3  159   1.369   0.316  11.566  4.5506  0.2856  0.9405
   10MPD2     N  160   1.298   4.661  11.762 -0.2029 -0.2570  0.0896
   10MPD2    H5  161   1.261   4.708  11.844 -0.3199  0.6405 -0.4673
   10MPD2    N1  162   1.542   4.690  11.353  0.1579  0.2718 -0.8512
   10MPD2    H7  163   1.527   4.590  11.352 -1.0264  0.4324  1.1501
   11TCq1    O1  164   2.255   3.916  14.419 -0.4452  0.0625 -0.3743
   11TCq1    C1  165   2.161   3.828  14.378  0.1590 -0.3015  0.2080
   11TCq1    O2  166   2.182   3.703  14.366 -0.3726  0.0010 -0.1704
   11TCq1    C2  167   2.040   3.880  14.438  0.0178  0.2658  0.4355
   11TCq1    C3  168   2.030   3.980  14.529 -0.4048  0.0508 -0.4978
   11TCq1    C4  169   1.909   4.013  14.577 -0.3664  0.0027  0.6027
   11TCq1    C5  170   1.796   3.945  14.544 -0.2961 -0.2807  0.4106
   11TCq1    C6  171   1.811   3.835  14.460  0.3750  0.9327 -0.0391
   11TCq1    C7  172   1.931   3.798  14.409 -0.3078  0.1862 -0.2040
   11TCq1    C8  173   1.691   3.781  14.407 -0.3080 -0.2676 -0.2618
   11TCq1    O4  174   1.612   3.866  14.370 -0.2221  0.2691  0.0602
   11TCq1    C9  175   1.894   4.134  14.663 -0.7816 -0.5661 -0.5845
   11TCq1    O5  176   1.779   4.159  14.704 -0.1971 -0.0766  0.2417
   11TCq1    O6  177   1.994   4.215  14.658 -0.5269  0.6669 -0.1795
   11TCq1    H1  178   2.221   4.007  14.401  0.7812  0.5083 -0.4200
   11TCq1    H2  179   2.113   4.036  14.571 -1.4892  2.8784 -2.1332
   11TCq1    H3  180   1.696   3.974  14.574  0.8476  1.8763  2.1442
   11TCq1    H4  181   1.939   3.718  14.337  0.4436  0.0650  0.0144
   12MPD2     C  182   1.488   3.634  14.251 -0.5168  0.0157 -0.9981
   12MPD2    C1  183   1.592   3.573  14.321 -0.5236  0.4349 -0.1416
   12MPD2    C2  184   1.619   3.438  14.306 -0.7798  0.5994  0.9170
   12MPD2    C3  185   1.536   3.367  14.215  0.5312  0.3258 -0.2059
   12MPD2    C4  186   1.421   3.421  14.155 -0.2060 -0.5690 -0.0504
   12MPD2    C5  187   1.397   3.558  14.183 -0.8328  0.2726 -0.1391
   12MPD2     H  188   1.702   3.395  14.359 -0.6324 -0.4975 -0.2053
   12MPD2    H1  189   1.377   3.377  14.066  2.8969 -1.9829 -0.8887
   12MPD2    H2  190   1.463   3.739  14.260  0.8277  0.1460  1.4166
   12MPD2    H3  191   1.324   3.611  14.122 -0.7210 -0.6244 -1.0597
   12MPD2     N  192   1.555   3.228  14.187 -0.2119  0.0950 -0.1624
   12MPD2    H5  193   1.500   3.197  14.107 -1.0069  2.1321 -0.4130
   12MPD2    N1  194   1.689   3.647  14.391  0.3401  0.2746  0.4457
   12MPD2    H7  195   1.753   3.592  14.447 -1.1090 -1.6027  0.2660
   13TCq1    O1  196   1.937   0.202  11.853  0.3260  0.1720  0.3489
   13TCq1    C1  197   2.035   0.170  11.763  0.6720 -0.2388  0.3871
   13TCq1    O2  198   2.154   0.170  11.793  0.1924  0.4243 -0.2295
   13TCq1    C2  199   1.985   0.097  11.652  0.0030 -0.4168 -0.4068
   13TCq1    C3  200   2.065   0.107  11.541 -0.5052 -0.2562  0.6829
   13TCq1    C4  201   2.038   0.029  11.435 -0.3412  0.0949  0.0604
   13TCq1    C5  202   1.935   4.681  11.441 -0.1658  0.2392  0.2293
   13TCq1    C6  203   1.871   4.659  11.560 -0.6722  0.3045  0.8202
   13TCq1    C7  204   1.885   0.006  11.666 -0.3220 -0.5624 -0.5031
   13TCq1    C8  205   1.786   4.538  11.572 -0.7214 -0.2426 -0.3546
   13TCq1    O4  206   1.761   4.473  11.473 -0.4864 -0.5138 -0.0110
   13TCq1    C9  207   2.111   0.061  11.317  0.0944 -0.3572 -0.3923
   13TCq1    O5  208   2.219   0.123  11.329 -0.1466  0.5134  0.3651
   13TCq1    O6  209   2.051   0.018  11.214 -0.0241  0.0438  0.6142
   13TCq1    H1  210   1.847   0.184  11.819  0.6252  2.2010 -1.5559
   13TCq1    H2  211   2.147   0.177  11.535  0.3397 -1.1802  1.3998
   13TCq1    H3  212   1.901   4.632  11.350  0.6935 -1.3607  0.7732
   13TCq1    H4  213   1.843   0.002  11.766  3.2436  1.1770  1.0678
   14MPD2     C  214   1.695   4.348  11.870  1.2926  0.5389 -0.7523
   14MPD2    C1  215   1.684   4.390  11.744 -0.1248  0.4198  0.1020
   14MPD2    C2  216   1.594   4.320  11.663  0.2077 -0.2973  0.4898
   14MPD2    C3  217   1.512   4.218  11.710 -0.2669 -0.0921  0.3050
   14MPD2    C4  218   1.524   4.191  11.843 -0.0225 -0.2252 -0.9346
   14MPD2    C5  219   1.616   4.253  11.919 -0.2671  0.0599 -0.1229
   14MPD2     H  220   1.581   4.346  11.558 -0.0294 -0.7826  0.4007
   14MPD2    H1  221   1.454   4.129  11.897 -1.2690  2.3921  0.4430
   14MPD2    H2  222   1.765   4.388  11.944  0.6562  0.7065 -0.2391
   14MPD2    H3  223   1.619   4.229  12.025 -2.8014  1.0854  0.1670
   14MPD2     N  224   1.415   4.163  11.624  0.1392  0.6405 -0.5769
   14MPD2    H5  225   1.414   4.209  11.533 -0.8657 -0.0578 -0.9221
   14MPD2    N1  226   1.771   4.500  11.707  0.8198 -0.4533  0.1411
   14MPD2    H7  227   1.818   4.557  11.777 -1.3615  0.7281  0.6542
   15TCq1    O1  228   3.487   3.720   1.734 -0.1438 -0.0805  0.2964
   15TCq1    C1  229   3.386   3.790   1.681 -0.1939  0.6178  0.4855
   15TCq1    O2  230   3.391   3.910   1.648 -0.2409  0.5573 -0.8332
   15TCq1    C2  231   3.280   3.699   1.649  0.0714 -0.4411  0.2129
   15TCq1    C3  232   3.163   3.761   1.615  0.1703  0.4449  0.1427
   15TCq1    C4  233   3.059   3.689   1.565  0.4745 -0.7528  0.4193
   15TCq1    C5  234   3.081   3.555   1.526 -0.5781 -0.3804 -0.0023
   15TCq1    C6  235   3.214   3.516   1.529 -0.4356 -0.4246 -0.5537
   15TCq1    C7  236   3.312   3.584   1.596 -0.1306  0.4078  0.7525
   15TCq1    C8  237   3.259   3.406   1.438 -0.1207 -0.1047  0.3594
   15TCq1    O4  238   3.375   3.370   1.450  0.1129 -0.2154 -0.1982
   15TCq1    C9  239   2.931   3.744   1.564 -0.5457  0.0139 -0.3964
   15TCq1    O5  240   2.838   3.655   1.551  0.0625  0.4440  0.1103
   15TCq1    O6  241   2.918   3.865   1.604 -0.8234 -0.1223  0.5629
   15TCq1    H1  242   3.457   3.634   1.771  0.1275 -0.9506 -1.5212
   15TCq1    H2  243   3.139   3.856   1.661  1.4881  0.7171  0.2791
   15TCq1    H3  244   3.001   3.501   1.478 -1.9627  0.2088  1.6577
   15TCq1    H4  245   3.412   3.546   1.582  0.7138  2.0937  2.3504
   16MPD2     C  246   3.086   3.249   1.152 -0.2266 -0.3517  0.2253
   16MPD2    C1  247   3.192   3.264   1.240 -0.2961 -0.6747  1.0046
   16MPD2    C2  248   3.293   3.166   1.254 -0.6236 -0.2575 -0.5203
   16MPD2    C3  249   3.289   3.052   1.169 -0.3358 -0.8089  0.6375
   16MPD2    C4  250   3.189   3.049   1.068 -0.4953 -0.3771  0.8687
   16MPD2    C5  251   3.090   3.147   1.063  0.4892  0.2321  0.0583
   16MPD2     H  252   3.368   3.173   1.333 -1.1297 -0.8223  0.0099
   16MPD2    H1  253   3.183   2.971   0.993 -0.9342  0.3851  0.1255
   16MPD2    H2  254   3.008   3.318   1.122  0.1251 -1.1808 -2.5717
   16MPD2    H3  255   3.013   3.148   0.987  1.1316 -0.4037 -0.6126
   16MPD2     N  256   3.388   2.951   1.188  0.5253 -0.2523 -0.2877
   16MPD2    H5  257   3.445   2.974   1.268  2.0860  4.5281 -2.7474
   16MPD2    N1  258   3.173   3.369   1.332  0.3741 -0.4836  0.3978
   16MPD2    H7  259   3.093   3.430   1.319  1.3526  0.8728  0.7381
   17TMC1    C1  260   0.974   2.847  10.874 -0.0284  0.0797  0.3507
   17TMC1    C2  261   1.073   2.793  10.950 -0.9014 -0.5895 -0.5749
   17TMC1    C3  262   1.061   2.656  10.986 -0.5265  0.5504  0.6988
   17TMC1    C4  263   0.867   2.770  10.834 -0.1934 -0.9628 -0.2524
   17TMC1    C5  264   0.845   2.648  10.900 -0.1352 -0.2212  0.7336
   17TMC1    C6  265   0.941   2.591  10.976  0.3057  0.8127  0.6270
   17TMC1     C  266   0.974   2.984  10.826  0.5292  0.0129  0.2018
   17TMC1     O  267   0.869   3.035  10.785  0.6230 -0.3965 -0.1895
   17TMC1     H  268   1.158   2.853  10.982 -1.2271  1.0876 -2.8890
   17TMC1    H1  269   0.787   2.814  10.775  0.1628 -0.6892 -0.5266
   17TMC1    H2  270   0.922   2.511  11.046  0.5334 -0.1028 -0.3629
   17TMC1    C7  271   0.709   2.590  10.907 -0.8717  0.3992  0.3800
   17TMC1    C8  272   1.166   2.599  11.056 -0.1325 -0.0650 -0.6926
   17TMC1    O1  273   0.696   2.476  10.945 -0.0918  0.3177 -0.7300
   17TMC1    O2  274   1.256   2.668  11.099 -0.6997 -0.1528 -0.2282
   17TMC1    O3  275   0.605   2.676  10.879  0.3173  0.0195 -0.0654
   17TMC1    H3  276   0.626   2.769  10.858  0.4456 -0.1576 -0.7350
   17TMC1    O5  277   1.164   2.465  11.029 -0.1106 -0.6052 -0.2491
   17TMC1    H5  278   1.086   2.437  10.976 -1.3062  1.9269  0.1775
   18MPD2     C  279   1.056   3.249  10.713  0.2150  0.2152  0.1417
   18MPD2    C1  280   1.149   3.153  10.758 -0.0775  0.4886  0.3372
   18MPD2    C2  281   1.281   3.177  10.760 -0.0353  0.3591  0.3026
   18MPD2    C3  282   1.332   3.295  10.698  0.1168 -0.2621  0.1051
   18MPD2    C4  283   1.245   3.388  10.657  0.4601 -0.1597  0.0384
   18MPD2    C5  284   1.111   3.370  10.675  0.1714  0.2703  0.5286
   18MPD2     H  285   1.343   3.102  10.808 -3.0347 -0.8314  2.3145
   18MPD2    H1  286   1.273   3.476  10.601 -2.3749 -0.1767 -1.4536
   18MPD2    H2  287   0.948   3.240  10.705  0.3892 -2.6331  1.2632
   18MPD2    H3  288   1.049   3.450  10.635  1.2378  1.5590  1.4486
   18MPD2     N  289   1.475   3.324  10.704  0.2158 -0.0844 -0.0811
   18MPD2    H5  290   1.504   3.413  10.664 -0.8271 -0.2758 -1.2846
   18MPD2    N1  291   1.102   3.035  10.824 -0.5354  0.1125 -0.0904
   18MPD2    H7  292   1.168   2.963  10.853  1.4810  2.5536  1.4092
   19TMC2    C1  293   3.135   4.023  14.016  0.9019 -0.1365  0.1457
   19TMC2    C2  294   3.064   4.067  13.902 -0.3045  0.3610 -0.1695
   19TMC2    C3  295   2.945   4.016  13.869 -0.4798 -0.6777 -0.1042
   19TMC2    C4  296   3.076   3.942  14.103 -0.6426  0.2024  0.6551
   19TMC2    C5  297   2.946   3.900  14.080 -0.3415 -0.0958  0.1775
   19TMC2    C6  298   2.884   3.929  13.956 -0.9673 -0.7574  0.0209
   19TMC2     C  299   3.269   3.989  13.993  0.4283 -0.5356  0.2257
   19TMC2     O  300   3.306   3.993  13.873  0.0647 -0.3892  0.1052
   19TMC2     H  301   3.111   4.133  13.830 -1.2046  0.1883 -0.9300
   19TMC2    H1  302   3.121   3.886  14.185 -1.5317 -0.1578  0.8949
   19TMC2    H2  303   2.786   3.884  13.940 -0.0463 -2.4156 -0.8660
   19TMC2    C7  304   2.884   3.786  14.159 -0.4690  0.5241 -0.2892
   19TMC2    C8  305   2.921   3.994  13.726  0.0199  0.3218 -0.5772
   19TMC2    O1  306   2.968   3.722  14.220  0.0216 -0.1751  0.1284
   19TMC2    O2  307   2.967   3.896  13.670  0.0398  0.2208 -0.1489
   19TMC2    O5  308   2.894   4.108  13.669  0.6262  0.5388 -0.5894
   19TMC2    H5  309   2.866   4.182  13.728  2.3144  1.1944 -0.6072
   20MPD2     C  310   3.528   3.861  13.993  0.4048 -0.0556  0.3659
   20MPD2    C1  311   3.468   3.910  14.109  0.5022  0.5907  0.8753
   20MPD2    C2  312   3.536   3.913  14.233  0.2935 -0.2231 -0.4868
   20MPD2    C3  313   3.664   3.859  14.238  0.4312 -0.0807 -0.3301
   20MPD2    C4  314   3.726   3.832  14.120  0.3374 -0.0451  0.0757
   20MPD2    C5  315   3.658   3.828  13.997  0.2858 -0.4960 -0.7045
   20MPD2     H  316   3.485   3.948  14.323  1.0626  0.9070 -0.4820
   20MPD2    H1  317   3.830   3.801  14.115  0.6842  1.1317 -0.1747
   20MPD2    H2  318   3.489   3.861  13.892 -0.1611  0.5130  0.5876
   20MPD2    H3  319   3.714   3.808  13.906  1.8455  0.3879  0.0725
   20MPD2     N  320   3.733   3.838  14.357  0.1428  0.8089 -0.2479
   20MPD2    H5  321   3.826   3.799  14.348  0.3248  0.8473  1.4839
   20MPD2    N1  322   3.337   3.965  14.113  0.3924  0.5374  0.0204
   20MPD2    H7  323   3.295   3.998  14.199  0.9571  0.0414  0.4824
   21TMC2    C1  324   0.624   3.996  14.899  0.1890  0.0962 -0.1804
   21TMC2    C2  325   0.633   3.883  14.971 -0.0480 -0.2590  0.2248
   21TMC2    C3  326   0.671   3.884  15.103 -0.4926  0.1249 -0.0380
   21TMC2    C4  327   0.623   4.122  14.957  0.1277  0.6089  0.6688
   21TMC2    C5  328   0.639   4.123  15.092  0.3070 -0.5528 -0.3836
   21TMC2    C6  329   0.658   4.006  15.163  0.2379  0.0304 -0.1948
   21TMC2     C  330   0.586   3.987  14.759  0.2927 -0.2397  0.1085
   21TMC2     O  331   0.591   3.874  14.717  0.0711 -0.0749  0.1703
   21TMC2     H  332   0.623   3.788  14.920  0.0423  0.1276 -0.5174
   21TMC2    H1  333   0.629   4.211  14.896 -1.1696  1.2356  1.4587
   21TMC2    H2  334   0.668   4.013  15.270  1.3894  1.0263 -0.3616
   21TMC2    C7  335   0.634   4.254  15.158  0.1533 -0.6454 -0.6622
   21TMC2    C8  336   0.642   3.765  15.174 -0.3052  0.2677 -0.5113
   21TMC2    O1  337   0.687   4.257  15.269  0.0337  0.2962 -0.0928
   21TMC2    O2  338   0.552   3.691  15.132 -0.3233 -0.5443  0.0744
   21TMC2    O5  339   0.688   3.770  15.306  0.0528 -0.3391  0.0113
   21TMC2    H5  340   0.770   3.816  15.336  0.0007 -1.1705  1.4106
   22MPD2     C  341   0.597   4.210  14.296 -0.7617  0.6952  0.4456
   22MPD2    C1  342   0.660   4.094  14.347 -0.1641 -0.6344  1.0460
   22MPD2    C2  343   0.640   4.049  14.476 -0.5465 -0.0729  0.5957
   22MPD2    C3  344   0.563   4.130  14.556  0.2028  0.2655 -0.0627
   22MPD2    C4  345   0.510   4.249  14.512 -0.4054 -0.3637  0.2845
   22MPD2    C5  346   0.528   4.288  14.381  0.1308  0.0206  0.8668
   22MPD2     H  347   0.694   3.966  14.521  2.4752  1.1710 -0.7332
   22MPD2    H1  348   0.450   4.310  14.579 -0.3720 -0.2273  0.1892
   22MPD2    H2  349   0.601   4.237  14.191 -0.7116  1.0743  0.5460
   22MPD2    H3  350   0.503   4.381  14.330 -1.7247 -1.8024 -1.5578
   22MPD2     N  351   0.549   4.105  14.692  0.7241  0.8311 -0.0855
   22MPD2    H5  352   0.518   4.186  14.746  0.2975  1.6863 -1.5952
   22MPD2    N1  353   0.747   4.011  14.268  0.9710 -0.2290  0.4791
   22MPD2    H7  354   0.785   3.929  14.314  2.9051  0.5722  0.3335
   23TMC2    C1  355   2.003   0.443  14.395  0.0876  0.1216 -0.0297
   23TMC2    C2  356   2.125   0.391  14.349  0.1251 -0.1635  0.1419
   23TMC2    C3  357   2.110   0.294  14.257  0.0323  0.0622 -0.0275
   23TMC2    C4  358   1.888   0.396  14.336 -0.0585 -0.6277  0.1515
   23TMC2    C5  359   1.884   0.295  14.247 -0.3086 -0.1852 -0.3218
   23TMC2    C6  360   1.996   0.238  14.203 -0.2691  0.8120  0.1757
   23TMC2     C  361   1.994   0.542  14.495 -0.0450 -0.7399  0.0689
   23TMC2     O  362   1.884   0.589  14.503  0.3271 -0.2754  0.1715
   23TMC2     H  363   2.223   0.417  14.387 -0.0662 -0.9571  1.1879
   23TMC2    H1  364   1.795   0.435  14.377  0.6265  0.2646  0.8671
   23TMC2    H2  365   1.989   0.164  14.125  1.9427 -0.9046  1.6099
   23TMC2    C7  366   1.775   0.196  14.261 -0.0866 -0.3890 -0.3070
   23TMC2    C8  367   2.222   0.243  14.193  0.7058 -0.5639  0.2506
   23TMC2    O1  368   1.804   0.084  14.309 -0.3702 -0.0064 -0.7043
   23TMC2    O2  369   2.231   0.123  14.154  0.2072 -0.4752 -0.2968
   23TMC2    O5  370   2.270   0.345  14.132  0.1564  0.5678  0.0582
   23TMC2    H5  371   2.246   0.435  14.161 -3.6670 -0.3425 -0.3000
   24MPD2     C  372   2.124   0.777  14.929 -0.5303 -0.4046 -0.4371
   24MPD2    C1  373   2.221   0.677  14.909  0.1226 -0.2583  1.0444
   24MPD2    C2  374   2.218   0.618  14.777  0.7316  0.6191 -0.3270
   24MPD2    C3  375   2.115   0.636  14.687 -0.6287 -0.0246  0.5371
   24MPD2    C4  376   2.016   0.725  14.717  0.8258  0.3151  0.1321
   24MPD2    C5  377   2.025   0.797  14.833 -1.1611  0.0465 -0.1519
   24MPD2     H  378   2.306   0.561  14.752 -0.0608 -1.4025  1.4325
   24MPD2    H1  379   1.943   0.757  14.644  1.4610 -0.9809 -1.0740
   24MPD2    H2  380   2.131   0.844  15.015  0.6724 -0.4717 -0.4741
   24MPD2    H3  381   1.958   0.882  14.836  0.4826  1.2997  1.3814
   24MPD2     N  382   2.110   0.567  14.566  0.1607  0.2720 -0.2087
   24MPD2    H5  383   2.183   0.501  14.543 -0.0674  0.4485 -1.4683
   24MPD2    N1  384   2.308   0.646  15.018  0.4264  0.0903  0.6914
   24MPD2    H7  385   2.297   0.687  15.110 -1.3132  0.2476  0.4005
   25TMC2    C1  386   1.433   2.638  11.712 -0.1111 -0.2508 -0.2547
   25TMC2    C2  387   1.553   2.700  11.688  0.7702  0.3502  0.0318
   25TMC2    C3  388   1.567   2.828  11.740 -0.0526 -0.0235 -0.1018
   25TMC2    C4  389   1.356   2.687  11.821  0.1942  0.4504 -0.0846
   25TMC2    C5  390   1.387   2.805  11.879  0.6239  0.2634 -0.4314
   25TMC2    C6  391   1.490   2.879  11.838 -0.6779 -0.0297 -0.4568
   25TMC2     C  392   1.422   2.501  11.678  0.3022 -0.3846  0.3778
   25TMC2     O  393   1.517   2.444  11.623 -0.0719  0.3102 -0.9236
   25TMC2     H  394   1.626   2.664  11.616  0.2394  0.7312 -0.7055
   25TMC2    H1  395   1.272   2.631  11.861 -0.1275  0.7613 -0.3190
   25TMC2    H2  396   1.518   2.973  11.884  1.6077 -0.2956 -1.2869
   25TMC2    C7  397   1.275   2.884  11.921 -0.2422  0.0481 -0.3522
   25TMC2    C8  398   1.704   2.876  11.735  0.1432 -0.2167 -0.5343
   25TMC2    O1  399   1.193   2.819  11.986 -0.0421 -0.0315  0.7140
   25TMC2    O2  400   1.761   2.933  11.827 -0.2247  0.4899 -0.4532
   25TMC2    O5  401   1.766   2.852  11.617  0.4246 -0.1048  0.0116
   25TMC2    H5  402   1.699   2.819  11.554 -0.6941  1.7352  0.2741
   26MPD2     C  403   1.209   2.047  11.668  0.6235 -0.1329 -0.0491
   26MPD2    C1  404   1.108   2.141  11.697  0.5693  0.8967 -0.3152
   26MPD2    C2  405   1.146   2.269  11.717  0.0750  0.9431  0.2384
   26MPD2    C3  406   1.273   2.314  11.707  0.9675 -0.2311  0.3622
   26MPD2    C4  407   1.372   2.221  11.688  0.0623 -0.0305  0.5768
   26MPD2    C5  408   1.337   2.089  11.667  0.1506  0.2156 -0.3132
   26MPD2     H  409   1.078   2.351  11.737  0.9828  1.2149  2.1860
   26MPD2    H1  410   1.478   2.246  11.692 -0.6662  2.8238  2.4002
   26MPD2    H2  411   1.178   1.943  11.666 -1.3149  0.4901 -2.6261
   26MPD2    H3  412   1.424   2.025  11.656  0.5570  0.5993  0.5720
   26MPD2     N  413   1.304   2.451  11.716 -0.5502  0.1255 -0.7402
   26MPD2    H5  414   1.238   2.524  11.741  1.4204  2.2294 -1.6588
   26MPD2    N1  415   0.970   2.103  11.683 -0.5036 -0.2317  0.2178
   26MPD2    H7  416   0.949   2.008  11.654  0.7111 -0.1882 -0.8273
   27TMC2    C1  417   4.717   4.730  12.192 -0.0011  0.1315  0.7661
   27TMC2    C2  418   4.626   0.062  12.115  1.0005  0.0934 -0.1416
   27TMC2    C3  419   4.678   0.157  12.029 -0.0322 -0.1519  0.7955
   27TMC2    C4  420   0.110   0.004  12.176 -0.9003  0.1275 -0.2626
   27TMC2    C5  421   0.149   0.112  12.099 -0.0471  0.1111 -0.4242
   27TMC2    C6  422   0.071   0.176  12.008 -0.6998 -0.5007  0.0329
   27TMC2     C  423   4.678   4.642  12.302  0.2247 -0.2288  0.1649
   27TMC2     O  424   0.029   4.568  12.341 -0.0872 -0.4266  0.7135
   27TMC2     H  425   4.520   0.042  12.107  0.7870  1.1383 -0.0048
   27TMC2    H1  426   0.186   4.693  12.237 -0.3281 -0.1909 -1.2234
   27TMC2    H2  427   0.126   0.220  11.926  0.3353  0.9937  1.5338
   27TMC2    C7  428   0.216   0.208  12.186 -0.2308  0.0858 -0.5620
   27TMC2    C8  429   4.592   0.196  11.923  1.0136  0.0465  0.2119
   27TMC2    O1  430   0.277   0.159  12.281 -0.2385 -0.0575 -0.1148
   27TMC2    O2  431   4.512   0.115  11.881 -0.0134 -0.0551  0.5787
   27TMC2    O5  432   4.666   0.275  11.847 -0.0433  0.2032  0.2926
   27TMC2    H5  433   4.731   0.331  11.893 -0.6960  1.4722 -0.3335
   28MPD2     C  434   4.380   4.526  12.721 -0.0342 -0.4687 -0.0160
   28MPD2    C1  435   4.308   4.614  12.636 -0.0533 -0.0896 -0.5781
   28MPD2    C2  436   4.367   4.662  12.516  0.1971  0.6426 -0.5171
   28MPD2    C3  437   4.492   4.618  12.475 -0.0647  0.4141  0.4149
   28MPD2    C4  438   4.555   4.518  12.545 -0.3368 -0.4329  0.5545
   28MPD2    C5  439   4.501   4.487  12.671 -1.1186  0.4617 -0.3895
   28MPD2     H  440   4.308   4.730  12.457 -0.6888  0.4228  0.1094
   28MPD2    H1  441   4.651   4.482  12.510  0.6778  1.3738  1.4682
   28MPD2    H2  442   4.359   4.487  12.820  2.3905 -1.9882 -0.1044
   28MPD2    H3  443   4.557   4.415  12.729 -0.5784  0.8497 -0.4342
   28MPD2     N  444   4.555   4.678  12.360 -0.2814  0.4143  0.5558
   28MPD2    H5  445   4.499   0.013  12.317 -1.8901  0.1149  2.1358
   28MPD2    N1  446   4.180   4.669  12.665  0.3211 -0.5753 -0.0590
   28MPD2    H7  447   4.148   0.016  12.621  0.3263  0.2000  1.4491
   29TMC2    C1  448   4.213   2.497  14.235  0.5743  0.7502  0.0030
   29TMC2    C2  449   4.150   2.528  14.354 -0.3818 -0.1182 -0.3296
   29TMC2    C3  450   4.129   2.660  14.388  0.2504 -0.0320  0.1788
   29TMC2    C4  451   4.233   2.592  14.142  0.3157 -0.0628  0.2470
   29TMC2    C5  452   4.193   2.717  14.178  0.1049  0.1393  0.2110
   29TMC2    C6  453   4.143   2.755  14.292 -0.4912 -0.0452 -0.2129
   29TMC2     C  454   4.206   2.362  14.203  0.2453 -0.5715 -0.2088
   29TMC2     O  455   4.252   2.276  14.278 -0.2316  0.0173  0.4400
   29TMC2     H  456   4.134   2.452  14.429 -0.0712 -0.4097 -0.5592
   29TMC2    H1  457   4.271   2.573  14.042  0.4833 -2.6792  0.7934
   29TMC2    H2  458   4.110   2.858  14.298  0.1010  0.0874  0.7119
   29TMC2    C7  459   4.230   2.815  14.083  0.6057 -0.0609  0.3777
   29TMC2    C8  460   4.028   2.691  14.487 -0.4211 -0.1977 -0.0836
   29TMC2    O1  461   4.200   2.803  13.965 -0.3063 -0.0217 -0.6470
   29TMC2    O2  462   3.971   2.602  14.548 -0.1662 -0.2834  0.5928
   29TMC2    O5  463   4.051   2.820  14.518  0.1039 -0.6344  0.2399
   29TMC2    H5  464   4.138   2.847  14.482  0.1906  0.7841  1.4829
   30MPD2     C  465   3.966   1.992  13.940  0.8982 -0.2854 -0.4511
   30MPD2    C1  466   4.040   1.984  14.055  0.3457  0.0502 -0.6784
   30MPD2    C2  467   4.106   2.095  14.092  0.3705 -0.3669  0.1615
   30MPD2    C3  468   4.095   2.220  14.030  0.0852  0.2555 -0.6667
   30MPD2    C4  469   4.034   2.221  13.908 -0.0810  0.1264  0.3764
   30MPD2    C5  470   3.966   2.109  13.866 -0.1588 -0.1086 -0.5944
   30MPD2     H  471   4.169   2.090  14.180  1.4055  1.5128 -0.4685
   30MPD2    H1  472   4.022   2.310  13.847 -0.6189  0.5166  1.0574
   30MPD2    H2  473   3.911   1.909  13.896  0.0544  0.6849 -1.2455
   30MPD2    H3  474   3.908   2.101  13.774 -0.4794  0.0092 -0.4023
   30MPD2     N  475   4.138   2.344  14.087 -0.0780 -0.2559 -0.8423
   30MPD2    H5  476   4.095   2.426  14.045 -1.7104 -1.3900 -1.3892
   30MPD2    N1  477   4.051   1.864  14.127 -0.4809  0.3359 -0.2096
   30MPD2    H7  478   4.126   1.867  14.196 -0.5911  1.2410 -0.1391
   31TMC2    C1  479   1.744   1.198  15.486 -0.2685  0.0854 -0.6036
   31TMC2    C2  480   1.608   1.190  15.501 -0.6814 -0.4441  0.6497
   31TMC2    C3  481   1.553   1.252  15.609 -0.1285  0.6924 -0.1485
   31TMC2    C4  482   1.825   1.262  15.581 -0.5853  0.4116 -0.2044
   31TMC2    C5  483   1.759   1.328  15.685  0.1328  0.3202 -0.3728
   31TMC2    C6  484   1.628   1.323  15.698 -0.0541 -0.0437  0.5237
   31TMC2     C  485   1.800   1.156  15.359 -0.2501 -0.4111  0.2613
   31TMC2     O  486   1.724   1.136  15.265 -0.4280  0.5673 -0.5069
   31TMC2     H  487   1.554   1.128  15.430 -0.8951 -0.0618  0.4823
   31TMC2    H1  488   1.930   1.274  15.557 -0.5634  1.8007  0.5211
   31TMC2    H2  489   1.578   1.369  15.783  2.4451  0.7892  1.5649
   31TMC2    C7  490   1.838   1.373  15.801 -0.4819 -0.0158  0.0836
   31TMC2    C8  491   1.410   1.278  15.625 -0.2823 -0.1065 -0.3978
   31TMC2    O1  492   1.917   1.295  15.845 -0.0238 -0.3474 -0.4767
   31TMC2    O2  493   1.373   1.301  15.736  0.2716 -0.3786  0.5177
   31TMC2    O5  494   1.360   1.170  15.554  0.3618 -0.4704 -0.0590
   31TMC2    H5  495   1.388   1.164  15.460  1.3127 -1.9699  0.3218
   32MPD2     C  496   2.187   1.114  15.009 -1.0967 -0.4383  0.5297
   32MPD2    C1  497   2.056   1.158  14.995  0.0416 -0.8758 -0.6600
   32MPD2    C2  498   1.968   1.159  15.111  0.1185  0.3817 -0.3509
   32MPD2    C3  499   2.010   1.122  15.236  0.1530  0.1761 -0.5773
   32MPD2    C4  500   2.146   1.082  15.245 -0.3290 -0.1321 -0.9796
   32MPD2    C5  501   2.228   1.073  15.133  0.5473 -0.0639  0.3391
   32MPD2     H  502   1.868   1.202  15.106  0.3035  0.8249 -0.2359
   32MPD2    H1  503   2.194   1.061  15.339 -0.0788 -3.2543 -1.8025
   32MPD2    H2  504   2.258   1.110  14.927 -1.7111 -1.1960  0.0357
   32MPD2    H3  505   2.330   1.043  15.155 -0.1163 -2.4426  0.2603
   32MPD2     N  506   1.935   1.144  15.357 -0.6868 -0.1673  0.3938
   32MPD2    H5  507   1.985   1.116  15.441 -2.5176  0.9532  1.8662
   32MPD2    N1  508   2.019   1.194  14.864  0.2199  0.5781  0.2059
   32MPD2    H7  509   2.093   1.204  14.795 -0.1593  0.5424 -0.2062
   33TMC2    C1  510   1.916   3.906   9.998  0.0476 -0.3343 -0.2576
   33TMC2    C2  511   1.786   3.896   9.954  0.5430 -0.5737  0.5047
   33TMC2    C3  512   1.754   3.961   9.838  0.1451  0.0213 -0.1071
   33TMC2    C4  513   2.017   3.976   9.931 -0.2768 -0.1160  0.1388
   33TMC2    C5  514   1.975   4.049   9.821 -0.0274 -0.4719 -0.5367
   33TMC2    C6  515   1.845   4.038   9.771 -0.2497  0.2067  0.1488
   33TMC2     C  516   1.964   3.817  10.105  0.1115  0.1459  0.2075
   33TMC2     O  517   1.891   3.718  10.126  0.3986  0.2180 -0.6052
   33TMC2     H  518   1.713   3.839  10.010  0.0370 -0.6456 -0.2154
   33TMC2    H1  519   2.116   3.978   9.975 -0.2180  1.1768 -0.0576
   33TMC2    H2  520   1.825   4.090   9.678 -1.2016  3.0265  1.9320
   33TMC2    C7  521   2.073   4.142   9.765 -0.1691  0.6735 -0.5588
   33TMC2    C8  522   1.616   3.954   9.800  0.1261  0.0114  0.2414
   33TMC2    O1  523   2.180   4.142   9.820  0.3963 -0.0633 -0.3749
   33TMC2    O2  524   1.526   3.913   9.867  0.0193 -0.5649  0.0614
   33TMC2    O5  525   1.601   3.969   9.664 -0.5804 -0.1560 -0.8373
   33TMC2    H5  526   1.676   4.009   9.615  1.1746  0.8839  2.7427
   34MPD2     C  527   2.257   3.654  10.497 -0.0119 -0.3822 -0.8184
   34MPD2    C1  528   2.120   3.641  10.476  0.0391  0.4221  1.1751
   34MPD2    C2  529   2.057   3.706  10.368 -0.0432  0.3222  0.8977
   34MPD2    C3  530   2.136   3.772  10.276 -0.7224  0.2204  0.1040
   34MPD2    C4  531   2.272   3.773  10.296  0.9150 -0.3723  0.0656
   34MPD2    C5  532   2.334   3.721  10.409  0.3329 -0.7032  0.2568
   34MPD2     H  533   1.949   3.708  10.357 -0.1482 -1.2123  1.5485
   34MPD2    H1  534   2.338   3.810  10.218  0.8922 -2.2933 -0.8517
   34MPD2    H2  535   2.318   3.619  10.580  0.3807 -0.7618 -1.2634
   34MPD2    H3  536   2.440   3.735  10.426  0.2793 -0.5929  0.4925
   34MPD2     N  537   2.086   3.835  10.161  0.1073  0.3443 -0.2596
   34MPD2    H5  538   2.149   3.910  10.134  0.7725  0.1796  0.8598
   34MPD2    N1  539   2.046   3.573  10.574  0.4999 -0.1324  0.1866
   34MPD2    H7  540   2.106   3.516  10.633 -0.8059 -0.0295  1.6152
   35TMC2    C1  541   2.927   0.125  11.649 -0.9874 -0.9023 -0.3708
   35TMC2    C2  542   2.858   0.241  11.618  0.0558 -0.0993 -0.3943
   35TMC2    C3  543   2.726   0.254  11.634 -0.5277 -0.0067 -0.1581
   35TMC2    C4  544   2.851   0.020  11.707  0.7883  0.1326  0.2025
   35TMC2    C5  545   2.717   0.038  11.713 -0.2645 -0.0752 -0.1895
   35TMC2    C6  546   2.653   0.148  11.679  0.0228 -0.1770 -0.4962
   35TMC2     C  547   3.061   0.101  11.593  0.2924 -0.3824 -0.0333
   35TMC2     O  548   3.093   0.169  11.494 -0.0524  0.5955 -0.3830
   35TMC2     H  549   2.920   0.322  11.582 -1.3152  1.1879  0.1786
   35TMC2    H1  550   2.905   4.664  11.712  1.3405  0.2246 -3.8518
   35TMC2    H2  551   2.546   0.161  11.697  0.7015  3.1898  1.1691
   35TMC2    C7  552   2.645   4.658  11.732  0.6912  0.3932  0.0760
   35TMC2    C8  553   2.676   0.373  11.575  0.1337 -0.2034 -0.6488
   35TMC2    O1  554   2.705   4.574  11.796  0.6775  0.3421  0.3228
   35TMC2    O2  555   2.752   0.468  11.541 -0.2479 -0.3713 -0.3532
   35TMC2    O5  556   2.551   0.346  11.522  0.0233 -0.0598 -0.1369
   35TMC2    H5  557   2.506   0.298  11.594 -0.9302  0.5903 -0.3007
   36MPD2     C  558   3.526   4.606  11.567 -0.1372 -0.6172 -0.1244
   36MPD2    C1  559   3.468   4.577  11.689 -0.6655  0.0731  0.0464
   36MPD2    C2  560   3.341   4.629  11.726  0.2170  0.4470  1.2062
   36MPD2    C3  561   3.272   4.711  11.636 -0.1214  0.2274  0.3208
   36MPD2    C4  562   3.325   4.733  11.508  0.2457 -0.4579 -0.7546
   36MPD2    C5  563   3.453   4.689  11.483 -0.0180 -0.0858  0.2425
   36MPD2     H  564   3.294   4.608  11.821  1.0032 -2.0818  1.0324
   36MPD2    H1  565   3.277   0.068  11.445  2.2467 -0.2758 -2.0821
   36MPD2    H2  566   3.631   4.594  11.545 -0.2750  2.2757 -2.2943
   36MPD2    H3  567   3.496   4.715  11.387 -0.7479 -0.6325 -0.2274
   36MPD2     N  568   3.134   0.018  11.669 -0.4981  0.2249 -0.1017
   36MPD2    H5  569   3.102   4.725  11.760 -2.1221  0.8181 -0.4699
   36MPD2    N1  570   3.559   4.534  11.790  0.2673 -0.6605  0.5577
   36MPD2    H7  571   3.658   4.528  11.766  0.5300  0.4807  1.4141
   37TMC2    C1  572   0.493   1.167  12.055 -0.1768 -0.3372 -0.0297
   37TMC2    C2  573   0.374   1.099  12.051 -0.5156  0.3257  0.0829
   37TMC2    C3  574   0.358   1.026  11.940 -0.2940 -0.9505 -0.6343
   37TMC2    C4  575   0.598   1.151  11.971  0.1758  0.4151 -0.1277
   37TMC2    C5  576   0.587   1.058  11.875 -0.2999  0.3766  0.7546
   37TMC2    C6  577   0.466   0.991  11.860  0.4351 -0.3071  0.4861
   37TMC2     C  578   0.532   1.170  12.196  0.3456 -0.3591  0.1058
   37TMC2     O  579   0.449   1.226  12.271  0.1821 -0.4008 -0.1198
   37TMC2     H  580   0.300   1.110  12.130 -0.6294 -0.6796  0.1084
   37TMC2    H1  581   0.687   1.208  11.996  1.3888 -1.7026  0.4692
   37TMC2    H2  582   0.466   0.913  11.785  0.1523 -0.8913  1.0873
   37TMC2    C7  583   0.711   1.011  11.823  0.1871  0.9295  0.0546
   37TMC2    C8  584   0.258   0.923  11.947  0.0544  0.0781  0.1479
   37TMC2    O1  585   0.809   1.064  11.875 -0.1529 -0.2041  0.0026
   37TMC2    O2  586   0.240   0.865  12.054  0.4168  0.3017  0.7146
   37TMC2    O5  587   0.252   0.869  11.829 -0.3445 -0.3684  0.4543
   37TMC2    H5  588   0.275   0.934  11.759 -0.9559  1.9093  2.3767
   38MPD2     C  589   0.807   0.978  12.573  0.1685 -0.0630  0.4937
   38MPD2    C1  590   0.853   0.928  12.455  0.0034  1.0929 -0.2679
   38MPD2    C2  591   0.803   0.973  12.337 -0.3449  0.5172  0.2123
   38MPD2    C3  592   0.704   1.064  12.338 -0.0689  0.0495 -0.7124
   38MPD2    C4  593   0.660   1.118  12.450 -0.4819 -1.0281  0.7321
   38MPD2    C5  594   0.708   1.076  12.570 -0.4324 -0.5950  0.1023
   38MPD2     H  595   0.845   0.944  12.241 -1.3012  0.0775 -0.0768
   38MPD2    H1  596   0.584   1.195  12.462 -0.1921 -0.6413  0.0917
   38MPD2    H2  597   0.857   0.957  12.667  4.2766 -0.1038 -1.7259
   38MPD2    H3  598   0.676   1.109  12.668  1.8307  0.9117  0.3231
   38MPD2     N  599   0.642   1.095  12.214  0.1513 -0.3443  0.5271
   38MPD2    H5  600   0.685   1.067  12.127 -1.3068 -0.8854 -0.0337
   38MPD2    N1  601   0.953   0.826  12.451  0.4045 -0.5965 -0.1829
   38MPD2    H7  602   0.984   0.812  12.355  1.9057  3.0258 -0.2216
   39TMC2    C1  603   4.007   2.715   1.668  0.2485  0.0354  0.2316
   39TMC2    C2  604   3.971   2.833   1.720  0.0163  0.4213 -0.9446
   39TMC2    C3  605   4.071   2.908   1.770 -0.2700  0.0231  0.0578
   39TMC2    C4  606   4.141   2.671   1.670  0.4456  0.1637 -0.4422
   39TMC2    C5  607   4.233   2.750   1.729 -0.4530  0.1513  0.8942
   39TMC2    C6  608   4.202   2.873   1.784 -1.0555  0.5787  0.4341
   39TMC2     C  609   3.907   2.633   1.597 -0.2522  0.8624  0.3253
   39TMC2     O  610   3.793   2.662   1.621  0.0677 -0.0531 -0.2835
   39TMC2     H  611   3.868   2.865   1.715  0.4690  2.0358  0.0903
   39TMC2    H1  612   4.181   2.575   1.640  0.0724 -0.5477  1.3114
   39TMC2    H2  613   4.274   2.925   1.846 -2.2236  0.5607  1.7862
   39TMC2    C7  614   4.369   2.710   1.704 -0.0522 -0.0173 -0.1371
   39TMC2    C8  615   4.020   3.013   1.852 -0.4739 -0.3733 -1.0781
   39TMC2    O1  616   4.390   2.587   1.703 -0.6191  0.0676  0.2181
   39TMC2    O2  617   3.905   3.022   1.898 -0.4077 -0.0454 -0.6611
   39TMC2    O5  618   4.109   3.111   1.827  0.0428  0.0110  0.6005
   39TMC2    H5  619   4.182   3.097   1.762  1.3969  1.5132  1.7914
   40MPD2     C  620   3.915   2.321   1.415  0.1374  0.1919  0.3613
   40MPD2    C1  621   3.858   2.428   1.471  0.1174  0.0015  0.4630
   40MPD2    C2  622   3.719   2.444   1.455 -0.4110  0.0386 -0.2878
   40MPD2    C3  623   3.643   2.361   1.370 -0.5956 -0.5808  0.6352
   40MPD2    C4  624   3.701   2.257   1.306  0.0918  0.7176  0.3383
   40MPD2    C5  625   3.837   2.240   1.330 -0.0277  0.4424  0.2069
   40MPD2     H  626   3.667   2.532   1.490 -1.2885 -0.3283 -0.6656
   40MPD2    H1  627   3.660   2.198   1.225 -0.9939  0.2769  1.2094
   40MPD2    H2  628   4.023   2.306   1.416  0.1145  0.0652  0.8249
   40MPD2    H3  629   3.883   2.160   1.275 -1.5292 -1.8788  2.3328
   40MPD2     N  630   3.512   2.373   1.344  0.8274  0.0253 -0.5638
   40MPD2    H5  631   3.473   2.297   1.289 -0.1579  1.3194 -1.6431
   40MPD2    N1  632   3.951   2.525   1.525 -0.1139  0.1867  0.2717
   40MPD2    H7  633   4.046   2.496   1.506  0.0530  0.8405  0.0990
   41TMC2    C1  634   3.196   0.034  14.149  0.6964 -0.3013 -0.4818
   41TMC2    C2  635   3.324   0.056  14.192  0.1891  0.3009  0.1649
   41TMC2    C3  636   3.410   0.074  14.091 -0.0992  0.0208  0.3078
   41TMC2    C4  637   3.156   0.015  14.019  0.1555 -0.4561 -1.3717
   41TMC2    C5  638   3.251   0.030  13.919 -0.0545  0.4294  0.1161
   41TMC2    C6  639   3.382   0.062  13.956  0.3508  0.3332  0.0738
   41TMC2     C  640   3.114   4.706  14.255 -0.4725 -0.3828 -0.0832
   41TMC2     O  641   3.054   4.608  14.221  0.5596  0.2673  0.1374
   41TMC2     H  642   3.359   0.087  14.290 -1.6145 -2.3143  1.6253
   41TMC2    H1  643   3.052   4.738  13.994 -0.7073  1.0225  1.3186
   41TMC2    H2  644   3.455   0.073  13.877  0.9613  2.4106  0.9317
   41TMC2    C7  645   3.226   0.045  13.773  0.0214  0.3275  0.0189
   41TMC2    C8  646   3.537   0.131  14.123 -0.1179  0.8404 -0.8227
   41TMC2    O1  647   3.322   0.061  13.696 -0.7903  0.3709 -0.0582
   41TMC2    O2  648   3.597   0.218  14.061  0.1425 -0.3055 -0.2050
   41TMC2    O5  649   3.583   0.073  14.231  0.4100 -0.1766 -1.3584
   41TMC2    H5  650   3.526   4.737  14.262  1.3809 -0.4831 -0.3098
   42MPD2     C  651   3.039   4.567  14.514  0.4287  0.5643  0.3711
   42MPD2    C1  652   3.090   4.697  14.505 -0.0171  0.2757  0.0372
   42MPD2    C2  653   3.118   0.024  14.623 -0.0485 -0.2391  0.1318
   42MPD2    C3  654   3.081   4.708  14.750 -0.0815 -0.3288  0.0914
   42MPD2    C4  655   3.035   4.580  14.756 -1.0181 -0.5221 -0.7517
   42MPD2    C5  656   3.008   4.513  14.639 -0.1703  0.0204  0.4357
   42MPD2     H  657   3.174   0.117  14.621  1.9348 -1.4831 -1.1641
   42MPD2    H1  658   3.004   4.545  14.854  0.8846  0.8484  0.3362
   42MPD2    H2  659   3.030   4.517  14.418 -1.9130 -0.0161  0.8739
   42MPD2    H3  660   2.961   4.415  14.645  2.9055 -1.5310 -0.6743
   42MPD2     N  661   3.088   0.040  14.873  0.2586  0.0141  0.0860
   42MPD2    H5  662   3.062   4.734  14.960 -2.0565  0.4078 -0.3924
   42MPD2    N1  663   3.136   0.014  14.384 -0.2404  0.9515 -0.1276
   42MPD2    H7  664   3.185   0.102  14.392  1.0110  0.2045  0.3513
   43TMC2    C1  665   4.155   3.734   0.404  0.2358  0.6237 -0.2120
   43TMC2    C2  666   4.048   3.817   0.429 -0.0423  0.0341 -0.9540
   43TMC2    C3  667   4.075   3.902   0.530  0.0899 -0.2565  0.0248
   43TMC2    C4  668   4.276   3.745   0.459 -0.1882 -0.4910 -0.5097
   43TMC2    C5  669   4.303   3.836   0.559 -0.3533  0.2773 -0.0082
   43TMC2    C6  670   4.194   3.914   0.598  0.0944 -0.4164 -0.2952
   43TMC2     C  671   4.142   3.621   0.320  1.0457  0.5856 -0.1554
   43TMC2     O  672   4.204   3.522   0.344 -0.1320  0.2341 -0.1208
   43TMC2     H  673   3.946   3.810   0.394 -0.0922 -1.0380 -0.5903
   43TMC2    H1  674   4.355   3.674   0.437  0.8658  1.0853 -1.7829
   43TMC2    H2  675   4.205   4.006   0.655  0.0753 -0.4465 -0.2431
   43TMC2    C7  676   4.417   3.826   0.646 -0.0633  0.5259  0.4182
   43TMC2    C8  677   3.977   4.004   0.557  0.4392 -0.2374  0.3113
   43TMC2    O1  678   4.516   3.761   0.610  0.4715 -0.1256 -0.5530
   43TMC2    O2  679   3.894   4.027   0.471 -0.6612  0.1550  0.5998
   43TMC2    O5  680   3.958   3.998   0.695 -0.2845  0.2640 -0.1720
   43TMC2    H5  681   4.038   3.988   0.750 -0.4676  0.1178  0.0648
   44MPD2     C  682   3.888   3.348  17.721  0.7386 -0.3019  0.7421
   44MPD2    C1  683   4.003   3.317   0.035 -0.1541 -0.1031 -0.4324
   44MPD2    C2  684   4.052   3.416   0.120 -0.0790 -0.4758 -0.1172
   44MPD2    C3  685   3.982   3.538   0.144  0.0952 -0.5448 -0.2471
   44MPD2    C4  686   3.861   3.567   0.082 -0.2076  0.1952  0.1691
   44MPD2    C5  687   3.814   3.463   0.001 -0.4457 -0.7310  0.1064
   44MPD2     H  688   4.147   3.389   0.165  0.0560  0.9110  0.4603
   44MPD2    H1  689   3.806   3.658   0.106 -1.9015  0.0876 -3.3641
   44MPD2    H2  690   3.839   3.283  17.650  1.1451  1.4987 -1.1938
   44MPD2    H3  691   3.724   3.488  17.697  0.3599 -0.4874 -1.0867
   44MPD2     N  692   4.034   3.637   0.230  0.0636  0.1750  0.0054
   44MPD2    H5  693   3.988   3.726   0.214  0.1045  0.5582  1.9691
   44MPD2    N1  694   4.072   3.197   0.024  0.1464  0.0303 -0.2806
   44MPD2    H7  695   4.158   3.203   0.079 -0.3254 -0.5864  0.5248
   45TMC2    C1  696   0.998   0.585   9.916 -0.8982  0.1224  0.6926
   45TMC2    C2  697   1.117   0.540   9.871  0.0629 -0.1235 -0.8240
   45TMC2    C3  698   1.218   0.631   9.880 -0.8487 -0.4049  0.2521
   45TMC2    C4  699   0.966   0.716   9.944 -0.1918 -0.6377 -0.0448
   45TMC2    C5  700   1.070   0.801   9.932  0.1029 -0.0696  0.3652
   45TMC2    C6  701   1.200   0.761   9.908  1.0078  0.6895 -0.6446
   45TMC2     C  702   0.889   0.484   9.926  0.5794  0.1776 -0.5565
   45TMC2     O  703   0.919   0.364   9.938 -0.0200 -0.6905  0.6379
   45TMC2     H  704   1.136   0.434   9.869 -0.0249 -0.1032 -3.3702
   45TMC2    H1  705   0.867   0.747   9.976  0.1647  1.1900 -0.7183
   45TMC2    H2  706   1.283   0.831   9.911  1.3369  0.2562  0.2861
   45TMC2    C7  707   1.063   0.923  10.010 -0.1426  0.3757  0.1435
   45TMC2    C8  708   1.356   0.603   9.855  0.2694  0.5547 -0.2837
   45TMC2    O1  709   0.999   0.902  10.113 -0.4697  0.6163  0.6005
   45TMC2    O2  710   1.450   0.676   9.873 -0.1451  0.1649  0.2447
   45TMC2    O5  711   1.358   0.509   9.763  0.3691 -0.4693  0.1641
   45TMC2    H5  712   1.274   0.463   9.740  0.6584 -1.6892  1.5944
   46MPD2     C  713   0.636   0.337   9.933 -0.0636 -0.2644 -0.0183
   46MPD2    C1  714   0.643   0.470   9.892  0.5844  0.2262  0.0638
   46MPD2    C2  715   0.530   0.527   9.847  0.7774  0.4829  0.1670
   46MPD2    C3  716   0.402   0.465   9.854 -0.0429  0.3567 -0.2051
   46MPD2    C4  717   0.399   0.332   9.902 -0.0707  0.0426  0.1783
   46MPD2    C5  718   0.517   0.269   9.932  0.0786  0.9757 -0.3849
   46MPD2     H  719   0.537   0.628   9.806  2.1790  0.1496 -0.4211
   46MPD2    H1  720   0.312   0.269   9.906 -0.7117  0.9257  0.1135
   46MPD2    H2  721   0.720   0.289   9.983  0.8353  2.4139  1.0637
   46MPD2    H3  722   0.514   0.166   9.967  0.5029  0.8755 -0.6509
   46MPD2     N  723   0.285   0.540   9.822 -0.4977  0.1409 -0.7075
   46MPD2    H5  724   0.287   0.632   9.781  0.3341  1.5647  2.4868
   46MPD2    N1  725   0.767   0.539   9.897  0.1800  0.0932  0.0353
   46MPD2    H7  726   0.760   0.633   9.859  0.9224 -0.7123 -2.1162
   47TMC2    C1  727   2.851   1.759   9.094  0.5101 -0.2817 -0.0531
   47TMC2    C2  728   2.816   1.638   9.037  0.1047  0.1865  0.2656
   47TMC2    C3  729   2.723   1.650   8.935  0.7987 -0.2288 -0.8213
   47TMC2    C4  730   2.805   1.884   9.051  0.1126  0.5381 -0.5242
   47TMC2    C5  731   2.730   1.882   8.937  0.1836 -0.2881  0.2909
   47TMC2    C6  732   2.678   1.766   8.879  0.2834 -0.7802 -0.2913
   47TMC2     C  733   2.930   1.764   9.217  0.3673  0.2447 -0.1682
   47TMC2     O  734   2.945   1.877   9.265 -0.8358  0.4844  0.4051
   47TMC2     H  735   2.886   1.556   9.050  2.5002  2.2730  0.5875
   47TMC2    H1  736   2.836   1.979   9.094  0.9886  0.3557 -0.7658
   47TMC2    H2  737   2.603   1.764   8.802  0.1748 -4.0030 -0.0846
   47TMC2    C7  738   2.676   2.010   8.890  0.1953 -0.0683 -0.2301
   47TMC2    C8  739   2.666   1.529   8.885  0.0872  0.6823 -0.2018
   47TMC2    O1  740   2.685   2.099   8.973 -0.0997  0.0251 -0.3475
   47TMC2    O2  741   2.611   1.529   8.776  0.2381 -0.8757  0.0285
   47TMC2    O5  742   2.687   1.417   8.959 -0.1242  0.1081  0.7213
   47TMC2    H5  743   2.726   1.432   9.048  1.2630 -0.6444  0.2462
   48MPD2     C  744   3.059   1.694   9.478  0.0877 -0.2775  0.3021
   48MPD2    C1  745   3.021   1.599   9.380  0.2869 -0.1750 -0.3685
   48MPD2    C2  746   3.028   1.467   9.401  0.0326 -0.0790  0.6966
   48MPD2    C3  747   3.086   1.418   9.515 -0.3514  0.0056  0.4297
   48MPD2    C4  748   3.128   1.518   9.609 -0.0156 -0.4369 -0.2542
   48MPD2    C5  749   3.106   1.653   9.596 -0.1082  0.1704 -0.4331
   48MPD2     H  750   2.993   1.398   9.325  0.6690 -0.6881  0.9547
   48MPD2    H1  751   3.175   1.491   9.703 -0.2301  2.4294  0.6821
   48MPD2    H2  752   3.044   1.801   9.461  0.2596  0.0330  2.0969
   48MPD2    H3  753   3.129   1.729   9.669  0.1071 -0.2115 -0.1046
   48MPD2     N  754   3.102   1.282   9.544 -0.1115  0.3344 -0.6846
   48MPD2    H5  755   3.063   1.212   9.481 -1.8172 -0.5454  1.3449
   48MPD2    N1  756   2.954   1.638   9.262 -0.8804  0.5888 -0.0120
   48MPD2    H7  757   2.911   1.567   9.203  2.0608  0.0557 -1.5081
   49TMC2    C1  758   2.055   3.883  10.814  0.2823 -0.1693 -0.5193
   49TMC2    C2  759   2.186   3.932  10.825  0.0318 -0.4642  0.0590
   49TMC2    C3  760   2.236   4.013  10.725  0.3017 -0.6732 -0.1482
   49TMC2    C4  761   1.989   3.897  10.688 -0.4455 -0.0083 -0.5916
   49TMC2    C5  762   2.057   3.954  10.583  0.5612 -0.1952  0.1832
   49TMC2    C6  763   2.178   4.022  10.600 -1.0428  0.3651  0.0268
   49TMC2     C  764   2.025   3.772  10.905  0.5484  0.0550 -0.4581
   49TMC2     O  765   2.111   3.739  10.988  0.3293 -0.1407  0.3509
   49TMC2     H  766   2.254   3.906  10.905  1.2443  0.5852 -0.6258
   49TMC2    H1  767   1.907   3.828  10.671  0.4408 -0.4536 -3.0783
   49TMC2    H2  768   2.220   4.077  10.516  0.2023 -2.0412 -0.9384
   49TMC2    C7  769   1.981   3.992  10.461  0.0816  0.1451 -0.1236
   49TMC2    C8  770   2.374   4.029  10.724  0.0357  0.6575  0.0667
   49TMC2    O1  771   2.048   4.063  10.384 -0.6469  0.4283  0.5780
   49TMC2    O2  772   2.446   3.997  10.630  0.3311  0.1350 -0.7378
   49TMC2    O5  773   2.411   4.054  10.848 -0.3908  0.6752 -0.5003
   49TMC2    H5  774   2.338   4.077  10.909 -0.8694  1.3466 -1.3386
   50MPD2     C  775   1.907   3.555  11.085 -0.0764  1.1623 -0.1858
   50MPD2    C1  776   1.838   3.640  10.999 -0.0518  0.6761 -0.0386
   50MPD2    C2  777   1.699   3.625  10.990 -0.4902 -0.3453  1.2044
   50MPD2    C3  778   1.637   3.522  11.060  1.0091 -0.0886 -0.3631
   50MPD2    C4  779   1.707   3.439  11.145 -0.2952  0.3055  0.0284
   50MPD2    C5  780   1.847   3.458  11.161 -0.1428  0.1932  0.3031
   50MPD2     H  781   1.637   3.683  10.922  0.9322  0.6653  0.7599
   50MPD2    H1  782   1.662   3.365  11.209  1.3383 -0.5459  0.1963
   50MPD2    H2  783   2.015   3.561  11.089 -0.0246 -0.3282  0.3872
   50MPD2    H3  784   1.908   3.398  11.228  0.6931  1.9668  1.1448
   50MPD2     N  785   1.496   3.491  11.050  0.1819 -0.0044 -0.0597
   50MPD2    H5  786   1.467   3.422  11.118 -0.7992 -1.8671 -2.3398
   50MPD2    N1  787   1.898   3.738  10.912  0.1919 -0.1629 -0.4738
   50MPD2    H7  788   1.837   3.794  10.854  0.0364  0.0429 -0.1156
   51TMC2    C1  789   0.555   2.782   1.746  0.0066  0.2866  0.6424
   51TMC2    C2  790   0.439   2.839   1.791  0.2729 -0.1134 -0.0151
   51TMC2    C3  791   0.444   2.886   1.919  0.0718 -0.0566  0.3637
   51TMC2    C4  792   0.675   2.793   1.812 -0.7561 -0.1164 -0.6200
   51TMC2    C5  793   0.675   2.856   1.933 -0.1741 -0.6752 -0.6688
   51TMC2    C6  794   0.561   2.896   1.992  0.6131 -0.0959  0.0333
   51TMC2     C  795   0.567   2.717   1.618  0.1479 -0.6476  0.7741
   51TMC2     O  796   0.641   2.619   1.610 -0.0190  0.0090 -0.1744
   51TMC2     H  797   0.345   2.828   1.738  0.7013 -0.9325 -0.6051
   51TMC2    H1  798   0.767   2.753   1.773 -0.2990  0.1830  0.1471
   51TMC2    H2  799   0.565   2.963   2.077 -0.3966  0.4279 -0.3313
   51TMC2    C7  800   0.802   2.884   1.987  0.6270  0.1421 -0.1049
   51TMC2    C8  801   0.316   2.929   1.975 -0.3851  0.2413 -0.0864
   51TMC2    O1  802   0.892   2.885   1.905  0.2404 -0.3107  0.1645
   51TMC2    O2  803   0.216   2.941   1.906  0.3420  0.2446 -0.1387
   51TMC2    O5  804   0.323   2.863   2.094  0.1924 -0.1024  0.0978
   51TMC2    H5  805   0.412   2.848   2.132  0.1763  0.3785  0.3266
   52MPD2     C  806   0.457   2.663   1.133  0.1566  0.3389 -0.2008
   52MPD2    C1  807   0.531   2.578   1.216  0.5373  0.2492  0.7181
   52MPD2    C2  808   0.538   2.612   1.350 -0.2442 -0.2417 -0.2949
   52MPD2    C3  809   0.477   2.729   1.397 -0.4704 -0.5020 -0.0125
   52MPD2    C4  810   0.413   2.816   1.311 -0.4289  0.1214 -0.0399
   52MPD2    C5  811   0.402   2.778   1.176  0.1016  0.0307 -0.2777
   52MPD2     H  812   0.587   2.543   1.418  0.8153  1.3688  0.5916
   52MPD2    H1  813   0.381   2.912   1.348 -0.9061 -0.4124  0.9613
   52MPD2    H2  814   0.438   2.630   1.031  0.4695 -0.8127  0.1214
   52MPD2    H3  815   0.351   2.846   1.108 -1.7210 -0.6881  0.3603
   52MPD2     N  816   0.489   2.772   1.525 -0.3147  0.1937  0.0277
   52MPD2    H5  817   0.453   2.863   1.551 -0.6014 -0.2223  1.1111
   52MPD2    N1  818   0.589   2.455   1.168 -0.9829 -0.0266  0.3516
   52MPD2    H7  819   0.635   2.385   1.226 -0.2760 -0.9621 -1.3455
   53TMC2    C1  820   1.404   0.797  11.764  0.4084 -0.1269  0.4170
   53TMC2    C2  821   1.503   0.719  11.741 -0.1469 -0.4251  0.2504
   53TMC2    C3  822   1.597   0.704  11.834 -0.0533 -0.1804 -0.8240
   53TMC2    C4  823   1.387   0.850  11.890 -0.3211  0.9008 -0.3017
   53TMC2    C5  824   1.477   0.821  11.989 -0.2216 -0.6207 -0.0446
   53TMC2    C6  825   1.590   0.758  11.957  0.1584  0.2040 -0.3832
   53TMC2     C  826   1.302   0.793  11.665  0.3312  0.7601 -0.7883
   53TMC2     O  827   1.334   0.761  11.550  0.4859 -0.4346  0.5785
   53TMC2     H  828   1.511   0.672  11.643  2.8424  0.5126  0.0378
   53TMC2    H1  829   1.293   0.900  11.910 -1.8589 -1.1901 -2.2250
   53TMC2    H2  830   1.669   0.735  12.027 -1.0758  0.6199  1.1556
   53TMC2    C7  831   1.442   0.849  12.124 -0.3389  0.2724  0.1066
   53TMC2    C8  832   1.712   0.629  11.812 -0.0347  0.0106 -0.1243
   53TMC2    O1  833   1.350   0.927  12.140 -0.3180 -0.1542  0.0095
   53TMC2    O2  834   1.781   0.580  11.902  0.3224 -0.0391 -0.1515
   53TMC2    O5  835   1.764   0.687  11.703  0.3582  0.4693  0.2504
   53TMC2    H5  836   1.709   0.745  11.647  0.9452  0.5934 -0.1883
   54MPD2     C  837   1.039   0.784  11.518  0.7347 -0.2083 -0.5371
   54MPD2    C1  838   1.059   0.834  11.644  0.3045  0.0570 -0.5023
   54MPD2    C2  839   0.945   0.874  11.709 -0.0119 -0.3472 -0.2535
   54MPD2    C3  840   0.827   0.895  11.638 -0.3723  0.0286  0.4317
   54MPD2    C4  841   0.813   0.834  11.517 -0.4689  0.0558  0.5319
   54MPD2    C5  842   0.919   0.780  11.450 -0.3755  0.4689  0.0612
   54MPD2     H  843   0.948   0.899  11.814  0.9549 -1.0801 -0.1057
   54MPD2    H1  844   0.717   0.836  11.467  0.1013  0.8994 -0.5270
   54MPD2    H2  845   1.121   0.740  11.463  0.8086 -0.4634 -0.2230
   54MPD2    H3  846   0.909   0.728  11.356 -0.4144 -0.2008  0.4317
   54MPD2     N  847   0.712   0.939  11.710  0.7662 -0.0062  0.0167
   54MPD2    H5  848   0.621   0.915  11.671  0.2907  1.2816  0.3396
   54MPD2    N1  849   1.180   0.837  11.710  0.1488  0.2388 -0.1563
   54MPD2    H7  850   1.176   0.874  11.805  0.7566 -0.3405  0.0993
   55TMC2    C1  851   2.484   3.677   0.795  0.5783  0.1015 -0.1064
   55TMC2    C2  852   2.590   3.716   0.708  0.1486 -1.0590  1.0551
   55TMC2    C3  853   2.653   3.614   0.654  0.0535  0.7518 -0.2592
   55TMC2    C4  854   2.442   3.547   0.805  0.8697  0.2291 -0.6765
   55TMC2    C5  855   2.509   3.452   0.731 -0.3060 -0.4185 -0.8528
   55TMC2    C6  856   2.618   3.483   0.651 -0.7416  0.1529  0.7854
   55TMC2     C  857   2.376   3.776   0.800  0.3927 -0.7212 -0.2635
   55TMC2     O  858   2.263   3.736   0.771 -0.0576 -0.2614 -0.2551
   55TMC2     H  859   2.626   3.818   0.701 -0.2809 -0.9305  0.7103
   55TMC2    H1  860   2.349   3.534   0.860  0.8002 -0.0856 -0.8615
   55TMC2    H2  861   2.668   3.416   0.582  0.2481  1.7525 -0.0408
   55TMC2    C7  862   2.438   3.333   0.697 -0.3814  0.2284  0.0799
   55TMC2    C8  863   2.737   3.663   0.550 -1.0089  0.2508  0.2837
   55TMC2    O1  864   2.481   3.273   0.596  0.1543  0.8074  0.1497
   55TMC2    O2  865   2.804   3.766   0.551 -0.0722  0.0140  0.3538
   55TMC2    O5  866   2.677   3.620   0.436  0.0568  0.0853 -0.3355
   55TMC2    H5  867   2.597   3.575   0.471 -0.8941  0.9475 -1.4283
   56MPD2     C  868   2.457   4.142   0.782  0.3671 -0.1510  0.4220
   56MPD2    C1  869   2.373   4.027   0.774 -0.4263  0.6468  0.9498
   56MPD2    C2  870   2.242   4.043   0.739  0.9915  0.0482  0.1448
   56MPD2    C3  871   2.189   4.165   0.698  0.5409 -0.3088  0.2036
   56MPD2    C4  872   2.270   4.279   0.704 -0.0660 -0.2024 -0.1018
   56MPD2    C5  873   2.397   4.267   0.752 -0.1826 -0.4213  0.2598
   56MPD2     H  874   2.173   3.959   0.741  0.1602  0.7557  0.9479
   56MPD2    H1  875   2.239   4.375   0.664 -0.5624 -0.1779  0.3373
   56MPD2    H2  876   2.562   4.141   0.808  0.2885 -1.4054  0.6899
   56MPD2    H3  877   2.458   4.357   0.754 -0.1363 -0.4184 -1.1933
   56MPD2     N  878   2.057   4.155   0.649  0.4584  0.3530 -0.1461
   56MPD2    H5  879   2.006   4.070   0.668 -1.7045  1.3226 -1.6550
   56MPD2    N1  880   2.432   3.900   0.796 -0.0451  0.2510  0.4627
   56MPD2    H7  881   2.527   3.909   0.829 -0.1361  1.3846  0.4333
   57TMC2    C1  882   1.310   3.788  13.515  0.4854  0.2487  0.1230
   57TMC2    C2  883   1.261   3.703  13.420  0.5292  0.2580 -0.8054
   57TMC2    C3  884   1.288   3.566  13.422 -0.0234  0.4246  0.0919
   57TMC2    C4  885   1.391   3.732  13.614  0.5638  0.5743  0.0051
   57TMC2    C5  886   1.417   3.594  13.616  0.2832  0.3044 -0.1018
   57TMC2    C6  887   1.368   3.510  13.517  0.6170 -0.0166 -0.3264
   57TMC2     C  888   1.274   3.926  13.522  0.1739 -0.2261 -0.6246
   57TMC2     O  889   1.182   3.953  13.450  0.2493  0.1061  0.6121
   57TMC2     H  890   1.203   3.739  13.336 -1.2252 -1.0082 -0.1154
   57TMC2    H1  891   1.446   3.791  13.687  1.0457  0.6168 -0.3903
   57TMC2    H2  892   1.373   3.403  13.534 -1.1427 -0.0232  0.1060
   57TMC2    C7  893   1.510   3.544  13.715  0.0051  0.0474  0.0437
   57TMC2    C8  894   1.243   3.477  13.324  0.5993  0.2803  0.4938
   57TMC2    O1  895   1.507   3.614  13.814  0.5328 -0.6513 -0.2464
   57TMC2    O2  896   1.324   3.412  13.261 -0.1116  0.6364  0.1976
   57TMC2    O5  897   1.112   3.490  13.312  0.5253 -0.4651 -0.7010
   57TMC2    H5  898   1.068   3.541  13.384  1.2657  1.5563 -1.6840
   58MPD2     C  899   1.282   4.399  13.741 -0.1755  0.4776  0.2802
   58MPD2    C1  900   1.229   4.361  13.616 -0.2427 -0.2001 -0.7084
   58MPD2    C2  901   1.240   4.226  13.582  0.5897 -0.7714  0.1770
   58MPD2    C3  902   1.304   4.136  13.663 -0.7609  0.7456  0.1506
   58MPD2    C4  903   1.360   4.173  13.786 -0.1242  0.3666  0.3029
   58MPD2    C5  904   1.343   4.304  13.822 -0.6856  0.0071  0.1640
   58MPD2     H  905   1.199   4.197  13.486 -0.2322 -0.0408  0.3029
   58MPD2    H1  906   1.414   4.104  13.850 -1.8870 -1.5861 -0.3483
   58MPD2    H2  907   1.261   4.493  13.791  1.9148 -0.0816  2.2137
   58MPD2    H3  908   1.370   4.334  13.922  0.2449 -1.6183  0.4039
   58MPD2     N  909   1.334   4.002  13.622 -0.2087  0.3565 -0.6172
   58MPD2    H5  910   1.418   3.970  13.669 -0.4077  0.4146 -0.2289
   58MPD2    N1  911   1.163   4.451  13.533  0.1325 -0.5612  0.0228
   58MPD2    H7  912   1.128   4.413  13.446 -1.1357 -0.0187  0.3044
   59TMC2    C1  913   3.845   4.324  13.159 -0.5130  0.5792 -0.1651
   59TMC2    C2  914   3.898   4.256  13.264  0.6809 -0.9847  0.2184
   59TMC2    C3  915   3.905   4.117  13.251  0.0705 -0.6597 -0.0960
   59TMC2    C4  916   3.812   4.266  13.039 -0.5073 -0.6567  1.1180
   59TMC2    C5  917   3.822   4.127  13.033 -0.5174 -0.4111 -0.1360
   59TMC2    C6  918   3.859   4.051  13.141 -0.1834  0.9301 -0.1096
   59TMC2     C  919   3.891   4.462  13.133 -0.0414 -1.0093  0.3956
   59TMC2     O  920   3.839   4.535  13.048 -0.1248  0.6525  0.2606
   59TMC2     H  921   3.921   4.302  13.359  3.1413 -1.0539 -0.3427
   59TMC2    H1  922   3.798   4.321  12.947  1.9434  0.0308  1.1535
   59TMC2    H2  923   3.842   3.944  13.145 -2.7822  1.4045  1.5148
   59TMC2    C7  924   3.747   4.064  12.935  0.2449 -0.7473  0.0668
   59TMC2    C8  925   3.925   4.045  13.377 -0.1934  0.1755 -0.0994
   59TMC2    O1  926   3.680   3.967  12.964 -0.5458  0.0387  0.1345
   59TMC2    O2  927   3.956   4.100  13.482  0.3978  0.7746 -0.4516
   59TMC2    O5  928   3.970   3.919  13.343  0.4686 -0.4151  0.2659
   59TMC2    H5  929   3.965   3.895  13.248 -0.7197 -1.5808  0.6086
   60MPD2     C  930   4.042   4.710  13.102  0.1805 -0.7382 -0.0080
   60MPD2    C1  931   4.078   4.613  13.199 -0.3144 -0.6163  0.1727
   60MPD2    C2  932   4.169   4.642  13.295  0.4196 -1.4224  0.2375
   60MPD2    C3  933   4.227   0.028  13.305  0.5482 -0.8559 -0.2976
   60MPD2    C4  934   4.186   0.121  13.213 -0.8680 -0.4234 -0.8439
   60MPD2    C5  935   4.095   0.094  13.112 -0.0875 -0.6650  0.0890
   60MPD2     H  936   4.184   4.565  13.370  2.1833 -0.6595  0.6727
   60MPD2    H1  937   4.235   0.217  13.199  0.3411 -0.9586 -0.3318
   60MPD2    H2  938   3.983   4.691  13.012 -0.3743  1.9612 -0.2066
   60MPD2    H3  939   4.082   0.167  13.033 -0.8126  0.2292  1.0474
   60MPD2     N  940   4.326   0.068  13.402  0.5423 -0.2689 -0.3442
   60MPD2    H5  941   4.364   0.159  13.377  0.3591 -0.0582  0.1501
   60MPD2    N1  942   4.010   4.487  13.203 -0.4293  0.0018  0.8539
   60MPD2    H7  943   4.047   4.425  13.274 -0.0976 -0.4183  0.3083
   61TMC2    C1  944   3.551   0.533  15.158 -0.1596  0.6833  0.3081
   61TMC2    C2  945   3.484   0.464  15.255  0.0902 -0.5049  0.4852
   61TMC2    C3  946   3.465   0.522  15.374  0.0368  0.2866 -0.1417
   61TMC2    C4  947   3.594   0.663  15.176  0.0425 -0.3475  0.2872
   61TMC2    C5  948   3.562   0.721  15.297  0.1561 -0.2713  0.4289
   61TMC2    C6  949   3.511   0.652  15.401  0.5624  0.9980 -0.6166
   61TMC2     C  950   3.523   0.489  15.028 -1.0173  0.1837  0.2105
   61TMC2     O  951   3.443   0.398  15.024 -0.2719  0.4213 -0.2657
   61TMC2     H  952   3.470   0.357  15.246 -2.2346 -0.2874  1.6107
   61TMC2    H1  953   3.635   0.720  15.093 -0.8160  0.0540  0.1437
   61TMC2    H2  954   3.503   0.696  15.501 -1.4904  1.7771 -1.1057
   61TMC2    C7  955   3.540   0.862  15.292  0.2910  0.1631 -0.5258
   61TMC2    C8  956   3.397   0.444  15.477 -0.1617 -0.1052 -0.1567
   61TMC2    O1  957   3.594   0.925  15.202  0.8110  0.0436 -0.5641
   61TMC2    O2  958   3.368   0.330  15.456 -0.0330 -0.1952  0.5609
   61TMC2    O5  959   3.369   0.517  15.590 -0.4549 -0.0452 -0.3534
   61TMC2    H5  960   3.391   0.612  15.600 -0.0224 -0.0516 -1.3099
   62MPD2     C  961   3.406   0.519  14.761  0.6884 -0.1825 -0.0857
   62MPD2    C1  962   3.530   0.573  14.791 -0.1545  0.2346  1.0779
   62MPD2    C2  963   3.587   0.660  14.707  0.3231 -0.8842 -0.5638
   62MPD2    C3  964   3.521   0.708  14.596 -0.1721  0.3721  0.3924
   62MPD2    C4  965   3.405   0.644  14.562  0.1946  0.1592 -0.2616
   62MPD2    C5  966   3.341   0.552  14.642  0.4919  0.1240  0.4404
   62MPD2     H  967   3.684   0.704  14.728  1.4094 -0.7986 -5.9118
   62MPD2    H1  968   3.349   0.671  14.473 -1.6221 -1.2762  0.4520
   62MPD2    H2  969   3.348   0.447  14.818 -0.7142  0.7948 -0.2648
   62MPD2    H3  970   3.249   0.498  14.621 -0.2423  0.6209  2.3988
   62MPD2     N  971   3.566   0.816  14.516  0.4209 -0.8625 -0.6789
   62MPD2    H5  972   3.490   0.859  14.466 -0.2273  1.0236  1.8883
   62MPD2    N1  973   3.579   0.567  14.922  0.8608 -0.2941 -0.2391
   62MPD2    H7  974   3.659   0.625  14.945  0.5505  0.9665 -2.3925
   63TMC2    C1  975   2.449   1.085  10.062 -0.1604  0.6709 -0.2883
   63TMC2    C2  976   2.443   1.050  10.195  0.4867  0.8474 -0.0445
   63TMC2    C3  977   2.519   1.126  10.282 -0.2260  0.0902  0.0692
   63TMC2    C4  978   2.517   1.196  10.025  0.5096  0.4481  0.0613
   63TMC2    C5  979   2.589   1.269  10.119  0.3273  0.1068 -0.2279
   63TMC2    C6  980   2.601   1.233  10.248 -0.0517 -0.0394 -0.3422
   63TMC2     C  981   2.436   0.981   9.960  1.1194  0.1414 -0.5526
   63TMC2     O  982   2.406   1.008   9.842 -0.3929  0.1072 -0.1771
   63TMC2     H  983   2.373   0.973  10.226  1.6747  0.6316  2.0961
   63TMC2    H1  984   2.516   1.215   9.918 -0.5150  0.8446  0.1421
   63TMC2    H2  985   2.669   1.270  10.324  0.8533  0.9985 -1.6499
   63TMC2    C7  986   2.648   1.398  10.075 -0.2461 -0.3339  0.6204
   63TMC2    C8  987   2.496   1.101  10.420  0.0981 -0.1325  0.4828
   63TMC2    O1  988   2.649   1.417   9.956  0.1439  0.2433 -0.4876
   63TMC2    O2  989   2.388   1.081  10.472  0.0311 -0.4291 -0.2240
   63TMC2    O5  990   2.614   1.072  10.473 -0.1222 -0.3059  0.8016
   63TMC2    H5  991   2.686   1.069  10.406  0.8752  0.0719  1.8603
   64MPD2     C  992   2.263   0.504   9.883  0.3103  0.2475  0.1182
   64MPD2    C1  993   2.348   0.502   9.996  0.4003 -0.2915 -0.5053
   64MPD2    C2  994   2.410   0.618  10.033  0.2779 -0.2520 -0.1709
   64MPD2    C3  995   2.393   0.738   9.966  0.6419 -0.4710  0.2693
   64MPD2    C4  996   2.311   0.729   9.858 -0.5442  0.0550 -0.3954
   64MPD2    C5  997   2.242   0.622   9.811  0.4054 -0.9996  0.2768
   64MPD2     H  998   2.485   0.619  10.110 -1.2633 -1.0404  1.3262
   64MPD2    H1  999   2.307   0.817   9.794  0.6251  0.1655 -0.3068
   64MPD2    H2 1000   2.216   0.415   9.843 -1.9489  1.0583  0.9228
   64MPD2    H3 1001   2.194   0.633   9.715 -0.6707  0.8825  1.0263
   64MPD2     N 1002   2.448   0.859  10.015  0.0162 -0.6500  0.0844
   64MPD2    H5 1003   2.486   0.854  10.109 -0.7057 -0.4544  0.3861
   64MPD2    N1 1004   2.376   0.382  10.066  0.5879 -0.4702  0.3199
   64MPD2    H7 1005   2.423   0.390  10.156  1.7229 -0.5688 -0.2605
   65TMC2    C1 1006   3.883   1.096  15.442  0.6690 -0.4801  0.4392
   65TMC2    C2 1007   3.845   1.040  15.322 -0.2715  0.3285  0.4806
   65TMC2    C3 1008   3.831   1.130  15.216 -0.1387  0.0667 -0.5355
   65TMC2    C4 1009   3.915   1.227  15.457 -0.1970  0.7286 -0.3102
   65TMC2    C5 1010   3.911   1.309  15.344  0.7884 -0.0251 -0.5200
   65TMC2    C6 1011   3.869   1.262  15.223 -0.3010  0.2697  0.2611
   65TMC2     C 1012   3.874   1.020  15.562 -0.3197 -0.3435 -0.0111
   65TMC2     O 1013   3.914   1.077  15.665  0.5885  0.4090 -0.4040
   65TMC2     H 1014   3.815   0.937  15.310  0.9271  0.1935 -1.4100
   65TMC2    H1 1015   3.957   1.267  15.548  3.5541 -4.1606  0.1241
   65TMC2    H2 1016   3.870   1.329  15.139 -0.8076  0.1001  0.1239
   65TMC2    C7 1017   3.926   1.452  15.349  0.1631 -0.6994 -0.6940
   65TMC2    C8 1018   3.814   1.077  15.084  0.3232  1.2147  0.4365
   65TMC2    O1 1019   3.956   1.511  15.247 -0.1367  0.1021  0.0064
   65TMC2    O2 1020   3.860   0.966  15.053  0.9292  0.1469 -0.0800
   65TMC2    O5 1021   3.759   1.170  15.003  0.3976 -1.1888  1.2570
   65TMC2    H5 1022   3.720   1.248  15.047 -2.5560 -2.9946  1.8804
   66MPD2     C 1023   3.772   0.838  15.775 -0.3921  0.0344 -0.0102
   66MPD2    C1 1024   3.786   0.799  15.641  0.1865  0.0808  0.3522
   66MPD2    C2 1025   3.770   0.668  15.611  0.8453 -0.1392  0.1529
   66MPD2    C3 1026   3.729   0.573  15.701 -0.3459  0.4563 -0.0080
   66MPD2    C4 1027   3.692   0.614  15.830 -0.4143 -0.1162 -0.9093
   66MPD2    C5 1028   3.723   0.748  15.867 -0.6112 -0.3759  0.0781
   66MPD2     H 1029   3.780   0.634  15.509 -2.1119 -0.3112 -0.0781
   66MPD2    H1 1030   3.652   0.543  15.902  1.1681 -1.2332 -1.1369
   66MPD2    H2 1031   3.775   0.939  15.814 -1.0586 -0.1113  0.4105
   66MPD2    H3 1032   3.695   0.780  15.967  0.2140  1.1289 -0.1863
   66MPD2     N 1033   3.710   0.441  15.665 -0.0328  0.1959 -0.9099
   66MPD2    H5 1034   3.650   0.393  15.732 -1.8648  1.2557 -1.7981
   66MPD2    N1 1035   3.823   0.893  15.539 -0.3978 -0.3186  0.5747
   66MPD2    H7 1036   3.833   0.862  15.443  0.8348  0.9238  0.3074
   67TMC2    C1 1037   4.521   4.534  14.710  0.8355 -0.1769  0.4208
   67TMC2    C2 1038   4.447   4.621  14.638  0.2466 -0.5712 -0.1954
   67TMC2    C3 1039   4.436   0.017  14.681  0.8473 -0.0441 -0.3385
   67TMC2    C4 1040   4.592   4.582  14.812 -0.2037  0.2815 -0.1521
   67TMC2    C5 1041   4.581   4.712  14.858  0.0227  0.5094  0.0614
   67TMC2    C6 1042   4.498   0.061  14.798  0.1693 -0.5770 -0.3830
   67TMC2     C 1043   4.539   4.393  14.669  0.2886  0.2748  0.4633
   67TMC2     O 1044   4.646   4.349  14.710 -0.5814  0.1050  0.1464
   67TMC2     H 1045   4.392   4.583  14.553 -0.6317 -1.7054  0.8652
   67TMC2    H1 1046   4.656   4.513  14.866 -0.9835 -0.3426 -0.0299
   67TMC2    H2 1047   4.482   0.161  14.838 -0.7758 -0.8780 -0.0066
   67TMC2    C7 1048   4.683   0.008  14.962 -0.2270 -0.1327 -0.2283
   67TMC2    C8 1049   4.373   0.106  14.592  0.4606 -0.0474  1.0265
   67TMC2    O1 1050   0.046   4.678  14.958 -0.8073  0.4223  0.6914
   67TMC2    O2 1051   4.317   0.063  14.494 -0.1639 -0.5774 -0.2185
   67TMC2    O5 1052   4.437   0.227  14.615 -0.1833  0.1826 -0.0543
   67TMC2    H5 1053   4.476   0.232  14.705 -1.4751 -1.1866  0.5954
   68MPD2     C 1054   4.569   4.140  14.511  0.0754  0.9040 -0.4613
   68MPD2    C1 1055   4.455   4.221  14.510  0.9831  0.6240 -0.0642
   68MPD2    C2 1056   4.346   4.183  14.435 -0.4832 -0.7058  0.2053
   68MPD2    C3 1057   4.352   4.071  14.350 -0.4758  0.1607 -0.1933
   68MPD2    C4 1058   4.461   3.982  14.368 -0.3263  0.3501  1.2750
   68MPD2    C5 1059   4.567   4.024  14.439 -0.4259 -0.2589 -0.2441
   68MPD2     H 1060   4.257   4.245  14.428 -0.0708 -0.0440  0.7251
   68MPD2    H1 1061   4.472   3.896  14.304 -2.3676  0.7951  0.3235
   68MPD2    H2 1062   4.656   4.173  14.567 -0.9659  1.8663  0.5959
   68MPD2    H3 1063   4.653   3.957  14.441  0.1058  0.4147 -0.6867
   68MPD2     N 1064   4.254   4.043  14.251  0.2341 -0.2770  0.1776
   68MPD2    H5 1065   4.266   3.964  14.189 -0.7089 -0.6499  0.4752
   68MPD2    N1 1066   4.449   4.343  14.580 -0.1213  0.1355 -0.0979
   68MPD2    H7 1067   4.369   4.401  14.558 -0.6352 -0.8163 -0.7513
   69TMC2    C1 1068   1.695   0.945  12.727  0.1463 -0.1403  0.0999
   69TMC2    C2 1069   1.609   1.054  12.753 -0.6870  0.0139  0.6093
   69TMC2    C3 1070   1.610   1.156  12.660 -0.6293 -0.9187 -0.0908
   69TMC2    C4 1071   1.773   0.933  12.606  0.1925  0.1000  0.1856
   69TMC2    C5 1072   1.747   1.032  12.513 -0.1972  0.6345 -0.0241
   69TMC2    C6 1073   1.672   1.141  12.539  0.8118 -0.3805  0.1929
   69TMC2     C 1074   1.695   0.836  12.823  0.7921 -0.1407  0.2548
   69TMC2     O 1075   1.609   0.844  12.908  0.2122 -0.7408 -0.2664
   69TMC2     H 1076   1.551   1.061  12.844  1.7865  0.5159  2.1425
   69TMC2    H1 1077   1.820   0.838  12.584 -0.7304 -0.1767 -0.5945
   69TMC2    H2 1078   1.649   1.216  12.464  0.0293  1.8507  2.6254
   69TMC2    C7 1079   1.807   1.002  12.383 -0.7960  0.1180 -0.4098
   69TMC2    C8 1080   1.543   1.281  12.688  0.1902 -0.1241  0.3279
   69TMC2    O1 1081   1.907   0.926  12.379 -0.3598  0.0451  0.4523
   69TMC2    O2 1082   1.458   1.285  12.775 -0.2482  0.0888 -0.1692
   69TMC2    O5 1083   1.633   1.380  12.654 -0.3489  0.1670  0.0879
   69TMC2    H5 1084   1.715   1.340  12.620  0.5154  3.8307 -2.2290
   70MPD2     C 1085   1.912   0.547  12.837  0.0464 -0.0108  0.0035
   70MPD2    C1 1086   1.808   0.622  12.874  0.0322 -0.1254 -0.1618
   70MPD2    C2 1087   1.722   0.583  12.970 -0.1888  0.7240 -0.4769
   70MPD2    C3 1088   1.750   0.467  13.041  0.7366  0.2725 -0.0121
   70MPD2    C4 1089   1.842   0.381  12.997 -0.6601 -0.4862 -1.1146
   70MPD2    C5 1090   1.917   0.417  12.891 -0.9025  0.7297 -0.1648
   70MPD2     H 1091   1.640   0.645  13.005 -0.0474  1.0930 -0.8006
   70MPD2    H1 1092   1.844   0.279  13.032 -0.7663 -0.4221 -0.9266
   70MPD2    H2 1093   1.977   0.586  12.760 -1.2561  1.6183 -0.2599
   70MPD2    H3 1094   1.991   0.350  12.850 -3.0485 -0.6564 -1.7202
   70MPD2     N 1095   1.665   0.430  13.142 -0.0901 -0.2290 -0.0687
   70MPD2    H5 1096   1.691   0.344  13.189  2.0881 -0.4782 -1.7770
   70MPD2    N1 1097   1.800   0.746  12.801  0.6542  0.0973 -0.1996
   70MPD2    H7 1098   1.867   0.761  12.727 -1.0445 -0.6057 -1.8916
   71TMC2    C1 1099   3.741   1.642   1.685  0.6008 -1.1882 -0.2096
   71TMC2    C2 1100   3.875   1.649   1.709  0.3632  0.1562  0.0616
   71TMC2    C3 1101   3.921   1.734   1.808 -0.5671  0.5246 -0.1152
   71TMC2    C4 1102   3.655   1.721   1.757 -0.4904  0.1980 -0.2714
   71TMC2    C5 1103   3.706   1.804   1.853  0.2941 -0.2279 -0.4605
   71TMC2    C6 1104   3.842   1.816   1.879  0.3464  1.1386  0.1874
   71TMC2     C 1105   3.699   1.606   1.548 -0.2397  0.0931 -0.2158
   71TMC2     O 1106   3.774   1.623   1.452 -0.1709  0.2483 -0.2136
   71TMC2     H 1107   3.947   1.591   1.654 -0.4187 -0.6096 -0.1622
   71TMC2    H1 1108   3.548   1.709   1.752 -0.4005 -0.1664 -1.4382
   71TMC2    H2 1109   3.882   1.886   1.951  0.1723 -0.1259  1.5018
   71TMC2    C7 1110   3.613   1.891   1.924 -0.2622 -0.3486 -1.3227
   71TMC2    C8 1111   4.057   1.726   1.840 -0.4963 -0.5463  0.2882
   71TMC2    O1 1112   3.661   1.959   2.013  0.1653  0.6126 -0.4755
   71TMC2    O2 1113   4.150   1.713   1.757  0.0299 -0.1596 -0.5939
   71TMC2    O5 1114   4.085   1.731   1.976 -0.1967  0.3994 -0.2651
   71TMC2    H5 1115   4.003   1.732   2.030 -0.1524 -0.3908 -0.1823
   72MPD2     C 1116   3.345   1.438   1.218  0.3147 -1.0490 -0.4395
   72MPD2    C1 1117   3.457   1.521   1.193  0.0024 -0.2511 -0.5317
   72MPD2    C2 1118   3.522   1.575   1.300  0.0231  0.0795  0.4914
   72MPD2    C3 1119   3.492   1.547   1.428  0.7311  0.0698 -0.2137
   72MPD2    C4 1120   3.385   1.458   1.448  0.2532 -0.1171 -0.8325
   72MPD2    C5 1121   3.305   1.412   1.346 -0.4627 -0.0515 -0.1721
   72MPD2     H 1122   3.598   1.652   1.287  0.7919 -0.7622 -0.0431
   72MPD2    H1 1123   3.370   1.415   1.547  2.3870 -0.3215 -0.5782
   72MPD2    H2 1124   3.296   1.390   1.134 -1.7664  2.0945 -1.0023
   72MPD2    H3 1125   3.211   1.363   1.366  0.4858 -1.2231  1.3712
   72MPD2     N 1126   3.562   1.584   1.546 -0.4972  0.1947  0.0412
   72MPD2    H5 1127   3.516   1.551   1.630 -1.3158  0.0780 -0.4494
   72MPD2    N1 1128   3.500   1.550   1.065  0.2527 -0.1737 -0.4600
   72MPD2    H7 1129   3.594   1.588   1.055  0.0771  0.2153 -0.6168
   73TMC2    C1 1130   3.276   3.365  14.329 -0.5525 -0.6362 -0.3549
   73TMC2    C2 1131   3.209   3.486  14.349  0.0632  0.2732 -0.1823
   73TMC2    C3 1132   3.284   3.597  14.385 -0.1410 -0.2094  0.0033
   73TMC2    C4 1133   3.412   3.359  14.351 -0.7255  0.3858  0.2327
   73TMC2    C5 1134   3.479   3.472  14.395  0.1025  0.5347  0.5326
   73TMC2    C6 1135   3.418   3.596  14.407  0.1746  0.9423  0.1083
   73TMC2     C 1136   3.260   3.312  14.191 -0.2379  0.2792 -0.1076
   73TMC2     O 1137   3.370   3.301  14.143 -0.1309 -0.0935 -0.7059
   73TMC2     H 1138   3.101   3.491  14.340  0.0549  0.2494 -0.1018
   73TMC2    H1 1139   3.479   3.273  14.348 -0.6814  0.3634  1.7761
   73TMC2    H2 1140   3.471   3.688  14.427 -1.7681  1.9249  0.7141
   73TMC2    C7 1141   3.609   3.475  14.325  0.1252  0.1019  0.6605
   73TMC2    C8 1142   3.207   3.715  14.423  0.2771  0.2418 -0.4386
   73TMC2    O1 1143   3.709   3.497  14.395  0.1349  0.2445  0.1632
   73TMC2    O2 1144   3.257   3.830  14.425 -0.1333  0.2568 -0.2383
   73TMC2    O5 1145   3.117   3.677  14.522 -0.2883  0.0668 -0.8514
   73TMC2    H5 1146   3.078   3.588  14.507  1.3262 -0.6175 -0.9188
   74MPD2     C 1147   3.103   3.435  13.728  0.7602 -0.0839 -0.0246
   74MPD2    C1 1148   3.196   3.340  13.768  0.0086  0.1135 -0.1536
   74MPD2    C2 1149   3.213   3.313  13.906 -0.0342  0.3622  0.3391
   74MPD2    C3 1150   3.140   3.387  13.999 -0.0707  0.3802  0.2154
   74MPD2    C4 1151   3.035   3.474  13.954 -0.0320  0.5646  0.0052
   74MPD2    C5 1152   3.020   3.498  13.822  0.4023 -0.0623  0.6267
   74MPD2     H 1153   3.287   3.240  13.936 -1.1798 -0.6125  0.7429
   74MPD2    H1 1154   2.965   3.513  14.027 -1.2266  0.3970 -1.0515
   74MPD2    H2 1155   3.084   3.450  13.623 -1.4111 -0.1181  0.3729
   74MPD2    H3 1156   2.949   3.569  13.782  1.0176  0.3860  0.3162
   74MPD2     N 1157   3.148   3.362  14.135 -0.5966 -0.7144 -0.2230
   74MPD2    H5 1158   3.082   3.413  14.194  0.9243  2.8717 -1.5759
   74MPD2    N1 1159   3.269   3.278  13.666  0.1625  0.2142  0.0108
   74MPD2    H7 1160   3.258   3.313  13.571 -0.4600 -0.4116 -0.1479
   75TMC2    C1 1161   4.080   4.074  14.096 -0.5165 -0.1882 -0.8664
   75TMC2    C2 1162   4.178   4.077  13.999 -0.3859 -0.0668  1.0077
   75TMC2    C3 1163   4.138   4.094  13.871 -0.7998  0.3654  0.1275
   75TMC2    C4 1164   3.948   4.088  14.073  0.2466  0.2337  0.2449
   75TMC2    C5 1165   3.917   4.118  13.939 -0.1682  0.1347 -0.5468
   75TMC2    C6 1166   4.009   4.127  13.836  0.4867  0.6669 -0.3331
   75TMC2     C 1167   4.132   4.103  14.231 -0.3941  0.2819  0.1206
   75TMC2     O 1168   4.053   4.157  14.309 -0.3524 -0.4951  1.3183
   75TMC2     H 1169   4.285   4.071  14.019 -0.3029 -0.1484  0.5548
   75TMC2    H1 1170   3.876   4.093  14.154 -1.0957  0.3370 -0.9451
   75TMC2    H2 1171   3.986   4.147  13.732  1.6887  2.1488 -0.3093
   75TMC2    C7 1172   3.782   4.168  13.901  0.3859 -0.6999 -0.7419
   75TMC2    C8 1173   4.242   4.091  13.764  0.1187  0.6889  0.1908
   75TMC2    O1 1174   3.764   4.201  13.786 -0.1743 -0.3338  0.0337
   75TMC2    O2 1175   4.345   4.154  13.761 -0.2162 -0.0742 -0.0959
   75TMC2    O5 1176   4.192   4.021  13.659  0.0833  0.2176  0.1637
   75TMC2    H5 1177   4.099   4.001  13.683  0.8731 -0.3627  2.7186
   76TMC2    C1 1178   2.562   4.640  12.151 -0.2483 -0.4883  0.0931
   76TMC2    C2 1179   2.472   4.553  12.107 -0.2503  0.0222 -0.9717
   76TMC2    C3 1180   2.502   4.420  12.128  0.4818 -0.1893 -0.4703
   76TMC2    C4 1181   2.678   4.602  12.216 -0.4549 -0.0359 -0.1752
   76TMC2    C5 1182   2.708   4.472  12.231  0.1687  0.0378  0.1933
   76TMC2    C6 1183   2.620   4.377  12.176  0.3178 -0.4721  0.4835
   76TMC2     C 1184   2.544   0.039  12.106  0.2485  1.2725  0.4649
   76TMC2     O 1185   2.428   0.077  12.083  0.0766  0.2170  0.3271
   76TMC2     H 1186   2.394   4.588  12.041 -1.5244 -0.3289  0.3504
   76TMC2    H1 1187   2.759   4.673  12.233 -1.3026  1.1542 -1.0929
   76TMC2    H2 1188   2.650   4.273  12.180  1.0926 -0.1699  2.3898
   76TMC2    C7 1189   2.848   4.432  12.252  0.1225 -0.6222  0.0071
   76TMC2    C8 1190   2.412   4.311  12.084 -0.9259 -0.5460  0.0951
   76TMC2    O1 1191   2.890   4.347  12.174  0.0247  0.0199 -0.1490
   76TMC2    O2 1192   2.452   4.197  12.079  0.7613 -0.2460  0.0676
   76TMC2    O5 1193   2.283   4.359  12.080  0.3793 -0.8821 -0.2813
   76TMC2    H5 1194   2.263   4.452  12.104  0.5783 -0.1979 -2.7539
   77MPD2     C 1195   2.740   0.457  11.900  0.0763  0.0233  0.0689
   77MPD2    C1 1196   2.610   0.434  11.937 -0.2522  0.1049 -0.0381
   77MPD2    C2 1197   2.588   0.312  12.005  0.7207 -0.1881 -0.1623
   77MPD2    C3 1198   2.690   0.220  12.024  0.1279 -0.0595  0.0296
   77MPD2    C4 1199   2.816   0.261  11.999  0.3168 -0.0266 -0.1336
   77MPD2    C5 1200   2.842   0.376  11.938  0.3683 -0.4440  0.5927
   77MPD2     H 1201   2.486   0.282  12.030  0.5674 -0.3305 -0.9453
   77MPD2    H1 1202   2.903   0.199  12.017  0.4121  0.9065  2.6117
   77MPD2    H2 1203   2.758   0.549  11.845  0.6811 -0.3389 -0.3376
   77MPD2    H3 1204   2.946   0.402  11.922  0.2505  0.5378  1.4514
   77MPD2     N 1205   2.670   0.091  12.075 -0.5697 -0.4280  0.2348
   77MPD2    H5 1206   2.754   0.039  12.097 -0.3746 -0.6868 -1.0972
   77MPD2    N1 1207   2.494   0.510  11.908  0.3687 -1.1753  0.1523
   77MPD2    H7 1208   2.402   0.474  11.931  0.5560 -2.1784 -0.6630
   78TMC2    C1 1209   3.339   0.910   1.683  0.5024  0.2021 -0.5486
   78TMC2    C2 1210   3.242   0.928   1.586  0.1367  0.3350 -0.7399
   78TMC2    C3 1211   3.265   1.019   1.489  0.3705  0.7520  0.5402
   78TMC2    C4 1212   3.452   0.990   1.685 -0.0667 -0.2357  0.1096
   78TMC2    C5 1213   3.472   1.082   1.580 -0.0556  0.1175 -0.0497
   78TMC2    C6 1214   3.381   1.084   1.480 -0.3312 -0.1108  0.3033
   78TMC2     C 1215   3.317   0.823   1.797 -0.1569 -0.1270 -0.3583
   78TMC2     O 1216   3.376   0.856   1.900 -0.2610  0.3549  0.0873
   78TMC2     H 1217   3.148   0.881   1.615  1.5988 -1.5935  0.9068
   78TMC2    H1 1218   3.535   0.957   1.747 -1.1581 -1.1009  1.0976
   78TMC2    H2 1219   3.393   1.151   1.395 -0.2199 -0.5566 -0.0289
   78TMC2    C7 1220   3.606   1.143   1.559  0.0094 -0.6807 -0.4473
   78TMC2    C8 1221   3.188   1.004   1.369  0.0481 -0.4239  0.4298
   78TMC2    O1 1222   3.635   1.180   1.445 -0.0210  0.2997 -0.3309
   78TMC2    O2 1223   3.204   1.083   1.277  0.3888 -0.1025  0.0736
   78TMC2    O5 1224   3.141   0.878   1.358  0.1544 -0.2814  0.0369
   78TMC2    H5 1225   3.154   0.820   1.436  3.6419  0.7129  0.2024
   79MPD1     C 1226   3.150   0.394   2.016  0.6636  0.0228  0.4100
   79MPD1    C1 1227   3.212   0.504   2.072 -0.8779 -0.2781  0.3414
   79MPD1    C2 1228   3.235   0.617   1.987  0.0537  0.4236  0.4289
   79MPD1    C3 1229   3.215   0.610   1.855  0.5944 -0.5381 -0.0074
   79MPD1    C4 1230   3.159   0.497   1.795 -0.4538  0.1039 -0.3821
   79MPD1    C5 1231   3.116   0.399   1.884 -0.0517 -0.0102  0.2506
   79MPD1     H 1232   3.266   0.705   2.043  1.2724  0.8792 -0.9500
   79MPD1    H1 1233   3.135   0.486   1.690  0.1793 -1.7398 -0.3364
   79MPD1    H2 1234   3.119   0.308   2.075  0.1668 -0.2531 -0.2561
   79MPD1    H3 1235   3.052   0.320   1.847  0.8065 -0.5246 -0.1290
   79MPD1     N 1236   3.248   0.713   1.769  0.2593  0.9668  0.0272
   79MPD1    H5 1237   3.219   0.694   1.674  0.2387 -0.5519  0.3310
   79MPD1    N1 1238   3.202   0.513   2.211  1.2251  1.2012 -0.1520
   79MPD1    H6 1239   3.272   0.580   2.241  1.0497  0.4137  2.0050
   79MPD1    H7 1240   3.216   0.425   2.259 -0.8545  1.9139  1.7142
   80TMC2    C1 1241   0.764   4.631  11.810  0.3459 -0.4505  0.3378
   80TMC2    C2 1242   0.702   4.582  11.699 -0.7453 -0.3066 -0.4204
   80TMC2    C3 1243   0.630   4.473  11.728  0.2929 -0.1089  0.6186
   80TMC2    C4 1244   0.752   4.578  11.938  0.3281 -0.4779 -0.0615
   80TMC2    C5 1245   0.678   4.464  11.952  0.4612 -0.3886 -0.3152
   80TMC2    C6 1246   0.615   4.412  11.849 -0.0583 -1.0903 -0.0176
   80TMC2     C 1247   0.836   0.017  11.790  0.3968 -0.2359 -0.7556
   80TMC2     O 1248   0.812   0.074  11.683 -0.1896 -0.0072  0.3382
   80TMC2     H 1249   0.710   4.626  11.600 -0.2271  0.0708 -0.2078
   80TMC2    H1 1250   0.792   4.622  12.029 -0.3021 -2.8008  1.3176
   80TMC2    H2 1251   0.587   4.308  11.843  0.7362 -1.3261  0.3710
   80TMC2    C7 1252   0.680   4.375  12.072 -0.3297 -0.2989  0.6513
   80TMC2    C8 1253   0.565   4.406  11.623  0.4273  0.0221  0.3696
   80TMC2    O1 1254   0.585   4.301  12.082 -0.1264 -0.4619 -0.5798
   80TMC2    O2 1255   0.449   4.371  11.651 -0.2908 -0.7520  0.4913
   80TMC2    O5 1256   0.667   4.322  11.591 -0.0524  0.1562  0.6062
   80TMC2    H5 1257   0.751   4.372  11.587 -1.6349  3.0487  3.0606
   81MPD2     C 1258   1.001   0.266  11.779  0.3090 -0.1643 -0.1118
   81MPD2    C1 1259   0.994   0.185  11.891 -0.7985  0.1463  0.3998
   81MPD2    C2 1260   1.061   0.225  11.998  0.4472 -0.3612  1.2112
   81MPD2    C3 1261   1.128   0.341  12.014 -0.0591  0.5122 -0.6855
   81MPD2    C4 1262   1.132   0.421  11.899  0.5954  0.0918  0.2710
   81MPD2    C5 1263   1.068   0.389  11.787 -0.6965 -0.6374 -1.0398
   81MPD2     H 1264   1.061   0.159  12.084  1.5203 -0.3522  1.2107
   81MPD2    H1 1265   1.180   0.517  11.892 -2.0083  1.5922  2.6352
   81MPD2    H2 1266   0.965   0.236  11.682  0.0061  2.0790 -0.6922
   81MPD2    H3 1267   1.088   0.451  11.700 -1.7602 -0.5069 -1.1928
   81MPD2     N 1268   1.170   0.384  12.147 -0.0179  0.2483  0.5902
   81MPD2    H5 1269   1.175   0.315  12.221 -1.2172  0.3120  0.7330
   81MPD2    N1 1270   0.932   0.055  11.887 -0.4179 -0.6425  0.1942
   81MPD2    H7 1271   0.942   0.008  11.976 -0.9711  1.9569  1.6253
   82TMC2    C1 1272   4.041   4.424  11.775  0.8907 -0.1336 -0.2801
   82TMC2    C2 1273   4.072   4.502  11.885 -0.0659  0.8624 -0.8681
   82TMC2    C3 1274   4.198   4.485  11.937 -0.3909  0.1832  0.2514
   82TMC2    C4 1275   4.114   4.322  11.725 -0.5125  0.0856 -0.3912
   82TMC2    C5 1276   4.239   4.310  11.783 -0.2959 -0.4631 -0.1645
   82TMC2    C6 1277   4.276   4.396  11.877 -0.0613  0.1593  0.2806
   82TMC2     C 1278   3.900   4.406  11.769  0.0346 -0.1237  0.1668
   82TMC2     O 1279   3.840   4.493  11.704  0.0317  0.3158  0.2229
   82TMC2     H 1280   4.001   4.579  11.914  1.5903  0.5910  3.8782
   82TMC2    H1 1281   4.077   4.253  11.650  0.9333 -1.3554  0.2043
   82TMC2    H2 1282   4.374   4.382  11.921  0.6349  0.4373 -1.1798
   82TMC2    C7 1283   4.314   4.194  11.761  0.4097 -0.1650  0.2116
   82TMC2    C8 1284   4.278   4.582  12.013 -0.2774  0.7617  0.0605
   82TMC2    O1 1285   4.373   4.139  11.850  0.2432 -0.0593 -0.6590
   82TMC2    O2 1286   4.381   4.548  12.075 -0.0223 -0.2978 -0.0475
   82TMC2    O5 1287   4.235   4.706  11.989  0.1242 -0.1913 -0.2517
   82TMC2    H5 1288   4.171   4.723  11.917  2.0612 -1.6673 -2.3274
   83MPD2     C 1289   3.484   4.119  11.786  0.0325 -0.1205 -0.2172
   83MPD2    C1 1290   3.531   4.188  11.676 -0.0103  0.4044  0.4320
   83MPD2    C2 1291   3.659   4.249  11.688 -0.4448 -0.2724  0.1566
   83MPD2    C3 1292   3.731   4.230  11.805  0.4533  0.0694  0.0088
   83MPD2    C4 1293   3.689   4.142  11.903 -0.4189  0.3663 -0.3493
   83MPD2    C5 1294   3.564   4.092  11.889 -0.0184 -0.7072  0.0734
   83MPD2     H 1295   3.693   4.320  11.613  3.2936 -1.6856  0.5332
   83MPD2    H1 1296   3.760   4.103  11.975  0.0395  1.9058  0.0495
   83MPD2    H2 1297   3.390   4.064  11.786  0.3773 -0.7087  2.0823
   83MPD2    H3 1298   3.531   4.016  11.959 -4.6767  2.1282  0.9515
   83MPD2     N 1299   3.861   4.291  11.819 -0.5011 -0.2282  0.0021
   83MPD2    H5 1300   3.928   4.258  11.888  1.4449  0.3536 -1.6194
   83MPD2    N1 1301   3.448   4.216  11.566  0.6267 -0.2838  0.2986
   83MPD2    H7 1302   3.354   4.177  11.571 -0.0396  1.3881  0.9404
   84TMC2    C1 1303   1.079   3.486  11.127 -0.1049 -0.7091 -0.2571
   84TMC2    C2 1304   1.104   3.357  11.167 -0.6400  0.7160  1.0903
   84TMC2    C3 1305   1.215   3.299  11.118  0.1718 -0.2692  0.0001
   84TMC2    C4 1306   1.159   3.554  11.040 -0.9242 -0.3137 -0.3037
   84TMC2    C5 1307   1.268   3.490  10.988  0.5515 -0.3440  0.7459
   84TMC2    C6 1308   1.293   3.360  11.026  0.6737 -0.3554  0.6010
   84TMC2     C 1309   0.959   3.555  11.173  0.1385 -0.0819  0.6274
   84TMC2     O 1310   0.959   3.677  11.156 -0.6671 -0.3032  0.3509
   84TMC2     H 1311   1.043   3.304  11.239 -0.7603 -1.2731 -0.4749
   84TMC2    H1 1312   1.156   3.661  11.029  0.4802 -0.5003 -2.4249
   84TMC2    H2 1313   1.371   3.312  10.968 -0.4278  0.9997 -2.0165
   84TMC2    C7 1314   1.397   3.556  10.976  0.5924  0.4438  0.2661
   84TMC2    C8 1315   1.257   3.165  11.148 -0.3165  0.8965  1.0006
   84TMC2    O1 1316   1.393   3.664  10.920 -0.1228  0.0826  0.3239
   84TMC2    O2 1317   1.330   3.107  11.066 -0.0853  0.0269  0.3291
   84TMC2    O5 1318   1.187   3.116  11.255 -0.0470 -0.3899 -0.4621
   84TMC2    H5 1319   1.173   3.177  11.330 -0.5758 -1.2505  0.1366
   85TMC2    C1 1320   1.372   1.835  15.493  0.8155 -0.2293  0.3524
   85TMC2    C2 1321   1.310   1.961  15.498 -0.6719  0.1756 -0.1280
   85TMC2    C3 1322   1.387   2.072  15.456 -0.4995 -0.0421 -0.0556
   85TMC2    C4 1323   1.488   1.813  15.434 -0.3508 -0.0771  0.3163
   85TMC2    C5 1324   1.556   1.924  15.382  0.4441  0.1501  0.8641
   85TMC2    C6 1325   1.512   2.055  15.404  0.3426 -0.4624 -0.5296
   85TMC2     C 1326   1.304   1.721  15.549  0.6106  1.2440 -0.4556
   85TMC2     O 1327   1.379   1.625  15.564 -0.3598 -0.6851 -0.5142
   85TMC2     H 1328   1.218   1.988  15.548 -1.4012  1.3378 -2.1086
   85TMC2    H1 1329   1.528   1.714  15.420  0.9591  0.5967 -0.6920
   85TMC2    H2 1330   1.574   2.140  15.380 -0.1025  0.1084  0.3283
   85TMC2    C7 1331   1.650   1.900  15.270  0.6277  0.4808  0.0166
   85TMC2    C8 1332   1.333   2.204  15.468  0.0416 -0.3180 -0.2759
   85TMC2    O1 1333   1.720   1.802  15.271  0.4124 -0.2867 -0.2043
   85TMC2    O2 1334   1.382   2.296  15.401  0.1182 -0.3039  0.1932
   85TMC2    O5 1335   1.281   2.218  15.585 -0.3269 -0.2922  0.1178
   85TMC2    H5 1336   1.293   2.141  15.645 -0.3049  0.1546  0.6844
   86MPD2     C 1337   0.905   1.425  15.668  0.3202 -0.2824  0.1553
   86MPD2    C1 1338   1.039   1.409  15.691 -0.5201 -0.7143 -0.2410
   86MPD2    C2 1339   1.129   1.507  15.661  0.3210  0.0443 -0.6592
   86MPD2    C3 1340   1.084   1.621  15.596  0.0096 -0.4256 -0.4091
   86MPD2    C4 1341   0.949   1.631  15.572  0.3068 -0.3064  0.1408
   86MPD2    C5 1342   0.857   1.538  15.614 -0.3237 -0.2176 -0.2776
   86MPD2     H 1343   1.234   1.499  15.688 -0.2145  2.9199  2.1994
   86MPD2    H1 1344   0.918   1.717  15.514  2.1156  0.9505  1.0209
   86MPD2    H2 1345   0.826   1.360  15.703 -0.1258  0.1151 -0.1196
   86MPD2    H3 1346   0.751   1.554  15.600  0.0288  0.8052 -1.8783
   86MPD2     N 1347   1.168   1.731  15.552 -0.4978  0.1156  0.0718
   86MPD2    H5 1348   1.125   1.815  15.516  2.3577  2.3035  1.7573
   86MPD2    N1 1349   1.091   1.301  15.766  0.3576  0.5638  0.2460
   86MPD2    H7 1350   1.192   1.290  15.775  0.1571 -2.6123 -1.3400
   87TMC2    C1 1351   4.435   0.478   1.341 -0.3835  0.1938 -0.0692
   87TMC2    C2 1352   4.542   0.482   1.432  0.0662 -0.1975 -0.2985
   87TMC2    C3 1353   4.534   0.578   1.523  0.0370  0.2128  0.1904
   87TMC2    C4 1354   4.334   0.569   1.343  0.0593  0.8490 -1.3225
   87TMC2    C5 1355   4.332   0.657   1.450 -0.8409 -0.0589 -0.0263
   87TMC2    C6 1356   4.431   0.666   1.543  0.5253  0.6414 -0.8530
   87TMC2     C 1357   4.422   0.363   1.255 -0.1725  0.6687 -0.4461
   87TMC2     O 1358   4.349   0.382   1.160  0.4677  0.4289  0.2037
   87TMC2     H 1359   4.622   0.409   1.434  1.8405  1.7207 -1.7469
   87TMC2    H1 1360   4.246   0.559   1.280 -1.9877  1.0458  1.4578
   87TMC2    H2 1361   4.419   0.736   1.624  0.0134 -1.2019  0.6723
   87TMC2    C7 1362   4.206   0.718   1.496  0.0855  0.0781  0.3013
   87TMC2    C8 1363   4.626   0.576   1.631  0.6237  0.0230 -0.5110
   87TMC2    O1 1364   4.196   0.721   1.616 -0.0829  0.3084 -0.0391
   87TMC2    O2 1365   4.613   0.630   1.740 -0.5379  0.0996 -0.3181
   87TMC2    O5 1366   0.005   0.537   1.572 -0.1645  0.5971 -0.2121
   87TMC2    H5 1367   0.003   0.515   1.477  0.1630  0.9227 -0.2960
   88MPD2     C 1368   3.929   0.803   1.555 -0.1446  0.8633  1.0604
   88MPD2    C1 1369   3.977   0.799   1.424  0.9240  0.2307  0.8022
   88MPD2    C2 1370   3.897   0.827   1.317 -0.3839 -0.2008 -0.1825
   88MPD2    C3 1371   3.764   0.850   1.342 -0.2753  0.1437 -0.1501
   88MPD2    C4 1372   3.711   0.837   1.470 -0.1910  0.3156 -0.5405
   88MPD2    C5 1373   3.800   0.826   1.578  0.7712 -0.5669  0.0567
   88MPD2     H 1374   3.942   0.828   1.218 -0.4588  2.6329 -0.1964
   88MPD2    H1 1375   3.606   0.852   1.494 -0.0769 -0.4505  0.4645
   88MPD2    H2 1376   3.981   0.778   1.647  4.4154  1.7098 -1.2694
   88MPD2    H3 1377   3.762   0.830   1.679 -0.4004 -0.3221 -0.3911
   88MPD2     N 1378   3.682   0.862   1.228 -0.1388  0.2177 -0.3971
   88MPD2    H5 1379   3.721   0.859   1.134 -0.0407  0.7035 -0.3710
   88MPD2    N1 1380   4.111   0.755   1.398 -0.6512  0.0537  0.1349
   88MPD2    H7 1381   4.136   0.734   1.302  0.0868 -0.9969  0.5532
   89TMC2    C1 1382   0.269   3.227   1.504  0.4885  0.0657 -0.0645
   89TMC2    C2 1383   0.395   3.270   1.508 -0.7959 -0.2126  0.1861
   89TMC2    C3 1384   0.436   3.378   1.427 -0.4288 -0.0701 -0.6184
   89TMC2    C4 1385   0.180   3.285   1.414  0.3477 -0.7876 -0.3994
   89TMC2    C5 1386   0.226   3.382   1.321  0.6026 -0.2135 -0.1630
   89TMC2    C6 1387   0.359   3.422   1.327  0.7227 -0.3880  0.3073
   89TMC2     C 1388   0.241   3.095   1.543 -0.9670  0.1838  0.1470
   89TMC2     O 1389   0.340   3.022   1.564  0.0566  0.1733  1.3258
   89TMC2     H 1390   0.476   3.228   1.567 -1.2204 -0.2006  0.7812
   89TMC2    H1 1391   0.083   3.241   1.393  0.5199 -1.1979 -0.3208
   89TMC2    H2 1392   0.387   3.516   1.281 -0.3838 -0.5649 -0.7054
   89TMC2    C7 1393   0.140   3.410   1.208  0.3752 -0.1428 -0.4718
   89TMC2    C8 1394   0.579   3.414   1.418 -0.1767 -0.1405 -0.3563
   89TMC2    O1 1395   0.041   3.339   1.200  0.4263  0.1174  0.3605
   89TMC2    O2 1396   0.643   3.451   1.314  0.7101 -0.2312 -0.4452
   89TMC2    O5 1397   0.603   3.453   1.549 -0.2551  0.1720 -0.5280
   89TMC2    H5 1398   0.527   3.434   1.608  1.1411  0.4950  1.3472
   90MPD2     C 1399   4.638   2.714   1.600 -0.0236 -0.5931  0.3584
   90MPD2    C1 1400   4.581   2.829   1.651 -0.3984 -0.0884  0.7684
   90MPD2    C2 1401   4.659   2.943   1.646 -0.2290  0.2241 -0.0154
   90MPD2    C3 1402   0.051   2.944   1.596  0.6326 -0.1957  0.4804
   90MPD2    C4 1403   0.105   2.824   1.574  0.1623 -0.3388  0.8362
   90MPD2    C5 1404   0.027   2.712   1.566  0.2661  0.4552  0.4294
   90MPD2     H 1405   4.620   3.040   1.676 -0.5096  1.1782 -3.3704
   90MPD2    H1 1406   0.210   2.813   1.547  0.0928  0.5066  0.2122
   90MPD2    H2 1407   4.584   2.620   1.593 -0.3188 -0.2610 -1.8110
   90MPD2    H3 1408   0.070   2.617   1.535 -0.2309  1.0041 -1.9242
   90MPD2     N 1409   0.112   3.067   1.569  0.6594 -0.5085 -1.1359
   90MPD2    H5 1410   0.050   3.147   1.561  1.4755 -0.0840 -3.1575
   90MPD2    N1 1411   4.441   2.827   1.694  0.8050 -0.2576  0.3178
   90MPD2    H7 1412   4.403   2.915   1.728  0.0184  0.2116 -1.7574
   91TMC2    C1 1413   1.161   2.516  16.131  1.0858  0.6845 -0.0989
   91TMC2    C2 1414   1.216   2.527  16.256 -0.3757 -0.0510 -0.3035
   91TMC2    C3 1415   1.139   2.497  16.365  0.4799 -0.4113  1.2338
   91TMC2    C4 1416   1.028   2.500  16.109 -0.5091 -0.2824 -0.4779
   91TMC2    C5 1417   0.946   2.470  16.219  0.0417  0.0976  0.5904
   91TMC2    C6 1418   1.006   2.464  16.345  0.1336 -0.2313  0.2323
   91TMC2     C 1419   1.252   2.488  16.013  0.2548  0.2005 -0.2525
   91TMC2     O 1420   1.199   2.436  15.918 -0.4981  0.4600 -0.7755
   91TMC2     H 1421   1.324   2.543  16.263 -0.2452  0.0331 -2.6002
   91TMC2    H1 1422   1.000   2.515  16.005 -1.3234 -1.2396 -0.4000
   91TMC2    H2 1423   0.944   2.416  16.420  0.5636 -1.3271 -0.1112
   91TMC2    C7 1424   0.809   2.430  16.205  0.0237  0.7855  0.0167
   91TMC2    C8 1425   1.211   2.461  16.484 -0.4456  0.3595  0.7356
   91TMC2    O1 1426   0.780   2.341  16.285  0.1541  0.5344  0.2893
   91TMC2    O2 1427   1.333   2.466  16.493 -0.4942  0.9902  0.3449
   91TMC2    O5 1428   1.127   2.470  16.586 -0.4625  0.1646 -0.6880
   91TMC2    H5 1429   1.033   2.486  16.563  0.3620  3.5288 -1.7488
   92MPD2     C 1430   1.449   2.504  15.795 -0.2380 -0.3761  0.5635
   92MPD2    C1 1431   1.477   2.537  15.932 -0.4906  0.1210  0.1968
   92MPD2    C2 1432   1.602   2.570  15.962  0.2022 -1.2366  0.1034
   92MPD2    C3 1433   1.701   2.575  15.871 -0.8057 -0.6927 -0.3243
   92MPD2    C4 1434   1.674   2.558  15.742 -0.6005  0.4437  0.4761
   92MPD2    C5 1435   1.549   2.526  15.701  0.2819 -0.0998  0.5960
   92MPD2     H 1436   1.639   2.591  16.062  0.8885 -0.5665 -0.2935
   92MPD2    H1 1437   1.740   2.579  15.659 -1.3541 -1.6264 -0.6566
   92MPD2    H2 1438   1.358   2.469  15.747 -1.7919  3.2787  0.8186
   92MPD2    H3 1439   1.526   2.493  15.600  0.5086 -0.6766  0.7318
   92MPD2     N 1440   1.833   2.603  15.924  0.1476 -0.0194 -0.5016
   92MPD2    H5 1441   1.848   2.601  16.024  2.3275  2.3446 -0.7992
   92MPD2    N1 1442   1.378   2.535  16.030  0.3660 -0.0939  0.4803
   92MPD2    H7 1443   1.407   2.582  16.115 -0.2433  1.0667  0.0469
   93TMC2    C1 1444   3.256   2.540  13.804 -0.5620 -0.5708  0.1021
   93TMC2    C2 1445   3.201   2.617  13.907  0.3248  0.0844 -0.5326
   93TMC2    C3 1446   3.243   2.749  13.916  0.5206 -0.2384 -0.1270
   93TMC2    C4 1447   3.363   2.586  13.735 -0.1571 -0.1054 -0.0855
   93TMC2    C5 1448   3.405   2.714  13.751 -0.3302  0.3050 -0.2873
   93TMC2    C6 1449   3.343   2.799  13.837  0.6733 -0.1969  0.3986
   93TMC2     C 1450   3.251   2.394  13.824 -0.0971  0.3046  0.1346
   93TMC2     O 1451   3.341   2.323  13.776  0.3897 -0.3303 -0.1795
   93TMC2     H 1452   3.111   2.574  13.951  1.5890 -1.9868  0.0137
   93TMC2    H1 1453   3.410   2.522  13.662 -1.3022  0.4352 -1.2971
   93TMC2    H2 1454   3.360   2.906  13.838 -1.6331  0.1572  0.4607
   93TMC2    C7 1455   3.535   2.753  13.696  0.8361 -0.3817  0.0472
   93TMC2    C8 1456   3.199   2.833  14.027 -0.0989  0.0028  0.5631
   93TMC2    O1 1457   3.575   2.688  13.601 -0.2268  0.1916  0.0264
   93TMC2    O2 1458   3.151   2.943  14.003 -0.3393 -0.5614  0.5552
   93TMC2    O5 1459   3.150   2.749  14.113  0.0989 -0.1904 -0.1437
   93TMC2    H5 1460   3.220   2.684  14.135 -0.0539 -0.2553  0.1516
   94MPD2     C 1461   3.211   2.121  13.922  0.1472 -0.1149  0.6909
   94MPD2    C1 1462   3.117   2.227  13.934  0.4861  0.4765 -0.8184
   94MPD2    C2 1463   3.001   2.196  13.996 -0.1482  0.7878 -0.4433
   94MPD2    C3 1464   2.957   2.067  14.031  0.3365 -0.0485  0.4671
   94MPD2    C4 1465   3.041   1.969  14.000 -0.6309  0.3628 -0.1134
   94MPD2    C5 1466   3.160   1.994  13.940  0.2906  0.7480  0.4695
   94MPD2     H 1467   2.937   2.283  14.007  0.6817  1.2508  0.7714
   94MPD2    H1 1468   3.013   1.871  14.036  0.7451  0.8265  2.2080
   94MPD2    H2 1469   3.314   2.121  13.888  0.0078  0.4614  0.2515
   94MPD2    H3 1470   3.225   1.908  13.933  0.6788  1.3945 -3.5413
   94MPD2     N 1471   2.840   2.038  14.099  0.1286  0.2557  0.2599
   94MPD2    H5 1472   2.803   1.944  14.102  0.8328 -0.0331 -0.2745
   94MPD2    N1 1473   3.145   2.361  13.901 -0.9351 -0.7516  0.2296
   94MPD2    H7 1474   3.072   2.430  13.916 -0.0610 -0.1056  1.5424
   95TMC2    C1 1475   3.032   4.685  16.162 -0.2103  0.0851 -0.2247
   95TMC2    C2 1476   2.919   4.612  16.153 -0.3506  0.5029 -0.1702
   95TMC2    C3 1477   2.827   4.624  16.251 -0.2318  0.5848 -0.0756
   95TMC2    C4 1478   3.054   0.034  16.265 -0.1674  0.3133  0.2454
   95TMC2    C5 1479   2.959   0.050  16.358 -0.6256 -0.5005 -0.0867
   95TMC2    C6 1480   2.845   4.706  16.360  0.2493 -0.4773  0.0692
   95TMC2     C 1481   3.139   4.652  16.074 -0.1970  0.3339  0.0261
   95TMC2     O 1482   3.219   0.003  16.078  0.3173 -0.6766  0.1720
   95TMC2     H 1483   2.917   4.533  16.080  1.5620  0.7400 -0.4720
   95TMC2    H1 1484   3.144   0.092  16.278 -0.2679  0.6171 -0.3814
   95TMC2    H2 1485   2.758   4.720  16.422 -1.0953 -4.1011 -0.9921
   95TMC2    C7 1486   2.955   0.158  16.450 -0.5466 -0.5826  0.2275
   95TMC2    C8 1487   2.718   4.531  16.276 -0.0662 -0.4737 -0.9246
   95TMC2    O1 1488   2.893   0.146  16.557  0.1036  1.0517 -0.2362
   95TMC2    O2 1489   2.696   4.491  16.389 -0.5457  0.8567 -0.1919
   95TMC2    O5 1490   2.669   4.473  16.159 -0.1599 -0.1525 -0.6409
   95TMC2    H5 1491   2.694   4.519  16.076 -1.6224 -1.2009 -1.6564
   96MPD2     C 1492   3.383   4.388  15.705 -0.2126  0.0026  0.0405
   96MPD2    C1 1493   3.390   4.522  15.738 -0.6623 -0.1539  0.2391
   96MPD2    C2 1494   3.309   4.565  15.849 -0.0909  0.1955 -0.1365
   96MPD2    C3 1495   3.228   4.478  15.921 -0.2159  0.1682  0.0039
   96MPD2    C4 1496   3.233   4.340  15.890 -0.4625 -0.5311 -0.1214
   96MPD2    C5 1497   3.307   4.301  15.783  0.1162 -0.4852  0.7398
   96MPD2     H 1498   3.301   4.671  15.869  3.1765  0.8561 -2.2698
   96MPD2    H1 1499   3.167   4.272  15.942  0.0777  0.3851  1.7608
   96MPD2    H2 1500   3.419   4.346  15.612 -1.9810 -1.3465 -0.0333
   96MPD2    H3 1501   3.302   4.197  15.754 -1.8187  0.5639 -2.7161
   96MPD2     N 1502   3.142   4.525  16.020  0.9561 -0.4046 -0.5022
   96MPD2    H5 1503   3.079   4.455  16.058  0.7269  0.3445  0.4989
   96MPD2    N1 1504   3.463   4.609  15.654 -0.7635 -0.0414 -0.4558
   96MPD2    H7 1505   3.507   4.576  15.568  1.5089 -2.8585  1.7672
   97TMC2    C1 1506   0.930   2.391  17.525 -0.1621 -0.3761 -0.1750
   97TMC2    C2 1507   0.929   2.315  17.409  0.7928  0.3725  0.7486
   97TMC2    C3 1508   0.945   2.376  17.296 -0.8621 -0.1562  0.2037
   97TMC2    C4 1509   0.942   2.529  17.522  0.9745  0.0986  0.4797
   97TMC2    C5 1510   0.958   2.592  17.399  0.4443  0.2326 -0.0159
   97TMC2    C6 1511   0.965   2.511  17.288  0.1543  0.1992 -0.0460
   97TMC2     C 1512   0.916   2.320  17.651 -0.0406 -0.0352  0.1460
   97TMC2     O 1513   0.869   2.205  17.647 -0.5971  0.1630  0.3714
   97TMC2     H 1514   0.945   2.208  17.416  0.2297  0.3444  1.6532
   97TMC2    H1 1515   0.928   2.589  17.611  1.3978  1.1494 -0.1551
   97TMC2    H2 1516   1.009   2.542  17.193  0.2181  0.4426  0.0616
   97TMC2    C7 1517   1.027   2.715  17.397 -0.2968 -0.5146  0.0344
   97TMC2    C8 1518   0.952   2.301  17.170 -0.6322  0.1687 -0.5637
   97TMC2    O1 1519   1.095   2.749  17.496  0.2878 -0.0143 -0.0652
   97TMC2    O2 1520   1.025   2.324  17.072 -0.5213  0.1662 -0.3461
   97TMC2    O5 1521   0.867   2.193  17.186  0.1357 -0.4906  0.1221
   97TMC2    H5 1522   0.816   2.202  17.270  0.3522 -1.5020  0.3639
   98MPD2     C 1523   0.939   2.355   0.411 -0.5044 -0.5667 -0.2309
   98MPD2    C1 1524   0.855   2.275   0.335  0.5717  0.6980  0.2837
   98MPD2    C2 1525   0.871   2.274   0.195 -0.4805  0.1688  0.0216
   98MPD2    C3 1526   0.967   2.353   0.139  0.0546 -0.4935 -0.0255
   98MPD2    C4 1527   1.044   2.436   0.220  0.1186  0.2985  0.3542
   98MPD2    C5 1528   1.029   2.437   0.360 -0.2303 -0.3271  0.4531
   98MPD2     H 1529   0.814   2.208   0.131  0.0769  1.1017 -1.4327
   98MPD2    H1 1530   1.107   2.511   0.173  0.3244  0.2306  0.5240
   98MPD2    H2 1531   0.919   2.375   0.516  1.0903 -1.6169  0.2714
   98MPD2    H3 1532   1.093   2.503   0.418 -0.5015 -2.0524  2.6767
   98MPD2     N 1533   0.975   2.380  17.749  0.0539  0.2210 -0.1654
   98MPD2    H5 1534   1.045   2.448  17.723 -0.1106  0.6001  0.3697
   98MPD2    N1 1535   0.748   2.202   0.403  0.0495 -0.2838  0.2551
   98MPD2    H7 1536   0.741   2.215   0.503 -1.6882 -1.1896  0.2482
   99TMC2    C1 1537   4.452   3.954   1.488 -0.0712  0.4266  0.1676
   99TMC2    C2 1538   4.509   3.914   1.611  0.5055 -0.2529 -0.2403
   99TMC2    C3 1539   4.443   3.946   1.727  0.0842  0.7430 -0.0848
   99TMC2    C4 1540   4.331   4.022   1.486  0.3402 -0.1119 -0.0785
   99TMC2    C5 1541   4.284   4.056   1.609  0.8216  0.2532  0.3602
   99TMC2    C6 1542   4.325   4.017   1.730 -0.1815 -0.1003 -0.4219
   99TMC2     C 1543   4.518   3.911   1.362  0.5319 -0.6412  0.0516
   99TMC2     O 1544   4.620   3.851   1.385 -0.1395 -0.3440  0.4312
   99TMC2     H 1545   4.593   3.846   1.608  1.0621  0.5106 -1.8124
   99TMC2    H1 1546   4.306   4.082   1.399 -1.4816  0.4824  0.8680
   99TMC2    H2 1547   4.263   4.038   1.816 -3.2484 -0.7801 -2.4696
   99TMC2    C7 1548   4.148   4.113   1.610 -0.7072  0.6368  0.5881
   99TMC2    C8 1549   4.461   3.852   1.834 -0.2720 -0.5647 -1.0787
   99TMC2    O1 1550   4.114   4.171   1.716 -0.1387  0.0752  0.3670
   99TMC2    O2 1551   4.489   3.736   1.822  0.6890 -0.0692 -0.3511
   99TMC2    O5 1552   4.483   3.924   1.950 -0.6268  0.3212  0.2772
   99TMC2    H5 1553   4.475   4.020   1.932  1.2994 -0.0481 -2.3840
  100MPD2     C 1554   4.633   3.887   1.095  0.3338 -1.2371  0.6684
  100MPD2    C1 1555   4.503   3.916   1.116 -0.2412 -0.0586  0.0631
  100MPD2    C2 1556   4.422   3.915   1.006  0.3963  0.2866  0.4493
  100MPD2    C3 1557   4.470   3.886   0.880 -0.5649  0.0973  0.1874
  100MPD2    C4 1558   4.605   3.859   0.866 -0.3496 -0.8764  0.1541
  100MPD2    C5 1559   4.687   3.860   0.976 -0.3900 -0.4207 -0.3861
  100MPD2     H 1560   4.315   3.931   1.012  0.2060 -0.7612 -0.0734
  100MPD2    H1 1561   4.642   3.851   0.764  0.5826 -1.2192  0.5203
  100MPD2    H2 1562   4.705   3.899   1.174  0.8640 -1.2382  0.1872
  100MPD2    H3 1563   0.056   3.850   0.962 -0.3742  0.4999 -0.9125
  100MPD2     N 1564   4.387   3.877   0.767 -0.1884 -0.3593  0.0591
  100MPD2    H5 1565   4.291   3.907   0.781 -0.1882 -0.1109 -0.4659
  100MPD2    N1 1566   4.452   3.939   1.244  0.1447 -0.7174  0.3951
  100MPD2    H7 1567   4.355   3.966   1.253  0.4638  0.5700 -0.0654
  101TMC2    C1 1568   0.115   0.766  13.008  0.4151  0.5297  0.3459
  101TMC2    C2 1569   0.008   0.809  12.938  0.0929 -0.6204 -0.7780
  101TMC2    C3 1570   0.042   0.899  12.837  0.3029  0.8104  0.0147
  101TMC2    C4 1571   0.247   0.807  12.980 -0.3102 -0.7396 -0.0161
  101TMC2    C5 1572   0.267   0.895  12.877  0.7378 -0.7084 -0.3417
  101TMC2    C6 1573   0.163   0.937  12.802  0.1349 -0.2658 -0.2993
  101TMC2     C 1574   0.100   0.642  13.083 -0.5484 -0.1455 -0.5880
  101TMC2     O 1575   4.726   0.622  13.127  0.1748 -0.3492 -0.4376
  101TMC2     H 1576   4.657   0.748  12.946 -1.0786  1.3533  1.2103
  101TMC2    H1 1577   0.333   0.783  13.040 -0.0511  0.6921  0.1897
  101TMC2    H2 1578   0.177   1.005  12.719  0.4048 -1.4258 -1.1996
  101TMC2    C7 1579   0.366   0.994  12.897  0.0268  0.3229 -0.4763
  101TMC2    C8 1580   4.675   0.933  12.741  0.3585  0.1233 -0.0940
  101TMC2    O1 1581   0.464   0.962  12.961  0.6636  0.3607 -0.7065
  101TMC2    O2 1582   4.692   0.950  12.624  0.0643  0.3556  0.3558
  101TMC2    O5 1583   4.567   0.942  12.817 -0.8192 -0.3266  0.9411
  101TMC2    H5 1584   4.590   0.972  12.908  2.3844 -2.8538  0.9259
  102MPD2     C 1585   0.319   0.343  13.078  0.5178 -0.4574 -0.2816
  102MPD2    C1 1586   0.224   0.432  13.126 -0.0660 -0.1689  0.3303
  102MPD2    C2 1587   0.136   0.391  13.226  0.2498  0.8440 -0.1746
  102MPD2    C3 1588   0.155   0.264  13.288  0.4753 -0.1523  0.0876
  102MPD2    C4 1589   0.260   0.184  13.246 -0.4137  0.2192 -0.7681
  102MPD2    C5 1590   0.328   0.216  13.136  0.3195 -0.5502 -0.5857
  102MPD2     H 1591   0.072   0.460  13.278  0.9263  1.0271  0.4130
  102MPD2    H1 1592   0.288   0.095  13.300  0.5395  1.6685  1.1451
  102MPD2    H2 1593   0.387   0.377  13.001 -0.0867  0.6738 -0.3137
  102MPD2    H3 1594   0.402   0.145  13.102  0.5404 -0.4204 -0.3766
  102MPD2     N 1595   0.070   0.236  13.401 -0.7259 -0.2456  0.1587
  102MPD2    H5 1596   0.020   0.312  13.445 -0.4721 -0.6722  1.1891
  102MPD2    N1 1597   0.213   0.562  13.071 -0.5151  0.4678  0.5047
  102MPD2    H7 1598   0.286   0.585  13.005 -1.0565  0.1642 -0.1981
  103TMC2    C1 1599   3.267   4.699  12.897 -0.3464  0.4519  0.2857
  103TMC2    C2 1600   3.388   0.024  12.874 -0.1020 -0.3168 -0.3772
  103TMC2    C3 1601   3.468   0.051  12.981  0.2118  0.3989  0.6085
  103TMC2    C4 1602   3.232   4.665  13.016  0.7169  1.1730 -0.6039
  103TMC2    C5 1603   3.315   4.684  13.124 -0.6191  0.4194 -0.2778
  103TMC2    C6 1604   3.439   0.009  13.110 -0.2836 -0.0334  0.3271
  103TMC2     C 1605   3.188   4.645  12.791  0.0779  0.4685  0.5955
  103TMC2     O 1606   3.074   4.627  12.822 -0.4221 -0.2458  0.0214
  103TMC2     H 1607   3.419   0.059  12.776 -1.6633 -1.3059 -1.2370
  103TMC2    H1 1608   3.133   4.621  13.030  1.4256 -0.5345 -0.8726
  103TMC2    H2 1609   3.502   0.038  13.193  1.4409 -0.4594 -0.8299
  103TMC2    C7 1610   3.263   4.696  13.258 -0.4614  0.6440  0.4815
  103TMC2    C8 1611   3.595   0.128  12.971 -0.2175  0.6140 -0.0235
  103TMC2    O1 1612   3.348   4.724  13.343 -0.2713  0.0552 -0.1707
  103TMC2    O2 1613   3.701   0.097  13.024  0.3770  0.0558  0.2864
  103TMC2    O5 1614   3.576   0.213  12.871 -0.3700  0.8197 -0.3699
  103TMC2    H5 1615   3.485   0.249  12.865 -0.4459  0.5213 -1.0428
  104MPD2     C 1616   3.296   4.522  12.459  0.0400  0.4675  0.6126
  104MPD2    C1 1617   3.207   4.564  12.555 -0.5770  0.3500  0.2969
  104MPD2    C2 1618   3.070   4.557  12.518 -0.4797  0.7618 -0.0990
  104MPD2    C3 1619   3.034   4.508  12.394  0.3067  0.2658  0.4652
  104MPD2    C4 1620   3.131   4.461  12.306 -0.2528  0.2772 -0.2181
  104MPD2    C5 1621   3.261   4.465  12.338  0.0305  0.1368 -0.6421
  104MPD2     H 1622   2.995   4.582  12.592 -0.9223  1.1353 -0.6723
  104MPD2    H1 1623   3.105   4.410  12.214 -0.4312 -1.8135  0.9885
  104MPD2    H2 1624   3.401   4.535  12.481  0.4512 -1.3985 -0.3280
  104MPD2    H3 1625   3.339   4.420  12.278  1.8749 -0.4376  2.1717
  104MPD2     N 1626   2.901   4.511  12.354 -0.9465 -0.0865  0.2457
  104MPD2    H5 1627   2.832   4.543  12.421  1.0805  1.3230  1.6719
  104MPD2    N1 1628   3.264   4.613  12.676  0.6010  0.0853 -0.3436
  104MPD2    H7 1629   3.365   4.617  12.687  0.7668  0.0218 -1.8091
  105TMC2    C1 1630   4.517   4.645   0.398 -0.1349 -0.6362  0.5519
  105TMC2    C2 1631   4.489   0.039   0.361 -0.4080  0.0733 -0.1863
  105TMC2    C3 1632   4.491   0.133   0.459 -0.5627 -0.0418 -0.3048
  105TMC2    C4 1633   4.560   4.613   0.522  0.4183  0.2457  0.3552
  105TMC2    C5 1634   4.534   4.707   0.620  0.2626 -0.2383  0.0503
  105TMC2    C6 1635   4.508   0.097   0.591 -0.7989 -0.0959 -0.1503
  105TMC2     C 1636   4.502   4.535   0.306  0.5998 -0.2305 -0.1753
  105TMC2     O 1637   4.539   4.425   0.343 -0.0341 -0.1880  0.6112
  105TMC2     H 1638   4.498   0.074   0.259  1.4238  0.2356  0.0279
  105TMC2    H1 1639   4.587   4.512   0.551  0.7673 -0.1266 -1.2486
  105TMC2    H2 1640   4.521   0.167   0.672 -1.2800 -0.5662  0.3384
  105TMC2    C7 1641   4.527   4.664   0.755  0.8925  0.5488 -0.1678
  105TMC2    C8 1642   4.457   0.266   0.424  0.2892 -0.3956  1.0718
  105TMC2    O1 1643   4.554   4.543   0.770  0.0187  0.0133  0.8866
  105TMC2    O2 1644   4.466   0.312   0.312  0.6062  0.1571  0.0793
  105TMC2    O5 1645   4.355   0.299   0.509  0.5085 -0.8497 -0.6119
  105TMC2    H5 1646   4.347   0.243   0.589 -3.0665  1.1147  0.4325
  106MPD2     C 1647   4.329   4.319  17.624  0.5886 -0.7116 -0.5176
  106MPD2    C1 1648   4.330   4.456  17.598 -0.0916 -0.0501 -0.0599
  106MPD2    C2 1649   4.356   4.539  17.710 -0.0383  0.5979  0.7628
  106MPD2    C3 1650   4.398   4.481   0.082 -0.3913 -0.6566 -0.2306
  106MPD2    C4 1651   4.411   4.342   0.095 -0.3924 -0.4108 -0.2848
  106MPD2    C5 1652   4.381   4.263  17.740 -0.1476  0.3805  0.1279
  106MPD2     H 1653   4.341   4.646  17.698 -1.3798  0.4395  1.1014
  106MPD2    H1 1654   4.450   4.293   0.183  0.5573  2.0869  0.6882
  106MPD2    H2 1655   4.312   4.246  17.545 -0.0996 -1.4010  0.2665
  106MPD2    H3 1656   4.378   4.156   0.004  0.7730  0.5513  1.5827
  106MPD2     N 1657   4.442   4.565   0.185  0.2357 -0.0914 -0.9255
  106MPD2    H5 1658   4.416   4.663   0.181  3.1514  0.8252  2.1974
  106MPD2    N1 1659   4.289   4.510  17.478 -0.3493 -0.2915  0.5225
  106MPD2    H7 1660   4.305   4.610  17.466 -1.1165 -0.0246  1.7460
  107TMC2    C1 1661   0.242   4.122  11.528  0.7312  0.3535  0.1264
  107TMC2    C2 1662   0.254   4.193  11.413  0.5329  0.0284 -0.5536
  107TMC2    C3 1663   0.342   4.143  11.314 -0.4262  0.2770  0.4153
  107TMC2    C4 1664   0.307   4.005  11.549  0.4711 -0.4994  0.1368
  107TMC2    C5 1665   0.387   3.956  11.449 -0.3726  0.9580  0.5489
  107TMC2    C6 1666   0.404   4.025  11.332 -0.4085  0.9752  0.3572
  107TMC2     C 1667   0.169   4.175  11.642  0.4241  0.3679 -0.1963
  107TMC2     O 1668   0.125   4.090  11.717 -0.4172  0.2970  0.9142
  107TMC2     H 1669   0.189   4.274  11.383 -1.1451 -1.2335 -0.3531
  107TMC2    H1 1670   0.298   3.957  11.646  0.2530  2.2752  1.4907
  107TMC2    H2 1671   0.471   3.983  11.259  2.3972  1.3354  2.7235
  107TMC2    C7 1672   0.418   3.815  11.456 -0.1851 -0.2157  0.1207
  107TMC2    C8 1673   0.384   4.226  11.201 -0.0464  0.2040 -0.3757
  107TMC2    O1 1674   0.339   3.750  11.520  0.1435  0.1433 -0.9626
  107TMC2    O2 1675   0.433   4.177  11.106  0.1909  0.2928  0.1514
  107TMC2    O5 1676   0.347   4.351  11.209 -0.8115 -0.1003 -0.5313
  107TMC2    H5 1677   0.306   4.375  11.295 -1.9770 -1.5475 -0.6971
  108MPD2     C 1678   0.020   4.504  11.677  0.2020 -0.2926 -0.6118
  108MPD2    C1 1679   0.063   4.382  11.727  0.3082  0.4161 -0.1443
  108MPD2    C2 1680   0.012   4.338  11.844  0.1778  0.2199 -0.2095
  108MPD2    C3 1681   4.660   4.411  11.914 -0.2662 -0.0357  0.9473
  108MPD2    C4 1682   4.622   4.532  11.871  0.3725 -0.4384  0.0218
  108MPD2    C5 1683   4.672   4.588  11.753  0.6699 -0.0540 -0.0549
  108MPD2     H 1684   0.052   4.247  11.887  1.5043  0.6759 -0.4705
  108MPD2    H1 1685   4.549   4.592  11.924  1.8112  1.7329 -0.4176
  108MPD2    H2 1686   0.064   4.539  11.585 -1.3148 -0.3539 -1.3511
  108MPD2    H3 1687   4.626   4.678  11.716  2.6580  1.7692  1.9068
  108MPD2     N 1688   4.606   4.358  12.037  0.0469  0.0368  0.4574
  108MPD2    H5 1689   4.535   4.408  12.091  1.6913  1.7773  0.9881
  108MPD2    N1 1690   0.144   4.311  11.640  0.2747 -0.2490  0.1363
  108MPD2    H7 1691   0.204   4.367  11.581  1.3248  1.1414  2.5308
  109TMC2    C1 1692   4.208   1.484   0.230 -0.5164  0.1655 -0.7600
  109TMC2    C2 1693   4.123   1.575   0.180  0.3551 -0.0369  0.3630
  109TMC2    C3 1694   4.160   1.705   0.175 -0.3153 -0.4300  0.0407
  109TMC2    C4 1695   4.329   1.518   0.280 -0.3071 -1.2038 -0.3300
  109TMC2    C5 1696   4.356   1.653   0.289  0.0814 -0.8600  0.3387
  109TMC2    C6 1697   4.276   1.748   0.234 -0.4982  0.4546 -0.4775
  109TMC2     C 1698   4.134   1.381   0.304 -0.2682 -0.3701 -0.0196
  109TMC2     O 1699   4.042   1.320   0.251  0.0296 -0.1549  0.4117
  109TMC2     H 1700   4.033   1.538   0.132 -1.0634  0.0088  2.9773
  109TMC2    H1 1701   4.398   1.435   0.292 -0.9575 -1.2875  2.8497
  109TMC2    H2 1702   4.305   1.851   0.221 -0.9240  0.8845  2.1526
  109TMC2    C7 1703   4.495   1.686   0.285 -0.1536 -0.6470  0.6031
  109TMC2    C8 1704   4.065   1.804   0.135  0.0455 -0.0549  0.0891
  109TMC2    O1 1705   4.537   1.797   0.285  0.3879 -0.4447  0.6242
  109TMC2    O2 1706   3.987   1.785   0.045 -0.3914 -0.6002 -0.3288
  109TMC2    O5 1707   4.044   1.890   0.238  0.2561 -0.5787  0.2996
  109TMC2    H5 1708   4.109   1.904   0.310 -0.4378  4.5015 -0.0930
  110MPD2     C 1709   4.029   1.168   0.754  0.0357 -0.3265 -0.2392
  110MPD2    C1 1710   4.141   1.239   0.765  1.3259  0.1893 -0.4289
  110MPD2    C2 1711   4.199   1.305   0.654  0.3394  0.0372  0.3064
  110MPD2    C3 1712   4.121   1.307   0.538  0.2103 -1.0060 -0.2365
  110MPD2    C4 1713   4.014   1.219   0.524 -0.0282 -0.3574 -0.2758
  110MPD2    C5 1714   3.970   1.145   0.632  0.8655  0.3662  0.0523
  110MPD2     H 1715   4.287   1.366   0.669  1.7602 -2.0818  0.6228
  110MPD2    H1 1716   3.967   1.205   0.428 -0.7576  0.5299 -0.0516
  110MPD2    H2 1717   3.977   1.132   0.842 -0.5218 -0.6424 -0.6983
  110MPD2    H3 1718   3.884   1.082   0.612  1.9576 -0.5662 -1.6319
  110MPD2     N 1719   4.172   1.384   0.433  0.1723 -0.3948  0.0070
  110MPD2    H5 1720   4.244   1.447   0.465  1.0297 -1.6338  0.5107
  110MPD2    N1 1721   4.196   1.244   0.900 -0.4353  0.0647  0.1369
  110MPD2    H7 1722   4.135   1.195   0.965 -1.4465  0.0189 -0.8365
  111TMC2    C1 1723   0.375   1.449  11.887  0.3116  0.2949  0.2182
  111TMC2    C2 1724   0.275   1.440  11.975  0.7313  0.3374  0.0392
  111TMC2    C3 1725   0.305   1.470  12.104 -0.0028 -0.5424  0.0289
  111TMC2    C4 1726   0.504   1.495  11.924  0.0732 -0.0790 -0.2274
  111TMC2    C5 1727   0.528   1.520  12.058  0.0846  0.1203 -0.7483
  111TMC2    C6 1728   0.425   1.505  12.148  0.4187 -0.0619 -0.0018
  111TMC2     C 1729   0.357   1.381  11.755 -0.2180  0.5238  0.5825
  111TMC2     O 1730   0.242   1.343  11.729 -0.2089 -0.0761 -0.1375
  111TMC2     H 1731   0.188   1.377  11.962  1.5697 -0.6452 -0.8430
  111TMC2    H1 1732   0.581   1.510  11.849  0.5118  0.3028  0.2980
  111TMC2    H2 1733   0.444   1.525  12.253  1.4407 -0.4161 -0.1139
  111TMC2    C7 1734   0.663   1.548  12.102 -0.3884  0.8772 -0.3127
  111TMC2    C8 1735   0.191   1.455  12.194 -0.0622 -0.8251 -0.0009
  111TMC2    O1 1736   0.661   1.553  12.224  0.5703  0.2912  0.1524
  111TMC2    O2 1737   0.070   1.450  12.171 -0.4017 -0.2650  0.1277
  111TMC2    O5 1738   0.247   1.408  12.307  0.1677  0.3650 -0.0239
  111TMC2    H5 1739   0.336   1.372  12.285  0.3928 -0.0059  1.5199
  112MPD2     C 1740   0.531   1.200  11.306  0.0050 -0.0183 -0.6305
  112MPD2    C1 1741   0.405   1.245  11.335  0.1704 -0.3655 -0.5064
  112MPD2    C2 1742   0.385   1.288  11.466  0.7464 -0.7730  0.2791
  112MPD2    C3 1743   0.486   1.294  11.562  0.0828  0.0286  0.5101
  112MPD2    C4 1744   0.612   1.254  11.525  0.6244 -0.2886 -0.1275
  112MPD2    C5 1745   0.631   1.209  11.399  0.0468 -0.1543  0.3170
  112MPD2     H 1746   0.290   1.333  11.491 -0.1542 -1.3617 -2.1168
  112MPD2    H1 1747   0.689   1.249  11.601 -0.6310 -1.7998  1.0606
  112MPD2    H2 1748   0.565   1.172  11.207  2.0415 -1.0308  0.3495
  112MPD2    H3 1749   0.723   1.159  11.372 -0.5602 -0.6635 -0.7841
  112MPD2     N 1750   0.473   1.346  11.690 -0.3470 -0.2070  0.5894
  112MPD2    H5 1751   0.554   1.350  11.750 -0.7142 -0.5470  1.1116
  112MPD2    N1 1752   0.287   1.224  11.258 -0.0424  0.5078  0.0825
  112MPD2    H7 1753   0.198   1.235  11.307 -1.0403  0.8896 -1.8016
  113TMC2    C1 1754   3.144   3.848   0.828 -0.1471  0.3147 -0.0116
  113TMC2    C2 1755   3.043   3.939   0.842 -0.0257  0.3628  0.8660
  113TMC2    C3 1756   2.923   3.893   0.871  0.5075 -0.1583  0.2017
  113TMC2    C4 1757   3.127   3.714   0.850  0.5311  0.2539  0.4443
  113TMC2    C5 1758   2.999   3.674   0.871  0.6007  0.5948  0.3409
  113TMC2    C6 1759   2.892   3.759   0.890  0.4048 -0.0218  0.2836
  113TMC2     C 1760   3.280   3.899   0.849 -0.2319 -1.1228 -0.3348
  113TMC2     O 1761   3.287   4.013   0.883  0.4370 -0.5389 -0.2544
  113TMC2     H 1762   3.065   4.044   0.826  1.3218  0.3191  2.3690
  113TMC2    H1 1763   3.209   3.643   0.862 -0.7394 -1.2450  0.2126
  113TMC2    H2 1764   2.787   3.736   0.901  0.5980 -1.1708 -0.2981
  113TMC2    C7 1765   2.975   3.530   0.850 -0.5607  0.1167 -0.4628
  113TMC2    C8 1766   2.805   3.978   0.859 -0.1037 -0.4771  0.4847
  113TMC2    O1 1767   3.059   3.477   0.779 -0.0593  0.0220  0.3004
  113TMC2    O2 1768   2.696   3.950   0.905 -0.3848  0.3410 -0.1220
  113TMC2    O5 1769   2.815   4.027   0.738 -0.1116  0.0761  0.2948
  113TMC2    H5 1770   2.901   4.000   0.700  0.0106 -1.3492  1.5771
  114MPD2     C 1771   3.786   3.823   0.930  0.2428  0.7878 -0.6010
  114MPD2    C1 1772   3.709   3.938   0.951 -0.0355  0.1296 -0.1874
  114MPD2    C2 1773   3.572   3.930   0.917 -0.5085 -0.2503 -0.4353
  114MPD2    C3 1774   3.517   3.820   0.866  0.1341  0.8303  0.0992
  114MPD2    C4 1775   3.590   3.709   0.848 -0.6897 -0.3580 -0.0931
  114MPD2    C5 1776   3.725   3.707   0.889  0.9464 -0.3852 -0.2039
  114MPD2     H 1777   3.506   4.016   0.925  0.7971  0.8293 -1.2468
  114MPD2    H1 1778   3.551   3.615   0.809 -3.7378  0.9459 -0.1737
  114MPD2    H2 1779   3.888   3.816   0.965 -0.1071  0.7287  0.3881
  114MPD2    H3 1780   3.782   3.615   0.892 -0.7962 -1.4017  1.4084
  114MPD2     N 1781   3.379   3.809   0.826  0.3659 -0.0181 -0.0138
  114MPD2    H5 1782   3.341   3.719   0.796 -1.6736  0.7445  0.2840
  114MPD2    N1 1783   3.754   4.056   1.019  0.5169  0.3528 -0.1994
  114MPD2    H7 1784   3.689   4.133   1.035 -1.5594 -1.5698  0.6133
  115TMC2    C1 1785   3.759   1.611  17.423 -0.0081  0.6466 -0.1509
  115TMC2    C2 1786   3.880   1.572  17.478  0.2829 -0.7258 -0.1628
  115TMC2    C3 1787   3.978   1.668  17.487  0.4722  0.2037 -0.1292
  115TMC2    C4 1788   3.736   1.741  17.384  0.5566 -0.7343 -0.2361
  115TMC2    C5 1789   3.837   1.828  17.394 -0.0178 -0.3478 -0.1006
  115TMC2    C6 1790   3.961   1.794  17.442  0.0394 -0.5777  0.1857
  115TMC2     C 1791   3.651   1.508  17.409 -0.1624 -0.1464  0.7135
  115TMC2     O 1792   3.684   1.392  17.396  0.3297  0.3371 -0.2952
  115TMC2     H 1793   3.914   1.473  17.505  0.5324 -1.3374 -2.7088
  115TMC2    H1 1794   3.654   1.752  17.314  0.2059 -1.6208  0.0436
  115TMC2    H2 1795   4.038   1.870  17.453 -1.8404  1.3785  0.0587
  115TMC2    C7 1796   3.822   1.948  17.314  0.4170 -0.3945  0.1501
  115TMC2    C8 1797   4.107   1.626  17.543 -0.0038  0.3809  0.6375
  115TMC2    O1 1798   3.710   1.970  17.269 -0.0350  0.0796  0.0320
  115TMC2    O2 1799   4.122   1.538  17.625  0.1707  0.5968  0.2040
  115TMC2    O5 1800   4.202   1.708  17.487  0.0861  0.2630  0.3163
  115TMC2    H5 1801   4.161   1.752  17.410  1.1750  0.8812  0.0786
  116MPD2     C 1802   3.154   1.380  17.408  0.0149  0.0696 -0.6791
  116MPD2    C1 1803   3.266   1.310  17.384 -0.4437  0.9496  0.7962
  116MPD2    C2 1804   3.390   1.368  17.385  0.6520 -0.3998  0.1593
  116MPD2    C3 1805   3.405   1.496  17.422  0.9608 -0.2702  0.0076
  116MPD2    C4 1806   3.299   1.565  17.460 -0.2647  0.0528 -0.4307
  116MPD2    C5 1807   3.176   1.507  17.458  0.0284  0.7163 -0.7974
  116MPD2     H 1808   3.477   1.307  17.365  0.4597 -1.5082  2.6904
  116MPD2    H1 1809   3.304   1.667  17.494 -2.7791 -0.1349  0.4730
  116MPD2    H2 1810   3.051   1.348  17.397  0.1281  0.0356 -1.6105
  116MPD2    H3 1811   3.089   1.569  17.475 -0.1838 -0.0067  0.7466
  116MPD2     N 1812   3.533   1.567  17.432  0.1413 -0.0119 -0.6445
  116MPD2    H5 1813   3.530   1.666  17.456 -2.7645 -0.3887  0.5136
  116MPD2    N1 1814   3.253   1.177  17.333 -0.1643 -0.2509  0.0867
  116MPD2    H7 1815   3.337   1.134  17.294  0.8945 -0.7048  2.8238
  117TMC2    C1 1816   2.774   2.895  14.281 -0.8560  0.3999  0.0082
  117TMC2    C2 1817   2.897   2.852  14.309 -0.2185  0.1951  0.2989
  117TMC2    C3 1818   2.978   2.940  14.364  0.2599 -0.0074 -0.5484
  117TMC2    C4 1819   2.733   3.029  14.278  0.5072 -0.7807  0.7862
  117TMC2    C5 1820   2.826   3.115  14.320  0.0970 -0.0318 -0.0870
  117TMC2    C6 1821   2.947   3.073  14.369 -0.4207 -0.0093 -0.3799
  117TMC2     C 1822   2.685   2.798  14.226 -0.5488 -0.4478 -0.2806
  117TMC2     O 1823   2.743   2.704  14.174 -0.3544 -0.0317 -0.7545
  117TMC2     H 1824   2.933   2.750  14.311  0.2874  0.3505 -0.5437
  117TMC2    H1 1825   2.640   3.054  14.228 -0.3250  1.2678  3.4059
  117TMC2    H2 1826   3.013   3.150  14.408 -1.3136  0.6006 -0.0624
  117TMC2    C7 1827   2.811   3.255  14.296  0.1714 -0.6878  0.1549
  117TMC2    C8 1828   3.113   2.915  14.373 -0.0630 -0.1822 -0.3291
  117TMC2    O1 1829   2.906   3.327  14.311  0.1099 -0.3142  0.3388
  117TMC2    O2 1830   3.192   3.007  14.376  0.3133 -0.1350 -0.2012
  117TMC2    O5 1831   3.126   2.802  14.442 -0.1194 -0.4215  0.0865
  117TMC2    H5 1832   3.043   2.789  14.493  0.4965 -0.5397  1.0639
  118MPD2     C 1833   2.506   3.453  14.266 -0.2084 -0.7072 -0.0011
  118MPD2    C1 1834   2.638   3.429  14.269 -0.0664 -0.5996  0.1657
  118MPD2    C2 1835   2.724   3.538  14.245 -0.0826 -0.2058  0.6232
  118MPD2    C3 1836   2.671   3.661  14.204 -0.2563  0.2404 -0.5976
  118MPD2    C4 1837   2.534   3.680  14.198  1.2404  0.1150 -0.1684
  118MPD2    C5 1838   2.459   3.573  14.232  0.4152 -0.7511 -0.6218
  118MPD2     H 1839   2.832   3.523  14.242  0.1297  1.2444  1.5719
  118MPD2    H1 1840   2.497   3.777  14.168 -1.4430 -0.1953  2.1548
  118MPD2    H2 1841   2.441   3.367  14.283 -0.9227 -0.3373 -0.8311
  118MPD2    H3 1842   2.352   3.587  14.228  0.6730  1.4230  0.4230
  118MPD2     N 1843   2.750   3.767  14.151  0.0889  0.2200  0.6844
  118MPD2    H5 1844   2.697   3.846  14.115 -1.1757 -1.2222 -0.5853
  118MPD2    N1 1845   2.676   3.293  14.278 -0.0426 -0.3129 -0.1223
  118MPD2    H7 1846   2.603   3.222  14.274  1.8997 -2.3272  0.3624
  119TMC2    C1 1847   1.224   3.745  12.981  0.0465 -0.5052  0.0321
  119TMC2    C2 1848   1.333   3.666  12.958 -0.3431 -0.5396 -0.0898
  119TMC2    C3 1849   1.309   3.531  12.955 -1.2914 -0.5766  0.4361
  119TMC2    C4 1850   1.104   3.696  13.012 -0.5653  0.5875  0.6455
  119TMC2    C5 1851   1.080   3.561  12.990  0.6716 -0.7430  0.0021
  119TMC2    C6 1852   1.190   3.479  12.966  0.4175 -0.1633  0.1049
  119TMC2     C 1853   1.244   3.883  13.017  0.1433 -0.2920  0.8786
  119TMC2     O 1854   1.170   3.970  12.978 -0.8172  0.0109 -0.3733
  119TMC2     H 1855   1.432   3.708  12.947  0.5110 -2.1650  1.3043
  119TMC2    H1 1856   1.022   3.765  13.028 -0.9690 -0.1066  1.6162
  119TMC2    H2 1857   1.173   3.372  12.966  1.5825 -0.3446  1.3401
  119TMC2    C7 1858   0.953   3.499  13.024  0.4168 -0.0988  0.2002
  119TMC2    C8 1859   1.420   3.452  12.904  0.3893 -0.3685 -0.2777
  119TMC2    O1 1860   0.930   3.387  12.979  0.0234  0.2642 -0.6255
  119TMC2    O2 1861   1.541   3.474  12.935 -0.3810  0.2269 -0.6150
  119TMC2    O5 1862   1.383   3.354  12.816  0.1815 -0.4857 -0.2057
  119TMC2    H5 1863   1.288   3.353  12.792  0.0316 -1.6135  0.4642
  120MPD2     C 1864   1.476   4.271  13.276  0.0491 -0.2785 -0.2464
  120MPD2    C1 1865   1.362   4.276  13.197 -0.0657 -0.1098 -0.5282
  120MPD2    C2 1866   1.324   4.157  13.129 -0.3405  0.3794 -0.7985
  120MPD2    C3 1867   1.383   4.036  13.158 -0.4083 -0.3318  0.8101
  120MPD2    C4 1868   1.495   4.037  13.238 -0.6791  0.0999 -0.3134
  120MPD2    C5 1869   1.544   4.152  13.288 -0.3064  0.3491 -0.0484
  120MPD2     H 1870   1.225   4.167  13.086 -1.1699  0.9303  1.2494
  120MPD2    H1 1871   1.539   3.940  13.259  1.3534  0.9455 -0.7062
  120MPD2    H2 1872   1.514   4.362  13.321  0.8072 -1.3211  1.2034
  120MPD2    H3 1873   1.630   4.150  13.355 -1.0801 -1.2546  0.8918
  120MPD2     N 1874   1.346   3.904  13.106  0.3848 -0.0812  0.2217
  120MPD2    H5 1875   1.396   3.823  13.142  0.5133  1.0622  2.6346
  120MPD2    N1 1876   1.274   4.389  13.206  0.5019  0.3285 -0.3310
  120MPD2    H7 1877   1.304   4.455  13.277  0.7758  0.8274 -0.9107
  121TMC2    C1 1878   2.415   0.896  14.349  0.3123  0.6142 -1.0315
  121TMC2    C2 1879   2.357   0.961  14.451 -0.0985 -0.8871  0.4990
  121TMC2    C3 1880   2.223   0.939  14.461 -0.0061 -0.0450 -0.8228
  121TMC2    C4 1881   2.355   0.786  14.285  0.0015 -0.7584 -0.2676
  121TMC2    C5 1882   2.222   0.765  14.303 -0.2057 -0.5673 -0.3210
  121TMC2    C6 1883   2.152   0.843  14.390 -0.1392  0.8306  0.8006
  121TMC2     C 1884   2.551   0.919  14.300 -0.0361  0.1832  0.4548
  121TMC2     O 1885   2.625   0.972  14.385  0.1827  0.2359 -0.0286
  121TMC2     H 1886   2.406   1.046  14.498 -0.4355  0.3122 -1.2947
  121TMC2    H1 1887   2.410   0.727  14.213 -2.2391 -0.2988 -2.3863
  121TMC2    H2 1888   2.048   0.821  14.410 -0.2683  0.8792  0.1646
  121TMC2    C7 1889   2.153   0.679  14.213 -0.0570 -0.7287 -0.0350
  121TMC2    C8 1890   2.146   1.031  14.532  0.4765  0.3523 -0.2678
  121TMC2    O1 1891   2.227   0.593  14.166 -0.4018  0.1121 -0.0575
  121TMC2    O2 1892   2.021   1.046  14.519  0.3301 -0.2335  0.1037
  121TMC2    O5 1893   2.220   1.074  14.638  0.2132 -0.4876  0.5049
  121TMC2    H5 1894   2.295   1.013  14.650  1.7594  1.4375  0.5699
  122MPD2     C 1895   2.771   1.048  14.143  0.0133 -0.5326 -0.8849
  122MPD2    C1 1896   2.654   1.005  14.086 -0.3169 -0.5006 -0.5517
  122MPD2    C2 1897   2.629   1.024  13.949  0.4487 -0.8870  0.5480
  122MPD2    C3 1898   2.720   1.092  13.874  0.4201  0.1577 -0.4850
  122MPD2    C4 1899   2.838   1.134  13.934 -0.0438 -0.0408 -0.0998
  122MPD2    C5 1900   2.859   1.116  14.068  0.1315 -0.6072 -0.2229
  122MPD2     H 1901   2.536   0.997  13.901  0.7466 -1.0894  0.0853
  122MPD2    H1 1902   2.903   1.195  13.873  0.2327  1.6430  1.8753
  122MPD2    H2 1903   2.797   1.029  14.246 -0.6625  1.8771 -0.2808
  122MPD2    H3 1904   2.946   1.159  14.116  1.6766 -1.5257 -2.2260
  122MPD2     N 1905   2.706   1.126  13.738 -1.5584  0.2505 -0.7592
  122MPD2    H5 1906   2.773   1.194  13.704  0.1977 -1.0634  0.0151
  122MPD2    N1 1907   2.547   0.945  14.164  0.1185 -0.1470  0.5865
  122MPD2    H7 1908   2.464   0.917  14.113 -0.5414 -1.9327  2.6606
  123TMC2    C1 1909   0.819   0.398  10.956 -0.1416 -0.0434 -0.3964
  123TMC2    C2 1910   0.842   0.497  11.044  0.5747 -0.2770  0.5205
  123TMC2    C3 1911   0.949   0.577  11.014  0.5414  0.8294  0.1084
  123TMC2    C4 1912   0.889   0.385  10.842  0.3768 -0.4890 -0.5290
  123TMC2    C5 1913   0.993   0.469  10.812 -0.4391 -0.9457 -0.5902
  123TMC2    C6 1914   1.029   0.560  10.907  0.2008 -0.2346 -0.5163
  123TMC2     C 1915   0.712   0.307  10.985 -0.4745  0.4859 -0.4864
  123TMC2     O 1916   0.626   0.351  11.064  0.2860  0.3562 -0.2543
  123TMC2     H 1917   0.795   0.502  11.141 -2.1916 -0.0340 -0.8241
  123TMC2    H1 1918   0.848   0.328  10.759 -0.0872 -0.8731 -0.0347
  123TMC2    H2 1919   1.118   0.621  10.897  0.9229 -1.2003  0.0010
  123TMC2    C7 1920   1.095   0.420  10.726  0.7041 -0.2266  0.6662
  123TMC2    C8 1921   1.022   0.622  11.129 -0.9046  0.4326 -0.1605
  123TMC2    O1 1922   1.073   0.311  10.670 -0.0630 -0.3848 -0.2310
  123TMC2    O2 1923   1.085   0.537  11.189 -0.0291 -0.3976  0.2472
  123TMC2    O5 1924   1.079   0.728  11.086  0.0223 -0.2392 -0.2530
  123TMC2    H5 1925   1.026   0.781  11.024 -0.1822  2.8659  2.5744
  124MPD2     C 1926   0.472   4.597  10.985  0.1577 -0.5501 -0.0852
  124MPD2    C1 1927   0.594   4.580  10.917 -0.1512 -0.3605 -0.2016
  124MPD2    C2 1928   0.671   4.689  10.888  0.1441 -0.3150  0.3478
  124MPD2    C3 1929   0.638   0.078  10.934  0.5118  0.0419  0.1753
  124MPD2    C4 1930   0.514   0.087  10.988  0.6287 -0.9189  0.3884
  124MPD2    C5 1931   0.437   4.718  11.017  0.0410 -0.8011 -0.1431
  124MPD2     H 1932   0.765   4.683  10.834 -0.3623 -0.2094 -0.5489
  124MPD2    H1 1933   0.479   0.183  11.024 -0.2460 -0.1641 -2.5125
  124MPD2    H2 1934   0.402   4.516  11.000  0.9349 -0.9482  1.3878
  124MPD2    H3 1935   0.346   0.005  11.069  0.5195  0.2645  0.1825
  124MPD2     N 1936   0.731   0.187  10.931 -0.1245 -0.5659 -0.5106
  124MPD2    H5 1937   0.814   0.175  10.874 -0.4834 -1.0731 -0.9254
  124MPD2    N1 1938   0.620   4.446  10.878  0.1710  0.6843  0.4498
  124MPD2    H7 1939   0.549   4.381  10.909 -0.8985  1.8492  0.4807
  125TMC2    C1 1940   2.040   2.557   9.061 -1.0325  0.2791 -0.8114
  125TMC2    C2 1941   2.018   2.690   9.056  0.0736 -0.2067  0.1054
  125TMC2    C3 1942   2.080   2.765   8.967 -0.0548  0.1088 -1.1265
  125TMC2    C4 1943   2.135   2.497   8.979  0.4015  0.0022  0.9469
  125TMC2    C5 1944   2.210   2.580   8.904  0.3738 -0.8226 -0.2182
  125TMC2    C6 1945   2.185   2.716   8.892 -0.3189 -0.5386  0.4253
  125TMC2     C 1946   2.000   2.481   9.181  0.3881 -0.4831 -0.4633
  125TMC2     O 1947   1.900   2.523   9.241  0.0169 -0.6575 -0.6780
  125TMC2     H 1948   1.949   2.731   9.130  1.3897 -0.3251  1.3861
  125TMC2    H1 1949   2.135   2.389   8.971 -3.7030  0.1163 -0.2380
  125TMC2    H2 1950   2.247   2.778   8.829 -0.9821 -1.7442 -1.4019
  125TMC2    C7 1951   2.296   2.519   8.794  0.2516 -0.2224 -0.1425
  125TMC2    C8 1952   2.059   2.909   8.966  0.1665 -0.5813  0.4156
  125TMC2    O1 1953   2.306   2.587   8.692  0.2053 -0.2391 -0.5516
  125TMC2    O2 1954   1.956   2.960   9.007  0.0349  0.5100  0.4780
  125TMC2    O5 1955   2.176   2.975   8.976 -0.4768 -0.1421  0.2681
  125TMC2    H5 1956   2.262   2.937   8.948  0.0457  2.0894 -1.1789
  126MPD1     C 1957   1.978   2.077   9.497 -0.2688  0.1629 -0.6044
  126MPD1    C1 1958   2.082   2.055   9.408  0.1945 -0.1171  0.3172
  126MPD1    C2 1959   2.110   2.154   9.314  0.3738 -0.1025  0.1850
  126MPD1    C3 1960   2.035   2.270   9.303  0.9767  0.7573  0.2879
  126MPD1    C4 1961   1.937   2.290   9.401  0.4553  0.7236  0.2228
  126MPD1    C5 1962   1.918   2.195   9.492 -0.3238  0.1242  0.6100
  126MPD1     H 1963   2.185   2.137   9.237  0.3032 -0.7566  0.2535
  126MPD1    H1 1964   1.867   2.373   9.407  0.1201  0.5287 -0.8569
  126MPD1    H2 1965   1.951   2.003   9.572  2.1563 -0.4466 -0.3561
  126MPD1    H3 1966   1.835   2.214   9.560 -1.0108 -0.5699 -0.0298
  126MPD1     N 1967   2.064   2.361   9.199  0.4771  0.5954 -0.2418
  126MPD1    H5 1968   2.148   2.339   9.147 -0.2859 -0.3110 -1.0743
  126MPD1    N1 1969   2.142   1.932   9.395 -0.4743  0.0794  0.0030
  126MPD1    H6 1970   2.164   1.892   9.486 -0.6426  0.6594  0.2949
  126MPD1    H7 1971   2.231   1.927   9.345 -0.2717  3.5196  0.0217
  127TMC2    C1 1972   2.747   0.057   9.554  0.8861 -0.4051  0.1200
  127TMC2    C2 1973   2.806   0.003   9.664  0.5573  1.1419 -0.0060
  127TMC2    C3 1974   2.760   4.617   9.697 -0.3328 -0.5003  0.3177
  127TMC2    C4 1975   2.641   0.002   9.491  0.3004 -0.7410 -0.9396
  127TMC2    C5 1976   2.610   4.610   9.513 -0.2566  0.4594  0.3230
  127TMC2    C6 1977   2.671   4.543   9.617 -0.3029 -0.6274 -0.1842
  127TMC2     C 1978   2.785   0.193   9.523  0.4572  0.1978 -0.2609
  127TMC2     O 1979   2.886   0.233   9.579  0.2448  0.6266  0.4808
  127TMC2     H 1980   2.873   0.061   9.725  0.8119  0.9617 -0.1165
  127TMC2    H1 1981   2.601   0.043   9.399  1.2231  2.2595  0.0092
  127TMC2    H2 1982   2.655   4.436   9.629  2.5054 -1.0045  0.2208
  127TMC2    C7 1983   2.481   4.559   9.460  0.2818 -0.1883 -0.1770
  127TMC2    C8 1984   2.826   4.565   9.812  0.5931  0.0390  0.5583
  127TMC2    O1 1985   2.469   4.563   9.339  0.7481 -0.1288 -0.9644
  127TMC2    O2 1986   2.931   4.615   9.850 -0.2720 -0.5553 -0.1682
  127TMC2    O5 1987   2.747   4.479   9.877 -0.3867 -0.0885 -0.2298
  127TMC2    H5 1988   2.661   4.452   9.839  0.0576  1.3622 -2.2792
  128MPD2     C 1989   2.636   0.438   9.298 -0.2521 -0.2224  0.0328
  128MPD2    C1 1990   2.719   0.399   9.401  0.2325 -1.0169 -0.0487
  128MPD2    C2 1991   2.811   0.488   9.452  0.1179 -0.1122 -0.3323
  128MPD2    C3 1992   2.824   0.618   9.392 -0.6355 -0.5122 -0.6294
  128MPD2    C4 1993   2.744   0.651   9.283 -0.6427 -0.5397 -0.3190
  128MPD2    C5 1994   2.646   0.564   9.238 -0.2803 -0.2651  1.1610
  128MPD2     H 1995   2.869   0.461   9.539 -1.5536  0.4621  0.9648
  128MPD2    H1 1996   2.744   0.752   9.245  0.5750 -0.2573  0.4292
  128MPD2    H2 1997   2.559   0.378   9.251  0.1583 -0.8505  0.1536
  128MPD2    H3 1998   2.580   0.598   9.159  1.2868 -1.0361 -0.4747
  128MPD2     N 1999   2.908   0.706   9.464 -0.0214 -0.6981  0.9135
  128MPD2    H5 2000   2.977   0.664   9.526  3.2903  2.5453 -0.5546
  128MPD2    N1 2001   2.699   0.267   9.446 -0.3911  1.2572  0.0433
  128MPD2    H7 2002   2.618   0.222   9.405 -0.4166  1.2968  0.0501
  129TMC2    C1 2003   1.231   1.322   1.375  0.0672 -0.4095 -0.3605
  129TMC2    C2 2004   1.330   1.388   1.298  0.0419  0.0225  0.5435
  129TMC2    C3 2005   1.441   1.319   1.262 -0.2701  1.1431  0.2345
  129TMC2    C4 2006   1.240   1.186   1.408 -0.0454  0.1950  0.2111
  129TMC2    C5 2007   1.364   1.124   1.374  0.4175 -0.5366 -0.1456
  129TMC2    C6 2008   1.464   1.189   1.299  0.0293  0.8049  0.0230
  129TMC2     C 2009   1.104   1.395   1.415  0.0989 -0.2065  0.1889
  129TMC2     O 2010   1.037   1.334   1.502 -0.2783  0.1170  0.2292
  129TMC2     H 2011   1.318   1.493   1.275  0.4274 -0.1686 -0.5083
  129TMC2    H1 2012   1.166   1.151   1.478  0.1611  0.3935  0.5275
  129TMC2    H2 2013   1.564   1.147   1.286  0.0466  0.8580 -0.0180
  129TMC2    C7 2014   1.366   0.983   1.395 -0.7476 -0.0225 -0.1965
  129TMC2    C8 2015   1.548   1.401   1.205 -0.8782  0.2986 -0.2721
  129TMC2    O1 2016   1.275   0.929   1.459  0.0400 -0.4208  0.2358
  129TMC2    O2 2017   1.541   1.520   1.208 -0.0849 -0.1971 -0.1881
  129TMC2    O5 2018   1.637   1.325   1.127 -0.0969  0.1780 -0.0052
  129TMC2    H5 2019   1.622   1.229   1.122 -1.9475  0.4521  0.2125
  130MPD2     C 2020   0.843   1.539   1.442  0.2642 -0.0667 -0.0082
  130MPD2    C1 2021   0.951   1.575   1.358 -0.0135 -0.2585  0.4646
  130MPD2    C2 2022   0.925   1.688   1.269  0.1934  0.5351 -0.0125
  130MPD2    C3 2023   0.803   1.763   1.272  0.9788  0.5090  0.4264
  130MPD2    C4 2024   0.706   1.720   1.359  0.9797 -0.0461  0.3471
  130MPD2    C5 2025   0.731   1.610   1.429 -0.6229 -0.0926  0.2497
  130MPD2     H 2026   1.005   1.705   1.198  0.0224 -0.2249 -0.3923
  130MPD2    H1 2027   0.610   1.769   1.356  0.7510 -0.6102 -1.7087
  130MPD2    H2 2028   0.842   1.451   1.505 -1.1591 -0.1156 -0.1002
  130MPD2    H3 2029   0.652   1.587   1.499  0.3621 -0.3519  1.2681
  130MPD2     N 2030   0.794   1.885   1.189 -0.2453 -0.1869 -0.4604
  130MPD2    H5 2031   0.877   1.903   1.133  0.3863  0.3833  0.6798
  130MPD2    N1 2032   1.071   1.505   1.344  0.1400  0.5237  0.1616
  130MPD2    H7 2033   1.136   1.539   1.273 -0.5747 -0.7451 -1.1015
  131TMC2    C1 2034   0.305   0.001  10.147 -0.3891  0.6397  0.1694
  131TMC2    C2 2035   0.190   4.725  10.068  0.3680  0.0786 -0.1866
  131TMC2    C3 2036   0.111   0.096  10.065 -0.1753  0.0445  0.1319
  131TMC2    C4 2037   0.342   0.117  10.213  0.1089  0.3111 -0.0086
  131TMC2    C5 2038   0.248   0.215  10.208 -0.6553 -0.2610  0.3839
  131TMC2    C6 2039   0.138   0.211  10.131  0.0420  0.0038 -0.2049
  131TMC2     C 2040   0.385   4.626  10.189 -0.5123  0.0921  0.1738
  131TMC2     O 2041   0.452   4.639  10.291  0.5928  0.5019  0.4406
  131TMC2     H 2042   0.155   4.633  10.022 -1.5051 -0.3415  2.0720
  131TMC2    H1 2043   0.433   0.134  10.268 -0.0434 -0.0360  0.3507
  131TMC2    H2 2044   0.068   0.294  10.128  0.0496  0.0062 -0.3253
  131TMC2    C7 2045   0.275   0.333  10.278 -0.1321 -0.3019 -0.0979
  131TMC2    C8 2046   4.714   0.085  10.019  0.7199  0.1739  0.3488
  131TMC2    O1 2047   0.181   0.373  10.342  0.3553  0.3807  0.1540
  131TMC2    O2 2048   4.674   4.711  10.006  0.2328 -0.3600 -0.4402
  131TMC2    O5 2049   4.686   0.201   9.951 -0.5550 -0.3848  0.0968
  131TMC2    H5 2050   0.031   0.252   9.951  1.1536 -3.1456  0.8317
  132MPD2     C 2051   0.407   4.295  10.038 -0.0462  0.3081 -0.1246
  132MPD2    C1 2052   0.415   4.387  10.135  0.3193  0.0838  0.1375
  132MPD2    C2 2053   0.487   4.357  10.249 -0.5009 -0.5409  0.0739
  132MPD2    C3 2054   0.541   4.231  10.274 -0.8994  0.0884  0.1973
  132MPD2    C4 2055   0.538   4.144  10.171  0.1475  0.1277  0.2243
  132MPD2    C5 2056   0.463   4.172  10.061 -0.1240  0.4246 -0.0138
  132MPD2     H 2057   0.491   4.420  10.337  1.1147 -1.1075  0.4140
  132MPD2    H1 2058   0.567   4.042  10.190 -0.2451  0.1516  0.9376
  132MPD2    H2 2059   0.377   4.324   9.937 -1.2120  0.5743  0.2956
  132MPD2    H3 2060   0.467   4.094   9.986 -2.7888 -0.6964  0.9903
  132MPD2     N 2061   0.595   4.214  10.398 -0.0353  0.1756 -0.1280
  132MPD2    H5 2062   0.573   4.286  10.465  0.5937  1.9350 -1.8336
  132MPD2    N1 2063   0.368   4.516  10.102 -0.0751 -0.4617 -0.8251
  132MPD2    H7 2064   0.337   4.529  10.006 -0.6340 -1.4930 -0.7842
  133TMC2    C1 2065   4.704   1.620   9.798 -0.0680  0.0697  0.2533
  133TMC2    C2 2066   0.034   1.716   9.736 -0.0923  0.1556  0.7635
  133TMC2    C3 2067   0.040   1.832   9.807 -0.0680 -0.3075  0.2845
  133TMC2    C4 2068   4.648   1.639   9.923  0.4799 -0.4124 -0.5411
  133TMC2    C5 2069   4.643   1.767   9.980 -0.2626 -0.3622 -0.2158
  133TMC2    C6 2070   4.713   1.868   9.925 -0.0645 -0.6846 -0.2235
  133TMC2     C 2071   4.736   1.483   9.776  0.0421  0.4307 -0.2224
  133TMC2     O 2072   4.669   1.402   9.834  0.0629  0.0987  0.1936
  133TMC2     H 2073   0.085   1.700   9.642  1.2506  0.8264  1.3757
  133TMC2    H1 2074   4.593   1.561   9.975 -2.1961  1.1082 -1.0550
  133TMC2    H2 2075   4.721   1.961   9.979  2.1751 -0.8819 -0.2172
  133TMC2    C7 2076   4.580   1.782  10.108 -0.5936 -0.4832  0.2199
  133TMC2    C8 2077   0.073   1.943   9.720  0.3220 -0.4744  0.2423
  133TMC2    O1 2078   4.583   1.683  10.177  0.0790 -0.4498 -0.4408
  133TMC2    O2 2079   0.135   1.928   9.614  0.5945 -0.4115 -0.9887
  133TMC2    O5 2080   4.702   2.027   9.732  0.5065  0.8273 -0.2081
  133TMC2    H5 2081   4.631   1.992   9.789  2.3173  0.6503  1.9037
  134MPD2     C 2082   0.277   1.357   9.570 -0.3487  0.1907  0.2582
  134MPD2    C1 2083   0.164   1.353   9.648  0.0319  0.3392  0.2465
  134MPD2    C2 2084   0.107   1.228   9.682  0.0701 -0.2543 -0.2594
  134MPD2    C3 2085   0.172   1.112   9.649  0.1654 -0.1519 -0.5238
  134MPD2    C4 2086   0.291   1.121   9.572 -0.6060 -0.8793 -0.6128
  134MPD2    C5 2087   0.339   1.239   9.535  0.2923 -0.1763  0.2844
  134MPD2     H 2088   0.010   1.224   9.730 -0.3095 -0.3376 -1.0368
  134MPD2    H1 2089   0.343   1.040   9.523  0.3307  0.6005 -2.0654
  134MPD2    H2 2090   0.330   1.449   9.549 -2.0197  0.6862 -1.6690
  134MPD2    H3 2091   0.437   1.236   9.488  0.7725  0.3596  1.2470
  134MPD2     N 2092   0.121   0.982   9.674 -0.8706  0.0542 -0.7215
  134MPD2    H5 2093   0.178   0.905   9.641  0.9450  1.0490  0.0759
  134MPD2    N1 2094   0.105   1.473   9.691 -0.4451 -0.1578  0.8358
  134MPD2    H7 2095   0.153   1.558   9.663  2.0303 -1.7522  0.3337
  135TMC2    C1 2096   2.197   2.403   9.637  0.2942  0.2441 -0.6140
  135TMC2    C2 2097   2.290   2.302   9.631  1.1112  0.8692  0.1587
  135TMC2    C3 2098   2.286   2.198   9.721 -0.1936 -0.5608  0.6503
  135TMC2    C4 2099   2.102   2.393   9.737  0.2255 -0.3574  0.7991
  135TMC2    C5 2100   2.091   2.282   9.821 -0.0270 -0.5078  0.0973
  135TMC2    C6 2101   2.192   2.185   9.821  0.4256 -0.2338  0.2640
  135TMC2     C 2102   2.194   2.514   9.551 -0.9388 -0.0716  0.2445
  135TMC2     O 2103   2.128   2.610   9.588 -0.6538 -0.3510  0.1610
  135TMC2     H 2104   2.374   2.306   9.563  0.1654  0.2394 -1.0523
  135TMC2    H1 2105   2.041   2.480   9.763  1.5886  0.3625  1.5690
  135TMC2    H2 2106   2.200   2.097   9.884 -1.2546  0.2528  1.1507
  135TMC2    C7 2107   2.004   2.291   9.936 -0.7219  0.1325 -0.2691
  135TMC2    C8 2108   2.370   2.082   9.689  0.0198  0.5398 -0.6095
  135TMC2    O1 2109   1.949   2.398   9.954  0.1721  0.7826  0.3939
  135TMC2    O2 2110   2.426   2.065   9.582  0.5343  0.3569 -0.1062
  135TMC2    O5 2111   2.402   2.027   9.812 -0.0166 -0.8322  0.5143
  135TMC2    H5 2112   2.356   2.056   9.894 -0.7916 -1.7608  0.4006
  136MPD2     C 2113   2.267   2.747   9.373 -0.0868 -0.0356  0.3725
  136MPD2    C1 2114   2.305   2.615   9.352  0.3473 -0.6698  0.7098
  136MPD2    C2 2115   2.380   2.591   9.240 -0.4622  0.1970 -0.1054
  136MPD2    C3 2116   2.443   2.693   9.166 -0.0533 -0.4240  0.1331
  136MPD2    C4 2117   2.416   2.819   9.199 -0.1163 -0.3623  0.7129
  136MPD2    C5 2118   2.319   2.851   9.293 -0.3167 -0.3690 -0.1961
  136MPD2     H 2119   2.381   2.486   9.213  1.0748 -0.1165  1.1036
  136MPD2    H1 2120   2.450   2.897   9.131 -2.5758 -0.6896 -0.8785
  136MPD2    H2 2121   2.198   2.774   9.452 -0.7363  1.0676 -0.5542
  136MPD2    H3 2122   2.298   2.954   9.318 -1.2229 -0.5032 -0.4185
  136MPD2     N 2123   2.527   2.656   9.061  0.4092 -0.6246 -0.5631
  136MPD2    H5 2124   2.557   2.729   8.997 -1.6603 -0.1204 -0.9463
  136MPD2    N1 2125   2.271   2.509   9.437 -0.1183 -0.2420 -0.4202
  136MPD2    H7 2126   2.308   2.418   9.414  0.9111  0.3970 -1.2986
  137TMC2    C1 2127   1.892   0.276   9.698  0.2387 -0.1621  0.5994
  137TMC2    C2 2128   1.994   0.199   9.728 -0.8246  0.0351 -0.1200
  137TMC2    C3 2129   1.977   0.067   9.742 -0.4787  0.2949  0.2062
  137TMC2    C4 2130   1.766   0.225   9.689  0.4494 -0.0637  0.3146
  137TMC2    C5 2131   1.748   0.093   9.710 -0.5829 -0.9508 -1.0454
  137TMC2    C6 2132   1.855   0.006   9.733 -0.6619 -0.3851  0.3812
  137TMC2     C 2133   1.925   0.413   9.668  0.4169  0.5057  0.7996
  137TMC2     O 2134   2.046   0.447   9.656 -0.1119  0.1849  0.6964
  137TMC2     H 2135   2.094   0.239   9.736 -0.9805  0.1444  1.2955
  137TMC2    H1 2136   1.684   0.291   9.665 -0.8914 -1.3053  1.5634
  137TMC2    H2 2137   1.846   4.638   9.751 -3.2595  0.1738  2.4026
  137TMC2    C7 2138   1.624   0.046   9.760 -0.3223 -0.2325 -0.0256
  137TMC2    C8 2139   2.086   4.714   9.753  0.1843  0.3223  0.2832
  137TMC2    O1 2140   1.603   4.661   9.764  0.2717 -0.2827  0.1234
  137TMC2    O2 2141   2.181   4.732   9.682 -0.4173 -0.2299  0.3294
  137TMC2    O5 2142   2.084   4.654   9.873  0.5225  0.1456  0.0511
  137TMC2    H5 2143   2.000   4.673   9.920  0.1867 -0.3057 -0.3737
  138MPD2     C 2144   1.673   0.669   9.578  0.8393  0.3791 -0.2066
  138MPD2    C1 2145   1.797   0.620   9.600  0.4781  0.0598  0.3359
  138MPD2    C2 2146   1.904   0.705   9.583  0.1498  0.2843 -0.1215
  138MPD2    C3 2147   1.885   0.827   9.525 -0.4411  0.4670 -1.0585
  138MPD2    C4 2148   1.755   0.861   9.483 -0.5972  0.1953  0.3067
  138MPD2    C5 2149   1.656   0.780   9.509  0.5288  0.6985  0.1842
  138MPD2     H 2150   2.006   0.679   9.609  0.0241 -0.5036 -0.4239
  138MPD2    H1 2151   1.737   0.944   9.417 -0.2049  1.4652  1.7946
  138MPD2    H2 2152   1.589   0.603   9.595 -1.4486  3.4021  0.0616
  138MPD2    H3 2153   1.552   0.799   9.484 -0.3035  0.2974  3.3854
  138MPD2     N 2154   1.999   0.895   9.500 -0.1536 -0.3824  0.0155
  138MPD2    H5 2155   2.080   0.852   9.544  1.6109  1.3359 -1.5387
  138MPD2    N1 2156   1.809   0.485   9.639 -0.2906  0.7965 -0.0244
  138MPD2    H7 2157   1.722   0.434   9.651  1.7542 -2.6778  0.1888
  139TMC2    C1 2158   2.555   3.653  13.812  0.1463 -0.2093 -0.7732
  139TMC2    C2 2159   2.625   3.732  13.730 -0.0005 -0.4397 -0.0682
  139TMC2    C3 2160   2.574   3.846  13.683  0.5285 -0.5559 -0.3854
  139TMC2    C4 2161   2.440   3.694  13.876  0.7015  0.8855  0.1216
  139TMC2    C5 2162   2.401   3.821  13.837 -0.5620 -0.4379  0.1868
  139TMC2    C6 2163   2.462   3.900  13.737 -0.4656 -0.2219  0.3530
  139TMC2     C 2164   2.617   3.534  13.866  0.2826 -0.2799  0.3389
  139TMC2     O 2165   2.736   3.520  13.833  0.1190  0.7936 -0.1783
  139TMC2     H 2166   2.720   3.706  13.684 -0.7699 -2.5081 -0.5122
  139TMC2    H1 2167   2.379   3.645  13.950  0.3173  0.2680 -0.6037
  139TMC2    H2 2168   2.421   3.997  13.711  0.3694  0.1308  0.3591
  139TMC2    C7 2169   2.285   3.878  13.900  0.3517  0.6955  0.2898
  139TMC2    C8 2170   2.623   3.890  13.558 -0.1889 -0.1676 -0.6326
  139TMC2    O1 2171   2.272   4.001  13.889  0.3497 -0.0203  0.5738
  139TMC2    O2 2172   2.627   3.817  13.461 -0.4065  0.0802 -0.2135
  139TMC2    O5 2173   2.589   4.017  13.568 -0.2595 -0.4471  0.4738
  139TMC2    H5 2174   2.594   4.060  13.656 -1.1761 -0.4991  0.5568
  140MPD2     C 2175   2.447   3.234  13.999  0.2951 -0.1552 -0.2443
  140MPD2    C1 2176   2.552   3.308  13.943  0.1833  0.0521  0.0042
  140MPD2    C2 2177   2.675   3.251  13.917 -0.1944  0.3063  0.0292
  140MPD2    C3 2178   2.691   3.115  13.929 -1.0351 -0.1540 -0.0603
  140MPD2    C4 2179   2.588   3.039  13.971 -0.5050 -0.0905 -0.0136
  140MPD2    C5 2180   2.470   3.104  14.017 -0.1560  0.1121  0.7434
  140MPD2     H 2181   2.763   3.303  13.880  1.5859 -0.3987  3.2472
  140MPD2    H1 2182   2.589   2.932  13.984 -0.2942  0.1222  1.8009
  140MPD2    H2 2183   2.357   3.290  14.020 -0.5803 -2.1576  1.3351
  140MPD2    H3 2184   2.393   3.034  14.048 -0.1921 -1.0866 -2.1032
  140MPD2     N 2185   2.811   3.066  13.871  0.2190  0.5900  0.0226
  140MPD2    H5 2186   2.879   3.129  13.830  0.2492 -0.5634 -1.6846
  140MPD2    N1 2187   2.523   3.447  13.921 -0.7527 -0.1044  0.0173
  140MPD2    H7 2188   2.432   3.483  13.947  0.0153 -0.2157  2.8871
  141TMC2    C1 2189   3.136   0.209  15.020  0.1113  0.2572  0.4519
  141TMC2    C2 2190   3.109   0.125  15.125 -0.3653  0.0073 -0.8995
  141TMC2    C3 2191   3.113   0.174  15.253  0.0633 -0.6161 -0.0390
  141TMC2    C4 2192   3.150   0.346  15.039  0.6820  0.3409  0.2128
  141TMC2    C5 2193   3.156   0.386  15.172 -0.0497 -0.0945 -0.5895
  141TMC2    C6 2194   3.129   0.308  15.278 -0.1712  1.3555 -0.3000
  141TMC2     C 2195   3.130   0.171  14.883  0.0700  0.1301 -0.3745
  141TMC2     O 2196   3.147   0.256  14.798 -0.5235 -0.2990  0.6355
  141TMC2     H 2197   3.093   0.020  15.103 -1.3377 -0.3614  1.6019
  141TMC2    H1 2198   3.170   0.412  14.955  1.3512  0.5118  0.5064
  141TMC2    H2 2199   3.116   0.344  15.379 -1.5553  1.3421 -0.4759
  141TMC2    C7 2200   3.162   0.531  15.199  0.0985  0.4808 -0.0380
  141TMC2    C8 2201   3.100   0.078  15.356  0.2895  0.2671  0.3769
  141TMC2    O1 2202   3.124   0.568  15.307  0.3327 -0.0772  0.1892
  141TMC2    O2 2203   3.060   4.704  15.331 -0.4742  0.0302 -0.1517
  141TMC2    O5 2204   3.196   0.118  15.444 -0.1092  0.3178 -0.1626
  141TMC2    H5 2205   3.251   0.195  15.418  2.4215 -0.6555  2.3341
  142TMC2    C1 2206   1.507   4.619  10.158 -0.2657 -0.4401 -0.0357
  142TMC2    C2 2207   1.623   4.653  10.105 -0.0118 -0.3762 -0.0178
  142TMC2    C3 2208   1.704   0.012  10.162  0.2656  0.5446 -0.1876
  142TMC2    C4 2209   1.449   4.685  10.260 -0.2681  0.7396 -0.3887
  142TMC2    C5 2210   1.525   0.065  10.299 -0.4895 -0.6619  0.4334
  142TMC2    C6 2211   1.645   0.098  10.246  0.0147 -0.0658  0.7706
  142TMC2     C 2212   1.432   4.504  10.102  0.3127  0.3185 -0.3642
  142TMC2     O 2213   1.339   4.453  10.163 -0.1470  1.0739 -0.2005
  142TMC2     H 2214   1.660   4.613  10.011 -0.7784  0.8278 -0.8235
  142TMC2    H1 2215   1.352   4.661  10.300  0.9449  1.1720  2.8880
  142TMC2    H2 2216   1.700   0.187  10.275  0.0380 -0.3525  1.6183
  142TMC2    C7 2217   1.443   0.153  10.385 -0.2984  0.3770 -0.3820
  142TMC2    C8 2218   1.820   0.051  10.087 -0.1955 -0.1387  0.2102
  142TMC2    O1 2219   1.328   0.123  10.416  0.0160  0.2982 -0.1951
  142TMC2    O2 2220   1.881   4.703  10.022 -0.5119 -0.5497  0.0957
  142TMC2    O5 2221   1.820   0.185  10.062 -0.4619 -0.5801 -0.2373
  142TMC2    H5 2222   1.751   0.234  10.112 -1.0515 -1.5581 -0.1007
  143MPD2     C 2223   1.275   4.197   9.725 -0.4033  0.5206  0.4698
  143MPD2    C1 2224   1.253   4.188   9.855 -0.2927  0.1209  0.9345
  143MPD2    C2 2225   1.309   4.277   9.944 -0.3562 -0.6596 -0.0805
  143MPD2    C3 2226   1.387   4.389   9.895 -0.1691 -0.4519 -0.4878
  143MPD2    C4 2227   1.411   4.390   9.756  0.0262 -0.5693 -0.3771
  143MPD2    C5 2228   1.354   4.293   9.678  0.6089 -0.2542  0.0325
  143MPD2     H 2229   1.298   4.257  10.050  0.5498 -1.3077 -0.1061
  143MPD2    H1 2230   1.474   4.469   9.716 -0.5818 -1.0947 -2.3512
  143MPD2    H2 2231   1.223   4.138   9.650  0.3788  1.3458 -0.7267
  143MPD2    H3 2232   1.373   4.296   9.571 -1.8009 -0.7089 -0.4001
  143MPD2     N 2233   1.460   4.477   9.973  0.4149  0.2279  0.1313
  143MPD2    H5 2234   1.523   4.542   9.927  0.1268  0.5134  0.1397
  143MPD2    N1 2235   1.163   4.093   9.907 -0.5534 -0.1086 -0.0718
  143MPD2    H7 2236   1.105   4.044   9.840 -2.4073  2.5773 -0.4037
  144TMC2    C1 2237   3.393   2.660   0.650 -1.1913 -0.3508  0.0076
  144TMC2    C2 2238   3.467   2.565   0.579 -0.5320 -0.7362 -0.8715
  144TMC2    C3 2239   3.598   2.564   0.604  0.2463 -0.3674 -0.1398
  144TMC2    C4 2240   3.449   2.761   0.720  0.2634 -0.8831  0.1508
  144TMC2    C5 2241   3.581   2.765   0.724 -0.0326 -0.5021  0.3412
  144TMC2    C6 2242   3.659   2.665   0.679  0.0750  1.1565  0.3893
  144TMC2     C 2243   3.261   2.674   0.597 -0.4615  0.4091 -0.6411
  144TMC2     O 2244   3.201   2.573   0.569  0.3525 -0.1334  0.0063
  144TMC2     H 2245   3.420   2.498   0.508  1.1978  0.6436 -3.3088
  144TMC2    H1 2246   3.391   2.822   0.789 -0.8213 -1.4349 -0.2683
  144TMC2    H2 2247   3.762   2.651   0.707 -0.7329 -1.2972  2.1419
  144TMC2    C7 2248   3.647   2.838   0.828  0.1003  0.7570  0.3155
  144TMC2    C8 2249   3.679   2.488   0.507  0.5140 -0.1190 -0.3613
  144TMC2    O1 2250   3.744   2.784   0.883 -0.1810  0.1853 -0.1220
  144TMC2    O2 2251   3.629   2.416   0.426  0.1135 -0.2095 -0.5532
  144TMC2    O5 2252   3.798   2.549   0.481 -0.0756  0.8489 -0.2362
  144TMC2    H5 2253   3.835   2.599   0.557 -1.8647 -0.7337  1.6638
  145MPD2     C 2254   2.892   2.922   0.371  0.0328  0.6256  0.1631
  145MPD2    C1 2255   2.956   2.803   0.338  1.2299 -0.2660  0.0753
  145MPD2    C2 2256   3.063   2.758   0.415 -0.3598  0.4609 -0.3917
  145MPD2    C3 2257   3.108   2.842   0.523  0.1836 -0.0274 -0.7768
  145MPD2    C4 2258   3.054   2.972   0.537 -0.1039 -0.3187 -0.2491
  145MPD2    C5 2259   2.939   3.005   0.470  0.1976 -0.0905 -0.0830
  145MPD2     H 2260   3.119   2.670   0.386  1.5101  1.4967  0.0068
  145MPD2    H1 2261   3.097   3.035   0.614  2.0701 -0.5688 -1.2517
  145MPD2    H2 2262   2.811   2.959   0.309 -0.1892 -2.1537 -1.2314
  145MPD2    H3 2263   2.884   3.096   0.489 -2.4672 -1.6904 -0.1588
  145MPD2     N 2264   3.215   2.803   0.603  0.7487  0.1552 -0.2479
  145MPD2    H5 2265   3.268   2.881   0.639  0.8232 -0.0505  0.0845
  145MPD2    N1 2266   2.902   2.718   0.232 -0.2690 -0.3637  0.0673
  145MPD2    H7 2267   2.956   2.633   0.219 -1.4726 -1.0420 -0.4981
  146TMC2    C1 2268   4.031   1.877  12.993  0.4048 -0.3020  0.4586
  146TMC2    C2 2269   3.947   1.949  12.913 -0.8268 -0.2621 -0.0595
  146TMC2    C3 2270   4.004   2.020  12.812 -0.3727  0.8174  0.0690
  146TMC2    C4 2271   4.170   1.881  12.968  0.3823  0.4220  0.1002
  146TMC2    C5 2272   4.224   1.950  12.866 -0.2433  0.0238 -0.7708
  146TMC2    C6 2273   4.139   2.024  12.781 -0.6973 -0.1956 -0.0700
  146TMC2     C 2274   3.963   1.800  13.096 -0.2918  0.8030 -0.2771
  146TMC2     O 2275   3.842   1.785  13.092 -0.2233  0.0612 -0.6781
  146TMC2     H 2276   3.842   1.972  12.930 -0.3431  0.9830  1.2458
  146TMC2    H1 2277   4.233   1.815  13.027  0.2704 -1.6306 -2.0481
  146TMC2    H2 2278   4.174   2.085  12.698 -1.9319 -1.4310 -1.5179
  146TMC2    C7 2279   4.344   1.911  12.799 -0.4383 -0.0284  0.0568
  146TMC2    C8 2280   3.916   2.090  12.727 -0.3065 -0.3985  0.5436
  146TMC2    O1 2281   4.357   1.940  12.682  0.3405  0.5690 -0.4852
  146TMC2    O2 2282   3.844   2.182  12.764 -0.3046 -0.3174 -0.3544
  146TMC2    O5 2283   3.965   2.069  12.605 -1.1145 -0.2849 -0.4291
  146TMC2    H5 2284   3.987   1.974  12.593 -0.0445 -0.3497  2.0786
  147MPD2     C 2285   0.085   1.736  12.767  0.2018  0.1162  0.1715
  147MPD2    C1 2286   0.040   1.707  12.895 -0.2326 -0.1406 -0.2691
  147MPD2    C2 2287   4.650   1.752  12.932  0.3864  0.4676 -0.2978
  147MPD2    C3 2288   4.573   1.827  12.841  0.0404  0.7296  0.2755
  147MPD2    C4 2289   4.633   1.872  12.723  0.4353  0.3989 -0.1802
  147MPD2    C5 2290   0.018   1.828  12.691 -1.0805  0.2983  0.2139
  147MPD2     H 2291   4.609   1.723  13.028 -0.1952 -0.8259 -0.9429
  147MPD2    H1 2292   4.585   1.946  12.660 -0.3904  1.1495  1.3208
  147MPD2    H2 2293   0.176   1.693  12.727 -0.0155  0.1734 -0.3827
  147MPD2    H3 2294   0.073   1.861  12.604 -0.4741 -0.6460  0.2314
  147MPD2     N 2295   4.440   1.860  12.881  0.1899 -0.0709 -0.4495
  147MPD2    H5 2296   4.411   1.824  12.971 -0.4769  1.4308 -0.0703
  147MPD2    N1 2297   0.126   1.623  12.972  0.4666  0.1508 -0.0826
  147MPD2    H7 2298   0.218   1.616  12.929 -0.2909 -1.9508 -1.3687
  148TMC2    C1 2299   0.279   0.692  11.020  0.0066 -0.4170  0.9791
  148TMC2    C2 2300   0.350   0.788  11.092 -0.7494 -0.3896 -0.9878
  148TMC2    C3 2301   0.484   0.799  11.083 -0.2515 -0.7527 -0.2165
  148TMC2    C4 2302   0.347   0.611  10.925 -0.2322  0.0348  0.3779
  148TMC2    C5 2303   0.479   0.623  10.920  0.0598 -0.3710 -1.1729
  148TMC2    C6 2304   0.548   0.715  10.994  0.0655 -0.0347  0.2502
  148TMC2     C 2305   0.141   0.724  10.992 -0.4725  0.1008  0.2355
  148TMC2     O 2306   0.093   0.835  11.025  0.1671  0.7677  0.0350
  148TMC2     H 2307   0.297   0.868  11.143 -0.5651 -1.5121  0.9701
  148TMC2    H1 2308   0.288   0.547  10.860  0.4198 -0.8838  0.6823
  148TMC2    H2 2309   0.656   0.715  10.981  0.2614  0.0210  1.8260
  148TMC2    C7 2310   0.547   0.560  10.812 -1.0955  0.1838 -0.0584
  148TMC2    C8 2311   0.540   0.819  11.214 -0.0151  0.0853 -0.1458
  148TMC2    O1 2312   0.653   0.600  10.768  0.1727  0.1370 -0.1978
  148TMC2    O2 2313   0.489   0.785  11.317  0.5447  0.0853 -0.0909
  148TMC2    O5 2314   0.672   0.831  11.197  0.1673  0.2139  0.3599
  148TMC2    H5 2315   0.696   0.868  11.109 -1.5792  0.8211  0.1237
  149MPD2     C 2316   4.605   0.726  10.843 -0.3570  0.7149 -0.1318
  149MPD2    C1 2317   4.678   0.617  10.869  0.0626  0.7074 -0.4473
  149MPD2    C2 2318   4.618   0.493  10.858  0.3569 -0.4480 -0.1301
  149MPD2    C3 2319   4.489   0.479  10.814 -0.1787  0.5233 -0.6924
  149MPD2    C4 2320   4.409   0.591  10.789  0.4862 -0.3781  0.1268
  149MPD2    C5 2321   4.468   0.718  10.811  0.4602  0.2116 -0.0347
  149MPD2     H 2322   4.677   0.405  10.877 -0.5450 -1.2109 -0.8161
  149MPD2    H1 2323   4.306   0.582  10.758 -0.0408  1.0222  1.4608
  149MPD2    H2 2324   4.643   0.828  10.850 -0.3891  0.6741  0.6192
  149MPD2    H3 2325   4.407   0.806  10.798 -1.3642 -0.5891  2.9166
  149MPD2     N 2326   4.436   0.349  10.787  0.8135  0.0429 -0.6538
  149MPD2    H5 2327   4.336   0.343  10.770  1.0766  0.3271 -2.2614
  149MPD2    N1 2328   0.075   0.619  10.930  0.7580 -0.6161  0.4785
  149MPD2    H7 2329   0.126   0.531  10.940  0.4618 -0.8036  0.3515
  150TMC2    C1 2330   1.873   4.286  12.727  0.5106  0.2568 -0.4262
  150TMC2    C2 2331   1.866   4.179  12.642 -0.4553  0.5301  0.9725
  150TMC2    C3 2332   1.919   4.062  12.691  0.9561 -1.3146 -0.1346
  150TMC2    C4 2333   1.943   4.286  12.838 -0.5098  0.2482  0.3153
  150TMC2    C5 2334   1.997   4.172  12.883  0.1105 -0.1257  0.0459
  150TMC2    C6 2335   1.980   4.053  12.815  0.7272 -0.7973  0.4124
  150TMC2     C 2336   1.794   4.404  12.695 -0.3775 -0.0228 -0.5397
  150TMC2     O 2337   1.802   4.504  12.765  0.1943 -0.3515 -0.1208
  150TMC2     H 2338   1.827   4.181  12.541 -2.0388  0.6533  1.5864
  150TMC2    H1 2339   1.955   4.383  12.884  2.3776  0.3699 -0.6958
  150TMC2    H2 2340   2.014   3.959  12.858  1.1324 -0.3448  1.0826
  150TMC2    C7 2341   2.085   4.178  13.004  0.0401 -0.1367  0.3630
  150TMC2    C8 2342   1.896   3.951  12.609 -0.1487  1.1971 -0.3252
  150TMC2    O1 2343   2.068   4.268  13.088  0.6100  0.1661 -0.0976
  150TMC2    O2 2344   1.820   3.954  12.509 -0.1504  0.4683  0.6390
  150TMC2    O5 2345   1.969   3.843  12.651 -0.1182  0.0480  0.0997
  150TMC2    H5 2346   2.037   3.871  12.716  2.0233 -2.2993 -1.1450
  151MPD2     C 2347   1.484   4.670  12.378 -0.6956  0.0839  0.0610
  151MPD2    C1 2348   1.485   4.534  12.340  0.0170  0.3178  0.3204
  151MPD2    C2 2349   1.574   4.444  12.398  0.1037  0.5340  0.1569
  151MPD2    C3 2350   1.644   4.485  12.512 -0.4954 -0.2737  0.2983
  151MPD2    C4 2351   1.636   4.618  12.548  0.5043  0.2285  0.4375
  151MPD2    C5 2352   1.551   4.705  12.488 -0.2282 -0.2590 -0.1865
  151MPD2     H 2353   1.576   4.339  12.370  1.0063  0.7245 -0.4953
  151MPD2    H1 2354   1.691   4.666  12.628 -1.7967  1.8655  1.0415
  151MPD2    H2 2355   1.431   0.005  12.318 -0.0346 -1.0265 -1.8776
  151MPD2    H3 2356   1.548   0.067  12.528 -0.1006 -0.6189  0.7098
  151MPD2     N 2357   1.722   4.390  12.578 -0.4035  0.0781  1.1598
  151MPD2    H5 2358   1.732   4.295  12.543  2.0172 -0.0644  2.2927
  151MPD2    N1 2359   1.398   4.491  12.238  0.0324  0.2088 -0.2238
  151MPD2    H7 2360   1.337   4.561  12.199 -0.5527 -1.2644 -1.9462
  152TMC2    C1 2361   2.033   3.946  13.321 -0.0564  0.1152 -0.2664
  152TMC2    C2 2362   2.119   3.837  13.319 -1.1810  0.4897  0.1560
  152TMC2    C3 2363   2.238   3.856  13.395  0.0256  0.0525 -0.3077
  152TMC2    C4 2364   2.057   4.067  13.382  0.3936 -0.3291 -0.2781
  152TMC2    C5 2365   2.173   4.079  13.445 -0.5722  0.1289  0.8474
  152TMC2    C6 2366   2.263   3.974  13.458  0.0970  0.0295 -0.0065
  152TMC2     C 2367   1.918   3.953  13.232  0.7814  0.7602  0.7036
  152TMC2     O 2368   1.841   4.046  13.260 -0.0303  0.5011 -0.0053
  152TMC2     H 2369   2.092   3.743  13.273  0.0946 -0.5092  1.4094
  152TMC2    H1 2370   1.988   4.151  13.381  0.8464  0.0854  2.0030
  152TMC2    H2 2371   2.357   3.986  13.512 -0.2467 -3.8604  1.4177
  152TMC2    C7 2372   2.212   4.217  13.483 -0.0323  0.5801 -0.1302
  152TMC2    C8 2373   2.298   3.732  13.443  0.1784  0.0235 -0.5713
  152TMC2    O1 2374   2.130   4.306  13.461  0.5022 -0.3412 -0.2120
  152TMC2    O2 2375   2.295   3.707  13.564 -0.3435  0.3106  0.4785
  152TMC2    O5 2376   2.278   3.634  13.350  0.4268  0.4407  0.1794
  152TMC2    H5 2377   2.293   3.657  13.256 -1.0187  2.7711  0.5331
  153MPD2     C 2378   1.822   3.737  12.960  0.1788  0.0630  0.0862
  153MPD2    C1 2379   1.814   3.846  13.036  0.5777  0.0706  0.2927
  153MPD2    C2 2380   1.732   3.955  13.009  0.4623 -0.0272  0.0844
  153MPD2    C3 2381   1.651   3.947  12.898 -0.1663 -0.0743  0.3688
  153MPD2    C4 2382   1.659   3.832  12.821  0.3548 -0.2677 -0.1426
  153MPD2    C5 2383   1.742   3.730  12.852 -0.1872  0.5561 -0.5623
  153MPD2     H 2384   1.743   4.049  13.062  0.8196  0.4195 -0.7666
  153MPD2    H1 2385   1.605   3.827  12.727 -1.8838  0.9434  1.0836
  153MPD2    H2 2386   1.900   3.662  12.972  2.2107  2.1303 -0.2289
  153MPD2    H3 2387   1.753   3.638  12.795  1.6072  1.2142 -1.2507
  153MPD2     N 2388   1.563   4.049  12.860  0.5159  0.1070  0.1195
  153MPD2    H5 2389   1.576   4.135  12.912  1.2718 -0.3432  0.6702
  153MPD2    N1 2390   1.915   3.859  13.133  0.4456 -0.1015 -0.6294
  153MPD2    H7 2391   1.986   3.787  13.142  2.1649  1.6050 -0.6212
  154TMC2    C1 2392   3.090   3.841   0.405 -0.0688  0.6563  0.2528
  154TMC2    C2 2393   3.062   3.803   0.275  0.0349 -0.5362 -0.3787
  154TMC2    C3 2394   3.133   3.700   0.223  0.5111  0.1525 -0.1235
  154TMC2    C4 2395   3.180   3.781   0.484  0.1995  0.0862 -0.0908
  154TMC2    C5 2396   3.257   3.682   0.421 -0.1701 -0.0392 -0.1365
  154TMC2    C6 2397   3.225   3.632   0.300  0.0941  0.0196  0.8812
  154TMC2     C 2398   3.035   3.973   0.448 -0.2000  0.5624  0.2707
  154TMC2     O 2399   3.078   4.018   0.555  0.1697 -0.0994  0.2448
  154TMC2     H 2400   3.001   3.865   0.211 -0.7177  0.2839  1.1262
  154TMC2    H1 2401   3.216   3.819   0.578  2.6861  2.2180 -1.9025
  154TMC2    H2 2402   3.279   3.554   0.249 -0.1982  1.2005 -1.2598
  154TMC2    C7 2403   3.341   3.602   0.509  0.3294 -1.1239  0.7184
  154TMC2    C8 2404   3.146   3.680   0.079 -0.0079 -0.6342  0.1360
  154TMC2    O1 2405   3.322   3.590   0.630  0.2991 -0.1580  0.1670
  154TMC2    O2 2406   3.172   3.568   0.029  0.0532  0.3859 -0.1060
  154TMC2    O5 2407   3.170   3.792   0.012 -0.4546 -0.2586 -0.2284
  154TMC2    H5 2408   3.145   3.874   0.060  0.5873  0.3639 -0.7595
  155MPD2     C 2409   2.755   4.161   0.310 -0.3475 -0.3329 -0.4399
  155MPD2    C1 2410   2.850   4.136   0.406  0.1849  0.6365  0.2406
  155MPD2    C2 2411   2.858   4.221   0.517 -0.1706  0.3775 -0.3152
  155MPD2    C3 2412   2.784   4.340   0.526  0.7381 -0.2587 -0.1671
  155MPD2    C4 2413   2.686   4.364   0.426  0.4892  0.0212  0.4824
  155MPD2    C5 2414   2.677   4.275   0.323  0.9405  0.5799  0.0238
  155MPD2     H 2415   2.936   4.197   0.589 -0.5000  0.8481  0.2013
  155MPD2    H1 2416   2.626   4.454   0.421  0.3765  0.0436  2.1079
  155MPD2    H2 2417   2.735   4.106   0.219  0.1714  0.5262 -1.0641
  155MPD2    H3 2418   2.599   4.298   0.252 -0.5112 -0.7514  1.1639
  155MPD2     N 2419   2.818   4.427   0.627  0.1534 -0.4554 -0.0731
  155MPD2    H5 2420   2.886   4.394   0.694 -1.0409  0.1018  1.4009
  155MPD2    N1 2421   2.938   4.031   0.375  0.3979 -0.3461  0.1556
  155MPD2    H7 2422   2.900   3.983   0.294  0.0266  0.1204  0.0546
  156TMC2    C1 2423   1.751   1.597  12.220 -0.7898 -0.0909  0.4468
  156TMC2    C2 2424   1.662   1.510  12.288 -0.4914 -0.6951 -0.6360
  156TMC2    C3 2425   1.559   1.452  12.219  0.9489 -0.0516 -0.1172
  156TMC2    C4 2426   1.749   1.600  12.084  0.1677 -0.0187  0.1773
  156TMC2    C5 2427   1.644   1.544  12.017  0.6841 -0.2794 -0.7319
  156TMC2    C6 2428   1.552   1.468  12.085 -0.1070  0.1805 -0.4131
  156TMC2     C 2429   1.871   1.648  12.288  0.0226  0.4749  0.2540
  156TMC2     O 2430   1.952   1.708  12.219  0.0012 -0.0021 -0.8614
  156TMC2     H 2431   1.655   1.512  12.396  1.0877  2.4072 -0.5743
  156TMC2    H1 2432   1.823   1.648  12.021 -0.8884 -1.5293 -2.2170
  156TMC2    H2 2433   1.465   1.434  12.030 -1.0332  2.8636 -0.6078
  156TMC2    C7 2434   1.611   1.571  11.880  0.3590  0.3121  0.8250
  156TMC2    C8 2435   1.480   1.354  12.292  0.4493  0.1581 -0.0126
  156TMC2    O1 2436   1.529   1.494  11.831  0.3446 -0.0962  0.2503
  156TMC2    O2 2437   1.504   1.232  12.297 -0.3415  0.0785 -0.3631
  156TMC2    O5 2438   1.440   1.432  12.393 -0.3052  0.5242 -0.3226
  156TMC2    H5 2439   1.424   1.526  12.371  1.6102  0.3280 -2.5626
  157MPD2     C 2440   1.947   1.666  12.644 -0.9979 -0.2612 -0.1229
  157MPD2    C1 2441   1.966   1.689  12.512 -0.4377 -0.2453  0.1004
  157MPD2    C2 2442   2.087   1.737  12.471  1.0820  0.6464 -0.4255
  157MPD2    C3 2443   2.188   1.748  12.571 -0.3085 -0.5348 -0.4179
  157MPD2    C4 2444   2.167   1.706  12.702  1.0755 -1.0675 -0.0985
  157MPD2    C5 2445   2.043   1.663  12.733 -0.2530  0.5114 -0.2482
  157MPD2     H 2446   2.102   1.775  12.371  0.2428 -0.9096 -1.1359
  157MPD2    H1 2447   2.241   1.711  12.781 -0.9127 -1.5071  1.7824
  157MPD2    H2 2448   1.850   1.627  12.676 -1.1689  0.8813  0.7331
  157MPD2    H3 2449   2.017   1.624  12.830 -0.8720  0.3027 -0.4987
  157MPD2     N 2450   2.318   1.788  12.528  0.0764 -0.3136  0.0862
  157MPD2    H5 2451   2.318   1.823  12.433  0.1378 -1.8532 -0.4898
  157MPD2    N1 2452   1.865   1.642  12.425 -0.1726  0.1320 -0.0848
  157MPD2    H7 2453   1.784   1.598  12.467 -0.3821  0.8798  0.2950
  158TMC2    C1 2454   2.275   0.329  13.429 -0.6342 -0.5630 -0.6075
  158TMC2    C2 2455   2.248   0.401  13.318  0.3238  0.5074  0.2339
  158TMC2    C3 2456   2.138   0.479  13.317  0.1225  0.3226 -0.0586
  158TMC2    C4 2457   2.182   0.312  13.526  0.4962  0.0334 -0.1011
  158TMC2    C5 2458   2.054   0.357  13.502 -0.0043 -0.1136 -0.1090
  158TMC2    C6 2459   2.033   0.453  13.401 -0.5950  0.3792 -0.4931
  158TMC2     C 2460   2.414   0.310  13.455 -0.5431 -1.0988  0.2146
  158TMC2     O 2461   2.484   0.354  13.367 -0.2889  0.4819  0.0500
  158TMC2     H 2462   2.311   0.405  13.229  0.5268 -2.1245  0.2523
  158TMC2    H1 2463   2.202   0.254  13.616  2.1781 -1.2573 -1.2828
  158TMC2    H2 2464   1.936   0.487  13.368 -0.5466  0.4272 -0.5847
  158TMC2    C7 2465   1.936   0.312  13.573 -0.5608  0.3767 -0.3053
  158TMC2    C8 2466   2.120   0.569  13.201  0.4835 -0.1379 -0.2400
  158TMC2    O1 2467   1.843   0.396  13.564  0.0890 -0.0472  0.0124
  158TMC2    O2 2468   2.199   0.563  13.109 -0.4227  0.6480 -0.5076
  158TMC2    O5 2469   2.027   0.667  13.211 -0.1658  0.3728  0.3184
  158TMC2    H5 2470   1.974   0.660  13.294 -1.3860 -1.1336 -0.5878
  159MPD2     C 2471   2.833   0.332  13.766  0.4049  0.3840 -0.2631
  159MPD2    C1 2472   2.716   0.327  13.838  0.5130  0.2663  0.0079
  159MPD2    C2 2473   2.593   0.313  13.778 -0.2637 -0.4047  0.4503
  159MPD2    C3 2474   2.577   0.319  13.643 -0.9307  0.8550  0.3901
  159MPD2    C4 2475   2.697   0.351  13.571 -0.4017  0.5904 -0.0482
  159MPD2    C5 2476   2.822   0.356  13.629 -0.0443  0.5030  0.1861
  159MPD2     H 2477   2.502   0.298  13.834  0.4830 -4.0184  0.7241
  159MPD2    H1 2478   2.697   0.383  13.467  1.9025  0.6341 -0.0277
  159MPD2    H2 2479   2.937   0.335  13.798  0.0641  1.3920  0.7525
  159MPD2    H3 2480   2.901   0.351  13.555  0.2928  1.8575  0.4712
  159MPD2     N 2481   2.447   0.296  13.588  0.5540 -0.1368  0.5067
  159MPD2    H5 2482   2.381   0.280  13.663 -0.1227 -1.6345 -0.3898
  159MPD2    N1 2483   2.729   0.325  13.978 -0.3084  0.3775  0.3108
  159MPD2    H7 2484   2.823   0.301  14.009 -0.8195 -1.8706  0.1185
  160TMC2    C1 2485   1.678   3.652   1.889 -0.2268 -1.0817  0.1924
  160TMC2    C2 2486   1.595   3.565   1.951  0.0889  0.3842 -0.6096
  160TMC2    C3 2487   1.613   3.434   1.932  0.3080 -0.3953 -0.5299
  160TMC2    C4 2488   1.780   3.614   1.804  0.0905 -0.4524 -0.0310
  160TMC2    C5 2489   1.794   3.474   1.791 -0.6973 -0.4738  0.3642
  160TMC2    C6 2490   1.707   3.385   1.848  0.3945 -0.4192 -0.0411
  160TMC2     C 2491   1.659   3.795   1.908 -0.8095 -0.1185 -0.1144
  160TMC2     O 2492   1.598   3.825   2.008  0.4930 -0.2628  0.3258
  160TMC2     H 2493   1.541   3.594   2.040  0.1683  0.8564 -0.7155
  160TMC2    H1 2494   1.833   3.689   1.747 -0.7274  0.2970  0.2113
  160TMC2    H2 2495   1.721   3.277   1.846 -1.8240 -0.6865 -0.2979
  160TMC2    C7 2496   1.901   3.429   1.711  0.2823  0.0395  0.2900
  160TMC2    C8 2497   1.568   3.335   2.027  0.2972 -0.3973 -0.7254
  160TMC2    O1 2498   1.964   3.338   1.765 -0.1175 -0.3036  0.0001
  160TMC2    O2 2499   1.643   3.242   2.053 -0.0589 -0.5078 -0.0716
  160TMC2    O5 2500   1.443   3.366   2.076  0.0100 -0.3665  0.1932
  160TMC2    H5 2501   1.400   3.439   2.026 -0.2059 -0.9853 -0.5333
  161MPD2     C 2502   1.619   4.091   1.882  0.0196  0.2481  0.1018
  161MPD2    C1 2503   1.665   4.003   1.780 -0.4139 -0.6212  0.1973
  161MPD2    C2 2504   1.686   4.062   1.657 -0.4197  0.0144  0.0596
  161MPD2    C3 2505   1.671   4.196   1.629 -0.2323 -0.1939 -0.1901
  161MPD2    C4 2506   1.635   4.282   1.734 -0.0122  0.5509  0.9721
  161MPD2    C5 2507   1.605   4.227   1.853  0.0153  1.1418 -0.1230
  161MPD2     H 2508   1.710   3.993   1.577 -1.6517  0.9036 -1.0808
  161MPD2    H1 2509   1.612   4.387   1.721  2.2634  1.0397  0.9115
  161MPD2    H2 2510   1.585   4.042   1.973 -1.0556  0.4784 -0.1730
  161MPD2    H3 2511   1.553   4.285   1.928 -0.4082  0.6707 -0.0538
  161MPD2     N 2512   1.713   4.262   1.511 -0.1459  0.0044  0.4288
  161MPD2    H5 2513   1.700   4.363   1.505 -1.1021 -0.0870  0.8863
  161MPD2    N1 2514   1.690   3.870   1.800 -0.4556  0.3858  0.5657
  161MPD2    H7 2515   1.720   3.825   1.715  0.2834  0.5867  0.7186
  162TMC2    C1 2516   0.215   0.943   1.291 -0.2306  0.0647  0.0297
  162TMC2    C2 2517   0.086   0.952   1.330  0.2994 -0.1101 -0.4603
  162TMC2    C3 2518   0.054   0.914   1.457 -0.7999 -0.3533  0.0670
  162TMC2    C4 2519   0.312   0.874   1.368 -0.1201  0.3500 -0.1910
  162TMC2    C5 2520   0.269   0.823   1.491  0.5110 -0.1388 -0.0210
  162TMC2    C6 2521   0.147   0.857   1.544  0.3440  0.0331 -0.1760
  162TMC2     C 2522   0.254   0.999   1.162  0.0751  0.4349 -0.4934
  162TMC2     O 2523   0.162   1.018   1.081  0.1865  0.5062  0.2624
  162TMC2     H 2524   0.015   1.012   1.274  1.9821 -0.1558 -2.6660
  162TMC2    H1 2525   0.413   0.851   1.337 -0.0191  1.9810 -1.0768
  162TMC2    H2 2526   0.124   0.829   1.646 -0.5482  0.6270 -0.2149
  162TMC2    C7 2527   0.374   0.778   1.584 -0.3851  0.6312 -0.1281
  162TMC2    C8 2528   4.660   0.929   1.493  0.2620 -0.7682  0.1910
  162TMC2    O1 2529   0.353   0.813   1.700 -0.6316 -0.1730 -0.1049
  162TMC2    O2 2530   4.566   0.916   1.417 -0.5279 -0.0030 -0.2365
  162TMC2    O5 2531   4.643   0.926   1.619  0.5892  0.3855  0.6611
  162TMC2    H5 2532   4.717   0.956   1.676  0.3379 -0.4709  1.4425
  163MPD2     C 2533   0.615   1.055   0.804 -0.5000 -0.8126 -0.5848
  163MPD2    C1 2534   0.484   0.997   0.795  0.0271  0.0662  0.1116
  163MPD2    C2 2535   0.402   0.996   0.903  0.8198  0.3480 -1.0407
  163MPD2    C3 2536   0.459   1.035   1.030  0.4073 -0.5658  0.1413
  163MPD2    C4 2537   0.591   1.084   1.041  0.0194 -0.1693  0.5011
  163MPD2    C5 2538   0.663   1.102   0.924 -0.4058  0.3843 -0.0664
  163MPD2     H 2539   0.302   0.957   0.891  1.7115 -1.7122 -1.8207
  163MPD2    H1 2540   0.635   1.103   1.138 -0.4805  0.0840  0.6771
  163MPD2    H2 2541   0.682   1.065   0.719 -0.9993 -0.7832 -0.9759
  163MPD2    H3 2542   0.762   1.146   0.927 -0.4696  0.6696 -2.4338
  163MPD2     N 2543   0.388   1.023   1.151  0.4671  0.1153  0.3518
  163MPD2    H5 2544   0.442   1.050   1.233  0.4349 -1.8462  1.0283
  163MPD2    N1 2545   0.434   0.956   0.670  0.2439  0.0528 -0.1580
  163MPD2    H7 2546   0.489   0.983   0.589 -1.3949  3.5003 -0.1337
  164TMC2    C1 2547   0.583   0.088  11.340 -0.0600  0.2882 -0.0184
  164TMC2    C2 2548   0.692   0.158  11.374 -0.6304 -0.1380  0.1979
  164TMC2    C3 2549   0.684   0.292  11.377 -0.4793  0.0890  0.0358
  164TMC2    C4 2550   0.463   0.144  11.319  0.2084 -0.1619  0.2455
  164TMC2    C5 2551   0.460   0.285  11.323 -0.0653  0.2486 -0.0422
  164TMC2    C6 2552   0.574   0.359  11.343 -0.0785  0.5248  0.0711
  164TMC2     C 2553   0.600   4.682  11.331  0.6502  0.7233  0.3519
  164TMC2     O 2554   0.508   4.616  11.374  0.4622  0.2923  0.1661
  164TMC2     H 2555   0.780   0.104  11.406 -0.8324 -0.6038 -0.0456
  164TMC2    H1 2556   0.376   0.084  11.295  0.0962  0.2132 -0.2866
  164TMC2    H2 2557   0.566   0.464  11.316  0.1024  0.1204 -1.5360
  164TMC2    C7 2558   0.338   0.350  11.296  0.5605  0.0300  0.1654
  164TMC2    C8 2559   0.815   0.357  11.390 -0.4849  0.0620  0.2872
  164TMC2    O1 2560   0.257   0.280  11.240 -0.5659 -0.6112 -0.0877
  164TMC2    O2 2561   0.921   0.300  11.363  0.7353  0.2231 -0.7643
  164TMC2    O5 2562   0.813   0.491  11.430  0.8812  0.4381 -0.3886
  164TMC2    H5 2563   0.722   0.527  11.437  0.1881 -1.1013 -1.3808
  165TMC2    C1 2564   1.458   2.903   2.095  0.4088 -0.2961 -0.3084
  165TMC2    C2 2565   1.542   2.848   2.186 -0.6471  0.0808  0.2664
  165TMC2    C3 2566   1.675   2.853   2.159 -0.2306 -0.1460  0.3547
  165TMC2    C4 2567   1.507   2.955   1.983  0.0998  0.0891  1.6557
  165TMC2    C5 2568   1.637   2.968   1.966  0.1237 -0.2148 -0.7490
  165TMC2    C6 2569   1.727   2.915   2.054  0.4091 -0.0078  1.6137
  165TMC2     C 2570   1.318   2.912   2.118 -0.4797  1.0197 -0.7610
  165TMC2     O 2571   1.247   2.975   2.040 -0.1207 -0.6646 -0.1221
  165TMC2     H 2572   1.505   2.796   2.273 -1.9412  0.9044  0.2000
  165TMC2    H1 2573   1.439   2.979   1.901  0.6630  0.0306  1.1686
  165TMC2    H2 2574   1.832   2.893   2.042  0.0191 -1.6154  1.1117
  165TMC2    C7 2575   1.702   3.000   1.842  0.6846 -0.2353 -0.0018
  165TMC2    C8 2576   1.764   2.774   2.241 -0.2455  0.0216 -0.6446
  165TMC2    O1 2577   1.818   2.966   1.829  0.0669  0.0657 -0.1033
  165TMC2    O2 2578   1.736   2.664   2.285 -1.1325 -0.0681  0.3288
  165TMC2    O5 2579   1.880   2.839   2.263  0.0030 -0.5142 -0.2907
  165TMC2    H5 2580   1.876   2.935   2.246  2.7251 -0.4828 -0.8184
  166MPD2     C 2581   0.872   2.820   2.342  0.1658 -0.8310  0.1428
  166MPD2    C1 2582   0.903   2.847   2.212 -0.1176 -0.6196 -0.6170
  166MPD2    C2 2583   1.033   2.858   2.173  0.3369 -0.1611  0.1023
  166MPD2    C3 2584   1.138   2.843   2.268 -0.2090 -0.5999 -0.0487
  166MPD2    C4 2585   1.101   2.820   2.399 -0.8921  0.5299  0.1852
  166MPD2    C5 2586   0.970   2.804   2.432  0.2087 -0.0501 -0.3483
  166MPD2     H 2587   1.049   2.891   2.071  0.5291 -1.0910 -0.1629
  166MPD2    H1 2588   1.171   2.804   2.480  0.8316 -0.6678 -1.5434
  166MPD2    H2 2589   0.769   2.822   2.375  0.2592 -0.3997  0.4079
  166MPD2    H3 2590   0.947   2.782   2.536  3.0122 -0.5075  0.1883
  166MPD2     N 2591   1.270   2.856   2.239 -0.0072 -0.1867  0.2351
  166MPD2    H5 2592   1.341   2.823   2.304  1.4573  0.6551 -0.9330
  166MPD2    N1 2593   0.794   2.862   2.122  0.0209 -0.4657 -0.0142
  166MPD2    H7 2594   0.700   2.837   2.151 -0.1383  1.7605  1.3751
  167TMC2    C1 2595   4.733   0.323  12.883 -0.3114  0.3284  0.0434
  167TMC2    C2 2596   4.631   0.368  12.974 -0.1009 -0.5453  0.1991
  167TMC2    C3 2597   4.592   0.277  13.068 -0.8048  0.4588  0.3625
  167TMC2    C4 2598   0.050   0.202  12.894  0.0271 -0.1771  0.1144
  167TMC2    C5 2599   0.002   0.117  12.990  0.1183 -0.5748 -0.1455
  167TMC2    C6 2600   4.651   0.158  13.084 -0.1832  0.3501  0.2083
  167TMC2     C 2601   0.026   0.411  12.773  0.6531 -0.0050  0.7893
  167TMC2     O 2602   4.721   0.526  12.788 -0.3603 -0.2781  0.3967
  167TMC2     H 2603   4.569   0.455  12.955 -0.4926 -0.9470 -0.3253
  167TMC2    H1 2604   0.104   0.169  12.806  0.4704 -0.5029  0.5086
  167TMC2    H2 2605   4.620   0.096  13.168  1.1389 -1.6902 -0.8143
  167TMC2    C7 2606   0.008   4.712  12.968 -0.5163 -0.1482  0.0934
  167TMC2    C8 2607   4.524   0.329  13.188 -0.2540 -0.0871 -0.0750
  167TMC2    O1 2608   4.728   4.651  13.071  0.3262 -0.3862 -0.0231
  167TMC2    O2 2609   4.461   0.257  13.264 -0.0947 -0.5016 -0.6319
  167TMC2    O5 2610   4.550   0.453  13.216 -0.3341  0.2820 -0.2808
  167TMC2    H5 2611   4.617   0.496  13.158 -0.4202 -0.3755 -0.8655
  168MPD2     C 2612   0.074   0.563  12.515  0.0320  0.1625 -0.0918
  168MPD2    C1 2613   0.109   0.432  12.541 -0.4236 -0.4256  0.3912
  168MPD2    C2 2614   0.138   0.355  12.425  0.2168  0.0539  0.4720
  168MPD2    C3 2615   0.139   0.406  12.300 -0.4877  0.0683  0.2453
  168MPD2    C4 2616   0.104   0.537  12.285  0.5690  0.2216  0.0744
  168MPD2    C5 2617   0.081   0.610  12.389  0.0060  0.1152  0.2444
  168MPD2     H 2618   0.150   0.248  12.433 -1.3205 -0.1685 -0.1576
  168MPD2    H1 2619   0.113   0.579  12.185 -1.4244  1.6472  0.5030
  168MPD2    H2 2620   0.050   0.629  12.597  0.3310  0.6216 -0.3742
  168MPD2    H3 2621   0.062   0.715  12.370  0.7795  0.4388  1.2916
  168MPD2     N 2622   0.155   0.332  12.184  0.6606 -0.3663 -0.4852
  168MPD2    H5 2623   0.133   0.374  12.094  0.9532  1.1680  0.1438
  168MPD2    N1 2624   0.106   0.370  12.671 -0.0345 -1.0031 -0.2980
  168MPD2    H7 2625   0.138   0.274  12.676  0.0591 -0.9138  0.8619
  169MPD1     C 2626   2.333   0.100   8.872 -0.5307 -0.6788  0.3709
  169MPD1    C1 2627   2.367   0.122   9.007 -0.6624  0.4355 -0.5287
  169MPD1    C2 2628   2.375   0.001   9.077  0.2070 -0.5328 -0.2723
  169MPD1    C3 2629   2.372   4.610   9.019  0.6233 -0.7022 -0.0370
  169MPD1    C4 2630   2.356   4.596   8.883 -1.1184  0.3775  0.0419
  169MPD1    C5 2631   2.337   4.712   8.815  0.4247  0.5993 -0.1792
  169MPD1     H 2632   2.392   0.011   9.184  1.8374 -0.9652 -0.5012
  169MPD1    H1 2633   2.350   4.503   8.829  2.6149 -0.0020  0.2576
  169MPD1    H2 2634   2.328   0.190   8.811  0.7327 -1.7734 -1.3470
  169MPD1    H3 2635   2.318   4.693   8.710 -2.9618 -0.4606  0.6023
  169MPD1     N 2636   2.402   4.501   9.094 -0.4037  0.2613 -0.0147
  169MPD1    H5 2637   2.440   4.518   9.187  0.3953  0.4527 -0.3725
  169MPD1    N1 2638   2.378   0.249   9.070  0.1760 -0.4491 -0.1855
  169MPD1    H6 2639   2.409   0.318   9.002  0.1515 -0.6171 -0.3651
  169MPD1    H7 2640   2.403   0.260   9.168 -4.0567 -3.0838  1.1864
  170MPD1     C 2641   1.454   2.601  13.093 -0.7511  0.1361 -0.9257
  170MPD1    C1 2642   1.349   2.688  13.097  0.2206 -0.6383 -0.2278
  170MPD1    C2 2643   1.234   2.653  13.162  0.4096 -0.4545 -0.2944
  170MPD1    C3 2644   1.211   2.522  13.207  0.5518  0.1844  0.4611
  170MPD1    C4 2645   1.308   2.429  13.178  0.6422 -0.0769 -0.1172
  170MPD1    C5 2646   1.428   2.473  13.135 -0.2990  0.9624  0.6963
  170MPD1     H 2647   1.162   2.734  13.172  2.0464  0.9022  0.5349
  170MPD1    H1 2648   1.302   2.325  13.210  0.8359 -0.1729 -0.3979
  170MPD1    H2 2649   1.550   2.630  13.053 -0.0406 -0.1067  0.6130
  170MPD1    H3 2650   1.512   2.407  13.121 -0.9558  0.3860 -0.5872
  170MPD1     N 2651   1.101   2.498  13.289 -0.1992  0.3443 -0.4354
  170MPD1    H5 2652   1.028   2.568  13.297  0.7932  1.4628 -1.1635
  170MPD1    N1 2653   1.358   2.807  13.020  0.2105  0.4439 -0.0611
  170MPD1    H6 2654   1.457   2.825  13.000  0.6143 -0.0996  1.4239
  170MPD1    H7 2655   1.310   2.890  13.054 -0.8318 -0.1877 -0.0056
  171MPD1     C 2656   4.072   3.879  15.586 -0.0535  0.2517  0.2871
  171MPD1    C1 2657   4.029   3.770  15.515  0.6828  0.4288  0.3106
  171MPD1    C2 2658   4.072   3.646  15.552  0.1883  0.1111 -0.3321
  171MPD1    C3 2659   4.151   3.620  15.658 -0.2876 -0.1968  0.0886
  171MPD1    C4 2660   4.194   3.729  15.728  0.0734 -0.4657  0.2889
  171MPD1    C5 2661   4.162   3.856  15.681  0.2338  0.2350  0.0346
  171MPD1     H 2662   4.060   3.563  15.484  1.3222 -1.5952  1.5739
  171MPD1    H1 2663   4.258   3.718  15.815 -0.8508 -1.3935  0.8410
  171MPD1    H2 2664   4.050   3.979  15.552  1.1980  0.6802  0.7356
  171MPD1    H3 2665   4.207   3.939  15.735  0.3299  0.2451 -0.0612
  171MPD1     N 2666   4.201   3.496  15.703 -0.1123 -0.1501  0.3479
  171MPD1    H5 2667   4.270   3.494  15.777  1.1865  0.6408 -0.8311
  171MPD1    N1 2668   3.949   3.791  15.398  0.0809 -0.6733 -0.8745
  171MPD1    H6 2669   3.882   3.715  15.383 -1.5935  1.0352 -2.1278
  171MPD1    H7 2670   3.896   3.878  15.399  1.1534 -0.0542  1.5299
  172MPD1     C 2671   3.475   2.460  17.399 -0.4491 -0.1445 -0.0980
  172MPD1    C1 2672   3.350   2.482  17.452 -0.2553 -0.0369  0.5022
  172MPD1    C2 2673   3.351   2.550  17.572 -0.5238 -0.9140  0.3208
  172MPD1    C3 2674   3.468   2.581  17.636  0.2784 -0.0114 -0.2033
  172MPD1    C4 2675   3.592   2.546  17.578 -0.2642  0.1207 -0.2673
  172MPD1    C5 2676   3.594   2.480  17.458 -0.0176  0.3304  0.4852
  172MPD1     H 2677   3.257   2.570  17.620 -0.3261 -1.6110  0.9925
  172MPD1    H1 2678   3.687   2.581  17.617  0.3623 -0.5271 -1.2298
  172MPD1    H2 2679   3.491   2.404  17.308 -1.1246  0.7314 -0.7593
  172MPD1    H3 2680   3.692   2.469  17.413 -0.1003 -2.2921  0.9555
  172MPD1     N 2681   3.477   2.630   0.014 -1.0201  0.1999 -0.7220
  172MPD1    H5 2682   3.568   2.631   0.059 -1.1435 -0.9341 -0.4452
  172MPD1    N1 2683   3.230   2.433  17.397  0.5712  0.3391 -0.3573
  172MPD1    H6 2684   3.223   2.443  17.296 -0.1919  0.9098 -0.2465
  172MPD1    H7 2685   3.143   2.464  17.440  1.2728  1.1547  0.4738
  173MPD1     C 2686   0.215   2.784  13.560  0.2596  0.7135  0.0531
  173MPD1    C1 2687   0.086   2.803  13.595 -0.2700  0.2124 -0.3471
  173MPD1    C2 2688   0.053   2.784  13.730  0.1485 -0.1155  0.1557
  173MPD1    C3 2689   0.151   2.755  13.829  0.3127 -0.0322  0.6512
  173MPD1    C4 2690   0.282   2.746  13.790 -0.3059  0.1182 -0.0552
  173MPD1    C5 2691   0.311   2.770  13.660  0.1931  0.0290 -0.6177
  173MPD1     H 2692   4.687   2.780  13.759 -0.1150  0.7719 -0.6793
  173MPD1    H1 2693   0.360   2.731  13.863 -0.1628 -0.9481 -0.4339
  173MPD1    H2 2694   0.247   2.798  13.458 -1.0278  1.7793 -0.2006
  173MPD1    H3 2695   0.414   2.766  13.627  0.6012  0.0584  0.6564
  173MPD1     N 2696   0.115   2.726  13.958  0.5577 -0.1862 -0.1872
  173MPD1    H5 2697   0.194   2.704  14.017  0.5914  0.6218  0.0571
  173MPD1    N1 2698   4.722   2.827  13.499  0.0609  0.2229  0.5555
  173MPD1    H6 2699   4.627   2.848  13.527  0.6099  0.5474  2.1592
  173MPD1    H7 2700   0.000   2.894  13.424  0.2813  1.6028  1.8460
  174MPD1     C 2701   0.674   2.235  14.393  0.4998 -0.0185  0.6178
  174MPD1    C1 2702   0.563   2.217  14.474 -0.4049 -0.0560  0.3772
  174MPD1    C2 2703   0.443   2.288  14.446  0.3447  0.0047  0.0104
  174MPD1    C3 2704   0.441   2.374  14.331 -0.1544  0.5977  0.1874
  174MPD1    C4 2705   0.552   2.381  14.249 -0.2955  0.2800 -0.1012
  174MPD1    C5 2706   0.663   2.308  14.278  0.3357 -0.2371  0.3188
  174MPD1     H 2707   0.357   2.276  14.511  0.1908 -0.4581 -0.2771
  174MPD1    H1 2708   0.556   2.431  14.152 -0.1836  1.2090  0.3843
  174MPD1    H2 2709   0.768   2.186  14.413  0.5363 -0.6283 -1.0517
  174MPD1    H3 2710   0.745   2.314  14.206 -1.0024 -0.4997 -1.2146
  174MPD1     N 2711   0.325   2.444  14.287  0.3707 -0.5749  0.4490
  174MPD1    H5 2712   0.329   2.518  14.218  1.3543 -1.9711 -0.9803
  174MPD1    N1 2713   0.576   2.138  14.592  0.6489 -0.5239 -0.7270
  174MPD1    H6 2714   0.656   2.079  14.570  0.1788 -1.6694  0.6804
  174MPD1    H7 2715   0.487   2.090  14.604 -0.9480  2.0785 -2.0706
  175MPD1     C 2716   3.831   3.420  15.672  0.0018 -0.1549 -0.1706
  175MPD1    C1 2717   3.743   3.515  15.727  0.4011  0.3714  0.6217
  175MPD1    C2 2718   3.672   3.487  15.843 -1.0771 -0.1327 -0.0828
  175MPD1    C3 2719   3.678   3.359  15.892  0.6527 -0.3863  0.5617
  175MPD1    C4 2720   3.753   3.261  15.832  0.4403 -0.5888  0.6223
  175MPD1    C5 2721   3.832   3.293  15.723  0.4815 -0.1054 -0.3699
  175MPD1     H 2722   3.610   3.564  15.888 -0.7453 -1.3362  2.4316
  175MPD1    H1 2723   3.744   3.157  15.861  0.4831 -0.7445  0.0734
  175MPD1    H2 2724   3.886   3.441  15.581  2.0508 -3.0170  0.3997
  175MPD1    H3 2725   3.897   3.215  15.684  1.0729 -1.2422  2.8332
  175MPD1     N 2726   3.586   3.315  15.990  0.5434 -0.6189  0.1825
  175MPD1    H5 2727   3.591   3.220  16.025 -1.9067 -1.0752 -0.6702
  175MPD1    N1 2728   3.739   3.647  15.668  0.0612 -0.5624  0.0554
  175MPD1    H6 2729   3.771   3.650  15.572 -1.7249  0.9646 -0.4823
  175MPD1    H7 2730   3.646   3.688  15.666 -0.5867 -2.2139 -2.7027
  176MPD1     C 2731   3.974   1.097  16.914 -0.0411  0.1657  0.1888
  176MPD1    C1 2732   4.091   1.029  16.921 -0.1396  0.6514  0.4690
  176MPD1    C2 2733   4.175   1.051  17.029  0.0881 -0.2070 -0.1234
  176MPD1    C3 2734   4.142   1.146  17.132  0.0726  0.1458 -0.2780
  176MPD1    C4 2735   4.028   1.229  17.103 -0.3866  0.0348 -0.0735
  176MPD1    C5 2736   3.947   1.204  16.998  0.5418  0.3468  0.0024
  176MPD1     H 2737   4.262   0.990  17.045  0.6414  1.5895  3.6563
  176MPD1    H1 2738   4.001   1.312  17.168  0.3937  0.9053 -0.8757
  176MPD1    H2 2739   3.904   1.081  16.833 -1.2684 -0.6468  1.4262
  176MPD1    H3 2740   3.858   1.263  16.981  1.8747  2.4319  0.3224
  176MPD1     N 2741   4.231   1.171  17.241  0.1479  0.0217  0.3224
  176MPD1    H5 2742   4.313   1.111  17.242  0.6118  0.6969  1.3875
  176MPD1    N1 2743   4.124   0.924  16.832 -0.6658 -0.4237  0.4214
  176MPD1    H6 2744   4.090   0.924  16.736  0.2132 -1.2851  0.1104
  176MPD1    H7 2745   4.219   0.890  16.841 -0.7022 -0.2013  1.6672
  177MPD1     C 2746   3.224   0.798  10.396 -0.6643 -0.3301 -0.2284
  177MPD1    C1 2747   3.324   0.867  10.327  0.2182 -0.3504 -0.0925
  177MPD1    C2 2748   3.305   0.886  10.194  0.2690  0.0297  0.3899
  177MPD1    C3 2749   3.199   0.840  10.116  0.0064  0.3276  0.0512
  177MPD1    C4 2750   3.105   0.767  10.186 -0.3682 -0.5420 -0.3677
  177MPD1    C5 2751   3.120   0.748  10.322  0.2751 -0.1371  0.4539
  177MPD1     H 2752   3.382   0.938  10.140 -1.1906  1.0487 -0.7001
  177MPD1    H1 2753   3.028   0.706  10.140 -4.1464  1.1889  3.7314
  177MPD1    H2 2754   3.241   0.785  10.502  0.1867 -1.8362 -0.5452
  177MPD1    H3 2755   3.041   0.691  10.369  1.1630 -0.5225  1.4753
  177MPD1     N 2756   3.191   0.859   9.974  0.2264 -0.1529  0.6141
  177MPD1    H5 2757   3.246   0.934   9.936 -1.4433  1.8941  2.2568
  177MPD1    N1 2758   3.442   0.908  10.384  0.1370  0.0245 -0.4505
  177MPD1    H6 2759   3.439   0.877  10.480  2.1131  0.5735 -0.2124
  177MPD1    H7 2760   3.454   1.008  10.368  0.4793  0.3052  1.6519
  178MPD1     C 2761   0.320   2.701  16.986 -0.4586 -1.3696 -0.2313
  178MPD1    C1 2762   0.428   2.707  16.894  0.1206 -0.1884 -0.9831
  178MPD1    C2 2763   0.516   2.599  16.891  0.8014  1.1834 -0.1698
  178MPD1    C3 2764   0.501   2.480  16.955 -0.4265  0.5810 -0.6409
  178MPD1    C4 2765   0.380   2.459  17.028 -0.5294 -0.1023 -0.2707
  178MPD1    C5 2766   0.303   2.572  17.047  0.0872  0.3223  0.6150
  178MPD1     H 2767   0.600   2.607  16.824  0.7818  0.2392 -0.3011
  178MPD1    H1 2768   0.352   2.365  17.073  0.9891 -1.3405 -1.9104
  178MPD1    H2 2769   0.249   2.784  16.985 -1.0837 -1.9111 -0.7712
  178MPD1    H3 2770   0.216   2.571  17.111 -0.1201 -1.1041  0.3111
  178MPD1     N 2771   0.584   2.367  16.941  0.7163  0.4151  0.2009
  178MPD1    H5 2772   0.546   2.278  16.970 -1.0840  0.7154 -1.2686
  178MPD1    N1 2773   0.480   2.836  16.858 -0.2660 -0.4576 -0.0159
  178MPD1    H6 2774   0.401   2.893  16.830 -1.8590 -1.7063  1.9702
  178MPD1    H7 2775   0.545   2.827  16.780  0.1745 -2.5273  0.5736
  179MPD1     C 2776   0.703   0.187  15.693 -0.8776  0.1445 -0.6049
  179MPD1    C1 2777   0.778   0.135  15.802  0.1927  0.0398  0.9044
  179MPD1    C2 2778   0.734   0.017  15.859  0.0860  0.1792 -0.1239
  179MPD1    C3 2779   0.619   4.688  15.821  0.2274  0.0997 -0.1858
  179MPD1    C4 2780   0.551   0.001  15.713 -0.9082 -0.1900  0.4705
  179MPD1    C5 2781   0.598   0.109  15.643  0.2196  1.0204 -0.0197
  179MPD1     H 2782   0.781   4.722  15.952  1.8935  1.8154 -0.4518
  179MPD1    H1 2783   0.460   4.701  15.669  0.2298 -1.7789 -0.5118
  179MPD1    H2 2784   0.737   0.279  15.647 -2.3769  0.4381 -1.1006
  179MPD1    H3 2785   0.542   0.133  15.553 -0.6838  1.4093  0.6469
  179MPD1     N 2786   0.568   4.571  15.893 -0.3539  0.6189 -0.3178
  179MPD1    H5 2787   0.623   4.550  15.976  0.8524 -1.7836 -1.7225
  179MPD1    N1 2788   0.878   0.210  15.864  0.2714 -0.3515  0.2723
  179MPD1    H6 2789   0.925   0.273  15.800 -0.5782  0.0323  0.0287
  179MPD1    H7 2790   0.953   0.149  15.897  1.1234  0.7864  0.4363
  180MPD1     C 2791   0.066   1.234  15.076  1.1853 -0.0800 -0.1648
  180MPD1    C1 2792   0.180   1.220  14.997 -0.0427  0.1544 -0.3655
  180MPD1    C2 2793   0.164   1.178  14.865 -0.4850 -0.5951  0.2732
  180MPD1    C3 2794   0.035   1.144  14.813  1.1700 -0.3568 -0.3711
  180MPD1    C4 2795   4.664   1.163  14.897 -0.4587 -0.4457 -0.3352
  180MPD1    C5 2796   4.677   1.205  15.024 -0.4157 -0.1510 -0.0948
  180MPD1     H 2797   0.249   1.177  14.798 -0.1075  0.5873  0.7487
  180MPD1    H1 2798   4.564   1.144  14.860 -0.1717  1.1379 -1.9693
  180MPD1    H2 2799   0.067   1.277  15.176  2.4430  1.5129 -0.8669
  180MPD1    H3 2800   4.591   1.225  15.086 -1.3279  2.2352 -2.1222
  180MPD1     N 2801   0.028   1.097  14.682 -0.0387 -0.0939  0.0846
  180MPD1    H5 2802   0.120   1.092  14.639  0.6979  1.6888  1.4034
  180MPD1    N1 2803   0.302   1.276  15.040 -0.1989  0.6494  0.2615
  180MPD1    H6 2804   0.387   1.242  14.997 -0.9097 -0.5976 -0.1610
  180MPD1    H7 2805   0.310   1.284  15.142 -0.8085  4.9327 -0.0238
  181MPD1     C 2806   1.758   2.555  10.351 -0.1601 -0.1044 -0.6186
  181MPD1    C1 2807   1.758   2.618  10.471  0.3359 -0.7450  0.0412
  181MPD1    C2 2808   1.844   2.725  10.486  0.5737  0.4861  0.1870
  181MPD1    C3 2809   1.917   2.772  10.373  0.1263  0.0875 -0.0974
  181MPD1    C4 2810   1.902   2.710  10.252 -0.3216 -0.6230 -0.4775
  181MPD1    C5 2811   1.831   2.598  10.244 -0.8596  0.5379  0.3837
  181MPD1     H 2812   1.864   2.776  10.579  1.2275 -1.7649  1.2754
  181MPD1    H1 2813   1.953   2.747  10.164  4.5249  0.7641  2.9283
  181MPD1    H2 2814   1.693   2.470  10.334  0.3279 -0.2812 -1.6225
  181MPD1    H3 2815   1.809   2.550  10.149  0.3810  2.5519 -0.9132
  181MPD1     N 2816   2.005   2.881  10.379 -0.1318 -0.0884  0.4591
  181MPD1    H5 2817   2.055   2.887  10.290 -0.2185 -2.0505  0.2891
  181MPD1    N1 2818   1.698   2.557  10.577  0.3433  0.3440  0.5724
  181MPD1    H6 2819   1.613   2.505  10.557  0.1892  0.6789  0.3517
  181MPD1    H7 2820   1.676   2.626  10.649  0.2251 -0.0122  0.8720
  182MPD1     C 2821   3.128   2.352   1.823  0.0766 -0.2705 -0.2529
  182MPD1    C1 2822   3.175   2.312   1.698 -0.5000  0.3374  0.2257
  182MPD1    C2 2823   3.083   2.323   1.590  0.0154  0.0719  0.0327
  182MPD1    C3 2824   2.953   2.369   1.612 -0.7596  0.3325  0.3661
  182MPD1    C4 2825   2.918   2.418   1.731  0.0794  0.5798  0.9082
  182MPD1    C5 2826   3.004   2.403   1.836 -1.0778  0.0235  0.2775
  182MPD1     H 2827   3.125   2.294   1.495 -1.0643  3.0197 -1.3132
  182MPD1    H1 2828   2.822   2.464   1.747 -0.8960 -0.8337 -0.8610
  182MPD1    H2 2829   3.196   2.341   1.907  0.6424  0.5792 -0.5934
  182MPD1    H3 2830   2.979   2.453   1.929  1.4087  0.1884  0.8512
  182MPD1     N 2831   2.854   2.381   1.510  0.1131 -0.2723  0.2812
  182MPD1    H5 2832   2.764   2.406   1.551  0.5139  0.7843  0.5197
  182MPD1    N1 2833   3.307   2.261   1.676  0.0191 -0.2511 -0.2831
  182MPD1    H6 2834   3.312   2.204   1.593  2.7066 -1.9828  1.0727
  182MPD1    H7 2835   3.324   2.199   1.755  1.8177 -0.4110 -0.8039
  183MPD1     C 2836   3.127   2.569   8.462  0.1011  1.0673 -0.3325
  183MPD1    C1 2837   3.080   2.700   8.460 -0.4562  0.7723 -0.2793
  183MPD1    C2 2838   3.104   2.785   8.568  0.1424 -0.0237  0.1708
  183MPD1    C3 2839   3.165   2.736   8.679 -0.4825 -0.2258 -0.7076
  183MPD1    C4 2840   3.196   2.605   8.682  0.6687 -0.1265  0.2581
  183MPD1    C5 2841   3.183   2.522   8.573 -0.1491  0.8766 -0.1467
  183MPD1     H 2842   3.081   2.890   8.555  1.8565 -0.0043 -2.6395
  183MPD1    H1 2843   3.230   2.552   8.771 -0.4047  0.9748  1.3233
  183MPD1    H2 2844   3.119   2.513   8.370 -0.0823  0.7845 -0.1405
  183MPD1    H3 2845   3.209   2.417   8.582 -2.9971  0.3778  2.1921
  183MPD1     N 2846   3.184   2.825   8.787 -0.2656 -0.2959  0.3625
  183MPD1    H5 2847   3.151   2.920   8.773  2.2380  0.3917 -0.9016
  183MPD1    N1 2848   3.049   2.750   8.334  0.1765 -0.6051  0.1545
  183MPD1    H6 2849   2.997   2.678   8.285  0.9766 -0.9198 -0.2334
  183MPD1    H7 2850   2.977   2.821   8.329  0.9638  0.1181 -0.9870
  184MPD1     C 2851   2.564   0.053   9.895 -0.1140 -1.0475  0.3524
  184MPD1    C1 2852   2.668   0.130   9.930  0.3529  0.1987 -0.3465
  184MPD1    C2 2853   2.668   0.257   9.871  0.6288  0.2384 -0.4252
  184MPD1    C3 2854   2.580   0.299   9.773  0.1716  0.3779  0.5936
  184MPD1    C4 2855   2.484   0.208   9.732 -0.0670  0.1017 -0.0310
  184MPD1    C5 2856   2.484   0.087   9.790 -0.1124 -0.0721 -0.9242
  184MPD1     H 2857   2.735   0.331   9.915  0.2201  0.2459  0.1737
  184MPD1    H1 2858   2.410   0.222   9.654 -0.8940  0.8356  0.8977
  184MPD1    H2 2859   2.545   4.698   9.948 -1.4206 -0.5387  0.7807
  184MPD1    H3 2860   2.405   0.025   9.749 -1.2990  0.9070 -0.1271
  184MPD1     N 2861   2.568   0.431   9.722  0.6670  0.0572  0.0989
  184MPD1    H5 2862   2.483   0.453   9.671  0.8444  0.1046 -0.1742
  184MPD1    N1 2863   2.752   0.102  10.035  0.1115  0.1567  0.2948
  184MPD1    H6 2864   2.842   0.145  10.016  0.2800 -1.0770 -1.7430
  184MPD1    H7 2865   2.758   0.003  10.060 -2.2940 -0.4549 -1.4929
  185MPD1     C 2866   2.166   0.860   8.975  0.1411  0.7145  0.0895
  185MPD1    C1 2867   2.106   0.793   9.077 -0.1542  0.3571 -0.2913
  185MPD1    C2 2868   2.174   0.784   9.199  0.1355 -0.0695 -0.3230
  185MPD1    C3 2869   2.297   0.853   9.218 -0.0320  0.2108  0.8045
  185MPD1    C4 2870   2.352   0.925   9.115 -0.1049 -1.2595  0.2263
  185MPD1    C5 2871   2.291   0.924   8.998 -0.7975 -0.4506  0.6028
  185MPD1     H 2872   2.126   0.731   9.281 -0.2852  0.0489 -0.4943
  185MPD1    H1 2873   2.448   0.973   9.127 -0.0043 -1.8842  1.8283
  185MPD1    H2 2874   2.113   0.878   8.881 -0.2976  0.6868  0.3292
  185MPD1    H3 2875   2.334   0.985   8.920 -2.1130 -1.9476 -1.2983
  185MPD1     N 2876   2.376   0.854   9.335 -0.2861  0.2961 -0.2415
  185MPD1    H5 2877   2.462   0.906   9.327  0.2608 -0.4588  0.6980
  185MPD1    N1 2878   1.970   0.771   9.069 -0.1450  0.5659  0.2248
  185MPD1    H6 2879   1.954   0.737   8.975 -0.4451 -2.4762  1.3674
  185MPD1    H7 2880   1.949   0.697   9.135  0.0732  1.5320  1.3893
  186MPD1     C 2881   1.300   4.373  16.082  0.1309  0.3144 -0.2458
  186MPD1    C1 2882   1.328   4.482  16.002 -0.2376 -0.4579  0.5151
  186MPD1    C2 2883   1.343   4.606  16.057 -0.0099 -0.7587  0.0849
  186MPD1    C3 2884   1.306   4.630  16.185  0.1894 -0.1584 -0.1765
  186MPD1    C4 2885   1.266   4.518  16.261  0.4008  0.5362 -0.0003
  186MPD1    C5 2886   1.269   4.390  16.212  0.0509  0.8466 -0.3157
  186MPD1     H 2887   1.378   4.691  16.000  2.1057  0.1404  2.7793
  186MPD1    H1 2888   1.237   4.531  16.365  0.2862  1.4783 -0.1557
  186MPD1    H2 2889   1.301   4.274  16.036  0.9672 -1.2883  3.2184
  186MPD1    H3 2890   1.245   4.308  16.279  0.5240 -1.0174 -2.4410
  186MPD1     N 2891   1.298   0.020  16.245  0.2389  0.8071  0.3069
  186MPD1    H5 2892   1.254   0.023  16.336  2.2973  2.4793  1.2450
  186MPD1    N1 2893   1.363   4.464  15.871 -0.7789  0.3418 -0.1476
  186MPD1    H6 2894   1.348   4.547  15.813  0.8281 -0.5374 -1.8415
  186MPD1    H7 2895   1.307   4.391  15.827  1.6391 -1.7490  0.2688
  187MPD1     C 2896   0.798   1.778  17.397 -0.6276 -0.4160 -0.4085
  187MPD1    C1 2897   0.679   1.706  17.422 -0.3160 -0.0896  0.2740
  187MPD1    C2 2898   0.581   1.705  17.330 -0.0808  0.1675 -0.1982
  187MPD1    C3 2899   0.577   1.796  17.232 -0.1030 -0.3161 -0.2544
  187MPD1    C4 2900   0.690   1.877  17.215  0.3915 -0.8225  0.0231
  187MPD1    C5 2901   0.803   1.861  17.289  0.0205 -0.2474 -0.7543
  187MPD1     H 2902   0.489   1.650  17.350 -0.4157  1.0155  0.5418
  187MPD1    H1 2903   0.695   1.958  17.143 -0.5098  0.9139  1.9103
  187MPD1    H2 2904   0.881   1.762  17.464 -0.8303 -1.0360 -0.3040
  187MPD1    H3 2905   0.888   1.920  17.258  0.2947 -0.3272 -0.1608
  187MPD1     N 2906   0.473   1.825  17.141  0.1290 -0.1023 -0.7870
  187MPD1    H5 2907   0.489   1.905  17.081 -0.4194 -0.6591 -1.6860
  187MPD1    N1 2908   0.667   1.618  17.522 -0.2869 -0.6237  0.0672
  187MPD1    H6 2909   0.688   1.522  17.496 -0.7713 -0.1355 -2.0765
  187MPD1    H7 2910   0.736   1.631  17.596  0.5374  0.7980 -0.9654
  188MPD1     C 2911   0.142   2.250  10.030  0.5808 -0.0719 -0.5160
  188MPD1    C1 2912   0.233   2.167   9.970  0.6309 -1.0020  0.1409
  188MPD1    C2 2913   0.251   2.040  10.022 -0.0855 -0.5921  0.3743
  188MPD1    C3 2914   0.186   1.998  10.138 -0.3708 -0.2361  0.2525
  188MPD1    C4 2915   0.102   2.084  10.202  0.5394 -0.1388 -0.0046
  188MPD1    C5 2916   0.086   2.206  10.149 -0.1698 -0.2305  0.0962
  188MPD1     H 2917   0.322   1.978   9.969 -0.6351  0.2607 -1.3559
  188MPD1    H1 2918   0.032   2.056  10.281  1.4934 -0.6528  0.6550
  188MPD1    H2 2919   0.135   2.356  10.007  0.3996 -0.0250 -0.2426
  188MPD1    H3 2920   0.023   2.278  10.198  0.4148  1.5986 -1.8396
  188MPD1     N 2921   0.182   1.861  10.182  0.4681 -0.2975 -0.0659
  188MPD1    H5 2922   0.134   1.843  10.269  1.2315 -2.3575 -0.0739
  188MPD1    N1 2923   0.307   2.200   9.857  0.6405  0.7840  0.2193
  188MPD1    H6 2924   0.251   2.253   9.791 -1.6278 -0.4091  1.1872
  188MPD1    H7 2925   0.346   2.114   9.819  0.9906  1.0032  0.0832
  189MPD1     C 2926   1.727   3.045   0.455  0.4814  0.2551  0.1005
  189MPD1    C1 2927   1.786   3.161   0.423 -0.9535  0.3715 -0.3977
  189MPD1    C2 2928   1.745   3.225   0.304  0.1557  0.0273  0.6516
  189MPD1    C3 2929   1.666   3.160   0.210 -0.3359 -0.9782 -0.3199
  189MPD1    C4 2930   1.625   3.039   0.236  0.9132  0.7632 -0.1951
  189MPD1    C5 2931   1.659   2.979   0.350  0.1277 -0.9502  0.5465
  189MPD1     H 2932   1.788   3.321   0.278 -0.4660  0.6647  1.9775
  189MPD1    H1 2933   1.575   2.979   0.161  1.2538 -0.7664  0.8052
  189MPD1    H2 2934   1.752   2.984   0.541  0.9861  0.6923  0.2649
  189MPD1    H3 2935   1.632   2.875   0.365  1.6288 -1.0579  2.4156
  189MPD1     N 2936   1.643   3.236   0.093  0.6739 -0.5812  0.3700
  189MPD1    H5 2937   1.678   3.330   0.105 -0.4742 -0.0027 -0.7740
  189MPD1    N1 2938   1.850   3.223   0.535  0.5825 -0.3536 -0.7622
  189MPD1    H6 2939   1.902   3.153   0.589 -0.2494 -1.5853 -1.5585
  189MPD1    H7 2940   1.916   3.291   0.498  1.8574 -0.9567  0.3912
  190MPD1     C 2941   0.449   1.495  15.262  0.4387 -0.5936 -0.0454
  190MPD1    C1 2942   0.421   1.373  15.325 -0.0409 -0.7196  0.2793
  190MPD1    C2 2943   0.520   1.289  15.346 -0.0562  0.4926 -0.3077
  190MPD1    C3 2944   0.648   1.322  15.332  0.3457  0.0708 -0.2887
  190MPD1    C4 2945   0.683   1.451  15.296 -0.8385  0.3755  0.0328
  190MPD1    C5 2946   0.580   1.539  15.260  0.1641  0.3777  0.0251
  190MPD1     H 2947   0.499   1.189  15.381 -0.2204  0.9462  0.9079
  190MPD1    H1 2948   0.786   1.483  15.289 -0.8410  0.9435  2.7154
  190MPD1    H2 2949   0.370   1.556  15.219 -1.0177 -1.5637  1.2508
  190MPD1    H3 2950   0.611   1.639  15.235 -0.7743  0.7252  0.2600
  190MPD1     N 2951   0.746   1.220  15.370 -0.2518 -0.1690 -0.1161
  190MPD1    H5 2952   0.717   1.149  15.437 -2.9933 -0.4741 -1.6143
  190MPD1    N1 2953   0.295   1.322  15.331  1.0168  0.4618 -0.1891
  190MPD1    H6 2954   0.223   1.392  15.349  0.8740  0.1618  0.4018
  190MPD1    H7 2955   0.275   1.255  15.405 -1.1115  1.6449  0.3251
  191MPD1     C 2956   0.329   2.379  13.275  0.3545  0.4132  0.2401
  191MPD1    C1 2957   0.230   2.462  13.326 -0.0606 -0.2420 -0.0459
  191MPD1    C2 2958   0.122   2.490  13.240  0.5413  0.4270  0.2326
  191MPD1    C3 2959   0.119   2.450  13.106 -0.6884 -0.4858  1.4017
  191MPD1    C4 2960   0.221   2.375  13.056  0.0058 -0.5298 -0.1222
  191MPD1    C5 2961   0.321   2.340  13.147 -0.4935 -0.1668 -0.5765
  191MPD1     H 2962   0.048   2.557  13.281 -0.7121 -1.0490  0.3609
  191MPD1    H1 2963   0.233   2.337  12.955 -0.0934 -0.5471 -0.1271
  191MPD1    H2 2964   0.419   2.355  13.331 -0.2638  1.3552  1.6552
  191MPD1    H3 2965   0.405   2.281  13.113 -1.8767 -1.3246 -1.9955
  191MPD1     N 2966   0.008   2.489  13.029 -0.0528  0.5582  0.0345
  191MPD1    H5 2967   4.673   2.542  13.075 -1.0758 -1.6247  0.9022
  191MPD1    N1 2968   0.219   2.494  13.458 -0.4147 -0.3066 -0.8264
  191MPD1    H6 2969   0.187   2.589  13.476  1.0090 -0.2513  1.4755
  191MPD1    H7 2970   0.311   2.499  13.503 -1.5516  1.6043  1.2722
  192MPD1     C 2971   3.832   2.833  13.115 -0.6491 -0.7130 -0.5958
  192MPD1    C1 2972   3.882   2.705  13.127  0.3181 -0.1070 -0.4329
  192MPD1    C2 2973   3.998   2.673  13.061  0.2852 -0.3578 -0.0396
  192MPD1    C3 2974   4.069   2.763  12.991 -1.2018 -0.2570  0.3726
  192MPD1    C4 2975   4.008   2.886  12.971 -0.8478 -0.2215 -0.2385
  192MPD1    C5 2976   3.883   2.916  13.024 -0.3088  0.3765 -0.0077
  192MPD1     H 2977   4.041   2.574  13.068 -0.0915 -0.3627  2.1643
  192MPD1    H1 2978   4.058   2.965  12.917 -1.7377 -1.0219 -2.2133
  192MPD1    H2 2979   3.747   2.875  13.168 -0.1232 -0.8068  0.3124
  192MPD1    H3 2980   3.839   3.014  13.012 -3.0425 -0.7989  0.2759
  192MPD1     N 2981   4.185   2.735  12.919  0.5534 -0.5719  0.2309
  192MPD1    H5 2982   4.224   2.811  12.865  0.8425  1.0142  2.6770
  192MPD1    N1 2983   3.820   2.620  13.218  0.2586  0.2082  0.3799
  192MPD1    H6 2984   3.731   2.655  13.252  0.7625  0.7265  1.1453
  192MPD1    H7 2985   3.804   2.525  13.184  3.5762 -0.5600  0.9942
  193MPD1     C 2986   4.074   3.281  16.022  0.5666  0.6161  0.1113
  193MPD1    C1 2987   4.052   3.398  16.078  0.2162 -0.4088  0.6783
  193MPD1    C2 2988   4.112   3.437  16.194  0.0047 -0.3850  0.0851
  193MPD1    C3 2989   4.176   3.342  16.268 -0.5217  0.4455 -0.2188
  193MPD1    C4 2990   4.181   3.215  16.222  0.4402  0.1437 -0.4406
  193MPD1    C5 2991   4.136   3.184  16.096 -0.0445  0.2656 -1.3479
  193MPD1     H 2992   4.082   3.530  16.241 -1.4170 -1.5808  1.5685
  193MPD1    H1 2993   4.229   3.138  16.280 -0.1417 -0.3155 -0.5763
  193MPD1    H2 2994   4.027   3.262  15.926  1.1807 -0.8070  0.1016
  193MPD1    H3 2995   4.151   3.085  16.055  1.3165  0.7061 -1.9233
  193MPD1     N 2996   4.234   3.369  16.398  0.7435 -0.6717 -0.1512
  193MPD1    H5 2997   4.280   3.288  16.437 -4.1612 -1.6278  3.5552
  193MPD1    N1 2998   3.992   3.496  15.997  0.7187  0.1657 -0.5903
  193MPD1    H6 2999   3.921   3.451  15.939  0.3845 -0.8117  0.5849
  193MPD1    H7 3000   3.951   3.566  16.058 -0.3399 -0.2098 -0.8790
  194MPD1     C 3001   2.110   0.574  17.138  0.1707  0.0560  0.0153
  194MPD1    C1 3002   2.125   0.546  17.274 -0.1269  0.3154 -0.8221
  194MPD1    C2 3003   2.148   0.409  17.309 -0.7069 -0.8317 -0.0154
  194MPD1    C3 3004   2.143   0.315  17.211  0.8652  0.3126  0.0273
  194MPD1    C4 3005   2.116   0.346  17.079 -0.3595 -0.3588 -0.0128
  194MPD1    C5 3006   2.105   0.479  17.045 -0.3419 -0.0299 -0.1910
  194MPD1     H 3007   2.178   0.380  17.409  0.6980 -0.5238 -0.3535
  194MPD1    H1 3008   2.109   0.268  17.004  1.0900 -0.3475 -0.1723
  194MPD1    H2 3009   2.092   0.677  17.108  0.2939  0.4159  1.1473
  194MPD1    H3 3010   2.075   0.505  16.945  1.1431  1.7280 -0.1626
  194MPD1     N 3011   2.174   0.175  17.234 -0.0763  0.4863 -0.6769
  194MPD1    H5 3012   2.178   0.117  17.150  0.4497 -0.1303 -0.2319
  194MPD1    N1 3013   2.155   0.652  17.363  0.5872 -0.3813  0.0873
  194MPD1    H6 3014   2.114   0.640  17.455  2.1880 -2.0000  0.5844
  194MPD1    H7 3015   2.134   0.743  17.321 -0.6526 -0.1125  1.2895
  195MPD1     C 3016   4.007   2.903  16.910  0.2423 -0.2772  0.2988
  195MPD1    C1 3017   3.903   2.815  16.943 -0.1081  0.2704 -0.0268
  195MPD1    C2 3018   3.926   2.727  17.050  0.1379  0.1080  0.8666
  195MPD1    C3 3019   4.054   2.727  17.113 -0.6688  0.0589  0.2459
  195MPD1    C4 3020   4.157   2.807  17.067 -0.4485  0.4623 -0.1574
  195MPD1    C5 3021   4.128   2.901  16.979  0.8142 -0.4109 -0.4434
  195MPD1     H 3022   3.851   2.657  17.086 -0.4268  0.0106 -0.4879
  195MPD1    H1 3023   4.252   2.804  17.120  0.0715 -1.4284 -1.1674
  195MPD1    H2 3024   3.994   2.978  16.832 -0.9914 -0.7521  0.0545
  195MPD1    H3 3025   4.205   2.971  16.949 -2.0902  3.6432  1.4497
  195MPD1     N 3026   4.091   2.645  17.213 -0.4194  0.2240  0.8889
  195MPD1    H5 3027   4.191   2.631  17.229 -0.5305 -1.7141 -0.1315
  195MPD1    N1 3028   3.793   2.796  16.862  0.0113 -0.3217  0.5807
  195MPD1    H6 3029   3.713   2.773  16.920 -0.2889  0.4235  0.4595
  195MPD1    H7 3030   3.768   2.879  16.809  0.3041  0.3938  1.5365
  196MPD1     C 3031   3.110   1.414   0.137 -0.0241 -0.4838 -0.3555
  196MPD1    C1 3032   3.233   1.478   0.123  0.1404 -0.4938 -0.0053
  196MPD1    C2 3033   3.307   1.520   0.236 -0.4164  0.5250 -0.6753
  196MPD1    C3 3034   3.251   1.516   0.369  0.0119  0.3186 -0.3432
  196MPD1    C4 3035   3.122   1.471   0.376 -1.0430 -0.0748  0.3753
  196MPD1    C5 3036   3.056   1.414   0.267 -0.4786  0.2191 -0.4378
  196MPD1     H 3037   3.410   1.550   0.223 -0.1687 -1.4075 -3.2677
  196MPD1    H1 3038   3.065   1.476   0.469  0.8205 -0.6354  1.5406
  196MPD1    H2 3039   3.058   1.368   0.053  0.3963 -1.7160  0.0555
  196MPD1    H3 3040   2.968   1.356   0.293 -0.9517  0.1815 -2.1363
  196MPD1     N 3041   3.322   1.570   0.485 -0.8316 -0.6922  0.8493
  196MPD1    H5 3042   3.274   1.566   0.574 -1.9229 -0.8392  0.2507
  196MPD1    N1 3043   3.302   1.477   0.001 -0.1022 -0.1554  0.4205
  196MPD1    H6 3044   3.364   1.557   0.005 -0.5293  0.1650  0.6565
  196MPD1    H7 3045   3.241   1.499  17.673 -0.1431 -0.5017  0.3574
  197MPD1     C 3046   2.794   3.043  17.185  0.1369 -0.0115 -0.4202
  197MPD1    C1 3047   2.836   3.132  17.273  0.3326 -1.3296 -0.2924
  197MPD1    C2 3048   2.854   3.268  17.231 -0.4465 -0.0548 -0.3343
  197MPD1    C3 3049   2.854   3.302  17.096 -0.1976 -0.3873 -0.0252
  197MPD1    C4 3050   2.798   3.210  17.010  0.0986 -0.2896 -0.2123
  197MPD1    C5 3051   2.756   3.083  17.061  0.3205 -0.1129  0.3925
  197MPD1     H 3052   2.897   3.339  17.301 -1.0056  1.8144 -1.9009
  197MPD1    H1 3053   2.793   3.222  16.902 -1.3221  0.9490 -0.0057
  197MPD1    H2 3054   2.770   2.943  17.219  2.5619 -0.4258  0.1278
  197MPD1    H3 3055   2.710   3.016  16.989 -0.9846  1.9209 -0.6591
  197MPD1     N 3056   2.904   3.427  17.039  0.3221  0.0538  0.2703
  197MPD1    H5 3057   2.911   3.432  16.938  2.3189  1.5115  0.4831
  197MPD1    N1 3058   2.884   3.096  17.403  0.2268 -0.0238  0.0487
  197MPD1    H6 3059   2.830   3.023  17.449 -0.0256 -0.6143 -1.1791
  197MPD1    H7 3060   2.893   3.177  17.464  0.3561  0.7826 -1.0476
  198MPD1     C 3061   4.262   2.204  15.375  0.1884  0.0119  0.4472
  198MPD1    C1 3062   4.245   2.312  15.463 -0.8254 -0.5814 -0.0826
  198MPD1    C2 3063   4.355   2.385  15.497  0.1328  0.3715 -0.2139
  198MPD1    C3 3064   4.479   2.365  15.424 -0.1768 -0.1664  0.6706
  198MPD1    C4 3065   4.484   2.270  15.330 -0.5748 -0.2011  0.1623
  198MPD1    C5 3066   4.380   2.188  15.311 -0.5881  1.1296  0.7092
  198MPD1     H 3067   4.365   2.459  15.575  2.9863  0.5826 -0.7539
  198MPD1    H1 3068   4.569   2.250  15.267 -0.2730  2.7479 -0.3612
  198MPD1    H2 3069   4.175   2.143  15.353  0.2158 -0.0527  0.5183
  198MPD1    H3 3070   4.389   2.111  15.236  2.7655  4.3782 -2.2225
  198MPD1     N 3071   4.590   2.456  15.441 -0.1769  0.3139 -0.1530
  198MPD1    H5 3072   4.586   2.523  15.517 -0.8624  1.4838 -1.2307
  198MPD1    N1 3073   4.126   2.309  15.538  0.4825 -0.0683  0.4992
  198MPD1    H6 3074   4.044   2.274  15.489  0.5953 -1.2396  1.1563
  198MPD1    H7 3075   4.101   2.406  15.557  0.8590  0.3288 -0.9858
  199MPD1     C 3076   2.807   3.456  10.517 -0.4741  0.5028 -0.0650
  199MPD1    C1 3077   2.813   3.386  10.401  0.2566  0.2513 -0.5034
  199MPD1    C2 3078   2.694   3.369  10.325  0.4923  0.0949 -0.0449
  199MPD1    C3 3079   2.577   3.417  10.378  0.1155 -0.8956 -0.8199
  199MPD1    C4 3080   2.575   3.477  10.504 -0.0701  0.0668  0.7325
  199MPD1    C5 3081   2.692   3.505  10.563  0.3049 -0.5108  0.8278
  199MPD1     H 3082   2.698   3.313  10.232 -0.2072 -2.2240  1.3049
  199MPD1    H1 3083   2.478   3.495  10.549  1.8817  2.8032  3.7701
  199MPD1    H2 3084   2.897   3.474  10.575 -2.1277  1.3565  2.2030
  199MPD1    H3 3085   2.695   3.555  10.658 -2.7763 -0.6721  1.0117
  199MPD1     N 3086   2.453   3.401  10.309  0.7351 -0.4934  0.3069
  199MPD1    H5 3087   2.362   3.419  10.349  0.2900  0.2338 -1.0033
  199MPD1    N1 3088   2.936   3.335  10.355 -0.3456  0.6643 -0.3050
  199MPD1    H6 3089   2.994   3.283  10.420 -3.5624 -1.3473  0.9177
  199MPD1    H7 3090   2.929   3.272  10.275  0.2894  1.1670 -0.7684
  200MPD1     C 3091   1.063   2.919  15.349  0.3123  0.3945 -0.1039
  200MPD1    C1 3092   1.004   2.918  15.223 -0.3426 -0.0840 -0.2790
  200MPD1    C2 3093   1.064   2.983  15.114 -0.4774  0.1852  0.0325
  200MPD1    C3 3094   1.179   3.061  15.125 -0.1061 -0.4370  0.2715
  200MPD1    C4 3095   1.230   3.064  15.251 -0.3243  0.1899 -0.7785
  200MPD1    C5 3096   1.174   2.999  15.361 -0.5780  0.5276 -1.1760
  200MPD1     H 3097   1.023   2.983  15.014  1.9981  0.7394 -0.9773
  200MPD1    H1 3098   1.324   3.112  15.275 -0.7487  0.2523  0.7354
  200MPD1    H2 3099   1.020   2.861  15.430 -2.1819 -0.3884 -1.9924
  200MPD1    H3 3100   1.222   3.011  15.457 -1.5235  2.2281 -0.9078
  200MPD1     N 3101   1.239   3.107  15.009 -0.0631 -0.6665 -0.2117
  200MPD1    H5 3102   1.197   3.081  14.920  1.4217 -0.8509 -0.8569
  200MPD1    N1 3103   0.897   2.834  15.210  0.4491  0.3943  0.2183
  200MPD1    H6 3104   0.835   2.837  15.129  2.0866  0.1438 -1.0422
  200MPD1    H7 3105   0.847   2.840  15.299  1.0118  0.3189  0.5409
  201MPD1     C 3106   3.470   2.907  13.161 -0.1622 -0.1172  0.2536
  201MPD1    C1 3107   3.419   2.836  13.271 -0.4625  0.3931  0.3224
  201MPD1    C2 3108   3.418   2.695  13.277  0.6060 -0.2913 -0.1006
  201MPD1    C3 3109   3.470   2.627  13.171  0.2502  0.2919  0.8589
  201MPD1    C4 3110   3.505   2.692  13.055 -0.0036 -0.2078 -0.1133
  201MPD1    C5 3111   3.509   2.830  13.056 -0.5276 -0.2186 -0.0883
  201MPD1     H 3112   3.389   2.646  13.369  3.4983 -0.1749  0.8840
  201MPD1    H1 3113   3.534   2.641  12.964  0.7832  1.7529 -0.9614
  201MPD1    H2 3114   3.478   3.015  13.152  0.2422 -0.2693 -1.1729
  201MPD1    H3 3115   3.538   2.886  12.967 -1.2862  0.7992  0.3020
  201MPD1     N 3116   3.467   2.486  13.188  0.1227  0.0359  0.4811
  201MPD1    H5 3117   3.412   2.461  13.269 -2.1951  0.0308 -1.0835
  201MPD1    N1 3118   3.403   2.902  13.393 -0.8303 -0.0722  0.6571
  201MPD1    H6 3119   3.343   2.842  13.450  0.0974 -0.8424  0.8139
  201MPD1    H7 3120   3.351   2.987  13.374 -0.0650  0.3836  0.6266
  202MPD1     C 3121   3.696   1.665   9.042 -0.5521  0.3616 -0.3648
  202MPD1    C1 3122   3.634   1.788   9.040 -0.0315  0.6865 -0.3230
  202MPD1    C2 3123   3.639   1.870   9.158  0.1197  0.0819  0.0364
  202MPD1    C3 3124   3.715   1.824   9.264 -0.2243 -0.1131 -0.1727
  202MPD1    C4 3125   3.769   1.698   9.259 -0.1408  0.0931  0.3982
  202MPD1    C5 3126   3.755   1.618   9.149  0.0243 -1.0700  0.1121
  202MPD1     H 3127   3.597   1.969   9.160 -0.4027 -0.1110 -1.2115
  202MPD1    H1 3128   3.823   1.653   9.342  1.8426  0.8384 -0.4947
  202MPD1    H2 3129   3.699   1.594   8.960  0.9946  0.2224 -0.1867
  202MPD1    H3 3130   3.800   1.520   9.147  2.0067 -0.1617  0.2486
  202MPD1     N 3131   3.732   1.904   9.378 -0.1839 -0.0722  0.4152
  202MPD1    H5 3132   3.786   1.859   9.452  0.5034 -2.4724 -1.5658
  202MPD1    N1 3133   3.519   1.803   8.963 -0.3910  0.5609 -0.7291
  202MPD1    H6 3134   3.514   1.902   8.941  0.3042  0.5612 -0.8560
  202MPD1    H7 3135   3.534   1.758   8.873  1.1929  1.3709 -0.8653
  203MPD1     C 3136   2.503   2.808  12.772  0.8949  0.0500 -0.0701
  203MPD1    C1 3137   2.509   2.744  12.649  0.1268 -0.5103 -0.0171
  203MPD1    C2 3138   2.570   2.620  12.644  0.4759  0.7571  0.1852
  203MPD1    C3 3139   2.643   2.569  12.751  0.1721 -0.3119 -0.1070
  203MPD1    C4 3140   2.649   2.641  12.869  0.1043 -0.0274 -0.6958
  203MPD1    C5 3141   2.576   2.757  12.879  0.1012  0.0975 -0.0222
  203MPD1     H 3142   2.554   2.552  12.561  2.5036  0.3705  0.1251
  203MPD1    H1 3143   2.696   2.609  12.961 -2.7923  0.4108  0.9399
  203MPD1    H2 3144   2.453   2.903  12.786 -0.8151 -0.7634 -0.7484
  203MPD1    H3 3145   2.562   2.815  12.969 -0.1874  1.9402 -1.2528
  203MPD1     N 3146   2.690   2.437  12.739 -0.9425 -0.5388 -0.5087
  203MPD1    H5 3147   2.656   2.374  12.668 -1.2562 -0.2634 -0.6028
  203MPD1    N1 3148   2.433   2.787  12.539  0.1324  0.2317  0.0501
  203MPD1    H6 3149   2.449   2.745  12.447  0.8314  0.0610  0.2528
  203MPD1    H7 3150   2.434   2.888  12.530 -0.3509  0.1895 -0.4878
  204MPD1     C 3151   1.890   4.612  17.066 -0.2111  0.1657 -0.5982
  204MPD1    C1 3152   1.921   4.560  16.945  0.0423 -0.3164 -0.0797
  204MPD1    C2 3153   2.010   4.452  16.942 -0.5063  0.2712  0.2213
  204MPD1    C3 3154   2.041   4.384  17.058 -0.2588 -0.0451 -0.2175
  204MPD1    C4 3155   2.005   4.437  17.177 -0.3092 -0.0013 -0.0837
  204MPD1    C5 3156   1.931   4.551  17.183  0.0265 -0.4257 -0.3771
  204MPD1     H 3157   2.033   4.409  16.845 -2.1363  1.5308 -0.7271
  204MPD1    H1 3158   2.014   4.394  17.276  1.7041  0.6272 -0.0120
  204MPD1    H2 3159   1.835   4.705  17.074  1.2802  0.9874  0.2480
  204MPD1    H3 3160   1.892   4.586  17.278  1.1094 -0.5413  0.1055
  204MPD1     N 3161   2.125   4.270  17.052 -0.2873 -0.1347 -0.6095
  204MPD1    H5 3162   2.155   4.241  16.959 -2.6366 -1.4736 -0.9419
  204MPD1    N1 3163   1.891   4.624  16.827  0.7265 -0.1785 -0.4523
  204MPD1    H6 3164   1.800   4.670  16.832  1.3940  1.2157 -1.5055
  204MPD1    H7 3165   1.872   4.548  16.761 -0.3868 -2.5553  2.5700
  205MPD1     C 3166   1.663   2.675  16.994 -0.4269 -0.4540 -0.1758
  205MPD1    C1 3167   1.754   2.757  16.940  0.1380  0.1826 -0.5852
  205MPD1    C2 3168   1.848   2.807  17.030 -0.6743  0.6052  0.4086
  205MPD1    C3 3169   1.853   2.770  17.169 -1.1671 -0.0631 -0.1941
  205MPD1    C4 3170   1.765   2.678  17.214  0.4290 -0.1724 -0.0781
  205MPD1    C5 3171   1.672   2.629  17.123  0.5885 -1.2051 -0.2753
  205MPD1     H 3172   1.921   2.879  16.994 -0.9890 -0.1603 -1.7075
  205MPD1    H1 3173   1.784   2.621  17.304 -1.1578  1.0023  0.9935
  205MPD1    H2 3174   1.575   2.645  16.937 -0.9303 -2.6779  1.8015
  205MPD1    H3 3175   1.597   2.556  17.151  0.5884 -0.5358  1.4649
  205MPD1     N 3176   1.948   2.818  17.267  0.0575  0.3105 -0.5250
  205MPD1    H5 3177   1.929   2.778  17.358 -0.6272  0.3098 -0.6672
  205MPD1    N1 3178   1.735   2.813  16.814 -0.0115  1.0092  0.1359
  205MPD1    H6 3179   1.821   2.841  16.768  1.1447  0.5249  2.0117
  205MPD1    H7 3180   1.701   2.741  16.751  0.7473  1.6826 -1.0446
  206MPD1     C 3181   2.684   1.810  17.009  0.4298  0.2466 -0.0310
  206MPD1    C1 3182   2.732   1.698  16.949  0.3494 -0.0333 -0.5328
  206MPD1    C2 3183   2.647   1.626  16.867 -0.7387  0.6677  0.0876
  206MPD1    C3 3184   2.518   1.676  16.833 -0.4599 -0.9108  0.1575
  206MPD1    C4 3185   2.478   1.799  16.885  0.8179 -0.5947  0.1376
  206MPD1    C5 3186   2.556   1.850  16.978  0.4133  0.0235 -0.6761
  206MPD1     H 3187   2.686   1.536  16.821  0.1641  0.8515  0.5045
  206MPD1    H1 3188   2.384   1.847  16.860  0.4649 -0.4303  1.7596
  206MPD1    H2 3189   2.735   1.884  17.070  0.7677 -1.6105  1.9642
  206MPD1    H3 3190   2.518   1.941  17.023  0.0709 -1.1738  1.4478
  206MPD1     N 3191   2.436   1.618  16.737  0.8642  0.3207  0.3786
  206MPD1    H5 3192   2.348   1.665  16.719 -0.3390 -1.2551  2.2276
  206MPD1    N1 3193   2.842   1.638  17.005 -0.2814  0.9005 -0.1479
  206MPD1    H6 3194   2.897   1.575  16.947 -0.1511  2.0129 -1.2341
  206MPD1    H7 3195   2.898   1.716  17.039 -2.2912  2.1061  0.4193
  207MPD1     C 3196   0.449   4.050   9.476  0.3398 -0.4294 -0.2153
  207MPD1    C1 3197   0.393   4.017   9.598 -0.1659  0.2742  0.3708
  207MPD1    C2 3198   0.474   3.997   9.711  0.0663  0.4252  0.1714
  207MPD1    C3 3199   0.609   4.038   9.708 -0.5043  0.4878  0.0731
  207MPD1    C4 3200   0.653   4.102   9.594  0.1285  0.0001 -0.0601
  207MPD1    C5 3201   0.571   4.105   9.483 -0.3784  0.5356  1.1440
  207MPD1     H 3202   0.432   3.949   9.798 -0.8443  2.3151  0.7618
  207MPD1    H1 3203   0.755   4.138   9.586  0.3568 -0.5902  0.1935
  207MPD1    H2 3204   0.389   4.077   9.389  1.4555  1.0934 -0.5106
  207MPD1    H3 3205   0.604   4.153   9.392  4.4139 -0.3101  2.4696
  207MPD1     N 3206   0.702   4.003   9.811 -0.3673  0.8405 -0.1769
  207MPD1    H5 3207   0.798   4.030   9.794  0.0387  0.0789  0.8812
  207MPD1    N1 3208   0.261   3.973   9.599 -0.8056  0.1682 -0.0140
  207MPD1    H6 3209   0.237   3.989   9.696  0.0922 -1.4377  0.4663
  207MPD1    H7 3210   0.193   4.033   9.551  1.6919  2.2243 -0.9908
  208MPD1     C 3211   3.269   2.255   0.015  0.1406  0.5213 -0.6024
  208MPD1    C1 3212   3.244   2.236   0.149 -0.2898  0.4740  0.1501
  208MPD1    C2 3213   3.106   2.217   0.184  0.2234 -0.0146  0.0087
  208MPD1    C3 3214   3.010   2.193   0.097  0.3594  0.0771  0.1219
  208MPD1    C4 3215   3.043   2.192  17.716  0.2563  0.1215  0.4543
  208MPD1    C5 3216   3.168   2.237  17.678  0.0055 -0.2151 -0.7368
  208MPD1     H 3217   3.086   2.212   0.290 -0.2914  0.8683 -0.0436
  208MPD1    H1 3218   2.973   2.162  17.639 -1.7085 -0.3961  2.4402
  208MPD1    H2 3219   3.364   2.290  17.729  0.8819  0.5181  1.2717
  208MPD1    H3 3220   3.185   2.260  17.574 -1.1657  1.8260 -0.4765
  208MPD1     N 3221   2.886   2.160   0.155 -0.5755  0.0851  0.1354
  208MPD1    H5 3222   2.877   2.153   0.256  0.1505  1.8267  0.3099
  208MPD1    N1 3223   3.338   2.288   0.244 -0.4822 -0.9300 -0.4671
  208MPD1    H6 3224   3.431   2.257   0.216 -0.0604  0.8180 -1.0230
  208MPD1    H7 3225   3.319   2.240   0.332  1.8094 -0.0619  0.5038
  209MPD1     C 3226   4.559   3.346  10.791 -0.6850  0.0439  0.2211
  209MPD1    C1 3227   4.633   3.404  10.687 -0.6302 -0.3057 -0.1465
  209MPD1    C2 3228   0.033   3.383  10.690  0.3125  0.3262  0.1690
  209MPD1    C3 3229   0.093   3.316  10.802  0.1850 -0.4599 -0.3637
  209MPD1    C4 3230   0.014   3.270  10.905 -0.5218 -0.0397 -0.4689
  209MPD1    C5 3231   4.615   3.280  10.897  0.6713  0.6656  0.2262
  209MPD1     H 3232   0.088   3.418  10.604  0.2067 -0.9803 -0.4344
  209MPD1    H1 3233   0.044   3.217  10.995 -0.6253 -1.2014 -1.1141
  209MPD1    H2 3234   4.451   3.337  10.787 -0.8798  1.7843  1.4520
  209MPD1    H3 3235   4.551   3.237  10.973 -1.1832 -1.1399 -2.3970
  209MPD1     N 3236   0.234   3.314  10.817 -0.1114 -0.1886  0.6544
  209MPD1    H5 3237   0.290   3.347  10.739  1.5958 -0.1385  1.8938
  209MPD1    N1 3238   4.571   3.452  10.572  0.4301 -0.3434  0.2385
  209MPD1    H6 3239   4.620   3.525  10.519 -0.6085  2.1166  2.6580
  209MPD1    H7 3240   4.475   3.480  10.589  0.9658  1.5089  0.2588
  210MPD1     C 3241   0.884   2.720  11.297  0.0939 -0.9243  0.6291
  210MPD1    C1 3242   0.962   2.833  11.266 -0.4717 -0.6162  0.1894
  210MPD1    C2 3243   0.903   2.939  11.207  0.5901  0.0864 -0.1580
  210MPD1    C3 3244   0.768   2.933  11.165 -0.1126 -0.1286  0.0272
  210MPD1    C4 3245   0.703   2.815  11.185  0.4231 -0.4376 -0.3791
  210MPD1    C5 3246   0.752   2.719  11.259  0.5811 -0.0974 -0.2129
  210MPD1     H 3247   0.965   3.027  11.190  0.3994  0.5551  1.5063
  210MPD1    H1 3248   0.596   2.810  11.170  0.3344  1.8053 -0.4194
  210MPD1    H2 3249   0.933   2.645  11.358  0.9483 -0.7317  0.1811
  210MPD1    H3 3250   0.690   2.632  11.277 -0.5970  0.5892 -0.9828
  210MPD1     N 3251   0.694   3.039  11.107  0.0621 -0.2589 -0.0196
  210MPD1    H5 3252   0.604   3.018  11.064 -0.0834  0.1410  0.0808
  210MPD1    N1 3253   1.096   2.841  11.302  0.2217  0.1852 -0.7056
  210MPD1    H6 3254   1.136   2.930  11.274  1.7753  0.9363  3.8054
  210MPD1    H7 3255   1.144   2.754  11.277  0.5534  0.7059 -1.8871
  211MPD1     C 3256   2.530   1.941  15.668 -0.4075  0.1152 -0.0848
  211MPD1    C1 3257   2.406   1.973  15.618 -0.4133 -0.1489 -0.2482
  211MPD1    C2 3258   2.339   2.087  15.666 -0.0346  0.2094  0.2161
  211MPD1    C3 3259   2.404   2.173  15.754  0.5197 -0.1105 -0.6584
  211MPD1    C4 3260   2.524   2.136  15.801  0.9205 -0.3906 -0.3099
  211MPD1    C5 3261   2.595   2.026  15.750  0.6724 -0.3693  0.0976
  211MPD1     H 3262   2.238   2.114  15.639 -0.7065  1.3470  3.8239
  211MPD1    H1 3263   2.569   2.189  15.884  1.4202 -0.7918 -0.3211
  211MPD1    H2 3264   2.587   1.854  15.636  0.3569  0.8540 -0.7571
  211MPD1    H3 3265   2.693   2.002  15.791 -0.5074  0.6034  3.4749
  211MPD1     N 3266   2.332   2.284  15.803 -0.1888 -0.3134  0.0110
  211MPD1    H5 3267   2.233   2.290  15.781  0.1100 -0.9977 -1.5157
  211MPD1    N1 3268   2.337   1.883  15.545  0.0352 -0.2825 -0.3854
  211MPD1    H6 3269   2.399   1.848  15.473 -0.1845 -1.4314 -0.0175
  211MPD1    H7 3270   2.252   1.923  15.503 -0.6136  0.2687  1.4550
  212MPD1     C 3271   1.947   1.321  16.335  0.0764  0.2673 -0.5506
  212MPD1    C1 3272   1.826   1.379  16.362  0.3159 -0.3302  0.0153
  212MPD1    C2 3273   1.755   1.331  16.474 -0.3666  0.3237  0.0423
  212MPD1    C3 3274   1.811   1.219  16.539  0.5935 -0.3991  0.1377
  212MPD1    C4 3275   1.931   1.162  16.507 -0.3821 -0.4955  0.0001
  212MPD1    C5 3276   1.998   1.220  16.411 -0.0928  0.2294 -0.8125
  212MPD1     H 3277   1.651   1.363  16.483 -1.0259 -1.6203 -0.5654
  212MPD1    H1 3278   1.955   1.066  16.550 -1.2660 -1.5722 -1.9019
  212MPD1    H2 3279   2.009   1.350  16.251  2.3018  0.3459  1.1192
  212MPD1    H3 3280   2.089   1.173  16.374  0.4293  1.5173 -1.1586
  212MPD1     N 3281   1.739   1.147  16.639  0.2897  0.2114 -0.1492
  212MPD1    H5 3282   1.790   1.063  16.666 -1.3944 -1.9619 -3.7179
  212MPD1    N1 3283   1.770   1.468  16.264  0.0607 -0.4644  0.4231
  212MPD1    H6 3284   1.832   1.520  16.203 -0.1470  1.4340  1.8288
  212MPD1    H7 3285   1.690   1.526  16.286  0.1447 -1.0755  2.3529
  213MPD1     C 3286   0.636   1.812  15.683 -0.1142  0.1065 -0.7055
  213MPD1    C1 3287   0.621   1.856  15.554 -0.7846  0.5347 -0.7113
  213MPD1    C2 3288   0.494   1.849  15.501  0.4978  0.4354  0.3819
  213MPD1    C3 3289   0.398   1.762  15.548  0.4616 -0.7377  0.2810
  213MPD1    C4 3290   0.428   1.685  15.661 -0.7267  0.1576  0.2334
  213MPD1    C5 3291   0.548   1.715  15.730  0.4902 -0.4390 -0.3003
  213MPD1     H 3292   0.480   1.903  15.409 -0.0823 -0.1166  0.1424
  213MPD1    H1 3293   0.373   1.602  15.704  0.5934 -1.1003 -0.5115
  213MPD1    H2 3294   0.722   1.829  15.747 -0.7938 -0.1721  0.2786
  213MPD1    H3 3295   0.572   1.659  15.819 -3.1511  0.0765  0.9855
  213MPD1     N 3296   0.277   1.750  15.478 -0.3098  0.0219  0.7120
  213MPD1    H5 3297   0.278   1.798  15.388 -0.8597  1.6553  1.5711
  213MPD1    N1 3298   0.704   1.958  15.510 -0.3671 -0.0204  0.4681
  213MPD1    H6 3299   0.663   2.049  15.530 -2.4046 -0.9950  0.7403
  213MPD1    H7 3300   0.723   1.944  15.411 -4.4465  0.2968 -0.3397
  214MPD1     C 3301   4.184   1.053  15.263  0.1299 -0.2226  0.3490
  214MPD1    C1 3302   4.277   1.049  15.368 -1.2052 -0.5378  0.5981
  214MPD1    C2 3303   4.361   1.163  15.383 -0.1323 -0.4173 -0.2309
  214MPD1    C3 3304   4.369   1.257  15.277  0.1298 -0.4010 -0.3519
  214MPD1    C4 3305   4.278   1.245  15.170  0.9467  0.5328 -0.5527
  214MPD1    C5 3306   4.187   1.141  15.162  0.1480  0.1648  0.4657
  214MPD1     H 3307   4.432   1.174  15.464 -1.2974  2.5009  0.3734
  214MPD1    H1 3308   4.290   1.306  15.082  0.7003 -1.1309 -1.7492
  214MPD1    H2 3309   4.101   0.984  15.270 -0.8481  1.0305  1.2515
  214MPD1    H3 3310   4.106   1.140  15.091 -1.1107  1.7509  1.8721
  214MPD1     N 3311   4.457   1.369  15.274  0.2058  0.5084  0.3101
  214MPD1    H5 3312   4.442   1.439  15.202 -0.4202 -0.6224 -0.6463
  214MPD1    N1 3313   4.262   0.957  15.480  0.4412 -0.2241  0.0904
  214MPD1    H6 3314   4.216   0.872  15.447  0.4337 -0.4091  0.5730
  214MPD1    H7 3315   4.354   0.937  15.517  0.5080  0.2472  0.1766
  215MPD1     C 3316   0.113   3.444  11.332  0.0170 -0.5030  0.3580
  215MPD1    C1 3317   0.094   3.405  11.463  0.9805 -0.0184  0.2141
  215MPD1    C2 3318   0.022   3.289  11.495  0.5696 -0.2132 -0.2177
  215MPD1    C3 3319   4.675   3.234  11.398 -0.0363  0.1445  0.2923
  215MPD1    C4 3320   4.686   3.283  11.267  0.0802 -0.0445  0.7360
  215MPD1    C5 3321   0.029   3.386  11.240 -0.4522 -0.0109 -0.5233
  215MPD1     H 3322   0.009   3.253  11.596 -2.0765  0.4767 -0.3017
  215MPD1    H1 3323   4.628   3.248  11.183  0.5096  2.0061 -0.4284
  215MPD1    H2 3324   0.176   3.529  11.308  2.2161 -2.0736  0.6548
  215MPD1    H3 3325   0.034   3.430  11.142  2.0226  1.2773  0.1939
  215MPD1     N 3326   4.580   3.132  11.432  0.3537 -0.0868 -0.3579
  215MPD1    H5 3327   4.597   3.091  11.523 -0.9014  2.8869  1.2384
  215MPD1    N1 3328   0.180   3.459  11.566 -0.2251  0.4876 -0.3828
  215MPD1    H6 3329   0.204   3.554  11.541 -0.6543  0.3020 -1.4966
  215MPD1    H7 3330   0.132   3.456  11.655 -2.5093  1.2329 -1.5937
  216MPD1     C 3331   1.378   1.571   0.055 -0.6003 -0.6667 -0.1625
  216MPD1    C1 3332   1.371   1.490   0.167  1.2985  0.2803  0.2678
  216MPD1    C2 3333   1.436   1.365   0.168  0.0954 -0.0770  0.7078
  216MPD1    C3 3334   1.516   1.334   0.062 -0.7080  0.2521 -0.2394
  216MPD1    C4 3335   1.527   1.420  17.710 -0.3880  0.8049  0.1453
  216MPD1    C5 3336   1.458   1.536  17.703  0.5286  0.0603  0.3121
  216MPD1     H 3337   1.413   1.298   0.250  0.4961 -0.6951  0.3118
  216MPD1    H1 3338   1.591   1.396  17.626 -0.9628 -1.0304  0.2287
  216MPD1    H2 3339   1.309   1.654   0.048 -0.7592 -0.8433 -0.6816
  216MPD1    H3 3340   1.471   1.603  17.618  0.6447 -0.0384  0.2519
  216MPD1     N 3341   1.572   1.203   0.063 -0.1829 -0.3847 -0.4312
  216MPD1    H5 3342   1.554   1.153   0.149  0.5904  1.5188  0.8393
  216MPD1    N1 3343   1.273   1.513   0.268 -0.2679  0.2884  0.3035
  216MPD1    H6 3344   1.301   1.474   0.358  3.1552  2.2314  0.0945
  216MPD1    H7 3345   1.264   1.613   0.281  0.7073  0.4167  0.0048
  217MPD1     C 3346   2.780   2.609   8.071 -0.6750 -1.0032  0.3311
  217MPD1    C1 3347   2.725   2.706   8.146 -0.3154 -0.2621 -0.6687
  217MPD1    C2 3348   2.722   2.690   8.282  0.0902  0.4395 -0.0178
  217MPD1    C3 3349   2.774   2.579   8.335  0.0883  0.1182 -0.4351
  217MPD1    C4 3350   2.835   2.486   8.257  0.4300 -0.4958  0.4144
  217MPD1    C5 3351   2.839   2.499   8.123 -0.4733  0.2023  0.7752
  217MPD1     H 3352   2.678   2.766   8.347 -0.2304 -0.1699  0.4768
  217MPD1    H1 3353   2.869   2.386   8.284 -0.0355 -1.3846 -2.1824
  217MPD1    H2 3354   2.773   2.604   7.963 -3.0103 -0.5537  0.4401
  217MPD1    H3 3355   2.880   2.420   8.062 -1.3387  0.4227 -0.0847
  217MPD1     N 3356   2.774   2.557   8.476 -0.3557  0.5536 -0.8382
  217MPD1    H5 3357   2.820   2.471   8.503  0.2716  1.6968  1.7345
  217MPD1    N1 3358   2.654   2.803   8.075 -0.5665 -0.1898  0.2814
  217MPD1    H6 3359   2.627   2.884   8.132  1.1099 -0.7669  1.8951
  217MPD1    H7 3360   2.704   2.844   7.996  1.5902 -2.6220  0.3921
  218MPD1     C 3361   3.330   2.715  12.589  0.0217 -0.1943  0.5965
  218MPD1    C1 3362   3.396   2.591  12.597  0.3442  0.0237  0.1423
  218MPD1    C2 3363   3.529   2.587  12.629 -0.1207 -0.3570  0.8848
  218MPD1    C3 3364   3.589   2.704  12.652  0.2888 -1.0760  0.9612
  218MPD1    C4 3365   3.526   2.826  12.658  0.3228 -1.4231  0.0367
  218MPD1    C5 3366   3.392   2.827  12.628 -0.7040  0.0090 -0.7106
  218MPD1     H 3367   3.582   2.494  12.642  1.2953  0.3418  0.1218
  218MPD1    H1 3368   3.573   2.923  12.670 -3.0527  0.5025 -2.1895
  218MPD1    H2 3369   3.228   2.721  12.553  0.3618  1.6275 -0.0596
  218MPD1    H3 3370   3.338   2.921  12.628 -0.7795 -0.0321 -0.0720
  218MPD1     N 3371   3.735   2.697  12.661 -0.4994 -0.8176  0.1859
  218MPD1    H5 3372   3.779   2.607  12.680  2.8703  0.9079  0.6707
  218MPD1    N1 3373   3.326   2.476  12.540 -0.3761 -0.3361  0.5155
  218MPD1    H6 3374   3.229   2.476  12.569 -0.4506  0.0749  0.2621
  218MPD1    H7 3375   3.382   2.395  12.567  3.0010  1.9227  0.3547
  219MPD1     C 3376   3.955   2.417  11.892 -0.5122  0.3638  0.1124
  219MPD1    C1 3377   4.034   2.531  11.901 -0.2473  0.5770 -0.2948
  219MPD1    C2 3378   4.069   2.582  12.031 -0.1627  0.9504 -0.1334
  219MPD1    C3 3379   4.022   2.516  12.140  0.0041  0.5596 -0.0880
  219MPD1    C4 3380   3.944   2.405  12.130  0.2172  0.1767 -0.5986
  219MPD1    C5 3381   3.915   2.351  12.007  0.3473 -0.1042 -0.0118
  219MPD1     H 3382   4.126   2.674  12.038  1.2424  0.1263 -0.6760
  219MPD1    H1 3383   3.901   2.348  12.212 -2.4205  0.4479 -1.7974
  219MPD1    H2 3384   3.915   2.384  11.797  0.1284 -1.3955  0.4598
  219MPD1    H3 3385   3.857   2.259  12.001  1.4828 -0.7648 -0.7539
  219MPD1     N 3386   4.042   2.550  12.272  0.8859 -0.0458  0.3874
  219MPD1    H5 3387   3.982   2.503  12.339  1.3736  0.2498  1.0269
  219MPD1    N1 3388   4.060   2.603  11.783  0.4525  0.0591  0.7867
  219MPD1    H6 3389   4.060   2.537  11.706 -2.2863 -0.9089  1.6163
  219MPD1    H7 3390   4.148   2.653  11.776 -0.0146  1.0698  1.9294
  220MPD1     C 3391   4.330   3.307  10.345  0.1467  0.3197 -0.4737
  220MPD1    C1 3392   4.346   3.191  10.423  0.3083 -0.5830 -0.2851
  220MPD1    C2 3393   4.239   3.101  10.438  0.0596 -0.1964  0.0960
  220MPD1    C3 3394   4.117   3.131  10.383 -0.1053 -0.5342  0.2440
  220MPD1    C4 3395   4.102   3.242  10.308 -0.3086 -1.2343  0.4399
  220MPD1    C5 3396   4.209   3.325  10.288  0.2995 -0.2794  0.1248
  220MPD1     H 3397   4.249   3.007  10.492 -1.3865 -1.0232 -1.0372
  220MPD1    H1 3398   4.005   3.269  10.269 -0.5161 -2.2970  0.2367
  220MPD1    H2 3399   4.408   3.382  10.337 -0.3540  0.7212 -1.5528
  220MPD1    H3 3400   4.190   3.414  10.230 -0.5319  1.3150  2.8126
  220MPD1     N 3401   4.015   3.036  10.413 -0.4991  0.2088 -0.1175
  220MPD1    H5 3402   4.049   2.961  10.472 -1.2743  0.6631  0.9199
  220MPD1    N1 3403   4.481   3.168  10.458  0.7893 -0.4332 -0.2712
  220MPD1    H6 3404   4.498   3.114  10.543 -1.3632 -1.9809 -0.8451
  220MPD1    H7 3405   4.532   3.256  10.464 -0.3951  0.2038  0.5365
  221MPD1     C 3406   1.889   2.245  15.362 -0.4980 -0.5908 -0.2685
  221MPD1    C1 3407   1.919   2.317  15.481 -0.2153 -0.6709 -0.1735
  221MPD1    C2 3408   1.946   2.244  15.595  0.4068 -0.0713  0.4089
  221MPD1    C3 3409   1.957   2.102  15.595  0.5098 -0.3253  0.0996
  221MPD1    C4 3410   1.921   2.034  15.475 -0.3037 -0.0167  0.1257
  221MPD1    C5 3411   1.896   2.105  15.362 -0.0152 -0.5656  0.3344
  221MPD1     H 3412   1.982   2.297  15.683 -1.5694 -0.6451  1.5769
  221MPD1    H1 3413   1.945   1.928  15.468  1.3227  0.2196  2.0254
  221MPD1    H2 3414   1.856   2.302  15.276  0.6752  0.4145 -0.0599
  221MPD1    H3 3415   1.878   2.048  15.272 -0.0622  0.0946 -0.0785
  221MPD1     N 3416   1.987   2.023  15.709  0.1065 -0.7189 -0.0092
  221MPD1    H5 3417   1.967   1.924  15.701  1.2687 -0.7944 -1.7908
  221MPD1    N1 3418   1.949   2.455  15.471 -0.1041  0.0499 -0.0813
  221MPD1    H6 3419   1.948   2.512  15.555 -1.8516  0.6484 -0.4908
  221MPD1    H7 3420   1.885   2.508  15.411 -0.4777  0.0484  0.3155
  222MPD1     C 3421   1.372   0.829   0.202 -0.3231 -0.2285 -0.5580
  222MPD1    C1 3422   1.338   0.961   0.229  0.0390  0.1011  0.4279
  222MPD1    C2 3423   1.301   1.036   0.116  0.0206  0.2867 -0.5436
  222MPD1    C3 3424   1.321   0.985  17.737  0.1970  0.1952  0.5225
  222MPD1    C4 3425   1.372   0.861  17.713 -0.0612 -0.2638  0.3979
  222MPD1    C5 3426   1.391   0.782   0.072 -0.3437  0.1105  0.1475
  222MPD1     H 3427   1.262   1.135   0.136  0.1260  0.1174  0.5245
  222MPD1    H1 3428   1.393   0.809  17.620  0.6640  0.9871 -0.1387
  222MPD1    H2 3429   1.402   0.752   0.273  3.2363  0.3830 -1.4188
  222MPD1    H3 3430   1.418   0.679   0.052  0.2460  0.5555 -1.3566
  222MPD1     N 3431   1.296   1.067  17.625 -0.5012  0.1677  0.2447
  222MPD1    H5 3432   1.313   1.018  17.538 -0.7128  0.7814 -0.1433
  222MPD1    N1 3433   1.301   0.995   0.364  0.1498  0.2146 -0.4897
  222MPD1    H6 3434   1.297   1.094   0.388  1.2692  0.2553 -0.4417
  222MPD1    H7 3435   1.357   0.944   0.433 -0.2245  2.0797  1.1869
  223MPD1     C 3436   1.904   1.024  17.075  0.3997  0.4175 -0.4394
  223MPD1    C1 3437   1.870   0.976  17.198 -0.8796  0.6473  0.7192
  223MPD1    C2 3438   1.787   1.054  17.273  0.8855 -0.4566  0.3906
  223MPD1    C3 3439   1.712   1.160  17.213  0.3770  0.0686 -0.0494
  223MPD1    C4 3440   1.746   1.198  17.089  0.0632  0.1014  0.0534
  223MPD1    C5 3441   1.845   1.138  17.026  0.4510 -0.0699 -0.1376
  223MPD1     H 3442   1.781   1.035  17.380  0.9197  0.7080  0.6070
  223MPD1    H1 3443   1.697   1.283  17.043  0.4167  0.2444 -0.0660
  223MPD1    H2 3444   1.990   0.989  17.019  1.3595  1.4064  0.4314
  223MPD1    H3 3445   1.868   1.171  16.925  0.3005  2.4985  0.6505
  223MPD1     N 3446   1.605   1.210  17.287 -0.3834 -0.0573  0.2356
  223MPD1    H5 3447   1.591   1.165  17.376 -0.6521 -0.8574 -0.2084
  223MPD1    N1 3448   1.937   0.872  17.264 -0.2904 -0.3782  0.4661
  223MPD1    H6 3449   1.950   0.797  17.196  1.2758  1.5835 -1.4321
  223MPD1    H7 3450   1.894   0.832  17.347 -3.1267 -1.1813 -1.3918
  224MPD1     C 3451   2.795   2.902   8.925 -0.4075  0.3937  0.1973
  224MPD1    C1 3452   2.737   2.972   9.029  0.6652 -0.3651 -0.2636
  224MPD1    C2 3453   2.741   2.923   9.159  0.2930  0.7021  0.2441
  224MPD1    C3 3454   2.816   2.812   9.189 -0.8764 -0.1153  0.3345
  224MPD1    C4 3455   2.889   2.752   9.086  0.0137 -0.3061 -0.2383
  224MPD1    C5 3456   2.877   2.791   8.960  0.2146 -0.7905 -0.0552
  224MPD1     H 3457   2.683   2.979   9.231  0.5955  1.0972  0.1851
  224MPD1    H1 3458   2.962   2.675   9.108  1.4622  1.0485 -0.2639
  224MPD1    H2 3459   2.770   2.922   8.822 -0.6035 -0.2836  0.1147
  224MPD1    H3 3460   2.924   2.739   8.878  0.8155 -0.2629 -0.0504
  224MPD1     N 3461   2.828   2.764   9.322 -0.0393  0.1605  0.3302
  224MPD1    H5 3462   2.886   2.684   9.343  0.5995  0.3968 -0.5120
  224MPD1    N1 3463   2.638   3.061   8.998  0.2692  0.0026 -0.4197
  224MPD1    H6 3464   2.625   3.125   9.077 -0.9823  1.3264 -1.6997
  224MPD1    H7 3465   2.664   3.116   8.916  0.7431 -1.2104 -1.0742
  225MPD1     C 3466   4.411   3.452  12.332 -0.3575 -0.1806  0.6225
  225MPD1    C1 3467   4.360   3.572  12.382  0.2193 -0.1532  0.0415
  225MPD1    C2 3468   4.232   3.559  12.444  0.0975 -0.5071  0.3171
  225MPD1    C3 3469   4.158   3.444  12.438  0.0487 -0.4811 -0.0412
  225MPD1    C4 3470   4.216   3.330  12.390  0.6788 -0.0729  0.5510
  225MPD1    C5 3471   4.343   3.335  12.339 -0.1196  0.3375 -0.1385
  225MPD1     H 3472   4.177   3.645  12.479 -0.5166 -1.1940  1.0381
  225MPD1    H1 3473   4.159   3.238  12.377  0.7741 -0.0173 -0.2564
  225MPD1    H2 3474   4.511   3.453  12.291  0.0192  2.2882  1.5965
  225MPD1    H3 3475   4.382   3.238  12.307  0.2800  0.1947  0.7748
  225MPD1     N 3476   4.023   3.428  12.480 -0.2451  0.4390  0.5566
  225MPD1    H5 3477   3.978   3.337  12.480  0.2999  0.1708 -2.1228
  225MPD1    N1 3478   4.416   3.689  12.341  0.0235 -0.0657  0.1026
  225MPD1    H6 3479   4.510   3.668  12.310  0.4761  1.4723  0.4214
  225MPD1    H7 3480   4.429   3.754  12.419 -0.5457  0.8084 -0.5403
  226MPD1     C 3481   2.799   3.785   9.985  0.0357 -0.0316 -0.3794
  226MPD1    C1 3482   2.701   3.686   9.984  0.4632  0.1965  0.3923
  226MPD1    C2 3483   2.644   3.655   9.864  1.0545 -0.3046 -0.3259
  226MPD1    C3 3484   2.671   3.720   9.747  0.7785  0.7361 -0.4932
  226MPD1    C4 3485   2.778   3.809   9.753 -0.4794  0.1632  0.1293
  226MPD1    C5 3486   2.847   3.831   9.869  0.1245  0.4481  0.0084
  226MPD1     H 3487   2.559   3.589   9.865 -1.1676  2.5743 -0.5719
  226MPD1    H1 3488   2.827   3.843   9.663 -0.4383  0.2577  0.1868
  226MPD1    H2 3489   2.835   3.812  10.083  1.0627  1.4106 -1.1563
  226MPD1    H3 3490   2.941   3.885   9.870 -0.1447  0.9162  0.4048
  226MPD1     N 3491   2.595   3.686   9.632  0.6404  0.2555  0.0459
  226MPD1    H5 3492   2.533   3.606   9.641  1.1762 -0.0525  0.9981
  226MPD1    N1 3493   2.635   3.645  10.101 -0.7176  0.1814 -0.0915
  226MPD1    H6 3494   2.704   3.628  10.174 -3.0560 -0.5677  1.9838
  226MPD1    H7 3495   2.577   3.561  10.096  0.6993 -0.7643 -0.5253
  227MPD1     C 3496   1.671   3.448   9.325  0.2824  0.2285 -0.1795
  227MPD1    C1 3497   1.718   3.527   9.226  0.7102  0.6489 -0.2149
  227MPD1    C2 3498   1.856   3.552   9.222 -0.0323 -0.6012 -0.0013
  227MPD1    C3 3499   1.940   3.518   9.328 -0.1317 -0.2029 -0.6695
  227MPD1    C4 3500   1.887   3.450   9.440  0.4737 -0.5365 -0.0996
  227MPD1    C5 3501   1.751   3.410   9.429  0.0848 -0.1375  0.2652
  227MPD1     H 3502   1.891   3.597   9.130 -1.5773 -0.5966 -0.5813
  227MPD1    H1 3503   1.948   3.431   9.528 -0.1809  0.2012  0.5091
  227MPD1    H2 3504   1.569   3.412   9.320  0.5258 -0.5161  0.0747
  227MPD1    H3 3505   1.708   3.339   9.499  1.6391 -2.7149 -1.3863
  227MPD1     N 3506   2.074   3.552   9.308 -0.3737  0.7309 -0.6016
  227MPD1    H5 3507   2.092   3.605   9.223  1.3383  0.4762 -0.3941
  227MPD1    N1 3508   1.637   3.554   9.118 -0.8771  0.0139 -0.3840
  227MPD1    H6 3509   1.664   3.632   9.058  3.3233 -0.7101  0.5255
  227MPD1    H7 3510   1.536   3.561   9.127 -0.9482 -0.3495 -0.8967
  228MPD1     C 3511   0.979   1.690  13.063  0.3633 -0.5825 -0.0252
  228MPD1    C1 3512   0.876   1.783  13.093  0.4450  0.4015 -0.3295
  228MPD1    C2 3513   0.752   1.738  13.126  0.2784 -0.1595 -0.1984
  228MPD1    C3 3514   0.728   1.600  13.140 -0.3589  0.2885  0.3750
  228MPD1    C4 3515   0.833   1.515  13.125 -0.6203  0.1530  0.5398
  228MPD1    C5 3516   0.955   1.561  13.084 -0.2186  0.2305 -0.0242
  228MPD1     H 3517   0.666   1.805  13.127  0.3311 -0.1025  0.4672
  228MPD1    H1 3518   0.833   1.407  13.136  1.2574  0.0331 -0.6282
  228MPD1    H2 3519   1.082   1.718  13.044  0.0626  0.5042 -0.0793
  228MPD1    H3 3520   1.034   1.487  13.082  0.6726  1.1662  0.6572
  228MPD1     N 3521   0.595   1.555  13.174 -0.2478 -0.0579  0.2189
  228MPD1    H5 3522   0.520   1.617  13.202 -0.1551  0.7277 -1.2901
  228MPD1    N1 3523   0.907   1.917  13.064  0.3802  0.2421 -0.4081
  228MPD1    H6 3524   1.004   1.929  13.091  0.7722  0.0772 -1.7210
  228MPD1    H7 3525   0.855   1.979  13.126  0.2906  1.4253 -1.6709
  229MPD1     C 3526   0.455   0.342  14.650  0.4877 -0.3562  0.6513
  229MPD1    C1 3527   0.488   0.379  14.775  0.2550  0.2910  0.3436
  229MPD1    C2 3528   0.572   0.293  14.843  0.7599 -0.1890 -0.1935
  229MPD1    C3 3529   0.633   0.184  14.780  0.1375  0.0304  0.7809
  229MPD1    C4 3530   0.595   0.150  14.654  0.2856 -0.1061  0.4857
  229MPD1    C5 3531   0.507   0.231  14.594  0.1637 -0.7530 -0.2583
  229MPD1     H 3532   0.612   0.332  14.936  0.2915  0.6648 -0.3556
  229MPD1    H1 3533   0.646   0.071  14.600  0.1270 -1.4212  2.2303
  229MPD1    H2 3534   0.380   0.396  14.593  1.9142  0.3455 -0.5750
  229MPD1    H3 3535   0.478   0.204  14.493  0.1483 -2.3384  0.1756
  229MPD1     N 3536   0.741   0.109  14.844  0.7024 -0.6702  0.1750
  229MPD1    H5 3537   0.763   0.025  14.792  1.7864 -0.0772 -0.3168
  229MPD1    N1 3538   0.423   0.492  14.828 -0.2849  0.0855  0.3971
  229MPD1    H6 3539   0.410   0.568  14.761  1.6945 -1.6533 -1.9597
  229MPD1    H7 3540   0.478   0.529  14.905 -0.0545 -0.2896  0.4100
  230MPD1     C 3541   1.065   4.433  15.795 -0.5258 -0.7816  0.5484
  230MPD1    C1 3542   1.100   4.329  15.717 -0.6368  0.6908  0.1816
  230MPD1    C2 3543   1.086   4.344  15.578  1.2489  0.9148 -0.3902
  230MPD1    C3 3544   1.023   4.461  15.527 -0.3525 -0.6792 -0.6832
  230MPD1    C4 3545   0.961   4.548  15.617  0.5576  0.3551  0.4048
  230MPD1    C5 3546   0.996   4.541  15.749  0.2898  0.2775 -0.1753
  230MPD1     H 3547   1.134   4.277  15.508 -0.8239 -0.0488 -0.8840
  230MPD1    H1 3548   0.887   4.621  15.585  0.2783  0.1975  0.6895
  230MPD1    H2 3549   1.082   4.436  15.902 -1.4452 -0.4909  0.6899
  230MPD1    H3 3550   0.951   4.610  15.819  0.4995  0.0714  0.1596
  230MPD1     N 3551   0.997   4.473  15.387  0.3034 -0.1665 -0.7252
  230MPD1    H5 3552   0.994   4.397  15.320 -0.0826 -0.8323  0.0444
  230MPD1    N1 3553   1.171   4.218  15.768 -0.2999  0.2599 -0.8154
  230MPD1    H6 3554   1.147   4.192  15.864 -2.4807 -1.3414 -1.7832
  230MPD1    H7 3555   1.149   4.141  15.705  0.8617  1.1000 -2.2436
  231MPD1     C 3556   3.496   1.852  15.486 -0.8116 -0.3688  0.2182
  231MPD1    C1 3557   3.538   1.759  15.394 -0.2221 -0.0554  0.2140
  231MPD1    C2 3558   3.648   1.787  15.325  0.1816  0.2195  0.6836
  231MPD1    C3 3559   3.712   1.910  15.337  0.0375 -0.1887 -0.0236
  231MPD1    C4 3560   3.666   2.001  15.432 -0.0133 -0.0948 -0.4728
  231MPD1    C5 3561   3.558   1.969  15.506 -0.1093  0.9884  0.1195
  231MPD1     H 3562   3.682   1.715  15.250  1.7918  2.2314 -0.5191
  231MPD1    H1 3563   3.702   2.103  15.442  0.3730 -0.1643 -1.1199
  231MPD1    H2 3564   3.419   1.825  15.558  1.1858 -1.4303  1.9659
  231MPD1    H3 3565   3.503   2.036  15.571 -0.2660  1.7770 -0.8349
  231MPD1     N 3566   3.814   1.933  15.245  0.7653  0.5992  0.2269
  231MPD1    H5 3567   3.827   1.868  15.168  1.4901  1.0703 -0.0555
  231MPD1    N1 3568   3.460   1.641  15.382 -0.7573 -0.3224 -0.1797
  231MPD1    H6 3569   3.512   1.556  15.363 -0.8245 -0.6706  1.2544
  231MPD1    H7 3570   3.400   1.626  15.462 -1.9983 -1.4821 -1.3268
  232MPD1     C 3571   0.487   0.460  17.599  0.7956 -0.6191  0.2953
  232MPD1    C1 3572   0.383   0.413  17.524 -0.4251  0.1045 -0.3717
  232MPD1    C2 3573   0.394   0.278  17.491  0.0133  0.1903  0.6428
  232MPD1    C3 3574   0.511   0.202  17.521  0.5488 -0.3280 -0.0279
  232MPD1    C4 3575   0.603   0.254  17.611 -0.5601 -0.4910 -0.1730
  232MPD1    C5 3576   0.583   0.382  17.652  0.6760  0.7700  0.2208
  232MPD1     H 3577   0.313   0.228  17.440  0.4522 -1.0266  1.1478
  232MPD1    H1 3578   0.690   0.197  17.641 -0.0304  1.2293  1.6010
  232MPD1    H2 3579   0.481   0.561  17.639  0.5267  0.4369 -2.4372
  232MPD1    H3 3580   0.649   0.440  17.715  1.6166 -0.1536  0.0738
  232MPD1     N 3581   0.525   0.074  17.453 -0.5280 -0.5497 -0.0021
  232MPD1    H5 3582   0.462   0.050  17.377 -0.4229 -0.5340 -0.0949
  232MPD1    N1 3583   0.256   0.477  17.520 -0.9717  0.1929 -0.4400
  232MPD1    H6 3584   0.265   0.576  17.495  0.8039  0.6424  1.9230
  232MPD1    H7 3585   0.193   0.440  17.450 -0.6303  0.2159 -0.7578
  233MPD1     C 3586   1.158   2.760   1.621  0.1149 -0.4243 -0.5140
  233MPD1    C1 3587   1.190   2.739   1.751  0.1176 -0.2034  0.0721
  233MPD1    C2 3588   1.325   2.706   1.785  0.2060 -0.4384 -1.1959
  233MPD1    C3 3589   1.422   2.712   1.687 -0.5863  0.1234  0.6641
  233MPD1    C4 3590   1.389   2.747   1.559  0.8191  0.6316 -0.2073
  233MPD1    C5 3591   1.258   2.766   1.528  0.5748 -0.7774  0.0780
  233MPD1     H 3592   1.354   2.675   1.884 -1.0710 -0.0725 -0.7150
  233MPD1    H1 3593   1.461   2.760   1.479  0.0252  2.5253 -0.6022
  233MPD1    H2 3594   1.058   2.767   1.580  0.0916  0.2947 -0.3291
  233MPD1    H3 3595   1.242   2.772   1.421  0.2595 -2.5797  0.0248
  233MPD1     N 3596   1.559   2.695   1.715 -0.2659  0.0021  0.4558
  233MPD1    H5 3597   1.618   2.697   1.633 -0.2312  0.0769  0.4835
  233MPD1    N1 3598   1.092   2.697   1.842  0.1307  0.0664  0.0585
  233MPD1    H6 3599   1.118   2.723   1.937  0.9336  3.0911 -1.0039
  233MPD1    H7 3600   1.001   2.740   1.826  0.5280  0.4871 -1.1173
  234MPD1     C 3601   3.350   1.040   9.263 -0.3127  0.1090  0.7643
  234MPD1    C1 3602   3.257   1.106   9.176 -0.1201 -0.2642 -0.5164
  234MPD1    C2 3603   3.257   1.248   9.173 -0.2668  0.0282  0.6621
  234MPD1    C3 3604   3.358   1.325   9.239 -0.0662  1.2058  0.5145
  234MPD1    C4 3605   3.459   1.255   9.302  0.8959 -0.6688 -0.3982
  234MPD1    C5 3606   3.454   1.118   9.310 -0.1192  0.4864 -0.3915
  234MPD1     H 3607   3.171   1.302   9.136  1.5486  0.5509 -2.7037
  234MPD1    H1 3608   3.547   1.307   9.337 -0.2861  0.1920  1.2991
  234MPD1    H2 3609   3.362   0.933   9.266 -1.8366 -0.0566  1.0547
  234MPD1    H3 3610   3.536   1.067   9.359 -0.1077  1.1380  0.2683
  234MPD1     N 3611   3.345   1.463   9.249 -0.4712 -0.2736  0.8324
  234MPD1    H5 3612   3.265   1.503   9.201  1.2598  0.4093 -1.4764
  234MPD1    N1 3613   3.153   1.028   9.120  0.0305  0.4722 -0.5250
  234MPD1    H6 3614   3.177   0.933   9.093 -1.6559  0.3465 -1.5591
  234MPD1    H7 3615   3.116   1.070   9.035 -0.7831  0.2349 -0.2829
  235MPD1     C 3616   0.263   3.597  11.018 -0.1405  0.6532 -0.2316
  235MPD1    C1 3617   0.230   3.665  10.905  0.0656 -0.3066  0.0927
  235MPD1    C2 3618   0.315   3.764  10.863  0.6939 -0.5691  0.4220
  235MPD1    C3 3619   0.437   3.791  10.915  0.5201  0.1119 -0.1460
  235MPD1    C4 3620   0.471   3.720  11.029  0.6043 -0.0230 -0.5761
  235MPD1    C5 3621   0.381   3.629  11.085 -0.0077  0.5426 -0.5264
  235MPD1     H 3622   0.284   3.823  10.778  2.0111 -1.8679 -0.9585
  235MPD1    H1 3623   0.565   3.718  11.084 -0.3389 -1.9738  0.9820
  235MPD1    H2 3624   0.207   3.509  11.048 -1.3697  1.1162 -1.1365
  235MPD1    H3 3625   0.405   3.568  11.172 -0.3332  1.2041  0.0250
  235MPD1     N 3626   0.508   3.893  10.857  1.1508  0.8149  0.2606
  235MPD1    H5 3627   0.466   3.940  10.778 -0.2761 -0.9104 -0.0067
  235MPD1    N1 3628   0.106   3.652  10.845 -0.3929  0.0343  0.0572
  235MPD1    H6 3629   0.109   3.676  10.747  1.1912 -0.2764  0.0381
  235MPD1    H7 3630   0.066   3.562  10.868  0.6507 -0.8172 -1.4937
  236MPD1     C 3631   3.756   0.391  10.346 -0.8854  0.5288  1.4554
  236MPD1    C1 3632   3.751   0.253  10.351 -0.3833  0.1315 -0.5389
  236MPD1    C2 3633   3.861   0.184  10.404  0.2224 -0.0166 -0.6084
  236MPD1    C3 3634   3.966   0.253  10.461 -0.6706 -0.1892  0.4419
  236MPD1    C4 3635   3.960   0.394  10.469  0.4265 -0.5538 -0.3351
  236MPD1    C5 3636   3.849   0.460  10.411 -0.5083  0.0397  0.8630
  236MPD1     H 3637   3.870   0.076  10.401 -0.5285 -0.1054  0.0294
  236MPD1    H1 3638   4.034   0.453  10.522 -0.9298 -0.8424  1.8851
  236MPD1    H2 3639   3.669   0.448  10.314 -0.9670 -0.1425  0.4738
  236MPD1    H3 3640   3.848   0.568  10.422 -0.4050  0.1553 -0.3085
  236MPD1     N 3641   4.080   0.194  10.520  0.1663  0.2607 -0.5801
  236MPD1    H5 3642   4.155   0.257  10.547  0.9581 -0.8604 -0.1238
  236MPD1    N1 3643   3.653   0.180  10.282 -0.7355  0.1533  0.4061
  236MPD1    H6 3644   3.620   0.096  10.329 -1.9543 -0.0794 -0.8814
  236MPD1    H7 3645   3.567   0.234  10.270 -1.6000 -1.1349  0.8066
  237MPD1     C 3646   4.397   3.668  15.306 -0.1050 -0.3269  0.4609
  237MPD1    C1 3647   4.342   3.634  15.183  0.8775  0.0263 -0.6860
  237MPD1    C2 3648   4.274   3.515  15.166  0.2410  0.0177  0.3059
  237MPD1    C3 3649   4.296   3.415  15.255  0.1802 -0.2052  0.3934
  237MPD1    C4 3650   4.366   3.450  15.378 -0.3979 -0.4230  0.2663
  237MPD1    C5 3651   4.412   3.576  15.405 -0.4771 -0.3160  0.1952
  237MPD1     H 3652   4.228   3.484  15.072 -0.4314 -1.6524  1.1883
  237MPD1    H1 3653   4.385   3.380  15.458  0.3926  1.1609  1.4450
  237MPD1    H2 3654   4.439   3.766  15.324 -2.0037  0.3987  0.8990
  237MPD1    H3 3655   4.456   3.600  15.501  1.7572 -1.0844 -0.6381
  237MPD1     N 3656   4.256   3.279  15.241  0.4125  0.6059 -0.0220
  237MPD1    H5 3657   4.283   3.230  15.327 -0.6435  2.1531  1.1795
  237MPD1    N1 3658   4.318   3.729  15.078  0.0050  0.4843  0.1034
  237MPD1    H6 3659   4.393   3.796  15.061  0.9418 -1.2790 -2.7465
  237MPD1    H7 3660   4.308   3.672  14.994 -0.5739 -0.6149  0.9205
  238MPD1     C 3661   1.407   1.756  14.571 -0.7607  0.9140  0.3356
  238MPD1    C1 3662   1.359   1.710  14.689  0.1989  0.4452 -0.8665
  238MPD1    C2 3663   1.248   1.625  14.685 -0.3368 -0.3605  0.1373
  238MPD1    C3 3664   1.165   1.626  14.579  0.8448  0.4627 -0.3428
  238MPD1    C4 3665   1.204   1.700  14.468  0.2970  0.4747 -0.5546
  238MPD1    C5 3666   1.321   1.771  14.471  0.0238  0.4029  0.4725
  238MPD1     H 3667   1.213   1.582  14.778 -1.9978 -1.1704 -0.8668
  238MPD1    H1 3668   1.152   1.692  14.373  0.8065  2.6052 -1.0063
  238MPD1    H2 3669   1.492   1.823  14.559  0.3570 -0.3825  0.9515
  238MPD1    H3 3670   1.352   1.829  14.385  0.2968  0.5522  0.6700
  238MPD1     N 3671   1.042   1.554  14.575 -0.2182  0.5082  0.0334
  238MPD1    H5 3672   0.990   1.552  14.488 -0.3963 -1.4586  0.1846
  238MPD1    N1 3673   1.447   1.723  14.799  0.1183  0.3588 -0.1084
  238MPD1    H6 3674   1.382   1.741  14.875  0.9385  0.6350  0.5276
  238MPD1    H7 3675   1.499   1.811  14.792 -0.3266  0.7055  0.9212
  239MPD1     C 3676   1.122   2.048  14.833  0.5746  0.9543 -0.2932
  239MPD1    C1 3677   0.996   2.098  14.840  0.4094  0.7045  0.1132
  239MPD1    C2 3678   0.971   2.221  14.774 -0.9018  0.1779 -0.1316
  239MPD1    C3 3679   1.069   2.275  14.685 -0.3187 -0.4660  0.3023
  239MPD1    C4 3680   1.191   2.223  14.677 -0.1389  0.1348  0.3503
  239MPD1    C5 3681   1.215   2.112  14.755  0.1599 -0.1017 -0.3015
  239MPD1     H 3682   0.872   2.255  14.804 -0.5403  0.5457  0.6339
  239MPD1    H1 3683   1.267   2.277  14.622 -0.7630 -0.9029 -1.5162
  239MPD1    H2 3684   1.153   1.960  14.888 -0.1712  0.3091 -0.8964
  239MPD1    H3 3685   1.317   2.076  14.755 -0.3944 -1.6941  0.2143
  239MPD1     N 3686   1.029   2.373  14.593 -0.3120 -0.5662  0.1116
  239MPD1    H5 3687   1.093   2.406  14.521 -0.1807  0.8056  0.8685
  239MPD1    N1 3688   0.914   2.051  14.943  0.1258  0.2013 -0.3732
  239MPD1    H6 3689   0.921   1.950  14.937 -0.1516  0.1077  0.8939
  239MPD1    H7 3690   0.816   2.074  14.923  0.2945  0.8286 -0.4769
  240MPD1     C 3691   0.224   2.396  13.785  0.5518  0.1896  0.7108
  240MPD1    C1 3692   0.115   2.332  13.836 -0.6322  0.2553  0.3976
  240MPD1    C2 3693   0.135   2.248  13.943  0.1241 -0.7705 -0.0643
  240MPD1    C3 3694   0.266   2.205  13.973 -0.6181 -0.0067 -0.9704
  240MPD1    C4 3695   0.374   2.257  13.910  0.5885  0.8956 -0.2664
  240MPD1    C5 3696   0.351   2.353  13.808 -1.2407 -0.3219  0.7465
  240MPD1     H 3697   0.051   2.214  14.001 -1.1744  1.0715 -0.8364
  240MPD1    H1 3698   0.479   2.234  13.916 -0.0050 -1.6218  0.7367
  240MPD1    H2 3699   0.211   2.476  13.713 -1.0365 -1.2539 -0.6140
  240MPD1    H3 3700   0.439   2.403  13.768 -0.4288 -1.8905  0.5830
  240MPD1     N 3701   0.283   2.102  14.072 -0.5104  0.1009  0.3455
  240MPD1    H5 3702   0.193   2.069  14.105 -0.2548 -0.2366  0.7029
  240MPD1    N1 3703   4.732   2.386  13.820  0.1911 -0.6497 -0.1545
  240MPD1    H6 3704   4.719   2.434  13.731 -3.1687 -1.5085 -0.1521
  240MPD1    H7 3705   4.661   2.313  13.822 -0.3496 -0.1115  0.3729
  241MPD1     C 3706   0.767   1.615  14.928 -0.1728  0.4612 -0.1271
  241MPD1    C1 3707   0.822   1.701  14.834  0.2251 -0.3244  0.1368
  241MPD1    C2 3708   0.739   1.740  14.726 -0.5627 -0.3252 -0.7200
  241MPD1    C3 3709   0.611   1.693  14.704 -0.9382  0.2889  1.0895
  241MPD1    C4 3710   0.563   1.609  14.800 -0.4158  0.4117 -0.0191
  241MPD1    C5 3711   0.645   1.562  14.904  0.4108  0.6178 -1.0262
  241MPD1     H 3712   0.769   1.815  14.653 -2.2496  0.2020 -0.8745
  241MPD1    H1 3713   0.461   1.572  14.796 -1.0843  2.6923 -3.7663
  241MPD1    H2 3714   0.810   1.587  15.023 -1.8131 -1.0729  0.1674
  241MPD1    H3 3715   0.606   1.493  14.978 -1.2200 -0.9146 -3.3277
  241MPD1     N 3716   0.531   1.718  14.593 -0.4133 -0.0025  0.4351
  241MPD1    H5 3717   0.450   1.658  14.581 -1.4210  1.1590  1.4461
  241MPD1    N1 3718   0.944   1.760  14.848  0.5629  0.3021  0.1267
  241MPD1    H6 3719   1.013   1.705  14.899  0.8392  0.8922  0.3944
  241MPD1    H7 3720   0.990   1.782  14.760  0.0130 -1.6066 -0.6239
  242MPD1     C 3721   0.433   0.799  16.250  0.0990  0.4244 -0.3246
  242MPD1    C1 3722   0.489   0.674  16.216 -0.4536 -0.4893 -0.2044
  242MPD1    C2 3723   0.497   0.640  16.082 -0.6238 -0.1107  0.5609
  242MPD1    C3 3724   0.488   0.743  15.984  0.4765  0.5796 -0.7586
  242MPD1    C4 3725   0.443   0.862  16.017  0.2516  0.3969  0.2957
  242MPD1    C5 3726   0.414   0.894  16.148  0.4247 -0.1145 -0.1229
  242MPD1     H 3727   0.522   0.542  16.043 -1.7097 -0.0513 -0.2804
  242MPD1    H1 3728   0.429   0.942  15.944 -2.0448  1.4297  1.8637
  242MPD1    H2 3729   0.401   0.829  16.349  3.4499 -0.5495  1.0334
  242MPD1    H3 3730   0.369   0.990  16.173 -0.5511 -0.9830  1.4604
  242MPD1     N 3731   0.511   0.708  15.855  0.1165 -0.7065  1.2046
  242MPD1    H5 3732   0.533   0.609  15.850  1.3354 -0.4245  1.1298
  242MPD1    N1 3733   0.510   0.572  16.308  0.6736  1.0642  0.2777
  242MPD1    H6 3734   0.592   0.518  16.280 -0.6486 -0.3568 -0.8476
  242MPD1    H7 3735   0.529   0.606  16.402 -4.1427  3.1121  0.5285
  243MPD1     C 3736   1.973   4.583  17.699  0.3711 -0.2297 -0.4858
  243MPD1    C1 3737   2.005   4.499   0.051 -0.0456  0.2619  0.0045
  243MPD1    C2 3738   1.992   4.360   0.020  0.2068  0.0851 -0.7876
  243MPD1    C3 3739   1.983   4.313  17.642 -0.8993  0.0270 -0.0198
  243MPD1    C4 3740   1.934   4.402  17.545 -0.0333  0.6223  0.2675
  243MPD1    C5 3741   1.932   4.532  17.578  0.1243  0.0484 -0.6113
  243MPD1     H 3742   1.987   4.286   0.099 -1.6106  0.7405 -0.2852
  243MPD1    H1 3743   1.905   4.369  17.446  0.0757  0.3029  0.3421
  243MPD1    H2 3744   1.963   4.690  17.714  0.0461 -0.4507  0.8109
  243MPD1    H3 3745   1.895   4.609  17.511 -0.4018 -2.0910 -2.8127
  243MPD1     N 3746   1.985   4.178  17.602 -0.1901  0.0120  0.1998
  243MPD1    H5 3747   1.949   4.157  17.510 -0.2709 -0.0413  0.2441
  243MPD1    N1 3748   2.012   4.540   0.181 -0.4601  0.0709 -0.0527
  243MPD1    H6 3749   2.059   4.471   0.239  1.5992  1.4808 -0.0134
  243MPD1    H7 3750   2.058   4.630   0.198  0.7538 -0.1243 -2.3083
  244MPD1     C 3751   2.118   3.284   0.368  0.3449 -0.2878  0.5240
  244MPD1    C1 3752   2.106   3.415   0.422  0.0210 -0.2243  0.0693
  244MPD1    C2 3753   2.063   3.515   0.328 -0.3340  0.6533 -0.0562
  244MPD1    C3 3754   2.044   3.490   0.192 -0.0395  0.6765  0.3785
  244MPD1    C4 3755   2.072   3.365   0.146  0.0613  0.4347  0.7738
  244MPD1    C5 3756   2.115   3.266   0.228 -0.4676 -0.7843 -0.8369
  244MPD1     H 3757   2.036   3.614   0.363 -0.1159  0.7832 -0.2537
  244MPD1    H1 3758   2.068   3.333   0.043  0.0815  3.2746 -0.0948
  244MPD1    H2 3759   2.159   3.195   0.412 -0.4190 -0.5845  0.6346
  244MPD1    H3 3760   2.125   3.169   0.180  0.6663 -0.8622 -0.4544
  244MPD1     N 3761   2.003   3.597   0.111 -0.3365  0.0600  0.1044
  244MPD1    H5 3762   1.995   3.692   0.145  0.2485 -0.1849  0.9193
  244MPD1    N1 3763   2.086   3.425   0.556 -0.4848 -0.0293  0.7627
  244MPD1    H6 3764   2.106   3.518   0.590 -1.1179  0.5302 -0.3990
  244MPD1    H7 3765   2.140   3.355   0.607 -1.0229 -1.7944 -1.0750
  245MPD1     C 3766   3.521   3.882  13.395  0.6823  0.0139 -0.3877
  245MPD1    C1 3767   3.582   3.883  13.516 -0.3415  0.2323  0.3329
  245MPD1    C2 3768   3.627   4.008  13.561 -0.0932 -0.2283  0.1738
  245MPD1    C3 3769   3.615   4.126  13.485  0.0711 -0.3479 -0.1621
  245MPD1    C4 3770   3.551   4.117  13.362 -0.3961 -0.1736 -0.0620
  245MPD1    C5 3771   3.510   3.999  13.318 -0.4413 -0.9257  0.3195
  245MPD1     H 3772   3.692   4.019  13.647  0.4438  1.3808 -0.4324
  245MPD1    H1 3773   3.537   4.201  13.294 -0.0799  0.2862  0.4439
  245MPD1    H2 3774   3.472   3.801  13.343 -0.5791 -0.3124  1.3016
  245MPD1    H3 3775   3.457   3.981  13.225  1.0914 -1.7345 -0.3964
  245MPD1     N 3776   3.675   4.244  13.530  0.6460  0.2051 -0.2694
  245MPD1    H5 3777   3.725   4.238  13.618 -1.4092  0.1185  0.9115
  245MPD1    N1 3778   3.611   3.760  13.578 -0.2863 -0.7060 -0.7920
  245MPD1    H6 3779   3.626   3.768  13.678  1.4600 -0.0545 -1.1017
  245MPD1    H7 3780   3.542   3.690  13.555 -1.6152  0.7494 -1.2480
  246MPD1     C 3781   4.381   2.060  10.490  0.5759 -0.3294 -0.5957
  246MPD1    C1 3782   4.373   2.131  10.373  0.0208 -0.1957 -0.4869
  246MPD1    C2 3783   4.446   2.087  10.265  0.5498 -0.3224  0.2379
  246MPD1    C3 3784   4.489   1.959  10.254 -0.1630  0.2278 -0.4880
  246MPD1    C4 3785   4.490   1.884  10.367  1.0397 -0.2898 -0.2204
  246MPD1    C5 3786   4.452   1.945  10.481  0.8140  0.8105  0.3956
  246MPD1     H 3787   4.447   2.156  10.182  1.0387  0.3908  0.8439
  246MPD1    H1 3788   4.498   1.776  10.379 -2.5371 -0.8042 -2.4922
  246MPD1    H2 3789   4.350   2.088  10.590 -0.3641  0.0756 -0.9970
  246MPD1    H3 3790   4.470   1.893  10.575  1.7037 -1.2666 -0.9254
  246MPD1     N 3791   4.543   1.911  10.130 -0.1694 -0.2089  0.6870
  246MPD1    H5 3792   4.556   1.974  10.051  2.0792  0.6349  1.7030
  246MPD1    N1 3793   4.327   2.267  10.377  0.0609 -0.1685  0.0413
  246MPD1    H6 3794   4.240   2.275  10.429  0.1836 -1.2986  0.4116
  246MPD1    H7 3795   4.316   2.320  10.291  1.2438 -0.5505 -0.3300
  247MPD1     C 3796   3.119   0.617  16.620 -0.5679  0.1748 -0.4437
  247MPD1    C1 3797   3.031   0.528  16.675  0.3041  0.2957  0.5246
  247MPD1    C2 3798   3.022   0.405  16.611 -0.5487  0.1651  0.3457
  247MPD1    C3 3799   3.070   0.378  16.485  0.2418  0.5123  0.1118
  247MPD1    C4 3800   3.154   0.470  16.426  0.5306 -0.1679  0.2062
  247MPD1    C5 3801   3.172   0.590  16.497 -0.5862  0.5855 -0.2381
  247MPD1     H 3802   2.966   0.325  16.659 -0.9779  0.0145 -0.4009
  247MPD1    H1 3803   3.218   0.450  16.340 -0.8916  0.2967 -0.9562
  247MPD1    H2 3804   3.143   0.709  16.671  2.6258 -0.4430 -0.7935
  247MPD1    H3 3805   3.224   0.680  16.468 -1.4833  1.0991 -0.2677
  247MPD1     N 3806   3.035   0.268  16.411  0.2500  0.1047 -0.5467
  247MPD1    H5 3807   3.088   0.261  16.324  0.1242 -1.3219 -0.5036
  247MPD1    N1 3808   3.001   0.539  16.811  0.0924 -0.0990  0.9375
  247MPD1    H6 3809   2.978   0.636  16.830 -0.4469 -0.1323  0.4688
  247MPD1    H7 3810   2.922   0.480  16.835 -0.9744  0.1840 -1.8769
  248MPD1     C 3811   3.731   3.259   0.549 -0.6501 -0.0234  0.0746
  248MPD1    C1 3812   3.743   3.323   0.427  0.0371 -0.0523 -0.6105
  248MPD1    C2 3813   3.647   3.421   0.401  0.1419  0.2854 -0.2476
  248MPD1    C3 3814   3.546   3.463   0.483  0.2902 -0.2867  0.0550
  248MPD1    C4 3815   3.543   3.402   0.610 -0.5224  0.2204 -0.2465
  248MPD1    C5 3816   3.640   3.303   0.641 -0.1211  0.1262 -0.3017
  248MPD1     H 3817   3.629   3.464   0.303 -0.3381 -0.4090 -0.4672
  248MPD1    H1 3818   3.467   3.431   0.681 -2.6301 -0.4272 -2.2691
  248MPD1    H2 3819   3.793   3.176   0.579  1.7710  1.1621 -1.6396
  248MPD1    H3 3820   3.640   3.257   0.740  1.2486  3.4100  1.2349
  248MPD1     N 3821   3.446   3.552   0.434 -0.6955  0.2441  0.2645
  248MPD1    H5 3822   3.444   3.578   0.336  1.3019 -0.9366 -0.0826
  248MPD1    N1 3823   3.838   3.289   0.326  0.2932  0.3243 -0.6747
  248MPD1    H6 3824   3.933   3.274   0.360 -0.3177  1.4487  1.5049
  248MPD1    H7 3825   3.849   3.366   0.260 -0.0810  1.8883  1.0932
  249MPD1     C 3826   1.552   4.061  10.198  0.3280  0.7517 -0.1189
  249MPD1    C1 3827   1.524   3.984  10.307 -0.7636 -0.3455  0.0614
  249MPD1    C2 3828   1.627   3.944  10.385 -0.0378  0.2398  0.3411
  249MPD1    C3 3829   1.750   4.003  10.377  0.3798 -0.0239  0.0535
  249MPD1    C4 3830   1.776   4.092  10.274  0.4336 -0.0051  0.2385
  249MPD1    C5 3831   1.677   4.111  10.183 -0.0222  0.3921  0.7639
  249MPD1     H 3832   1.602   3.881  10.470 -0.0683  0.9327  0.8485
  249MPD1    H1 3833   1.871   4.143  10.261 -0.2931  0.8182 -1.7844
  249MPD1    H2 3834   1.477   4.092  10.127 -1.5261 -1.5822  0.8050
  249MPD1    H3 3835   1.683   4.180  10.100  1.5704  0.1943  0.7231
  249MPD1     N 3836   1.850   3.955  10.464 -0.0748 -0.2585 -0.3846
  249MPD1    H5 3837   1.820   3.899  10.544 -0.0558  1.7410  1.0141
  249MPD1    N1 3838   1.391   3.939  10.328  0.3183 -0.2452  0.7575
  249MPD1    H6 3839   1.380   3.893  10.418  0.0061 -1.3778  0.1491
  249MPD1    H7 3840   1.328   4.017  10.315 -0.5306 -0.9084  0.9171
  250MPD2     C 3841   1.827   2.600  13.546 -0.8804  0.3080 -0.5686
  250MPD2    C1 3842   1.941   2.641  13.486 -0.2030 -1.6318 -0.6427
  250MPD2    C2 3843   1.946   2.645  13.351 -0.7651  0.9361  0.3587
  250MPD2    C3 3844   1.857   2.571  13.274 -0.2778  0.5793 -0.0527
  250MPD2    C4 3845   1.763   2.498  13.338 -0.1482  0.3121  0.2523
  250MPD2    C5 3846   1.753   2.513  13.475 -0.2557 -0.5161 -0.0631
  250MPD2     H 3847   2.023   2.701  13.300  0.9138 -2.0834 -0.4221
  250MPD2    H1 3848   1.691   2.438  13.285  1.1475 -1.6519  0.7001
  250MPD2    H2 3849   1.806   2.624  13.649  0.0372  0.9242 -0.5300
  250MPD2    H3 3850   1.667   2.471  13.525  0.7132 -0.5527  1.5480
  250MPD2     N 3851   1.876   2.546  13.130 -0.1577  0.2831 -0.1120
  250MPD2    H5 3852   1.831   2.467  13.084  1.4360  1.7885 -4.2790
  250MPD2    N1 3853   2.036   2.708  13.563  0.0424  0.4854 -0.7867
  250MPD2    H7 3854   2.008   2.718  13.660 -1.3084 -0.9738 -1.0334
  251TMC3    C1 3855   2.221   2.832  13.631  0.0158 -0.1446 -0.1013
  251TMC3    C2 3856   2.138   2.913  13.697  0.0536  0.0597 -0.3083
  251TMC3    C3 3857   2.185   3.036  13.730 -0.2214 -0.0630 -0.0891
  251TMC3    C4 3858   2.349   2.863  13.607  0.4494 -0.4307 -0.5542
  251TMC3    C5 3859   2.395   2.987  13.645 -0.5437 -0.5822 -0.3864
  251TMC3    C6 3860   2.316   3.073  13.718 -0.8496 -0.0374  0.0110
  251TMC3     C 3861   2.158   2.758  13.525  0.1186  0.0453  0.2494
  251TMC3     O 3862   2.219   2.754  13.419  0.6953 -0.0700  0.3645
  251TMC3     H 3863   2.044   2.881  13.739  0.0706  0.6796  0.2033
  251TMC3    H1 3864   2.417   2.799  13.553  1.9411  0.4781  0.2517
  251TMC3    H2 3865   2.347   3.173  13.748 -2.0099  0.0989  0.7461
  251TMC3    C7 3866   2.519   3.031  13.591 -0.3621 -0.3324 -0.2966
  251TMC3    C8 3867   2.104   3.119  13.821  0.0282 -0.8646 -0.2948
  251TMC3    O1 3868   2.605   2.947  13.611  0.0545 -0.4026 -0.2702
  251TMC3    O2 3869   2.156   3.160  13.926  0.3185  0.1271 -0.4814
  252TMC3    C1 3870   2.362   4.285   9.172 -0.3031 -0.3924  0.3310
  252TMC3    C2 3871   2.481   4.277   9.236 -0.0994 -0.2704  0.0666
  252TMC3    C3 3872   2.493   4.184   9.342  0.3225 -0.4074  0.0800
  252TMC3    C4 3873   2.263   4.192   9.207  0.7295 -0.5627  0.2703
  252TMC3    C5 3874   2.281   4.104   9.313  0.0157  0.1695  0.6109
  252TMC3    C6 3875   2.397   4.093   9.377  0.1822  0.3765  0.7234
  252TMC3     C 3876   2.339   4.382   9.071  0.2293  0.3223 -0.2924
  252TMC3     O 3877   2.256   4.355   8.987 -0.5692  0.1816  0.0398
  252TMC3     H 3878   2.562   4.346   9.213 -0.3479 -0.0906 -0.2624
  252TMC3    H1 3879   2.168   4.217   9.160  0.9548  0.1807  0.2005
  252TMC3    H2 3880   2.422   4.003   9.431 -2.0903 -0.4009  0.4405
  252TMC3    C7 3881   2.166   4.011   9.336 -1.2754  0.0852 -0.4331
  252TMC3    C8 3882   2.609   4.214   9.429  0.3249 -0.7002  0.4677
  252TMC3    O1 3883   2.077   4.014   9.257  0.0169 -0.7870 -0.0134
  252TMC3    O2 3884   2.680   4.309   9.400 -0.9377  0.4103 -0.1112
  253MPD2     C 3885   3.559   3.115  14.920  0.1502  0.2330 -0.0514
  253MPD2    C1 3886   3.449   3.062  14.981 -0.4517  0.6481  0.4851
  253MPD2    C2 3887   3.428   3.100  15.117  0.0545  0.3563 -0.1745
  253MPD2    C3 3888   3.517   3.190  15.179  0.0033  0.1663 -0.3096
  253MPD2    C4 3889   3.627   3.237  15.112  0.4357 -0.2289  0.1269
  253MPD2    C5 3890   3.648   3.197  14.983  0.0313  0.0068  0.1039
  253MPD2     H 3891   3.340   3.062  15.167  0.4635  0.0084  0.2895
  253MPD2    H1 3892   3.702   3.296  15.162  0.0729 -0.5556  1.0440
  253MPD2    H2 3893   3.576   3.093  14.815  1.7207 -0.9114  0.4427
  253MPD2    H3 3894   3.730   3.227  14.920 -0.4974  2.2246  0.4776
  253MPD2     N 3895   3.493   3.233  15.312 -0.1246  0.0157  0.3332
  253MPD2    H5 3896   3.411   3.200  15.360  0.2462 -1.2205  0.1328
  253MPD2    N1 3897   3.351   2.982  14.916 -0.2794  0.1483  0.8072
  253MPD2    H7 3898   3.265   2.960  14.965  0.6485 -1.4213  1.7108
  254TMC3    C1 3899   3.500   3.371  15.496  0.4593 -0.3457  0.9893
  254TMC3    C2 3900   3.395   3.458  15.463 -0.0151  0.2757  0.6657
  254TMC3    C3 3901   3.287   3.454  15.549  0.1648 -0.0521 -0.0002
  254TMC3    C4 3902   3.488   3.282  15.595 -0.1238  0.3690  0.1905
  254TMC3    C5 3903   3.385   3.291  15.684 -0.4820  0.0741 -0.0349
  254TMC3    C6 3904   3.282   3.382  15.665 -0.0712  0.3539 -0.1593
  254TMC3     C 3905   3.573   3.321  15.389 -0.2726 -0.6167  0.0878
  254TMC3     O 3906   3.687   3.363  15.379  0.2401 -0.2374 -0.4046
  254TMC3     H 3907   3.400   3.511  15.369 -0.5557  0.6745  0.8612
  254TMC3    H1 3908   3.554   3.197  15.603 -0.5256  0.2226  2.0157
  254TMC3    H2 3909   3.215   3.404  15.748  0.9513  2.1694  0.1805
  254TMC3    C7 3910   3.358   3.174  15.765  0.6675 -0.5753  0.0546
  254TMC3    C8 3911   3.187   3.555  15.531  0.0221 -0.0260  0.0092
  254TMC3    O1 3912   3.446   3.111  15.820 -0.1126  0.3765 -0.6958
  254TMC3    O2 3913   3.211   3.661  15.475  0.6499  0.2131 -0.1743
  255MPD2     C 3914   2.297   1.541  10.116 -0.0733  0.0764 -0.0466
  255MPD2    C1 3915   2.203   1.444  10.118 -0.2798 -0.0789  0.1140
  255MPD2    C2 3916   2.190   1.355  10.014 -0.9011  0.7328  0.0622
  255MPD2    C3 3917   2.267   1.369   9.899 -0.1755 -0.7914 -0.6547
  255MPD2    C4 3918   2.357   1.475   9.892 -0.6805  0.2142  0.2981
  255MPD2    C5 3919   2.372   1.552  10.004 -0.3362  0.9395  0.5671
  255MPD2     H 3920   2.127   1.268  10.032 -0.3778  0.0727 -1.3306
  255MPD2    H1 3921   2.425   1.490   9.809 -0.4703 -0.0724  0.4201
  255MPD2    H2 3922   2.298   1.614  10.195  0.2920 -0.4192  0.4135
  255MPD2    H3 3923   2.456   1.619   9.999  2.2914 -2.2012  2.3856
  255MPD2     N 3924   2.260   1.275   9.797  0.5494 -0.1835  0.0426
  255MPD2    H5 3925   2.202   1.193   9.815  0.9531 -0.2668  0.9275
  255MPD2    N1 3926   2.125   1.438  10.240 -0.1841 -0.4879 -0.2324
  255MPD2    H7 3927   2.142   1.504  10.316  2.9705 -1.0444 -0.4661
  256TMC3    C1 3928   1.911   1.432  10.332 -0.1668 -0.3222 -0.5040
  256TMC3    C2 3929   1.898   1.571  10.326  0.1209 -0.5245  0.6202
  256TMC3    C3 3930   1.777   1.619  10.355 -0.3550 -0.1032  0.6762
  256TMC3    C4 3931   1.803   1.345  10.347 -0.5935 -0.4242 -0.4688
  256TMC3    C5 3932   1.682   1.403  10.369 -0.3368  0.2421 -0.2107
  256TMC3    C6 3933   1.668   1.536  10.375  0.7208  0.1228 -0.7404
  256TMC3     C 3934   2.015   1.367  10.255  0.2155  0.4298  0.0901
  256TMC3     O 3935   1.970   1.274  10.195  0.2813  0.5775  0.6891
  256TMC3     H 3936   1.984   1.637  10.331 -0.8029  0.5864  1.9506
  256TMC3    H1 3937   1.821   1.240  10.365 -0.4081 -0.6370 -1.8696
  256TMC3    H2 3938   1.571   1.577  10.399  0.6508  0.9813 -2.4619
  256TMC3    C7 3939   1.571   1.308  10.394  0.3867 -0.1622 -0.4018
  256TMC3    C8 3940   1.762   1.765  10.375  0.1397  0.0251 -0.0227
  256TMC3    O1 3941   1.610   1.193  10.411 -0.1882 -0.3328 -0.2277
  256TMC3    O2 3942   1.677   1.805  10.454  0.3266 -0.4063 -0.0087
  257MPD2     C 3943   0.369   2.897  13.124 -0.0798 -0.0595  0.3645
  257MPD2    C1 3944   0.500   2.907  13.086 -0.5083  0.0064  0.0534
  257MPD2    C2 3945   0.600   2.840  13.162  0.6754 -0.3548  0.7873
  257MPD2    C3 3946   0.563   2.743  13.253  0.8185  0.9680  0.5053
  257MPD2    C4 3947   0.427   2.721  13.273 -0.5903 -0.7957 -0.2558
  257MPD2    C5 3948   0.333   2.799  13.213  0.0775  0.1100  0.0095
  257MPD2     H 3949   0.705   2.854  13.137  0.7404  1.2935  1.9521
  257MPD2    H1 3950   0.389   2.639  13.333  2.7444 -2.6246 -0.6263
  257MPD2    H2 3951   0.288   2.949  13.074 -1.7376 -3.4200 -0.4803
  257MPD2    H3 3952   0.228   2.775  13.226  0.4631 -0.5435  2.0717
  257MPD2     N 3953   0.661   2.650  13.305 -0.0690 -1.0126 -0.3722
  257MPD2    H5 3954   0.751   2.666  13.261 -0.6735  0.2230 -1.1401
  257MPD2    N1 3955   0.526   3.002  12.979 -0.3349 -0.0624 -0.2363
  257MPD2    H7 3956   0.441   3.034  12.934  0.4766 -1.1079 -2.5199
  258TMC3    C1 3957   0.735   2.468  13.450  0.0289  0.5593 -0.2095
  258TMC3    C2 3958   0.851   2.464  13.380  0.2884 -0.3468  0.3025
  258TMC3    C3 3959   0.950   2.386  13.430 -0.2836 -0.8209 -0.8665
  258TMC3    C4 3960   0.704   2.389  13.554  0.2776 -0.0611  0.0671
  258TMC3    C5 3961   0.808   2.322  13.604 -0.0207 -0.5251  0.2093
  258TMC3    C6 3962   0.936   2.308  13.542 -0.7458  0.3585  0.4270
  258TMC3     C 3963   0.636   2.573  13.417  0.4028 -0.0024  0.0586
  258TMC3     O 3964   0.540   2.567  13.491 -0.0620  0.2060  0.1401
  258TMC3     H 3965   0.858   2.526  13.291 -0.2758 -1.1743 -0.3158
  258TMC3    H1 3966   0.607   2.377  13.601 -0.2980 -3.0211 -1.8314
  258TMC3    H2 3967   1.014   2.235  13.559 -0.5678  0.9356  2.0962
  258TMC3    C7 3968   0.789   2.260  13.727 -0.6297 -0.4523 -0.0781
  258TMC3    C8 3969   1.085   2.390  13.373 -0.2961  0.0731 -0.0540
  258TMC3    O1 3970   0.676   2.233  13.765  0.3946 -0.4980  0.1190
  258TMC3    O2 3971   1.160   2.294  13.398  0.4537  0.3499  0.0927
  259MPD2     C 3972   0.225   4.714   0.654  0.1003  0.4413 -0.4919
  259MPD2    C1 3973   0.201   4.584   0.613  0.0242 -0.0376 -0.5579
  259MPD2    C2 3974   0.143   4.558   0.487  0.7591  0.4432  0.4814
  259MPD2    C3 3975   0.108   4.664   0.405  0.0581  0.0707  0.5196
  259MPD2    C4 3976   0.130   0.057   0.448 -0.4855 -0.0467  0.5942
  259MPD2    C5 3977   0.183   0.076   0.575  0.5916  0.3728 -0.2318
  259MPD2     H 3978   0.119   4.458   0.454  3.4730  0.2464 -0.8973
  259MPD2    H1 3979   0.098   0.147   0.397  2.1355 -0.0475 -1.0836
  259MPD2    H2 3980   0.267   4.738   0.751 -0.5077 -1.4905  0.2626
  259MPD2    H3 3981   0.189   0.175   0.616  1.2297  0.3878 -0.3667
  259MPD2     N 3982   0.076   4.632   0.272  0.2228  0.1042  0.0305
  259MPD2    H5 3983   0.090   4.533   0.254  2.3377  0.3402  0.3731
  259MPD2    N1 3984   0.219   4.485   0.710 -0.4117  0.3876  0.6293
  259MPD2    H7 3985   0.242   4.515   0.804 -1.9576  0.2206  1.0659
  260TMC3    C1 3986   0.034   4.668   0.036 -0.1808  0.6326  0.1044
  260TMC3    C2 3987   0.073   0.013  17.686 -0.3112 -0.2633 -0.1292
  260TMC3    C3 3988   0.078   4.694  17.565 -0.8493 -0.3853  0.6560
  260TMC3    C4 3989   0.012   4.536   0.026 -0.3316  0.0282 -0.6085
  260TMC3    C5 3990   0.015   4.487  17.650 -0.1738 -0.8232 -0.0957
  260TMC3    C6 3991   0.041   4.565  17.542  0.7258  0.2060  0.4397
  260TMC3     C 3992   0.053   4.725   0.175  0.0742 -0.4121 -0.0887
  260TMC3     O 3993   0.044   0.110   0.176 -0.7406 -0.0575  0.5496
  260TMC3     H 3994   0.109   0.115  17.696  0.6365 -0.7122  1.0390
  260TMC3    H1 3995   4.707   4.479   0.107  1.4245  0.7731  0.8420
  260TMC3    H2 3996   0.018   4.525  17.444  0.1030 -1.0340  1.0912
  260TMC3    C7 3997   4.697   4.359  17.620  0.0905 -0.4779  0.1781
  260TMC3    C8 3998   0.082   0.044  17.450  0.0577 -0.1494 -0.3328
  260TMC3    O1 3999   4.656   4.344  17.512 -0.3406  0.0791  0.6064
  260TMC3    O2 4000   0.055   0.164  17.471  0.1555  0.2267 -0.0256
  261MPD2     C 4001   1.446   2.778  12.474  0.5967  0.5168 -0.0285
  261MPD2    C1 4002   1.577   2.821  12.459 -0.4367 -0.1582  0.1365
  261MPD2    C2 4003   1.609   2.923  12.366  0.2283  0.0314 -0.3205
  261MPD2    C3 4004   1.499   2.976  12.287 -0.0271  0.5125  0.5437
  261MPD2    C4 4005   1.366   2.930  12.315 -0.6594  0.4830  0.6412
  261MPD2    C5 4006   1.341   2.828  12.400  0.4233  0.1497 -0.7103
  261MPD2     H 4007   1.714   2.948  12.353 -0.3037  1.5255 -1.6149
  261MPD2    H1 4008   1.273   2.970  12.276 -0.2537  1.0392  0.2378
  261MPD2    H2 4009   1.428   2.696  12.543  0.3645  0.6481  0.0686
  261MPD2    H3 4010   1.243   2.788  12.424  0.4861  0.6583  0.3962
  261MPD2     N 4011   1.523   3.077  12.191  0.2040 -0.2666 -0.2314
  261MPD2    H5 4012   1.619   3.100  12.168  0.1957  0.0355  0.0359
  261MPD2    N1 4013   1.692   2.773  12.537  0.3578 -0.2759 -0.7417
  261MPD2    H7 4014   1.786   2.791  12.502 -0.2431  1.3694 -1.5134
  262TMC3    C1 4015   1.473   3.262  12.052  0.4012 -0.7327  0.2749
  262TMC3    C2 4016   1.382   3.366  12.033  0.3465 -0.4529  0.2314
  262TMC3    C3 4017   1.424   3.466  11.948 -0.1937  0.4178 -0.3765
  262TMC3    C4 4018   1.589   3.253  11.986 -0.3098  0.0562  0.2744
  262TMC3    C5 4019   1.617   3.354  11.900 -0.1167  0.1681  0.0492
  262TMC3    C6 4020   1.551   3.477  11.893  0.1739  0.6295 -0.8254
  262TMC3     C 4021   1.424   3.156  12.138  0.2436 -0.0259  0.4567
  262TMC3     O 4022   1.308   3.164  12.170 -0.3471  0.2594  0.1490
  262TMC3     H 4023   1.287   3.367  12.085  0.0907 -1.1147 -0.2257
  262TMC3    H1 4024   1.662   3.173  11.995 -1.1390 -0.6093  1.1549
  262TMC3    H2 4025   1.575   3.553  11.821  0.9957  0.7453 -0.4240
  262TMC3    C7 4026   1.737   3.326  11.818  0.3261 -0.0986 -0.7420
  262TMC3    C8 4027   1.350   3.589  11.954  0.4142  0.0211 -0.1607
  262TMC3    O1 4028   1.809   3.232  11.853 -0.1004 -0.1968 -0.2943
  262TMC3    O2 4029   1.403   3.690  11.913 -0.5257 -0.3341 -0.1178
  263MPD2     C 4030   2.609   1.914  11.545 -0.5368 -0.5964  0.5198
  263MPD2    C1 4031   2.691   2.026  11.527  0.2903  0.1937  0.3273
  263MPD2    C2 4032   2.648   2.126  11.444  0.3038  0.7561 -0.5172
  263MPD2    C3 4033   2.525   2.127  11.384  0.1087 -1.0660  0.2342
  263MPD2    C4 4034   2.440   2.019  11.410 -0.1243 -0.1138 -0.3980
  263MPD2    C5 4035   2.481   1.918  11.491  0.5640  0.1057  0.7408
  263MPD2     H 4036   2.715   2.208  11.419  0.7566  0.3858 -0.5246
  263MPD2    H1 4037   2.346   2.008  11.358 -0.7088  0.1886  0.6006
  263MPD2    H2 4038   2.635   1.825  11.602 -2.7480 -1.6602 -0.1484
  263MPD2    H3 4039   2.406   1.840  11.497 -0.2132  0.7105 -0.9794
  263MPD2     N 4040   2.487   2.238  11.308  0.4608 -0.0884 -0.1307
  263MPD2    H5 4041   2.562   2.304  11.292  0.5311  0.2788  1.7083
  263MPD2    N1 4042   2.814   2.040  11.601 -0.7255  0.9428 -0.1646
  263MPD2    H7 4043   2.832   1.965  11.668  0.5394 -0.2841 -1.8536
  264TMC3    C1 4044   2.372   2.376  11.166  0.4124  0.4626 -0.1925
  264TMC3    C2 4045   2.419   2.487  11.232 -0.1492 -0.6435  0.0070
  264TMC3    C3 4046   2.445   2.597  11.154  0.0916 -0.0137  0.3879
  264TMC3    C4 4047   2.355   2.359  11.029 -1.2271  0.8733 -0.3955
  264TMC3    C5 4048   2.393   2.473  10.962  0.1707  0.1407 -0.0841
  264TMC3    C6 4049   2.441   2.587  11.018 -0.1604 -0.0540  0.5785
  264TMC3     C 4050   2.369   2.255  11.244 -0.4179  0.5425  0.4922
  264TMC3     O 4051   2.263   2.197  11.253 -0.6659  0.1355 -0.1877
  264TMC3     H 4052   2.426   2.497  11.339 -2.2416  1.3096 -0.0398
  264TMC3    H1 4053   2.338   2.257  10.997 -3.3979  1.9027 -2.5006
  264TMC3    H2 4054   2.470   2.671  10.956 -0.7886 -1.4653 -1.6128
  264TMC3    C7 4055   2.417   2.467  10.821  0.0675 -0.2465 -0.3726
  264TMC3    C8 4056   2.488   2.722  11.212 -0.5362 -1.2271  1.2075
  264TMC3    O1 4057   2.495   2.549  10.777  0.6554  0.3759 -0.1386
  264TMC3    O2 4058   2.559   2.782  11.134  0.3819  0.3669 -0.2604
  265MPD2     C 4059   4.033   2.733  15.502 -0.3930 -0.0974 -0.1172
  265MPD2    C1 4060   4.153   2.799  15.494  0.0351  0.3586  0.3359
  265MPD2    C2 4061   4.241   2.756  15.394 -0.3753 -0.2990 -0.0810
  265MPD2    C3 4062   4.213   2.646  15.314  0.3558  0.2277  0.1909
  265MPD2    C4 4063   4.082   2.596  15.314 -0.5154  0.0904 -0.4186
  265MPD2    C5 4064   3.991   2.640  15.408 -0.0438 -0.6300 -1.1726
  265MPD2     H 4065   4.331   2.815  15.378  0.1961 -1.2504 -0.3328
  265MPD2    H1 4066   4.049   2.514  15.252 -1.0684 -0.0999  0.1242
  265MPD2    H2 4067   3.960   2.760  15.577  0.0759 -0.6529  0.5379
  265MPD2    H3 4068   3.890   2.601  15.402 -0.4288  0.4498 -1.8234
  265MPD2     N 4069   4.302   2.603  15.206 -0.0931  0.0448 -0.3409
  265MPD2    H5 4070   4.272   2.524  15.151  0.9392  0.4889 -1.5353
  265MPD2    N1 4071   4.185   2.901  15.583  0.2562 -0.2458 -0.0096
  265MPD2    H7 4072   4.104   2.935  15.633  0.8536  0.8336  0.2145
  266TMC3    C1 4073   4.292   3.046  15.710 -0.5059  0.1806  0.2220
  266TMC3    C2 4074   4.393   3.057  15.800  0.4740  0.3611 -0.1605
  266TMC3    C3 4075   4.429   3.184  15.831  0.6334  0.3252  0.0262
  266TMC3    C4 4076   4.212   3.149  15.682  0.3560 -0.4402  0.7269
  266TMC3    C5 4077   4.242   3.271  15.723 -0.3436 -0.1279  0.0078
  266TMC3    C6 4078   4.356   3.289  15.795 -0.6034  0.4046 -0.0039
  266TMC3     C 4079   4.306   2.954  15.603  0.1755 -0.8848 -0.4980
  266TMC3     O 4080   4.416   2.922  15.556  0.1671  0.5205  0.0079
  266TMC3     H 4081   4.454   2.969  15.810 -1.2810 -0.9030 -0.5401
  266TMC3    H1 4082   4.136   3.136  15.605 -1.0190 -3.0334  2.5320
  266TMC3    H2 4083   4.398   3.385  15.821  1.0280 -0.6161  1.1081
  266TMC3    C7 4084   4.178   3.372  15.645 -0.3248 -0.7515  0.4596
  266TMC3    C8 4085   4.531   3.193  15.934  0.4762 -0.1546  0.1759
  266TMC3    O1 4086   4.122   3.346  15.542  0.4748  0.6409  0.0227
  266TMC3    O2 4087   4.577   3.090  15.979 -0.0221 -0.3834 -0.1651
  267MPD2     C 4088   1.910   0.535   0.705 -0.6103 -0.3881 -0.1720
  267MPD2    C1 4089   1.984   0.508   0.588 -0.7049  0.4007  0.5762
  267MPD2    C2 4090   1.949   0.572   0.468 -0.0308 -0.7575  0.7204
  267MPD2    C3 4091   1.840   0.661   0.462 -0.1801  0.7065 -0.5744
  267MPD2    C4 4092   1.758   0.676   0.574  0.2894  0.0395  0.2572
  267MPD2    C5 4093   1.800   0.618   0.688  0.4023  0.1427  0.2277
  267MPD2     H 4094   1.998   0.558   0.372 -0.5686  0.0157  0.3226
  267MPD2    H1 4095   1.669   0.737   0.565  0.6259  1.0884  4.4359
  267MPD2    H2 4096   1.927   0.483   0.798  1.7305 -3.4916 -2.3286
  267MPD2    H3 4097   1.735   0.636   0.773  0.1596 -0.6572  0.2108
  267MPD2     N 4098   1.811   0.722   0.339 -0.1696 -0.0912  0.6105
  267MPD2    H5 4099   1.861   0.680   0.261 -0.8195 -1.9808  1.2055
  267MPD2    N1 4100   2.090   0.416   0.598 -0.3521 -0.1010  0.5961
  267MPD2    H7 4101   2.077   0.349   0.674  2.6595 -0.9348  0.3705
  268TMC3    C1 4102   2.281   0.286   0.551 -0.1641 -0.7535 -0.7075
  268TMC3    C2 4103   2.358   0.230   0.457 -0.4553  0.5693  0.2026
  268TMC3    C3 4104   2.427   0.113   0.474 -0.8593 -0.4550  0.3076
  268TMC3    C4 4105   2.259   0.221   0.674  0.3361  0.3225 -0.7774
  268TMC3    C5 4106   2.329   0.101   0.688 -0.1588  0.6376 -0.0284
  268TMC3    C6 4107   2.414   0.047   0.590 -0.9777  0.5037 -0.7465
  268TMC3     C 4108   2.190   0.386   0.507 -0.3007 -0.0893 -0.3064
  268TMC3     O 4109   2.215   0.439   0.400 -0.0533 -0.3540  0.1712
  268TMC3     H 4110   2.351   0.280   0.361 -2.4034 -2.3394 -1.1726
  268TMC3    H1 4111   2.204   0.273   0.752  2.0559 -1.6984  1.7799
  268TMC3    H2 4112   2.467   4.696   0.619  2.4861  2.4898 -0.9724
  268TMC3    C7 4113   2.295   4.738   0.794 -0.2116  0.2464  0.1940
  268TMC3    C8 4114   2.442   0.034   0.355  0.4555 -1.0162  0.0241
  268TMC3    O1 4115   2.387   4.665   0.833 -0.1113  0.1565  0.0439
  268TMC3    O2 4116   2.448   0.101   0.254  0.4860 -0.0471  0.0515
  269MPD2     C 4117   2.471   3.489  15.404  0.2058  0.2175 -0.3318
  269MPD2    C1 4118   2.435   3.522  15.536 -0.6404  0.1845  0.4766
  269MPD2    C2 4119   2.429   3.661  15.561  0.6497 -0.0052 -0.1962
  269MPD2    C3 4120   2.470   3.755  15.465 -1.1200 -0.2266  0.0533
  269MPD2    C4 4121   2.513   3.708  15.341 -0.1696 -0.6809 -0.5255
  269MPD2    C5 4122   2.508   3.575  15.308  0.3050  0.2853  0.4957
  269MPD2     H 4123   2.401   3.698  15.658  1.1659  0.5636 -0.2624
  269MPD2    H1 4124   2.532   3.775  15.257 -2.4028  1.7794  0.9118
  269MPD2    H2 4125   2.479   3.387  15.370 -1.0316 -0.1519  0.4724
  269MPD2    H3 4126   2.537   3.546  15.208 -1.8088 -1.4639  0.3738
  269MPD2     N 4127   2.462   3.890  15.499  0.1196 -0.1499  0.1158
  269MPD2    H5 4128   2.411   3.910  15.584  1.0066  1.6052  0.2408
  269MPD2    N1 4129   2.404   3.421  15.629  0.2187  0.3857 -0.0899
  269MPD2    H7 4130   2.441   3.330  15.607 -2.9790 -0.7284 -0.9056
  270TMC3    C1 4131   2.313   3.310  15.810 -0.1425  0.1152 -0.3046
  270TMC3    C2 4132   2.190   3.283  15.865  0.8177 -0.0815 -0.6864
  270TMC3    C3 4133   2.159   3.153  15.889  0.5594 -0.1719  0.0441
  270TMC3    C4 4134   2.404   3.207  15.795  0.0686 -0.8646  0.4087
  270TMC3    C5 4135   2.371   3.076  15.828  0.3125  0.4538  0.2971
  270TMC3    C6 4136   2.243   3.053  15.875  0.0051  0.0911 -1.0687
  270TMC3     C 4137   2.336   3.436  15.750 -0.6483 -0.0517  0.2560
  270TMC3     O 4138   2.283   3.530  15.809  0.5670 -0.0655  0.4238
  270TMC3     H 4139   2.119   3.364  15.879 -1.3397 -2.4733  2.2807
  270TMC3    H1 4140   2.503   3.217  15.753  0.2687 -1.1858  0.8040
  270TMC3    H2 4141   2.209   2.954  15.901  3.3543 -0.5011  1.0707
  270TMC3    C7 4142   2.443   2.969  15.760  0.0166 -0.6916 -0.4294
  270TMC3    C8 4143   2.042   3.110  15.822 -0.2762  0.1281  0.2590
  270TMC3    O1 4144   2.565   2.983  15.758  0.2851 -0.4808 -0.0347
  270TMC3    O2 4145   1.925   3.150  15.846 -0.6954 -0.0654  0.4627
  271MPD2     C 4146   1.388   2.774  13.944  0.0933 -0.4039  0.2913
  271MPD2    C1 4147   1.355   2.786  14.073  0.8696  0.5163 -0.5751
  271MPD2    C2 4148   1.228   2.823  14.102  0.4578 -0.3486  0.0309
  271MPD2    C3 4149   1.148   2.883  14.007 -0.0700 -0.1505  0.6784
  271MPD2    C4 4150   1.190   2.888  13.880  0.2835 -0.5740 -0.7106
  271MPD2    C5 4151   1.305   2.835  13.850 -0.1880 -0.2966 -1.0670
  271MPD2     H 4152   1.196   2.807  14.204  0.6046  0.2662  0.1666
  271MPD2    H1 4153   1.136   2.927  13.795  0.7947 -0.6891 -1.0934
  271MPD2    H2 4154   1.489   2.743  13.920  0.6801 -0.2247  2.4690
  271MPD2    H3 4155   1.335   2.839  13.745 -0.0699  1.4400 -0.9756
  271MPD2     N 4156   1.013   2.926  14.022 -0.1778  0.0642  0.1824
  271MPD2    H5 4157   0.972   2.969  13.940  1.5438 -0.9879 -1.2040
  271MPD2    N1 4158   1.445   2.756  14.176  0.0839  0.2378 -0.3410
  271MPD2    H7 4159   1.399   2.778  14.264  0.0433  2.1484 -0.8543
  272TMC3    C1 4160   1.629   2.699  14.302  0.6727  0.5485 -0.4342
  272TMC3    C2 4161   1.759   2.656  14.296 -0.4314  0.6828 -0.2962
  272TMC3    C3 4162   1.816   2.622  14.411 -0.2078 -0.5909  0.6028
  272TMC3    C4 4163   1.572   2.738  14.427 -0.0487 -0.3890  0.0224
  272TMC3    C5 4164   1.652   2.711  14.539 -0.1236  0.0358  0.2967
  272TMC3    C6 4165   1.773   2.648  14.539  0.1413 -0.1882 -0.1066
  272TMC3     C 4166   1.572   2.704  14.172  0.1606  0.4615  0.0030
  272TMC3     O 4167   1.644   2.680  14.078 -0.4019 -0.0455 -0.4886
  272TMC3     H 4168   1.795   2.618  14.201 -0.0133  1.1896 -0.3432
  272TMC3    H1 4169   1.477   2.789  14.431  0.5231  0.6011  1.1504
  272TMC3    H2 4170   1.807   2.574  14.611 -0.5558 -1.1443 -0.7631
  272TMC3    C7 4171   1.604   2.758  14.664 -0.2145 -0.0602  0.3962
  272TMC3    C8 4172   1.949   2.562  14.389 -0.5160  0.1513 -0.4188
  272TMC3    O1 4173   1.484   2.792  14.668 -0.0537 -0.0818 -0.1477
  272TMC3    O2 4174   1.984   2.540  14.275 -0.7257 -0.3410 -0.1397
  273MPD2     C 4175   3.043   0.626  11.594  0.1110 -0.4335  0.5580
  273MPD2    C1 4176   3.100   0.737  11.656 -0.2980 -0.1130  0.2836
  273MPD2    C2 4177   3.125   0.847  11.576  0.7634 -0.4283 -0.4348
  273MPD2    C3 4178   3.085   0.858  11.442 -0.6746  0.1807  0.0955
  273MPD2    C4 4179   3.013   0.752  11.394  0.3671 -0.6471 -0.5208
  273MPD2    C5 4180   3.001   0.632  11.462 -0.4753 -0.1184  0.3467
  273MPD2     H 4181   3.183   0.930  11.616 -0.8297  1.0870 -1.3158
  273MPD2    H1 4182   2.984   0.749  11.290  1.6288  2.3947 -0.9451
  273MPD2    H2 4183   3.031   0.530  11.643  0.5185 -1.0373 -0.5281
  273MPD2    H3 4184   2.958   0.546  11.411  0.0182  1.0058 -1.9630
  273MPD2     N 4185   3.116   0.969  11.356  0.2392  0.2038 -0.0752
  273MPD2    H5 4186   3.075   0.956  11.264  1.9502  0.0027 -0.8006
  273MPD2    N1 4187   3.130   0.727  11.790  0.4116  0.1330  0.3295
  273MPD2    H7 4188   3.143   0.633  11.825  2.3112  0.1576 -0.3063
  274TMC3    C1 4189   3.229   1.161  11.264  0.1100  0.9299  0.0054
  274TMC3    C2 4190   3.167   1.143  11.145 -0.0204 -0.0634  0.2526
  274TMC3    C3 4191   3.169   1.256  11.068 -0.0933 -0.4044 -0.0545
  274TMC3    C4 4192   3.302   1.272  11.302  0.0245 -0.0467  0.1996
  274TMC3    C5 4193   3.313   1.370  11.211 -0.6000 -0.3243 -0.4320
  274TMC3    C6 4194   3.251   1.366  11.089  0.3986  0.3774  0.5433
  274TMC3     C 4195   3.199   1.075  11.386  0.0547  0.0868  0.0846
  274TMC3     O 4196   3.225   1.115  11.500 -0.1415 -0.0692 -0.3187
  274TMC3     H 4197   3.104   1.058  11.122 -2.3437  0.4681  4.4414
  274TMC3    H1 4198   3.359   1.276  11.395  0.2022 -1.1375  0.1299
  274TMC3    H2 4199   3.234   1.459  11.036 -2.5824  0.1632  1.1003
  274TMC3    C7 4200   3.339   1.506  11.256  0.2606 -0.2006  0.2103
  274TMC3    C8 4201   3.070   1.272  10.960  0.4126 -0.5943  0.4625
  274TMC3    O1 4202   3.318   1.523  11.373 -0.7481  0.0979  0.2713
  274TMC3    O2 4203   2.968   1.208  10.980  0.3826  0.2713  0.2176
  275MPD2     C 4204   2.851   4.099  14.410 -0.2500 -0.4326  0.9806
  275MPD2    C1 4205   2.881   4.004  14.497  0.5143  0.0709  0.2320
  275MPD2    C2 4206   2.788   3.898  14.530 -0.7929 -0.1951  0.6718
  275MPD2    C3 4207   2.667   3.897  14.466  0.4179  0.3754  0.0699
  275MPD2    C4 4208   2.631   3.997  14.378 -0.3761 -1.1288 -0.2737
  275MPD2    C5 4209   2.725   4.099  14.355  0.0378  0.2423 -0.3208
  275MPD2     H 4210   2.808   3.832  14.613 -1.0824  0.0549  0.9419
  275MPD2    H1 4211   2.538   3.997  14.323 -1.2539 -0.8399  1.2129
  275MPD2    H2 4212   2.927   4.162  14.364 -0.7478  0.1208  0.9173
  275MPD2    H3 4213   2.707   4.178  14.283 -1.2687 -0.4954 -0.7968
  275MPD2     N 4214   2.576   3.791  14.498 -0.3809  0.9409  0.4020
  275MPD2    H5 4215   2.482   3.804  14.462 -0.5348 -0.7072  0.1806
  275MPD2    N1 4216   3.001   4.015  14.576 -0.1405 -0.6189 -0.0510
  275MPD2    H7 4217   3.017   3.939  14.642  0.0855  0.5569  1.2443
  276TMC3    C1 4218   3.173   4.116  14.693 -0.1833  0.2318  0.1772
  276TMC3    C2 4219   3.232   3.994  14.718  0.0136 -0.0718  0.4667
  276TMC3    C3 4220   3.332   3.987  14.813 -0.5574  0.0738 -0.3281
  276TMC3    C4 4221   3.220   4.229  14.754  0.0850 -0.0565  0.2238
  276TMC3    C5 4222   3.328   4.219  14.839  0.9553 -0.2650  0.6015
  276TMC3    C6 4223   3.382   4.102  14.868 -0.0695 -0.3496  0.3185
  276TMC3     C 4224   3.085   4.125  14.581 -0.0456  0.0615 -0.0607
  276TMC3     O 4225   3.092   4.221  14.510  0.0991 -0.0049  0.3934
  276TMC3     H 4226   3.202   3.910  14.656  1.1573 -1.2202  1.4741
  276TMC3    H1 4227   3.174   4.325  14.731  2.0987  0.8713  0.0220
  276TMC3    H2 4228   3.466   4.109  14.937  1.0931 -0.0611 -1.1279
  276TMC3    C7 4229   3.359   4.330  14.915 -0.0509 -0.3104 -0.6982
  276TMC3    C8 4230   3.409   3.866  14.821  0.9394  0.1927 -0.2847
  276TMC3    O1 4231   3.425   4.308  15.012 -0.2633 -0.0603 -0.6976
  276TMC3    O2 4232   3.519   3.874  14.875 -0.0643 -0.4337 -0.4542
  277MPD2     C 4233   4.683   2.951  12.888 -0.1744  0.3883 -0.6313
  277MPD2    C1 4234   4.554   2.996  12.914  0.3799 -0.4592  0.6646
  277MPD2    C2 4235   4.494   2.958  13.026  0.3063  0.4393  0.4373
  277MPD2    C3 4236   4.551   2.860  13.102 -0.1583  0.4358 -0.2829
  277MPD2    C4 4237   4.681   2.822  13.081  0.1010  0.2466  0.4192
  277MPD2    C5 4238   0.005   2.869  12.969  0.7121  0.4080 -0.3072
  277MPD2     H 4239   4.393   2.988  13.054  0.6900  1.0294  1.1788
  277MPD2    H1 4240   4.732   2.748  13.142 -1.1617 -1.3289 -0.4434
  277MPD2    H2 4241   0.003   2.962  12.797  0.7794  3.5232  0.3680
  277MPD2    H3 4242   0.108   2.840  12.953  0.7125  0.3175 -0.1395
  277MPD2     N 4243   4.474   2.805  13.206  0.2239 -0.1233 -0.1114
  277MPD2    H5 4244   4.385   2.849  13.226 -0.9608 -1.9700 -1.4006
  277MPD2    N1 4245   4.496   3.072  12.814 -0.4489  0.4025 -0.2623
  277MPD2    H7 4246   4.560   3.114  12.747 -1.8315  0.5100 -1.5293
  278TMC3    C1 4247   4.406   2.655  13.369 -0.3824 -0.1434 -0.4572
  278TMC3    C2 4248   4.385   2.528  13.400 -0.2467 -0.1864  1.1544
  278TMC3    C3 4249   4.297   2.491  13.492  0.7974 -0.1565  0.2565
  278TMC3    C4 4250   4.342   2.762  13.430 -0.9726 -0.0631  1.2422
  278TMC3    C5 4251   4.255   2.719  13.525  0.0203 -0.3040  0.5152
  278TMC3    C6 4252   4.228   2.588  13.554 -0.5958  0.4184 -0.3647
  278TMC3     C 4253   4.502   2.679  13.257 -0.2978  0.6100  0.0141
  278TMC3     O 4254   4.570   2.582  13.222  0.3881  0.3267 -0.5267
  278TMC3     H 4255   4.425   2.450  13.337 -0.1248  0.1748  0.7853
  278TMC3    H1 4256   4.351   2.868  13.415  1.6175 -0.5287 -0.4375
  278TMC3    H2 4257   4.162   2.566  13.637 -2.1584 -1.8280 -2.1949
  278TMC3    C7 4258   4.176   2.821  13.585  0.3107  0.0289 -0.0886
  278TMC3    C8 4259   4.250   2.354  13.485 -0.0027  0.1593  0.1223
  278TMC3    O1 4260   4.234   2.927  13.608 -0.1923  0.0555 -0.2721
  278TMC3    O2 4261   4.333   2.267  13.456 -0.0053  0.3517  0.8224
  279MPD2     C 4262   3.953   2.738   0.090  0.2962  0.4882 -0.0610
  279MPD2    C1 4263   3.851   2.809   0.147 -0.0604 -0.4354 -0.3982
  279MPD2    C2 4264   3.765   2.879   0.058  0.0447  0.1073  0.4314
  279MPD2    C3 4265   3.774   2.862  17.668  0.2376 -0.2265 -0.2908
  279MPD2    C4 4266   3.870   2.782  17.621  0.3830 -0.2680 -0.3516
  279MPD2    C5 4267   3.965   2.727  17.704 -0.4328 -0.6596  0.0427
  279MPD2     H 4268   3.699   2.956   0.097 -1.5967 -1.2634  0.3949
  279MPD2    H1 4269   3.877   2.780  17.513 -0.1449  0.0916 -0.3972
  279MPD2    H2 4270   4.033   2.701   0.152  0.4110  0.2856 -0.3317
  279MPD2    H3 4271   4.047   2.672  17.658  0.4432  0.9506 -0.3288
  279MPD2     N 4272   3.687   2.932  17.578 -0.4182  0.0196  0.1380
  279MPD2    H5 4273   3.704   2.918  17.479 -1.0628 -0.2626  0.0678
  279MPD2    N1 4274   3.854   2.826   0.284 -0.9960 -0.0059  0.2684
  279MPD2    H7 4275   3.940   2.807   0.335 -0.6787 -2.2564 -1.1302
  280TMC3    C1 4276   3.603   2.876   0.308  0.1091 -0.0714 -0.4180
  280TMC3    C2 4277   3.549   2.776   0.232 -0.5083 -0.1403 -0.0504
  280TMC3    C3 4278   3.416   2.783   0.188  1.0928  0.2242  0.2014
  280TMC3    C4 4279   3.523   2.976   0.361  0.3139  0.0913 -0.2167
  280TMC3    C5 4280   3.391   2.978   0.319  0.6963  0.8787  0.4465
  280TMC3    C6 4281   3.342   2.887   0.228 -0.3127 -0.2100 -0.0474
  280TMC3     C 4282   3.745   2.875   0.360  0.1775  0.7657 -0.5764
  280TMC3     O 4283   3.763   2.898   0.478 -0.1123  0.2981 -0.0759
  280TMC3     H 4284   3.600   2.680   0.224 -1.5919 -0.8571  1.6457
  280TMC3    H1 4285   3.565   3.050   0.428  0.0272 -0.9072  1.0814
  280TMC3    H2 4286   3.240   2.901   0.193  0.0294  2.5752  0.1147
  280TMC3    C7 4287   3.307   3.077   0.375  0.3132  0.0989 -0.1602
  280TMC3    C8 4288   3.372   2.696   0.079 -0.4938 -0.4508 -0.0243
  280TMC3    O1 4289   3.344   3.120   0.486  0.6131 -0.2105  0.0828
  280TMC3    O2 4290   3.258   2.715   0.030 -0.7130 -0.6565  0.6824
  281TMC3    C1 4291   2.941   2.919  13.763 -0.0990  0.4160 -0.8291
  281TMC3    C2 4292   2.954   3.017  13.672 -0.3403 -0.7750  0.1072
  281TMC3    C3 4293   2.983   2.980  13.540  0.6589  0.4765 -1.1486
  281TMC3    C4 4294   2.953   2.789  13.728  0.2096  0.0119 -0.0335
  281TMC3    C5 4295   2.980   2.754  13.598 -0.6944 -0.1073 -0.8220
  281TMC3    C6 4296   3.004   2.851  13.512 -0.2629 -0.0406  0.1851
  281TMC3     C 4297   2.851   2.935  13.874 -0.6542  0.0094 -0.0292
  281TMC3     O 4298   2.797   2.847  13.942  0.1213 -0.4297 -0.1944
  281TMC3     H 4299   2.949   3.123  13.693 -1.7484 -1.0114  0.9990
  281TMC3    H1 4300   2.951   2.723  13.814  0.2396 -0.3083 -0.2788
  281TMC3    H2 4301   3.042   2.829  13.413 -1.0722 -0.9283  0.0669
  281TMC3    C7 4302   3.004   2.614  13.567 -0.0424  0.8006 -0.6374
  281TMC3    C8 4303   3.049   3.077  13.453 -0.2040 -0.2795  0.7985
  281TMC3    O1 4304   3.100   2.577  13.498  0.5282 -0.5337  0.2547
  281TMC3    O2 4305   3.154   3.041  13.405 -0.3379  0.1798 -0.4757
  282MPD2     C 4306   0.036   0.058  15.447 -0.8043  0.1597  0.3094
  282MPD2    C1 4307   4.636   0.073  15.426 -0.5767 -0.0259 -0.2374
  282MPD2    C2 4308   4.596   0.087  15.298 -0.4291 -0.7681  0.0757
  282MPD2    C3 4309   4.686   0.079  15.194 -0.6583  1.0687 -0.2091
  282MPD2    C4 4310   0.077   0.056  15.217  0.1004 -0.2030 -0.2570
  282MPD2    C5 4311   0.122   0.046  15.344  0.0832  0.0026 -0.2294
  282MPD2     H 4312   4.489   0.099  15.283 -0.5656 -0.3430  1.3900
  282MPD2    H1 4313   0.139   0.047  15.129  1.5969 -0.1340  0.7924
  282MPD2    H2 4314   0.068   0.046  15.550 -0.0311 -0.4200  0.0011
  282MPD2    H3 4315   0.228   0.035  15.363  0.2409  2.8532  0.5501
  282MPD2     N 4316   4.619   0.065  15.071 -0.1540  0.4576  0.0068
  282MPD2    H5 4317   4.519   0.085  15.069 -0.7838 -2.7960 -0.5911
  282MPD2    N1 4318   4.546   0.086  15.532 -0.5586 -0.6574 -0.2279
  282MPD2    H7 4319   4.467   0.149  15.514 -0.1695  0.0292  0.4703
  283TMC3    C1 4320   4.469   0.063  15.744  0.0996  0.6722  0.0012
  283TMC3    C2 4321   4.445   0.197  15.737  0.0744 -0.4440 -0.6731
  283TMC3    C3 4322   4.352   0.242  15.824  0.0757 -0.8204 -0.6678
  283TMC3    C4 4323   4.393   4.710  15.813  0.7106  0.6390  0.0209
  283TMC3    C5 4324   4.293   0.019  15.890 -1.0055  0.3725  0.4146
  283TMC3    C6 4325   4.290   0.153  15.915 -0.0492 -0.0441 -0.2770
  283TMC3     C 4326   4.560   0.014  15.650  0.3374  0.5518 -0.1916
  283TMC3     O 4327   4.620   4.648  15.666 -0.3046 -0.6935  0.6134
  283TMC3     H 4328   4.519   0.262  15.692  0.2853 -0.2792 -0.0909
  283TMC3    H1 4329   4.400   4.605  15.786  0.2014  1.3536 -2.8774
  283TMC3    H2 4330   4.219   0.200  15.982 -1.1837 -3.1011  0.6442
  283TMC3    C7 4331   4.180   4.671  15.928  0.4280  0.0337 -0.1634
  283TMC3    C8 4332   4.363   0.384  15.871 -0.2056 -0.0969  0.0975
  283TMC3    O1 4333   4.080   4.726  15.970  0.1642 -0.0678 -0.0099
  283TMC3    O2 4334   4.353   0.402  15.993 -0.1576 -1.2097  0.3815
  284MPD2     C 4335   2.173   3.727  12.262  0.1450  0.3630 -0.2512
  284MPD2    C1 4336   2.291   3.674  12.233 -0.2917 -0.1737  0.1263
  284MPD2    C2 4337   2.357   3.596  12.321  0.2505  0.0450 -0.0549
  284MPD2    C3 4338   2.315   3.588  12.451  0.2729 -0.4620  0.9277
  284MPD2    C4 4339   2.207   3.657  12.484 -0.0672  0.5243 -0.0296
  284MPD2    C5 4340   2.134   3.728  12.389  0.2295 -0.2372 -0.3487
  284MPD2     H 4341   2.452   3.550  12.297 -0.7012 -2.0312  0.1443
  284MPD2    H1 4342   2.167   3.654  12.585  0.9863  1.8450  0.4106
  284MPD2    H2 4343   2.104   3.758  12.185  3.0008  1.4707 -2.3843
  284MPD2    H3 4344   2.039   3.767  12.422 -0.7219 -1.2029 -1.9328
  284MPD2     N 4345   2.384   3.520  12.552 -0.2906 -0.1208  0.0913
  284MPD2    H5 4346   2.359   3.525  12.651 -0.6831 -1.3156  0.0477
  284MPD2    N1 4347   2.347   3.684  12.105  0.5688  0.4021 -0.8271
  284MPD2    H7 4348   2.425   3.621  12.087  2.0119  1.9218  0.1557
  285TMC3    C1 4349   2.419   3.818  11.929  0.1307  0.4991 -0.0558
  285TMC3    C2 4350   2.536   3.746  11.918  1.2800 -0.9468  0.5409
  285TMC3    C3 4351   2.653   3.799  11.879 -0.2357 -0.1849  0.6439
  285TMC3    C4 4352   2.418   3.948  11.884  0.5178  0.4002  0.7905
  285TMC3    C5 4353   2.540   4.002  11.836 -0.7047  0.2297 -0.4845
  285TMC3    C6 4354   2.656   3.928  11.835 -0.4945  0.7712 -0.2394
  285TMC3     C 4355   2.308   3.772  12.009 -0.4820 -0.3584 -0.2039
  285TMC3     O 4356   2.210   3.843  12.008  0.4156  0.2845  0.0601
  285TMC3     H 4357   2.549   3.649  11.966 -3.2347 -0.9015  1.8371
  285TMC3    H1 4358   2.330   4.008  11.906 -0.5707 -0.7387 -0.4457
  285TMC3    H2 4359   2.753   3.958  11.798 -0.3376  2.5789  1.6440
  285TMC3    C7 4360   2.538   4.137  11.774 -0.2379  0.7110  0.9397
  285TMC3    C8 4361   2.764   3.711  11.853 -0.5724  0.0040  0.2682
  285TMC3    O1 4362   2.646   4.176  11.728 -0.2897 -0.3501  0.3767
  285TMC3    O2 4363   2.730   3.600  11.823 -0.0085  0.7244 -0.9119
  286MPD2     C 4364   2.656   2.855   1.634  0.3659  0.7933  0.5427
  286MPD2    C1 4365   2.646   2.842   1.495 -0.2992  1.5406  0.2162
  286MPD2    C2 4366   2.756   2.778   1.427 -0.4589 -0.1928 -0.0929
  286MPD2    C3 4367   2.867   2.734   1.495 -0.5087  0.5456  0.2423
  286MPD2    C4 4368   2.872   2.755   1.630  0.6913 -0.2351 -0.3030
  286MPD2    C5 4369   2.768   2.820   1.695  0.4307 -0.3954 -0.3082
  286MPD2     H 4370   2.748   2.786   1.319 -1.6798 -0.4582 -0.0220
  286MPD2    H1 4371   2.962   2.727   1.684 -1.4125 -0.8506  2.8978
  286MPD2    H2 4372   2.574   2.891   1.695 -0.0945  1.7519 -0.6530
  286MPD2    H3 4373   2.788   2.837   1.800 -1.4834 -1.2284  0.1768
  286MPD2     N 4374   2.979   2.673   1.436 -0.1872 -0.0946  0.5014
  286MPD2    H5 4375   3.042   2.625   1.500 -0.6307  0.6540  1.5057
  286MPD2    N1 4376   2.544   2.896   1.413 -0.0261  0.6710 -0.6718
  286MPD2    H7 4377   2.576   2.905   1.317  0.8578 -2.3571 -0.6478
  287TMC3    C1 4378   3.104   2.574   1.270  0.4391  0.2714 -0.7153
  287TMC3    C2 4379   3.098   2.513   1.145 -0.2425  0.4215 -0.9902
  287TMC3    C3 4380   3.190   2.420   1.116 -0.0074  0.1903 -0.3075
  287TMC3    C4 4381   3.201   2.553   1.365  0.7735 -0.4658 -0.4926
  287TMC3    C5 4382   3.295   2.457   1.324 -0.8251 -0.1504 -0.0784
  287TMC3    C6 4383   3.294   2.394   1.201  0.5262 -0.4773  0.3826
  287TMC3     C 4384   2.999   2.674   1.304 -0.3855  0.5942  0.5203
  287TMC3     O 4385   2.938   2.721   1.207  0.5857  0.1416 -0.1138
  287TMC3     H 4386   3.012   2.538   1.084  0.9133 -0.5861 -3.0325
  287TMC3    H1 4387   3.208   2.586   1.467 -0.1592  0.0159 -0.5857
  287TMC3    H2 4388   3.344   2.298   1.189  1.4272  0.1128 -0.5449
  287TMC3    C7 4389   3.418   2.456   1.398  0.0966 -0.2485 -0.6665
  287TMC3    C8 4390   3.171   2.350   0.992  0.3030 -0.3378 -0.1751
  287TMC3    O1 4391   3.431   2.532   1.487  0.1230 -0.0308  0.0542
  287TMC3    O2 4392   3.054   2.340   0.960 -0.0726  0.0186  0.1566
  288TMC3    C1 4393   0.102   2.527  14.314  0.1164 -0.2423 -0.1589
  288TMC3    C2 4394   4.728   2.550  14.395 -0.1866 -0.9107  0.8457
  288TMC3    C3 4395   4.629   2.637  14.350  0.3435  0.1186 -0.0581
  288TMC3    C4 4396   0.101   2.577  14.185 -0.0215  0.2057  0.5614
  288TMC3    C5 4397   4.730   2.658  14.149 -0.8709 -0.5620  0.2522
  288TMC3    C6 4398   4.629   2.691  14.225 -0.8079 -0.4886 -0.3433
  288TMC3     C 4399   0.198   2.427  14.353  1.2697 -0.0903  0.0334
  288TMC3     O 4400   0.160   2.352  14.445 -0.4990 -0.0133  0.1665
  288TMC3     H 4401   4.730   2.519  14.499 -0.0529  0.6794  1.3088
  288TMC3    H1 4402   0.180   2.548  14.118 -0.6417 -1.8859  0.7416
  288TMC3    H2 4403   4.551   2.759  14.193  0.0531  1.4010  1.5081
  288TMC3    C7 4404   4.727   2.724  14.016 -0.4658 -0.2225 -0.7028
  288TMC3    C8 4405   4.527   2.678  14.446 -0.9623  0.8614 -0.4650
  288TMC3    O1 4406   4.626   2.782  13.984 -0.0815 -0.2929 -0.1045
  288TMC3    O2 4407   4.491   2.791  14.435 -0.8315  0.2086 -0.0272
  289MPD2     C 4408   0.085   1.372  14.363 -0.4776 -0.1670  0.0024
  289MPD2    C1 4409   0.040   1.500  14.362  0.0554  0.3279 -0.0235
  289MPD2    C2 4410   4.644   1.512  14.357  0.0843 -0.5360  0.1728
  289MPD2    C3 4411   4.557   1.404  14.333  0.4846  0.0826 -0.8224
  289MPD2    C4 4412   4.610   1.276  14.329  0.6283 -0.1209 -0.6718
  289MPD2    C5 4413   0.008   1.261  14.350  0.5108 -0.1903 -0.0216
  289MPD2     H 4414   4.615   1.616  14.342 -0.8563 -0.7244  0.6843
  289MPD2    H1 4415   4.550   1.192  14.297  1.2443 -0.5741 -0.6327
  289MPD2    H2 4416   0.193   1.361  14.361 -0.4091  0.6273 -0.6422
  289MPD2    H3 4417   0.050   1.163  14.328 -2.1130 -1.5453  0.9045
  289MPD2     N 4418   4.420   1.417  14.312 -0.4163 -0.3922  0.2384
  289MPD2    H5 4419   4.369   1.329  14.322 -2.5521  0.9353  0.9430
  289MPD2    N1 4420   0.138   1.607  14.351 -0.0344 -0.6183 -0.1339
  289MPD2    H7 4421   0.233   1.572  14.343 -0.1607 -0.5062 -2.2895
  290TMC3    C1 4422   4.212   1.526  14.282  0.7855 -0.0347  0.4320
  290TMC3    C2 4423   4.161   1.624  14.205  0.3673  0.0131  0.0213
  290TMC3    C3 4424   4.022   1.646  14.197  0.3806  0.3417 -0.0406
  290TMC3    C4 4425   4.127   1.438  14.341 -0.4826  0.2900 -0.3723
  290TMC3    C5 4426   3.991   1.454  14.319  0.5327 -0.9742  0.3924
  290TMC3    C6 4427   3.934   1.563  14.253 -0.0239  0.9573  0.2743
  290TMC3     C 4428   4.355   1.538  14.306  0.0231 -0.3873 -0.6613
  290TMC3     O 4429   4.398   1.651  14.300  0.2924  0.1496 -0.1515
  290TMC3     H 4430   4.231   1.688  14.152  2.3077 -1.2909  1.0372
  290TMC3    H1 4431   4.162   1.383  14.428 -1.1220 -0.7479 -0.7731
  290TMC3    H2 4432   3.828   1.583  14.246 -0.1793 -0.4924 -1.4633
  290TMC3    C7 4433   3.899   1.341  14.329 -0.3540  0.1121 -0.0577
  290TMC3    C8 4434   3.972   1.751  14.114 -0.2828  0.1638 -0.1493
  290TMC3    O1 4435   3.782   1.365  14.337  0.0284 -0.5680  0.3579
  290TMC3    O2 4436   3.882   1.725  14.041 -0.1064  0.2294 -0.1956
  291MPD2     C 4437   3.540   1.944  17.662 -0.0449  0.3440 -0.5520
  291MPD2    C1 4438   3.665   1.914  17.702  0.2461  0.2658 -0.4836
  291MPD2    C2 4439   3.766   2.006  17.671  0.5547  0.3806 -0.1340
  291MPD2    C3 4440   3.740   2.126  17.616  0.7804 -0.2434  0.3724
  291MPD2    C4 4441   3.607   2.158  17.586  0.2722  0.1720 -0.3680
  291MPD2    C5 4442   3.509   2.068  17.606 -0.3144  0.3003  0.7385
  291MPD2     H 4443   3.867   1.997  17.709  1.2271  3.4906 -1.1675
  291MPD2    H1 4444   3.579   2.232  17.513 -1.7707  0.4899  0.7390
  291MPD2    H2 4445   3.459   1.876  17.685  1.0883 -0.8462  0.0079
  291MPD2    H3 4446   3.411   2.098  17.571 -0.1397  2.2821  1.9499
  291MPD2     N 4447   3.847   2.223  17.579 -0.1722  0.3281  0.2735
  291MPD2    H5 4448   3.808   2.311  17.546 -0.6747 -0.5132 -1.4150
  291MPD2    N1 4449   3.694   1.787   0.005  0.0766 -0.3942 -0.3701
  291MPD2    H7 4450   3.792   1.767   0.025  0.1716 -0.3968 -0.8237
  292TMC3    C1 4451   3.678   1.563   0.050  0.1126  0.1011  0.9185
  292TMC3    C2 4452   3.756   1.585   0.162  0.6523 -0.1957  0.0980
  292TMC3    C3 4453   3.762   1.477   0.244 -0.6089 -0.3475 -0.1088
  292TMC3    C4 4454   3.616   1.437   0.020 -0.3251  0.1070  0.3212
  292TMC3    C5 4455   3.648   1.332   0.096 -0.5736 -0.6278 -0.7649
  292TMC3    C6 4456   3.715   1.350   0.214 -0.4416  0.3013  0.7794
  292TMC3     C 4457   3.607   1.683   0.018  0.1241 -0.2422  0.5292
  292TMC3     O 4458   3.493   1.664  17.724 -0.1401 -0.3575  0.3385
  292TMC3     H 4459   3.793   1.683   0.188 -0.1999  0.3922 -0.8895
  292TMC3    H1 4460   3.558   1.417  17.682 -1.7472  1.3264  0.9722
  292TMC3    H2 4461   3.736   1.263   0.275 -0.0224 -1.2034 -1.5063
  292TMC3    C7 4462   3.588   1.204   0.061  0.1640 -0.1622 -0.4102
  292TMC3    C8 4463   3.810   1.506   0.382 -0.1273 -0.1415 -0.0793
  292TMC3    O1 4464   3.649   1.103   0.095  0.4791  0.2537  0.1873
  292TMC3    O2 4465   3.862   1.614   0.407 -0.0140 -0.0910  0.6317
  293MPD2     C 4466   1.165   3.044  12.604 -0.2395 -0.5854 -0.5697
  293MPD2    C1 4467   1.032   3.034  12.623  0.4843  0.5420 -0.1673
  293MPD2    C2 4468   0.987   3.033  12.755 -0.0312 -0.1629 -0.0002
  293MPD2    C3 4469   1.075   3.033  12.863 -0.6594  0.2437  0.3701
  293MPD2    C4 4470   1.210   3.030  12.835 -0.1535  0.2386 -0.1256
  293MPD2    C5 4471   1.255   3.046  12.708  0.3128 -0.2524  0.2663
  293MPD2     H 4472   0.884   3.047  12.785 -0.0093  0.4598 -0.2194
  293MPD2    H1 4473   1.286   3.028  12.912 -1.7656 -0.4464  1.4539
  293MPD2    H2 4474   1.200   3.065  12.504  1.0458 -0.1821 -0.0237
  293MPD2    H3 4475   1.360   3.053  12.682  0.1139  3.1066  0.4146
  293MPD2     N 4476   1.012   3.037  12.990  0.0663  0.4816 -0.4434
  293MPD2    H5 4477   0.911   3.045  12.988  0.0900  0.0964 -2.8523
  293MPD2    N1 4478   0.943   3.038  12.512  1.0749  0.1631  0.3279
  293MPD2    H7 4479   0.992   3.046  12.422  1.6856  0.6983  0.7017
  294TMC3    C1 4480   0.729   3.072  12.407 -0.0471  0.1896 -0.4042
  294TMC3    C2 4481   0.598   3.043  12.389 -0.1865 -0.2457  0.1666
  294TMC3    C3 4482   0.522   3.100  12.286 -0.1746  0.0065 -0.2066
  294TMC3    C4 4483   0.785   3.164  12.320  0.4139  0.1992 -0.1847
  294TMC3    C5 4484   0.709   3.219  12.218 -0.3380 -0.2382  0.0823
  294TMC3    C6 4485   0.576   3.197  12.204  0.2081  0.0505 -0.5236
  294TMC3     C 4486   0.804   3.017  12.522  0.0166 -1.1803 -0.2660
  294TMC3     O 4487   0.736   2.969  12.613 -0.4602  0.0889 -0.0356
  294TMC3     H 4488   0.549   2.971  12.452  0.2438 -1.4368 -0.8572
  294TMC3    H1 4489   0.863   3.229  12.358  0.9337  1.0603 -2.6551
  294TMC3    H2 4490   0.533   3.220  12.107 -1.3466  0.7382  0.3329
  294TMC3    C7 4491   0.787   3.270  12.105 -0.4258 -0.8730  0.2205
  294TMC3    C8 4492   0.410   3.026  12.238 -0.3972 -0.5330 -0.3015
  294TMC3    O1 4493   0.726   3.354  12.036  0.2433 -0.5958 -0.1181
  294TMC3    O2 4494   0.313   3.077  12.186 -0.0849  0.1074 -0.0851
  295MPD2     C 4495   1.355   2.083   0.601 -0.3468  0.7912 -0.4203
  295MPD2    C1 4496   1.241   2.136   0.543  0.2685  0.1496  0.0317
  295MPD2    C2 4497   1.119   2.130   0.613 -0.0468  0.9075 -0.0288
  295MPD2    C3 4498   1.120   2.097   0.743 -0.0494 -0.0047  0.0913
  295MPD2    C4 4499   1.241   2.068   0.806 -0.0424 -0.0424 -0.2421
  295MPD2    C5 4500   1.353   2.060   0.736 -0.3661 -0.1108 -1.1002
  295MPD2     H 4501   1.030   2.132   0.552 -0.4026 -0.0646  0.4435
  295MPD2    H1 4502   1.247   2.044   0.912 -0.3473  0.0306 -0.2082
  295MPD2    H2 4503   1.446   2.078   0.542  0.4503 -1.3575  1.0060
  295MPD2    H3 4504   1.438   2.023   0.793 -1.0305 -2.0506 -1.3693
  295MPD2     N 4505   0.999   2.090   0.813  1.5309  0.1179 -0.1052
  295MPD2    H5 4506   1.001   2.051   0.906  1.4503 -1.9929 -0.9867
  295MPD2    N1 4507   1.245   2.176   0.407 -0.4244  0.4864 -0.4019
  295MPD2    H7 4508   1.158   2.162   0.357  0.0030 -1.9257 -0.4299
  296TMC3    C1 4509   0.799   2.163   0.890  0.1778  0.0796 -0.6016
  296TMC3    C2 4510   0.730   2.279   0.900 -0.3337 -0.4991 -0.1645
  296TMC3    C3 4511   0.659   2.297   1.016  0.0383  0.2228 -0.7011
  296TMC3    C4 4512   0.798   2.066   0.991  0.5146  0.6115  0.3737
  296TMC3    C5 4513   0.714   2.080   1.090  0.4394 -0.2666  0.3841
  296TMC3    C6 4514   0.649   2.202   1.114  0.8242 -0.0958 -0.0261
  296TMC3     C 4515   0.886   2.154   0.774  0.7532 -0.3777  0.8973
  296TMC3     O 4516   0.856   2.215   0.673  0.6008  0.0512 -0.4265
  296TMC3     H 4517   0.744   2.361   0.831 -1.2989 -0.8863 -0.8327
  296TMC3    H1 4518   0.840   1.968   0.970 -1.0737 -0.0752  0.4321
  296TMC3    H2 4519   0.582   2.209   1.199 -0.0284  0.8472 -0.7701
  296TMC3    C7 4520   0.686   1.974   1.187  0.2511  0.2645  0.6408
  296TMC3    C8 4521   0.608   2.428   1.033  0.0467 -0.4531 -0.6681
  296TMC3    O1 4522   0.585   1.975   1.258  0.4234  0.0021 -0.5639
  296TMC3    O2 4523   0.619   2.508   0.942 -0.0575 -0.4283 -0.9561
  297MPD2     C 4524   3.472   3.494  16.686  0.2063 -0.1520  0.8431
  297MPD2    C1 4525   3.498   3.503  16.545 -0.3337 -0.0335  0.3559
  297MPD2    C2 4526   3.554   3.616  16.496 -0.8288 -0.1335 -0.0205
  297MPD2    C3 4527   3.560   3.733  16.575  0.1243 -0.5424 -0.6797
  297MPD2    C4 4528   3.532   3.722  16.709  0.3175  0.5560  0.2859
  297MPD2    C5 4529   3.488   3.601  16.761 -0.3696 -0.1610  0.8429
  297MPD2     H 4530   3.561   3.618  16.388  0.3459 -0.6704  0.0536
  297MPD2    H1 4531   3.527   3.814  16.765 -3.5133  2.2077 -2.7596
  297MPD2    H2 4532   3.436   3.402  16.731 -0.8549  0.2717  0.8634
  297MPD2    H3 4533   3.479   3.591  16.868  0.7077 -0.5805  0.9020
  297MPD2     N 4534   3.602   3.860  16.520 -0.0991  0.3193  0.1008
  297MPD2    H5 4535   3.593   3.935  16.588 -0.2855  0.9172 -0.5871
  297MPD2    N1 4536   3.464   3.400  16.457 -0.1364 -0.2899 -0.6869
  297MPD2    H7 4537   3.518   3.409  16.372 -0.5452  1.2813 -0.7862
  298TMC3    C1 4538   3.376   3.220  16.348 -0.0748  0.6409  0.2062
  298TMC3    C2 4539   3.452   3.258  16.245 -0.8474 -0.8604  0.3436
  298TMC3    C3 4540   3.397   3.300  16.127 -0.1803  0.1004  0.1375
  298TMC3    C4 4541   3.237   3.232  16.337  0.1358  0.5656 -0.0598
  298TMC3    C5 4542   3.182   3.295  16.226  0.0746  0.7986 -0.0434
  298TMC3    C6 4543   3.260   3.317  16.115 -0.3732 -0.4431  0.6607
  298TMC3     C 4544   3.400   3.284  16.474  1.1199 -0.0961 -0.1267
  298TMC3     O 4545   3.325   3.256  16.568 -0.2686 -0.2353  0.2664
  298TMC3     H 4546   3.559   3.271  16.252 -0.7827  0.2118 -2.5343
  298TMC3    H1 4547   3.171   3.219  16.422 -1.1408 -3.3887 -1.6772
  298TMC3    H2 4548   3.216   3.366  16.029 -0.3095  0.3555  1.0841
  298TMC3    C7 4549   3.094   3.408  16.262  0.1942  0.9361 -0.9738
  298TMC3    C8 4550   3.472   3.384  16.035  0.4161 -0.3272 -0.2661
  298TMC3    O1 4551   3.092   3.437  16.382  0.6204 -0.0375 -0.2233
  298TMC3    O2 4552   3.421   3.488  15.996  0.4591  0.1254 -0.3466
  299MPD2     C 4553   4.483   3.788  10.740 -0.3839 -0.2508  0.1044
  299MPD2    C1 4554   4.429   3.693  10.828 -0.3773  0.7712  0.0179
  299MPD2    C2 4555   4.328   3.600  10.787 -0.7349  0.6915  0.3226
  299MPD2    C3 4556   4.294   3.596  10.655  0.3881 -0.3680 -0.4230
  299MPD2    C4 4557   4.358   3.682  10.568  0.6007 -0.3873 -0.4171
  299MPD2    C5 4558   4.454   3.780  10.606 -0.1936  1.4094 -0.3788
  299MPD2     H 4559   4.279   3.530  10.854  2.4020 -0.4481  1.3999
  299MPD2    H1 4560   4.332   3.684  10.463  0.5864 -0.4148 -0.4142
  299MPD2    H2 4561   4.551   3.863  10.778 -2.1280  1.5112 -0.2269
  299MPD2    H3 4562   4.497   3.840  10.527 -1.0540 -0.3246 -2.1854
  299MPD2     N 4563   4.185   3.510  10.611  0.4185  0.1949  0.7343
  299MPD2    H5 4564   4.133   3.535  10.527  1.9947  1.8492  0.2384
  299MPD2    N1 4565   4.464   3.712  10.962 -0.1699  0.5493  0.8028
  299MPD2    H7 4566   4.526   3.791  10.973  0.9433 -0.2293  0.1892
  300TMC3    C1 4567   4.026   3.333  10.634 -0.0254  0.0687  0.2664
  300TMC3    C2 4568   3.932   3.425  10.600 -0.6923  0.5608 -0.1256
  300TMC3    C3 4569   3.807   3.397  10.647  0.0879 -0.3481  0.6644
  300TMC3    C4 4570   4.000   3.223  10.718 -0.9185  0.2955  0.2784
  300TMC3    C5 4571   3.874   3.208  10.764  0.3690  0.2566 -0.4691
  300TMC3    C6 4572   3.772   3.284  10.723  0.3112 -0.0375  0.1463
  300TMC3     C 4573   4.160   3.390  10.661  0.1770 -0.6682  0.5970
  300TMC3     O 4574   4.234   3.325  10.735  0.0837 -0.1779 -0.1355
  300TMC3     H 4575   3.951   3.506  10.532  0.1459  0.7403  0.3226
  300TMC3    H1 4576   4.079   3.166  10.765 -0.7818 -0.6279 -1.0811
  300TMC3    H2 4577   3.676   3.260  10.767  0.6722 -1.2719  0.2457
  300TMC3    C7 4578   3.858   3.103  10.859  0.3328 -0.7013 -0.6926
  300TMC3    C8 4579   3.724   3.507  10.666  1.0314  0.5584  0.5444
  300TMC3    O1 4580   3.956   3.030  10.884 -0.1841 -0.4955  0.2760
  300TMC3    O2 4581   3.774   3.620  10.654  0.6659 -0.1741 -0.1133
  301MPD2     C 4582   1.897   0.403   1.129  0.4040 -0.6012 -0.1004
  301MPD2    C1 4583   1.771   0.359   1.086  0.1267  0.3231  0.2165
  301MPD2    C2 4584   1.738   0.223   1.101 -0.0343 -0.6121  0.0162
  301MPD2    C3 4585   1.835   0.132   1.138  0.2721 -0.1200  0.0610
  301MPD2    C4 4586   1.961   0.178   1.186 -0.6808  0.0122  0.1095
  301MPD2    C5 4587   1.987   0.311   1.177 -0.3510  0.0509 -0.0278
  301MPD2     H 4588   1.640   0.180   1.083 -0.9308  0.8837  1.3722
  301MPD2    H1 4589   2.041   0.107   1.206 -0.8748 -0.7134 -1.6734
  301MPD2    H2 4590   1.919   0.509   1.131  1.1991 -0.7519 -0.5176
  301MPD2    H3 4591   2.085   0.346   1.206 -0.4037  0.3203 -0.1813
  301MPD2     N 4592   1.790   4.738   1.150  0.0890 -0.1884  0.1561
  301MPD2    H5 4593   1.694   4.715   1.127 -0.3288 -0.0403  1.7467
  301MPD2    N1 4594   1.664   0.432   1.037  0.5325  0.6849  0.4935
  301MPD2    H7 4595   1.584   0.374   1.016 -0.7960  2.4863  0.6075
  302TMC3    C1 4596   1.777   4.508   1.196  0.2821 -0.6171  0.3620
  302TMC3    C2 4597   1.810   4.418   1.294 -0.2277 -0.5259 -0.4381
  302TMC3    C3 4598   1.770   4.290   1.273  0.0185 -0.0911 -0.1340
  302TMC3    C4 4599   1.698   4.469   1.087 -0.0078 -0.0996  0.2790
  302TMC3    C5 4600   1.667   4.342   1.076 -0.4030  0.0457  0.1323
  302TMC3    C6 4601   1.712   4.245   1.157 -0.0149  0.4390 -0.1893
  302TMC3     C 4602   1.862   4.630   1.196  0.3504 -0.2244 -0.5615
  302TMC3     O 4603   1.972   4.623   1.250 -0.1312  0.1434  0.4289
  302TMC3     H 4604   1.863   4.446   1.385  1.3239  1.5796 -1.9972
  302TMC3    H1 4605   1.671   4.539   1.008  2.7913  0.7654  0.0621
  302TMC3    H2 4606   1.690   4.139   1.150 -1.1909  0.6151  0.7156
  302TMC3    C7 4607   1.590   4.291   0.963  0.0032 -0.0417 -0.3467
  302TMC3    C8 4608   1.744   4.195   1.391 -0.3551  0.8101 -0.4356
  302TMC3    O1 4609   1.638   4.196   0.904  0.3794 -0.1949 -0.2199
  302TMC3    O2 4610   1.767   4.082   1.371  0.4264  0.0191  0.3999
  303MPD2     C 4611   1.745   2.708  10.983  0.4916 -0.0032  0.4517
  303MPD2    C1 4612   1.631   2.646  10.949 -0.8428 -0.2791  0.4025
  303MPD2    C2 4613   1.551   2.693  10.850 -0.1913 -0.1271  0.3074
  303MPD2    C3 4614   1.584   2.809  10.777  0.9429 -0.1114  0.4622
  303MPD2    C4 4615   1.704   2.862  10.803 -0.5653 -0.3197  0.1123
  303MPD2    C5 4616   1.787   2.804  10.894  0.4393  0.5366  0.4639
  303MPD2     H 4617   1.460   2.640  10.827 -1.3168  1.8293  0.2640
  303MPD2    H1 4618   1.744   2.955  10.763 -3.4593  1.2094  0.6985
  303MPD2    H2 4619   1.810   2.684  11.066 -0.1434  0.3811  1.0552
  303MPD2    H3 4620   1.873   2.866  10.916  1.1763 -0.3879  0.1680
  303MPD2     N 4621   1.502   2.868  10.678  0.0293 -0.5217  0.3899
  303MPD2    H5 4622   1.547   2.944  10.628  2.4666 -2.2571 -0.0893
  303MPD2    N1 4623   1.586   2.527  11.014  0.2453 -0.5924  0.0312
  303MPD2    H7 4624   1.499   2.487  10.978 -0.6996  0.3094  1.3271
  304TMC3    C1 4625   1.491   2.426  11.197 -0.3847 -0.0567 -0.0163
  304TMC3    C2 4626   1.412   2.462  11.308 -0.1199 -0.1302  0.3233
  304TMC3    C3 4627   1.333   2.367  11.360 -0.4327  1.0610 -0.0003
  304TMC3    C4 4628   1.482   2.295  11.145 -0.2199 -0.5494  0.2426
  304TMC3    C5 4629   1.416   2.203  11.214 -1.3599  0.2823 -0.6164
  304TMC3    C6 4630   1.353   2.236  11.332 -0.0645  0.3596  0.0625
  304TMC3     C 4631   1.604   2.504  11.149  0.2403  0.0548 -0.0669
  304TMC3     O 4632   1.660   2.575  11.233 -0.5486  0.1309  0.3382
  304TMC3     H 4633   1.404   2.565  11.341 -1.3906  0.0346 -0.4962
  304TMC3    H1 4634   1.528   2.278  11.048  0.4385  1.8756  0.1353
  304TMC3    H2 4635   1.306   2.157  11.391  1.1301  1.6221  2.7072
  304TMC3    C7 4636   1.346   2.104  11.133 -0.6480  0.4058 -0.3457
  304TMC3    C8 4637   1.194   2.402  11.384 -0.4789 -0.5180  0.0100
  304TMC3    O1 4638   1.229   2.081  11.173 -0.5780 -0.0478  0.0861
  304TMC3    O2 4639   1.169   2.518  11.419  0.2440 -0.6670 -0.1891
  305MPD2     C 4640   4.695   4.479  14.332  0.4182 -0.0379 -0.4491
  305MPD2    C1 4641   4.710   4.610  14.313  0.2968 -0.4807  0.5195
  305MPD2    C2 4642   4.656   4.672  14.197 -0.1396  0.1429 -0.0066
  305MPD2    C3 4643   4.620   4.585  14.093 -0.9905 -0.2122  0.6335
  305MPD2    C4 4644   4.606   4.450  14.115  0.3401  0.0548  0.0822
  305MPD2    C5 4645   4.637   4.398  14.238  0.1933 -0.7008 -0.0498
  305MPD2     H 4646   4.675   0.039  14.182 -2.6266  0.3168 -1.8633
  305MPD2    H1 4647   4.569   4.389  14.033 -2.1468  1.8190 -0.1185
  305MPD2    H2 4648   0.007   4.428  14.414  1.6326  0.7187 -0.7180
  305MPD2    H3 4649   4.646   4.291  14.256  1.2471 -0.4174  1.0738
  305MPD2     N 4650   4.594   4.625  13.957  0.1099 -0.5053 -0.4329
  305MPD2    H5 4651   4.549   4.556  13.898  2.6650 -1.5536 -1.1755
  305MPD2    N1 4652   0.040   4.678  14.422 -0.1850  0.1769  0.4635
  305MPD2    H7 4653   0.090   4.624  14.491 -1.0106  1.1211  1.7930
  306TMC3    C1 4654   0.093   0.116  14.563 -0.7995 -0.3763 -0.5788
  306TMC3    C2 4655   0.193   0.047  14.619  0.2184 -0.1675  0.1591
  306TMC3    C3 4656   0.240   0.084  14.743  0.0957  0.4118 -0.9752
  306TMC3    C4 4657   0.046   0.239  14.618  0.3285 -0.5877 -0.1602
  306TMC3    C5 4658   0.100   0.269  14.738  0.5381 -0.6620  0.5069
  306TMC3    C6 4659   0.193   0.196  14.797 -0.3155 -0.0852  0.1937
  306TMC3     C 4660   0.025   0.075  14.444  0.6316  0.3643 -0.5918
  306TMC3     O 4661   4.699   0.162  14.390 -0.2066 -0.2720 -0.0169
  306TMC3     H 4662   0.239   4.700  14.570  0.2924 -0.3011  0.4592
  306TMC3    H1 4663   4.695   0.294  14.590  0.7022  0.7427  1.2609
  306TMC3    H2 4664   0.220   0.217  14.899  1.0478 -0.5053 -0.0816
  306TMC3    C7 4665   0.020   0.352  14.835 -0.1217  0.2554  0.3468
  306TMC3    C8 4666   0.321   4.721  14.814 -0.1328 -0.5170  0.8759
  306TMC3    O1 4667   4.636   0.348  14.835  0.3826 -0.6137  0.0688
  306TMC3    O2 4668   0.329   4.614  14.756  0.5948 -0.3327  0.3928
  307MPD2     C 4669   2.300   3.077   0.704  0.2886 -0.0355  0.3474
  307MPD2    C1 4670   2.249   3.189   0.764 -0.7153 -0.0238  0.8200
  307MPD2    C2 4671   2.132   3.189   0.830  0.3905  0.2330 -0.6176
  307MPD2    C3 4672   2.066   3.068   0.840 -0.2006  0.2718  0.2040
  307MPD2    C4 4673   2.112   2.952   0.782  0.4753 -1.1535 -0.5723
  307MPD2    C5 4674   2.230   2.955   0.718  0.2047 -0.3441 -0.5434
  307MPD2     H 4675   2.099   3.279   0.880 -1.2134 -0.6310 -0.0954
  307MPD2    H1 4676   2.061   2.856   0.790 -0.9734 -0.3989 -0.8228
  307MPD2    H2 4677   2.397   3.083   0.657  0.1350 -1.4690 -0.1637
  307MPD2    H3 4678   2.253   2.864   0.664 -0.1638  1.1541 -3.1834
  307MPD2     N 4679   1.934   3.080   0.882 -0.5244 -0.4348  0.2425
  307MPD2    H5 4680   1.906   3.169   0.924 -0.6054  0.8673 -2.6043
  307MPD2    N1 4681   2.320   3.311   0.769  0.2111 -0.3957  0.3072
  307MPD2    H7 4682   2.288   3.383   0.832  0.4146 -1.8837  2.1091
  308TMC3    C1 4683   1.509   3.123   0.772  0.0453  0.1501 -0.1950
  308TMC3    C2 4684   1.513   3.241   0.829  0.2284  0.2795 -0.6018
  308TMC3    C3 4685   1.611   3.269   0.922 -0.7706  0.2762 -0.0806
  308TMC3    C4 4686   1.603   3.029   0.804 -0.3473 -0.5386  0.9999
  308TMC3    C5 4687   1.706   3.061   0.884  0.3348  0.2233 -0.2123
  308TMC3    C6 4688   1.701   3.174   0.959  0.5432  0.1668 -0.3025
  308TMC3     C 4689   1.441   3.101   0.646 -0.5049 -0.2074 -0.1674
  308TMC3     O 4690   1.400   2.990   0.628 -0.0704 -0.2894 -0.1478
  308TMC3     H 4691   1.437   3.316   0.810  0.6661  1.7008  3.2854
  308TMC3    H1 4692   1.607   2.932   0.756  0.2314  0.3697 -0.7617
  308TMC3    H2 4693   1.764   3.193   1.045  0.5103  1.7338 -0.6368
  308TMC3    C7 4694   1.833   2.987   0.867  0.2186 -0.5399  0.6771
  308TMC3    C8 4695   1.609   3.399   0.985 -1.0974 -0.4241  0.3564
  308TMC3    O1 4696   1.825   2.874   0.816 -0.1437  0.1811  0.0959
  308TMC3    O2 4697   1.648   3.403   1.103  0.2539 -0.5100  0.2263
  309MPD2     C 4698   1.684   3.776  16.908  0.0616  0.1951 -0.1100
  309MPD2    C1 4699   1.606   3.779  16.794  0.2902  0.0064 -0.1928
  309MPD2    C2 4700   1.489   3.861  16.790  1.6962 -0.3769  0.2028
  309MPD2    C3 4701   1.440   3.916  16.905 -0.1813 -0.2713  0.1726
  309MPD2    C4 4702   1.518   3.902  17.015 -0.1738  0.2026 -0.9876
  309MPD2    C5 4703   1.639   3.833  17.018 -0.2478 -0.0614  0.3570
  309MPD2     H 4704   1.436   3.861  16.696  1.5802 -3.5471  0.2700
  309MPD2    H1 4705   1.483   3.939  17.111  0.6852  2.0985 -1.4120
  309MPD2    H2 4706   1.781   3.730  16.922  0.0441  1.1123  3.0329
  309MPD2    H3 4707   1.701   3.815  17.106  1.0888  2.0430 -0.1522
  309MPD2     N 4708   1.308   3.980  16.913 -0.1216 -0.2025  0.3731
  309MPD2    H5 4709   1.290   4.023  17.003  0.6563  0.8315  0.0349
  309MPD2    N1 4710   1.641   3.719  16.672 -0.2289 -1.2685 -0.2838
  309MPD2    H7 4711   1.580   3.734  16.592  0.1730  0.3230 -0.2872
  310TMC3    C1 4712   1.776   3.576  16.519 -0.4425  0.2271 -0.3071
  310TMC3    C2 4713   1.675   3.567  16.430  0.2690  0.3945  0.3227
  310TMC3    C3 4714   1.703   3.521  16.305 -0.0175  0.1844  0.1478
  310TMC3    C4 4715   1.901   3.550  16.478  0.1294 -0.3910  0.2435
  310TMC3    C5 4716   1.930   3.511  16.349 -0.1343  0.1421 -0.1335
  310TMC3    C6 4717   1.830   3.482  16.262 -0.2682  0.8686  0.0782
  310TMC3     C 4718   1.757   3.645  16.649  0.4595  0.1050 -0.0567
  310TMC3     O 4719   1.855   3.631  16.721  0.0913  0.3515  0.4555
  310TMC3     H 4720   1.579   3.610  16.457  0.2713  0.2978  0.4828
  310TMC3    H1 4721   1.978   3.574  16.550  2.2852 -2.9864 -1.1935
  310TMC3    H2 4722   1.856   3.467  16.158 -1.8903 -0.4022 -0.1531
  310TMC3    C7 4723   2.056   3.439  16.353  0.1266 -0.2441 -0.5215
  310TMC3    C8 4724   1.588   3.525  16.221  0.1905  0.4146 -0.0110
  310TMC3    O1 4725   2.141   3.475  16.432 -0.2688 -0.0103  0.4736
  310TMC3    O2 4726   1.479   3.552  16.267  0.2510 -0.1971  0.4275
  311MPD2     C 4727   3.443   4.364  12.789 -0.1266 -0.4939 -0.3698
  311MPD2    C1 4728   3.514   4.434  12.887  0.9003  0.1472 -0.1629
  311MPD2    C2 4729   3.484   4.417  13.024 -0.5448  0.4648 -0.1266
  311MPD2    C3 4730   3.373   4.347  13.060 -0.1032  0.2084 -0.0475
  311MPD2    C4 4731   3.304   4.282  12.962 -0.6489  0.3520 -0.2459
  311MPD2    C5 4732   3.343   4.285  12.828  0.2652 -0.5028  0.3735
  311MPD2     H 4733   3.537   4.470  13.102 -1.4298 -2.1315  2.2126
  311MPD2    H1 4734   3.221   4.215  12.981  1.2656 -1.7434  0.6339
  311MPD2    H2 4735   3.469   4.364  12.684 -0.3626  0.8247 -0.4328
  311MPD2    H3 4736   3.284   4.226  12.759  0.9023  0.8664 -1.3517
  311MPD2     N 4737   3.337   4.345  13.202  0.0803 -0.0474 -0.1796
  311MPD2    H5 4738   3.382   4.415  13.260 -0.1648  1.4118 -1.7310
  311MPD2    N1 4739   3.630   4.501  12.849  0.1243  0.0343 -0.0847
  311MPD2    H7 4740   3.700   4.520  12.920 -3.2164  4.0415  2.1673
  312TMC3    C1 4741   3.180   4.339  13.378 -0.3793  0.4284  0.1033
  312TMC3    C2 4742   3.043   4.366  13.366 -0.1614  0.8228  1.3477
  312TMC3    C3 4743   2.967   4.397  13.472  0.4283 -0.0351  0.8917
  312TMC3    C4 4744   3.237   4.353  13.502 -0.3347 -0.8340  0.8629
  312TMC3    C5 4745   3.157   4.388  13.610 -0.1370 -0.4383 -0.4079
  312TMC3    C6 4746   3.025   4.412  13.596  0.1359 -0.5089 -0.3459
  312TMC3     C 4747   3.230   4.278  13.256  0.0401 -0.2535  0.4989
  312TMC3     O 4748   3.160   4.190  13.202 -0.3897  0.1167  0.6145
  312TMC3     H 4749   2.993   4.349  13.272 -0.2658  1.9936  1.1941
  312TMC3    H1 4750   3.345   4.358  13.511 -0.6139  2.5464  2.5498
  312TMC3    H2 4751   2.968   4.431  13.687 -1.9125  0.2392 -1.7843
  312TMC3    C7 4752   3.200   4.394  13.745  0.3146 -0.9547  0.7111
  312TMC3    C8 4753   2.825   4.386  13.467  0.2606  0.3490 -0.1172
  312TMC3    O1 4754   3.138   4.470  13.820 -0.6343  0.4301 -0.6655
  312TMC3    O2 4755   2.780   4.316  13.379  0.2763 -0.1708 -0.3454
  313MPD2     C 4756   2.124   3.969  11.630 -0.3604 -0.1520 -0.3282
  313MPD2    C1 4757   2.231   3.994  11.545  0.4267  0.2868 -0.7272
  313MPD2    C2 4758   2.324   3.891  11.529  0.2285 -0.0406 -0.3870
  313MPD2    C3 4759   2.311   3.766  11.591  0.2483  0.5140  0.3242
  313MPD2    C4 4760   2.201   3.746  11.664  0.3505 -0.2331  0.0079
  313MPD2    C5 4761   2.110   3.847  11.695 -0.6671 -0.0287  0.2647
  313MPD2     H 4762   2.405   3.918  11.463 -0.3432 -0.1172 -1.1173
  313MPD2    H1 4763   2.179   3.657  11.721 -0.6303 -0.0390 -0.0636
  313MPD2    H2 4764   2.037   4.031  11.645 -1.9727 -1.7225 -3.0202
  313MPD2    H3 4765   2.011   3.834  11.737  0.7337  1.0924  3.9328
  313MPD2     N 4766   2.404   3.664  11.561 -0.2907  0.4399 -0.1664
  313MPD2    H5 4767   2.475   3.678  11.491 -1.8571 -1.0055 -2.0513
  313MPD2    N1 4768   2.249   4.114  11.478 -0.4315 -0.2482 -0.2168
  313MPD2    H7 4769   2.336   4.119  11.426 -1.3978 -0.5914 -1.8550
  314TMC3    C1 4770   2.201   4.314  11.363 -0.0487  0.1725  1.1628
  314TMC3    C2 4771   2.326   4.368  11.379  0.4432 -0.3331 -0.0106
  314TMC3    C3 4772   2.366   4.458  11.286 -0.1389  0.0309  0.2264
  314TMC3    C4 4773   2.120   4.356  11.265 -0.3619  0.1553 -0.0650
  314TMC3    C5 4774   2.166   4.439  11.171 -0.1372 -0.2297 -0.2132
  314TMC3    C6 4775   2.284   4.505  11.186 -0.0943 -0.7374 -0.4054
  314TMC3     C 4776   2.151   4.205  11.452  0.4728  0.1751 -0.2294
  314TMC3     O 4777   2.031   4.203  11.471 -0.0826 -0.0281  0.0545
  314TMC3     H 4778   2.389   4.338  11.462 -0.0970 -2.4359 -0.3679
  314TMC3    H1 4779   2.034   4.299  11.233  0.1436 -1.6617  1.7910
  314TMC3    H2 4780   2.317   4.591  11.129  2.9006 -1.9824 -0.5392
  314TMC3    C7 4781   2.119   4.418  11.033 -0.6483 -0.1364  0.4372
  314TMC3    C8 4782   2.497   4.522  11.299  0.4360  0.0795 -0.5595
  314TMC3    O1 4783   2.011   4.358  11.024  0.3397  0.2858 -0.2785
  314TMC3    O2 4784   2.512   4.628  11.240 -0.7203 -0.1805  0.2560
  315MPD2     C 4785   2.462   2.837  17.368  0.5850 -0.5888  0.1322
  315MPD2    C1 4786   2.518   2.849  17.492 -0.9103 -0.5822  0.4831
  315MPD2    C2 4787   2.562   2.979  17.536  0.0885  0.0716  0.1321
  315MPD2    C3 4788   2.549   3.095  17.462  0.2710 -0.2499  0.6311
  315MPD2    C4 4789   2.498   3.079  17.331  0.0362  0.4287  0.4267
  315MPD2    C5 4790   2.456   2.952  17.286  0.0861 -0.6054 -0.1615
  315MPD2     H 4791   2.605   2.998  17.633  1.4239 -1.4044 -0.1663
  315MPD2    H1 4792   2.492   3.170  17.273 -1.4720 -0.6141 -1.0337
  315MPD2    H2 4793   2.425   2.747  17.320  0.7936 -0.3315 -0.5186
  315MPD2    H3 4794   2.418   2.944  17.185 -0.3569  1.9557 -0.2038
  315MPD2     N 4795   2.604   3.217  17.514 -0.2590 -0.6804  0.5242
  315MPD2    H5 4796   2.660   3.207  17.598  0.7068 -0.2445 -0.0771
  315MPD2    N1 4797   2.538   2.737  17.576  0.4469 -0.1175 -0.3898
  315MPD2    H7 4798   2.581   2.763  17.665 -0.1297  1.2436 -0.5064
  316TMC3    C1 4799   2.673   3.443  17.529  0.5241  0.0449  0.3399
  316TMC3    C2 4800   2.733   3.429  17.650 -0.3198 -0.5012  0.5402
  316TMC3    C3 4801   2.781   3.541  17.710 -0.0767  0.4132 -0.2951
  316TMC3    C4 4802   2.673   3.566  17.468 -0.1051 -0.1483 -0.5288
  316TMC3    C5 4803   2.717   3.677  17.527  0.9756 -0.5483  0.1068
  316TMC3    C6 4804   2.767   3.663  17.656 -0.0805  0.8178 -0.8003
  316TMC3     C 4805   2.609   3.338  17.450 -0.6780  0.1157  0.7852
  316TMC3     O 4806   2.545   3.368  17.351  0.5765 -0.5415 -0.3620
  316TMC3     H 4807   2.721   3.330  17.693 -0.0685 -0.3362  0.9987
  316TMC3    H1 4808   2.633   3.574  17.367  0.9961  0.4125 -0.9253
  316TMC3    H2 4809   2.797   3.756  17.702 -0.0566  0.7994 -0.7782
  316TMC3    C7 4810   2.694   3.803  17.470  0.4490  0.3902  0.1614
  316TMC3    C8 4811   2.814   3.534   0.098 -0.0991  0.2076 -0.2889
  316TMC3    O1 4812   2.695   3.899  17.547  0.8226 -0.6647  0.1477
  316TMC3    O2 4813   2.824   3.638   0.163 -0.0484 -0.3922 -0.4366
  317MPD2     C 4814   3.916   1.648  13.345 -0.0759  0.4695 -0.0829
  317MPD2    C1 4815   4.038   1.667  13.295 -0.4912  0.7447 -0.2081
  317MPD2    C2 4816   4.145   1.614  13.366 -0.4334 -0.0667 -0.5134
  317MPD2    C3 4817   4.132   1.543  13.481  0.1694 -0.1781  0.9666
  317MPD2    C4 4818   4.001   1.540  13.532  0.6157 -0.0264 -0.3793
  317MPD2    C5 4819   3.894   1.594  13.469  0.1674  1.0617  0.3681
  317MPD2     H 4820   4.237   1.626  13.310 -0.0520  0.6784  0.2801
  317MPD2    H1 4821   3.985   1.480  13.621  0.2193 -0.4763 -0.7516
  317MPD2    H2 4822   3.829   1.670  13.285 -0.0215 -1.8261 -0.9972
  317MPD2    H3 4823   3.797   1.583  13.516  0.3778 -1.9232  0.0632
  317MPD2     N 4824   4.228   1.459  13.542 -0.7284 -0.2508 -0.1952
  317MPD2    H5 4825   4.201   1.393  13.615  1.4369 -0.2963  0.5501
  317MPD2    N1 4826   4.058   1.739  13.178  0.3630  0.3713 -0.1622
  317MPD2    H7 4827   4.155   1.744  13.148  0.2290 -0.7243 -0.7673
  318TMC3    C1 4828   4.442   1.351  13.561  0.2226  0.1471  0.2012
  318TMC3    C2 4829   4.409   1.232  13.520  0.1286  0.7564  0.0860
  318TMC3    C3 4830   4.504   1.139  13.507  0.4471 -0.7707 -0.0844
  318TMC3    C4 4831   4.575   1.386  13.583  0.0351 -0.9373 -0.1780
  318TMC3    C5 4832   4.670   1.291  13.575 -0.6891  0.1839  0.2756
  318TMC3    C6 4833   4.637   1.169  13.533 -0.0546 -0.5166 -0.1126
  318TMC3     C 4834   4.365   1.461  13.513  0.8671  0.1895  0.2777
  318TMC3     O 4835   4.426   1.541  13.445  0.2965  0.5709 -0.1670
  318TMC3     H 4836   4.304   1.207  13.509  0.3385  0.4510 -1.2218
  318TMC3    H1 4837   4.602   1.487  13.614  0.3040 -0.0383 -3.3517
  318TMC3    H2 4838   4.707   1.095  13.495 -0.7793 -1.7892  1.0021
  318TMC3    C7 4839   0.069   1.328  13.587  0.0981  0.2913  0.2560
  318TMC3    C8 4840   4.474   1.029  13.417  0.3480 -0.1163 -0.4496
  318TMC3    O1 4841   0.087   1.444  13.607 -0.0606 -0.3962 -0.2198
  318TMC3    O2 4842   4.543   0.927  13.426  0.4056 -0.6111  0.1753
  319MPD2     C 4843   1.109   2.770  15.854  0.6427 -0.3624  0.2516
  319MPD2    C1 4844   1.061   2.814  15.979  0.1917  0.2399  0.2554
  319MPD2    C2 4845   0.926   2.792  16.014 -0.4280  0.4007  0.0722
  319MPD2    C3 4846   0.834   2.768  15.909 -0.0819  0.2450  0.0839
  319MPD2    C4 4847   0.882   2.736  15.780 -0.9495 -1.0627  0.3774
  319MPD2    C5 4848   1.014   2.739  15.757 -0.2866  0.1894  0.1133
  319MPD2     H 4849   0.901   2.812  16.117 -1.7559 -0.6224 -0.0560
  319MPD2    H1 4850   0.810   2.716  15.702  0.7251  0.2575 -1.4977
  319MPD2    H2 4851   1.212   2.766  15.819  0.3932  1.1329 -0.6376
  319MPD2    H3 4852   1.048   2.717  15.656 -2.4847  1.4078 -0.8764
  319MPD2     N 4853   0.695   2.798  15.920 -0.3706 -0.2034  0.2396
  319MPD2    H5 4854   0.641   2.801  15.835 -2.7393 -1.3712  1.7162
  319MPD2    N1 4855   1.144   2.864  16.077 -0.7919  0.4041  0.1089
  319MPD2    H7 4856   1.102   2.897  16.164  0.0525 -2.4459  1.6060
  320TMC3    C1 4857   0.493   2.858  16.023 -1.3118 -0.3619  0.3293
  320TMC3    C2 4858   0.472   2.950  15.924  0.2960  0.2582 -0.9778
  320TMC3    C3 4859   0.347   2.975  15.893  0.0553 -0.3972 -1.0207
  320TMC3    C4 4860   0.391   2.797  16.088  0.0335 -0.4079  0.1914
  320TMC3    C5 4861   0.256   2.832  16.063  0.0877  0.7719 -0.2508
  320TMC3    C6 4862   0.240   2.916  15.957 -0.2368  0.2636  0.1777
  320TMC3     C 4863   0.631   2.818  16.042 -0.3250 -0.7503 -0.1076
  320TMC3     O 4864   0.667   2.779  16.154  0.3241 -0.5806  0.6645
  320TMC3     H 4865   0.556   3.011  15.895  0.9811 -0.4868 -0.5756
  320TMC3    H1 4866   0.419   2.723  16.163  0.1505 -1.0993 -0.5336
  320TMC3    H2 4867   0.141   2.941  15.920  0.6969  1.1416 -1.7184
  320TMC3    C7 4868   0.158   2.722  16.067  0.7895 -0.3345  0.0699
  320TMC3    C8 4869   0.325   3.072  15.793 -0.7399 -0.5026 -0.8140
  320TMC3    O1 4870   0.093   2.709  15.964  0.0809 -0.1404 -0.1380
  320TMC3    O2 4871   0.394   3.175  15.809 -0.6132  0.4476  0.2498
  321TMC3    C1 4872   1.315   2.983  16.183 -0.2268 -0.3410 -0.6107
  321TMC3    C2 4873   1.237   2.979  16.301 -0.0368 -0.2889  0.5840
  321TMC3    C3 4874   1.239   3.093  16.386  0.2191 -0.2831  0.3247
  321TMC3    C4 4875   1.407   3.086  16.167 -0.4221  0.2522  0.0440
  321TMC3    C5 4876   1.426   3.175  16.267  0.2377  0.7536 -1.0000
  321TMC3    C6 4877   1.330   3.191  16.363  0.4293 -0.0254  0.4417
  321TMC3     C 4878   1.275   2.900  16.065  0.5182 -0.2804 -0.4508
  321TMC3     O 4879   1.358   2.889  15.972  0.6529 -0.3463  0.5161
  321TMC3     H 4880   1.167   2.896  16.307 -0.1956 -0.2188 -0.3305
  321TMC3    H1 4881   1.477   3.071  16.086  1.5640  1.6448  1.5198
  321TMC3    H2 4882   1.321   3.285  16.417 -0.3214  0.1403  0.0250
  321TMC3    C7 4883   1.566   3.181  16.311 -0.0837 -0.1259 -0.0359
  321TMC3    C8 4884   1.243   3.060  16.523 -0.0834 -0.1299 -0.3332
  321TMC3    O1 4885   1.656   3.140  16.239 -0.6125 -0.0547  0.4799
  321TMC3    O2 4886   1.322   3.135  16.586 -0.2192 -0.2204  0.0363
  322MPD2     C 4887   4.625   3.919  13.095 -0.5796  0.1584 -0.3109
  322MPD2    C1 4888   4.622   3.889  13.229 -0.4303 -0.1839  0.3048
  322MPD2    C2 4889   4.597   3.758  13.270  0.8330 -0.0248  0.4281
  322MPD2    C3 4890   4.580   3.658  13.172  0.2092 -0.2756 -0.4818
  322MPD2    C4 4891   4.588   3.693  13.040 -0.6831 -0.2308  0.2176
  322MPD2    C5 4892   4.610   3.826  13.002 -0.1923 -0.9252  0.3088
  322MPD2     H 4893   4.596   3.730  13.374  0.0064  4.5373  1.6467
  322MPD2    H1 4894   4.574   3.624  12.958  0.4354  0.7670 -0.8097
  322MPD2    H2 4895   4.660   4.016  13.062 -2.1842  0.9951  0.4760
  322MPD2    H3 4896   4.619   3.847  12.896  0.0161  0.1319  0.5454
  322MPD2     N 4897   4.562   3.525  13.217 -0.0525 -0.4109 -0.3316
  322MPD2    H5 4898   4.566   3.505  13.316 -2.2947 -0.7024 -0.3086
  322MPD2    N1 4899   4.660   3.992  13.318  0.4120 -0.1604 -0.7239
  322MPD2    H7 4900   4.691   4.079  13.277 -0.3459  0.4442 -0.0307
  323TMC3    C1 4901   4.686   4.112  13.524 -0.1333 -0.5248 -0.2757
  323TMC3    C2 4902   0.065   4.163  13.477  1.4731  0.6110  0.7997
  323TMC3    C3 4903   0.142   4.227  13.569 -1.1122 -0.1721 -0.3065
  323TMC3    C4 4904   4.635   4.125  13.651  0.3390  0.1082 -0.0196
  323TMC3    C5 4905   4.711   4.192  13.741  0.0943 -0.5017  0.2579
  323TMC3    C6 4906   0.096   4.241  13.704 -0.2353  0.0305 -0.7160
  323TMC3     C 4907   4.639   3.992  13.455  0.3216  0.2081 -0.0978
  323TMC3     O 4908   4.577   3.904  13.518  0.5354 -0.7648 -0.1666
  323TMC3     H 4909   0.104   4.148  13.377  0.2333 -1.8666  0.6938
  323TMC3    H1 4910   4.553   4.067  13.693  0.7918 -1.7064 -1.6308
  323TMC3    H2 4911   0.169   4.278  13.775 -0.8072 -1.8233  0.8461
  323TMC3    C7 4912   4.721   4.119  13.868  0.8418 -0.6688  0.2468
  323TMC3    C8 4913   0.262   4.292  13.511  0.0077 -0.3382 -0.2353
  323TMC3    O1 4914   4.680   4.003  13.874  0.4071  0.1516  0.6703
  323TMC3    O2 4915   0.364   4.290  13.578  0.4266  0.0224 -0.2845
  324MPD2     C 4916   1.519   0.054  14.320 -0.4120  0.1204  0.5314
  324MPD2    C1 4917   1.530   0.186  14.294  0.4624  0.5859  0.2647
  324MPD2    C2 4918   1.423   0.273  14.289 -0.2274  0.3688 -0.3872
  324MPD2    C3 4919   1.299   0.229  14.320 -0.2639  0.6052  0.0071
  324MPD2    C4 4920   1.285   0.094  14.364 -0.3412 -0.0372 -0.3395
  324MPD2    C5 4921   1.398   0.009  14.371 -0.7970  0.1285 -0.7565
  324MPD2     H 4922   1.436   0.373  14.250 -1.1817  0.6418  0.0089
  324MPD2    H1 4923   1.192   0.054  14.402 -0.1442 -0.1400  0.0286
  324MPD2    H2 4924   1.609   4.731  14.320  0.5061  1.4711  1.0194
  324MPD2    H3 4925   1.391   4.649  14.417  0.2406 -0.1300 -1.1447
  324MPD2     N 4926   1.180   0.301  14.318  0.2021 -0.5838  0.5098
  324MPD2    H5 4927   1.096   0.252  14.346  1.5179 -1.7907  2.3871
  324MPD2    N1 4928   1.653   0.255  14.273  0.0756  0.3865  0.6815
  324MPD2    H7 4929   1.648   0.356  14.264  0.8612 -0.1134 -5.3215
  325TMC3    C1 4930   1.025   0.476  14.293  0.0292  0.2371  0.1291
  325TMC3    C2 4931   0.943   0.425  14.390  0.4160  0.3329  0.3317
  325TMC3    C3 4932   0.830   0.491  14.425  0.0780  0.0637  0.6685
  325TMC3    C4 4933   1.003   0.599  14.236 -0.2388 -0.1087 -0.4254
  325TMC3    C5 4934   0.893   0.665  14.280 -0.2369  0.0794 -0.2416
  325TMC3    C6 4935   0.815   0.619  14.383  0.0222 -0.3088  0.1278
  325TMC3     C 4936   1.159   0.430  14.274  0.5915 -0.0972  0.0578
  325TMC3     O 4937   1.244   0.510  14.236 -0.1713 -0.2793 -0.2328
  325TMC3     H 4938   0.957   0.320  14.415 -1.8838 -0.4654 -1.6716
  325TMC3    H1 4939   1.061   0.643  14.155  0.6049  0.1600  0.3190
  325TMC3    H2 4940   0.733   0.685  14.411 -0.2534  0.7250 -3.1674
  325TMC3    C7 4941   0.819   0.725  14.170  0.4278 -0.0592  0.0038
  325TMC3    C8 4942   0.715   0.406  14.374 -0.7039  0.1598  0.4248
  325TMC3    O1 4943   0.892   0.782  14.090  0.2994  0.0076 -0.6802
  325TMC3    O2 4944   0.747   0.304  14.320  0.0933  0.0572 -0.3190
  326MPD2     C 4945   2.496   1.589  11.192  0.3730 -0.2749 -0.6726
  326MPD2    C1 4946   2.550   1.589  11.071  0.4177  0.5040  0.3204
  326MPD2    C2 4947   2.678   1.632  11.053  0.5620  0.5539  0.4322
  326MPD2    C3 4948   2.753   1.690  11.156  0.2443 -0.0452 -0.0094
  326MPD2    C4 4949   2.692   1.695  11.280  0.2575 -0.2290  0.8350
  326MPD2    C5 4950   2.564   1.645  11.293  0.0662  0.4691  0.8618
  326MPD2     H 4951   2.723   1.620  10.955 -2.0800  0.1573 -0.7337
  326MPD2    H1 4952   2.756   1.729  11.361 -0.0270  0.4024  0.7925
  326MPD2    H2 4953   2.397   1.550  11.212  1.1597 -2.5159 -1.1381
  326MPD2    H3 4954   2.526   1.648  11.394  0.3136 -0.2307  0.9702
  326MPD2     N 4955   2.890   1.720  11.139  0.1534 -0.3613 -0.0789
  326MPD2    H5 4956   2.936   1.758  11.221  0.2503 -2.1118  0.6803
  326MPD2    N1 4957   2.491   1.540  10.956  0.3781 -0.1500  0.2483
  326MPD2    H7 4958   2.532   1.567  10.867 -2.7525  1.0255 -0.8350
  327TMC3    C1 4959   2.337   1.424  10.817  0.1303  0.2144  0.0140
  327TMC3    C2 4960   2.236   1.497  10.753  0.3235 -0.4014  0.6194
  327TMC3    C3 4961   2.246   1.523  10.617  0.8620 -0.3013 -0.1673
  327TMC3    C4 4962   2.445   1.385  10.747 -0.3389  0.2499  0.8896
  327TMC3    C5 4963   2.459   1.411  10.615  0.5735 -0.5732 -0.4005
  327TMC3    C6 4964   2.356   1.473  10.552 -0.6429  0.2936 -0.3091
  327TMC3     C 4965   2.367   1.478  10.956  0.0333  1.0928 -0.2805
  327TMC3     O 4966   2.271   1.474  11.032 -0.1538  0.1356  0.4072
  327TMC3     H 4967   2.171   1.548  10.824 -1.1308 -0.8058 -0.4116
  327TMC3    H1 4968   2.524   1.341  10.806  0.9753  0.8058 -0.4690
  327TMC3    H2 4969   2.381   1.526  10.461 -2.0705 -0.5265 -1.1914
  327TMC3    C7 4970   2.589   1.417  10.554 -0.4846 -0.5542  0.0143
  327TMC3    C8 4971   2.194   1.652  10.577  0.3809  0.2274 -0.8941
  327TMC3    O1 4972   2.589   1.451  10.436 -0.9927 -0.4194  0.2830
  327TMC3    O2 4973   2.240   1.700  10.472  0.4568  0.1908  0.3044
  328MPD2     C 4974   0.225   1.089  17.162  0.4043 -0.5457 -0.1955
  328MPD2    C1 4975   0.087   1.082  17.153 -0.1418  0.4598  0.2529
  328MPD2    C2 4976   0.020   1.055  17.034  0.0434 -0.1296  0.0109
  328MPD2    C3 4977   0.093   1.065  16.918  0.5402 -0.5179  0.3288
  328MPD2    C4 4978   0.230   1.070  16.928  0.0959 -0.2394 -0.3623
  328MPD2    C5 4979   0.301   1.081  17.044 -0.1253  0.8398  0.3171
  328MPD2     H 4980   4.652   1.076  17.033 -0.0179 -0.3592  1.7336
  328MPD2    H1 4981   0.294   1.088  16.842 -0.4241  1.8940 -0.3185
  328MPD2    H2 4982   0.275   1.101  17.257 -0.1476  2.5889 -0.2839
  328MPD2    H3 4983   0.409   1.084  17.042 -0.1641 -0.8524 -3.4620
  328MPD2     N 4984   0.037   1.113  16.806  0.4804 -0.2807  0.7628
  328MPD2    H5 4985   0.092   1.175  16.746 -1.4558  0.6555 -0.0575
  328MPD2    N1 4986   0.016   1.110  17.277 -0.4389  0.0548 -0.1786
  328MPD2    H7 4987   0.075   1.137  17.356  0.3692 -0.1115 -0.7297
  329TMC3    C1 4988   4.563   1.200  17.383  0.0978  0.6551  0.3726
  329TMC3    C2 4989   4.620   1.325  17.375  0.0551  0.0437 -0.7581
  329TMC3    C3 4990   4.544   1.439  17.404 -0.7943  0.6254 -0.5319
  329TMC3    C4 4991   4.430   1.188  17.402  0.0513  0.3383 -0.1518
  329TMC3    C5 4992   4.353   1.298  17.400  0.6955 -0.0318  0.6751
  329TMC3    C6 4993   4.409   1.428  17.408  0.3076  1.2698 -0.4225
  329TMC3     C 4994   4.615   1.107  17.287  0.4743 -0.2590  0.4287
  329TMC3     O 4995   4.533   1.050  17.218 -0.1802  0.2421  0.1600
  329TMC3     H 4996   4.726   1.341  17.359  0.1247 -0.8266 -1.1480
  329TMC3    H1 4997   4.382   1.091  17.408  2.4738 -0.7322  1.9590
  329TMC3    H2 4998   4.341   1.512  17.400  1.8736  2.3415 -2.5348
  329TMC3    C7 4999   4.237   1.284  17.317 -0.7029 -0.4597 -0.6335
  329TMC3    C8 5000   4.604   1.563  17.351 -0.3876  0.4996  0.3584
  329TMC3    O1 5001   4.174   1.388  17.303 -0.3011  0.1859  0.0132
  329TMC3    O2 5002   4.705   1.547  17.286 -0.0301 -0.0035 -0.2689
  330TMC3    C1 5003   3.142   1.068   9.636  0.2936 -0.0603 -0.9151
  330TMC3    C2 5004   3.060   1.019   9.538  0.5211  0.3991 -0.4140
  330TMC3    C3 5005   3.002   0.897   9.561  0.3083 -0.4869 -0.6748
  330TMC3    C4 5006   3.154   1.003   9.751  0.0146 -0.3691 -0.1605
  330TMC3    C5 5007   3.096   0.878   9.771  0.5872  0.7929 -0.5414
  330TMC3    C6 5008   3.017   0.826   9.676  0.6085 -0.3192  0.0941
  330TMC3     C 5009   3.174   1.215   9.642 -0.1423 -0.3169  0.0154
  330TMC3     O 5010   3.254   1.259   9.723 -0.2574  0.1197 -0.3781
  330TMC3     H 5011   3.059   1.061   9.438  0.8577  1.3981 -0.0045
  330TMC3    H1 5012   3.198   1.060   9.831 -0.3660  0.2351 -0.3736
  330TMC3    H2 5013   2.974   0.730   9.700  1.0935 -1.2148 -2.7171
  330TMC3    C7 5014   3.080   0.819   9.906 -0.6466  0.3741  0.8842
  330TMC3    C8 5015   2.939   0.839   9.449 -0.2714  0.7688 -0.2065
  330TMC3    O1 5016   3.021   0.713   9.917 -0.5710  0.2090 -0.0802
  330TMC3    O2 5017   2.883   0.917   9.374 -0.1430  0.6799 -0.2111
  331MPD2     C 5018   1.458   0.281  12.900  0.5670 -0.7663  0.0518
  331MPD2    C1 5019   1.378   0.248  12.798 -0.6553  0.1262 -0.1976
  331MPD2    C2 5020   1.352   0.113  12.774  0.4812 -0.5110 -0.6276
  331MPD2    C3 5021   1.403   0.016  12.856 -0.0450  0.1062  0.8986
  331MPD2    C4 5022   1.475   0.047  12.960 -0.0255  0.3736 -0.3565
  331MPD2    C5 5023   1.509   0.179  12.979 -0.0104 -0.0011 -0.3612
  331MPD2     H 5024   1.314   0.087  12.676 -1.4354 -0.2840  0.0628
  331MPD2    H1 5025   1.520   4.709  13.024 -2.2599 -0.9140 -0.3174
  331MPD2    H2 5026   1.477   0.385  12.926 -0.5122 -0.4863 -0.2817
  331MPD2    H3 5027   1.560   0.202  13.073  0.9600  0.0402 -0.8985
  331MPD2     N 5028   1.387   4.625  12.815 -0.6016  0.0023 -0.6059
  331MPD2    H5 5029   1.321   4.609  12.739 -0.7182  1.5181 -0.8221
  331MPD2    N1 5030   1.321   0.358  12.723 -0.7242 -0.7087 -0.2915
  331MPD2    H7 5031   1.328   0.453  12.757  0.4804  0.3155 -3.4446
  332TMC3    C1 5032   1.405   4.402  12.758  0.2793  0.4916  0.4788
  332TMC3    C2 5033   1.341   4.421  12.642  0.0523 -0.3278 -0.6140
  332TMC3    C3 5034   1.315   4.307  12.564  0.1757  0.4780  0.2172
  332TMC3    C4 5035   1.456   4.278  12.798 -0.4745  0.0058 -0.3624
  332TMC3    C5 5036   1.420   4.169  12.725  0.8950 -0.0234  0.0233
  332TMC3    C6 5037   1.340   4.181  12.616  0.1828  0.7493 -0.0309
  332TMC3     C 5038   1.444   4.509  12.847  0.3983  0.2321 -0.2781
  332TMC3     O 5039   1.521   4.485  12.938 -0.1861  0.1706  0.6098
  332TMC3     H 5040   1.314   4.520  12.607 -1.4499 -0.4370  0.2440
  332TMC3    H1 5041   1.495   4.271  12.898 -0.8693  1.8955 -0.0720
  332TMC3    H2 5042   1.321   4.090  12.560  1.4457  1.1875 -1.1665
  332TMC3    C7 5043   1.469   4.041  12.765 -0.2703 -0.1934  0.0886
  332TMC3    C8 5044   1.205   4.327  12.462 -0.3038  0.1485  0.0526
  332TMC3    O1 5045   1.409   3.948  12.714 -0.4065 -0.4355  0.1721
  332TMC3    O2 5046   1.169   4.439  12.431 -0.2995  0.1862 -0.3769
  333MPD2     C 5047   1.125   0.070  11.335 -0.4464 -0.4553 -0.5857
  333MPD2    C1 5048   1.186   4.725  11.253  0.7124 -0.4157 -0.3759
  333MPD2    C2 5049   1.167   4.587  11.273  0.6920  0.4183 -0.3399
  333MPD2    C3 5050   1.078   4.539  11.367 -0.0688 -0.1958 -0.1262
  333MPD2    C4 5051   1.014   4.628  11.450 -0.0763 -0.5548 -0.6364
  333MPD2    C5 5052   1.051   0.022  11.436 -0.4094 -0.3962 -0.2251
  333MPD2     H 5053   1.201   4.513  11.203  2.2060  1.0159 -0.2424
  333MPD2    H1 5054   0.947   4.601  11.531  0.4287 -0.4730 -0.1977
  333MPD2    H2 5055   1.152   0.175  11.332 -1.2903 -0.2595 -1.1749
  333MPD2    H3 5056   1.009   0.094  11.505  1.8376 -1.3260  2.0932
  333MPD2     N 5057   1.065   4.398  11.380  0.9517 -0.6717  0.7147
  333MPD2    H5 5058   1.135   4.346  11.327 -1.3698 -2.2596 -0.7932
  333MPD2    N1 5059   1.266   0.037  11.145  0.2550  0.3712  0.3827
  333MPD2    H7 5060   1.279   0.137  11.137 -2.1771  0.7910  1.6449
  334TMC3    C1 5061   1.381   0.036  10.942 -0.1785  0.1142 -0.6434
  334TMC3    C2 5062   1.415   4.706  10.832 -0.3268 -0.3502 -0.1175
  334TMC3    C3 5063   1.515   0.019  10.752 -0.3900  0.1688  0.0828
  334TMC3    C4 5064   1.455   0.152  10.983 -0.2054 -0.6866 -0.2790
  334TMC3    C5 5065   1.547   0.195  10.893  0.1677  0.1360  0.2718
  334TMC3    C6 5066   1.573   0.139  10.771 -0.2090 -0.5611 -0.7873
  334TMC3     C 5067   1.319   4.701  11.048  0.2087 -0.2645  0.1949
  334TMC3     O 5068   1.314   4.583  11.023  0.0056 -0.2764 -0.2608
  334TMC3     H 5069   1.361   4.615  10.810 -2.9027  0.9388  0.8297
  334TMC3    H1 5070   1.450   0.192  11.083 -0.5049  0.2920 -0.6813
  334TMC3    H2 5071   1.637   0.189  10.699 -0.1250  0.1447 -0.2235
  334TMC3    C7 5072   1.605   0.322  10.911  0.2709 -0.5376 -0.0461
  334TMC3    C8 5073   1.553   4.680  10.635  0.3255 -0.4283  0.4724
  334TMC3    O1 5074   1.720   0.340  10.867 -0.3584  0.5249 -0.0027
  334TMC3    O2 5075   1.481   4.584  10.618 -0.7964  0.0599  0.1631
  335TMC3    C1 5076   0.785   2.241  16.863  0.2615 -0.1262 -0.1759
  335TMC3    C2 5077   0.715   2.125  16.859 -0.7483  0.2859 -0.1622
  335TMC3    C3 5078   0.771   2.005  16.818  0.1551  0.8949 -0.6735
  335TMC3    C4 5079   0.910   2.248  16.803  0.1635  0.5520  0.2362
  335TMC3    C5 5080   0.964   2.125  16.762  0.2291 -0.1306  0.0866
  335TMC3    C6 5081   0.891   2.015  16.751 -0.5690 -0.0383 -0.0824
  335TMC3     C 5082   0.717   2.372  16.896  0.3120  0.2108  0.6826
  335TMC3     O 5083   0.785   2.467  16.865  0.5669 -0.1715  0.0200
  335TMC3     H 5084   0.616   2.124  16.902 -0.2049 -3.8450  1.0117
  335TMC3    H1 5085   0.961   2.342  16.822  0.4270  1.0719 -3.1483
  335TMC3    H2 5086   0.933   1.923  16.712  1.2172  0.5140  0.5437
  335TMC3    C7 5087   1.109   2.114  16.769  0.7096 -0.1063 -0.6190
  335TMC3    C8 5088   0.676   1.898  16.804 -0.1717  0.0274  0.0144
  335TMC3    O1 5089   1.164   2.022  16.708 -0.0530  0.0984  0.1828
  335TMC3    O2 5090   0.561   1.941  16.796  0.0066 -0.0551  0.2105
  336MPD2     C 5091   0.910   4.010  16.285  0.2691  0.2058 -0.1312
  336MPD2    C1 5092   0.806   3.951  16.222 -0.1877 -0.0947 -0.4700
  336MPD2    C2 5093   0.778   3.822  16.235 -0.1683 -0.2883  0.4397
  336MPD2    C3 5094   0.862   3.742  16.304 -0.4446  0.0705 -0.8542
  336MPD2    C4 5095   0.966   3.794  16.372 -0.0574 -0.7656  0.3895
  336MPD2    C5 5096   0.983   3.932  16.361  1.1003 -0.3893 -0.2976
  336MPD2     H 5097   0.705   3.776  16.169 -0.7797 -0.5539  1.3073
  336MPD2    H1 5098   1.038   3.735  16.429  0.9967 -1.4075 -1.6153
  336MPD2    H2 5099   0.937   4.115  16.284  0.1212  0.2542  1.4599
  336MPD2    H3 5100   1.054   3.988  16.421  0.5388  0.1968 -0.1897
  336MPD2     N 5101   0.847   3.601  16.305  0.3590  0.4284 -0.0481
  336MPD2    H5 5102   0.907   3.551  16.370 -0.8026  0.8175  1.3266
  336MPD2    N1 5103   0.723   4.015  16.133  0.2188 -0.2053  0.5659
  336MPD2    H7 5104   0.644   3.967  16.090 -0.2161  0.5242  0.5484
  337TMC3    C1 5105   0.601   4.177  16.018 -0.1604  0.6279  0.2118
  337TMC3    C2 5106   0.522   4.076  15.959  0.0228  0.0994 -0.2922
  337TMC3    C3 5107   0.416   4.118  15.877  0.0891  0.7293  0.3582
  337TMC3    C4 5108   0.572   4.305  15.992 -0.2430 -0.4919  0.7492
  337TMC3    C5 5109   0.472   4.349  15.909  0.2065 -0.9866  0.1592
  337TMC3    C6 5110   0.393   4.252  15.843 -0.0892 -0.1302  0.4022
  337TMC3     C 5111   0.713   4.150  16.105 -0.1207  0.6330  0.3420
  337TMC3     O 5112   0.780   4.247  16.142  0.8020 -0.0006 -0.3466
  337TMC3     H 5113   0.546   3.973  15.980  0.2264 -0.1123 -1.5754
  337TMC3    H1 5114   0.639   4.380  16.032  0.6709  0.5592 -2.7499
  337TMC3    H2 5115   0.308   4.284  15.783 -0.4610 -0.8087  0.5656
  337TMC3    C7 5116   0.473   4.482  15.847  0.0708 -0.0009  0.0365
  337TMC3    C8 5117   0.348   4.022  15.798  0.1124  0.5883 -0.2097
  337TMC3    O1 5118   0.402   4.489  15.744 -0.1601 -0.4453  0.3050
  337TMC3    O2 5119   0.411   3.927  15.763  0.0011  0.4667 -0.2145
  338MPD2     C 5120   1.112   3.998   0.613  0.1969  0.9585 -0.1210
  338MPD2    C1 5121   1.049   4.002   0.487  0.6697 -0.4823  0.4407
  338MPD2    C2 5122   0.914   4.035   0.483 -0.3512  0.4333 -1.0339
  338MPD2    C3 5123   0.837   4.067   0.602  0.5443 -0.2327 -0.6922
  338MPD2    C4 5124   0.901   4.059   0.726 -0.0732  0.4311 -0.2539
  338MPD2    C5 5125   1.038   4.034   0.728  0.3503 -0.1603 -0.3522
  338MPD2     H 5126   0.858   4.026   0.390  0.4775 -0.2326 -1.4716
  338MPD2    H1 5127   0.849   4.082   0.818  0.7762 -0.4233  0.4447
  338MPD2    H2 5128   1.217   3.980   0.632  0.3017 -0.8314 -2.4427
  338MPD2    H3 5129   1.092   4.018   0.821 -0.9478 -3.0325 -0.0642
  338MPD2     N 5130   0.698   4.099   0.595  0.8945  0.2303 -0.4294
  338MPD2    H5 5131   0.653   4.089   0.504  0.2851  1.4783 -0.2669
  338MPD2    N1 5132   1.113   3.967   0.363  0.7228  0.0374 -0.4894
  338MPD2    H7 5133   1.064   3.964   0.274 -2.0421  1.5788  0.9953
  339TMC3    C1 5134   0.467   4.105   0.626  0.5428  0.0028 -0.0411
  339TMC3    C2 5135   0.398   3.997   0.658  0.0401 -0.3781  0.7357
  339TMC3    C3 5136   0.296   3.951   0.577  0.6571  0.0573 -0.0775
  339TMC3    C4 5137   0.455   4.173   0.507 -0.0389 -0.6148  0.2451
  339TMC3    C5 5138   0.370   4.112   0.412  0.4196  0.3291 -0.2526
  339TMC3    C6 5139   0.285   4.012   0.448  0.5255  0.0769 -1.1191
  339TMC3     C 5140   0.598   4.124   0.690  0.3564 -0.0206  0.1188
  339TMC3     O 5141   0.595   4.138   0.813  0.2922  0.6629 -0.0161
  339TMC3     H 5142   0.446   3.937   0.734  0.6561 -1.1869 -0.2732
  339TMC3    H1 5143   0.515   4.262   0.490 -0.4576 -0.4685 -0.5023
  339TMC3    H2 5144   0.221   3.961   0.376 -0.9382 -0.9049  0.8954
  339TMC3    C7 5145   0.394   4.150   0.275  0.0946  0.5565  0.2217
  339TMC3    C8 5146   0.218   3.833   0.608  0.3871  0.5614 -0.6855
  339TMC3    O1 5147   0.453   4.259   0.258  0.6497 -0.3728 -0.2489
  339TMC3    O2 5148   0.146   3.788   0.523  0.0955 -0.2454  0.6047
  340MPD2     C 5149   1.113   1.156  10.546  1.0566 -0.3759 -0.2866
  340MPD2    C1 5150   1.210   1.090  10.474  0.0643  0.2606  0.3534
  340MPD2    C2 5151   1.325   1.156  10.428  0.6326 -0.2516  0.2271
  340MPD2    C3 5152   1.342   1.289  10.471  0.4554  1.0610  0.5106
  340MPD2    C4 5153   1.242   1.355  10.542  0.5679  0.5265  0.1248
  340MPD2    C5 5154   1.127   1.288  10.581  0.6197  0.1067  0.6792
  340MPD2     H 5155   1.396   1.111  10.360  0.2882  1.0825 -1.0270
  340MPD2    H1 5156   1.255   1.460  10.566 -0.5602  0.5477  0.6257
  340MPD2    H2 5157   1.019   1.112  10.578  0.2156  0.2641 -1.8824
  340MPD2    H3 5158   1.051   1.348  10.629 -1.6250 -1.9241 -0.3111
  340MPD2     N 5159   1.456   1.366  10.446 -0.0325 -0.0687  0.0552
  340MPD2    H5 5160   1.450   1.467  10.448 -0.4599 -0.0731 -1.1696
  340MPD2    N1 5161   1.182   0.954  10.441 -0.0557  0.0324 -0.0294
  340MPD2    H7 5162   1.092   0.919  10.470 -0.1698 -0.2969 -0.7788
  341TMC3    C1 5163   1.208   0.735  10.347  0.0173 -0.6681  0.2852
  341TMC3    C2 5164   1.076   0.704  10.370  0.4161  1.0338 -0.1873
  341TMC3    C3 5165   1.030   0.574  10.349 -0.6232  0.2900 -0.1173
  341TMC3    C4 5166   1.292   0.635  10.299  0.6377 -0.5983  0.2653
  341TMC3    C5 5167   1.241   0.504  10.289  0.0772 -0.1895  0.2530
  341TMC3    C6 5168   1.110   0.473  10.314  0.0576 -0.0606 -0.0611
  341TMC3     C 5169   1.267   0.868  10.382 -0.0689  1.0544  1.2466
  341TMC3     O 5170   1.385   0.882  10.354 -0.4433 -0.6975  0.1552
  341TMC3     H 5171   1.015   0.775  10.425  1.9481  1.4328  0.9927
  341TMC3    H1 5172   1.395   0.656  10.274 -0.1796  1.7001 -1.0722
  341TMC3    H2 5173   1.076   0.370  10.312  1.5838 -0.5905  1.6460
  341TMC3    C7 5174   1.311   0.412  10.200  0.4854  0.0643  0.4358
  341TMC3    C8 5175   0.891   0.543  10.316  0.3898 -0.2919  0.7288
  341TMC3    O1 5176   1.428   0.450  10.181  0.1291  0.0451 -0.0079
  341TMC3    O2 5177   0.872   0.453  10.235  0.2900  0.0790  0.2652
  342MPD2     C 5178   3.278   4.516  17.422  1.2018  0.1215  0.6163
  342MPD2    C1 5179   3.409   4.522  17.386  0.7841  0.2654  0.2217
  342MPD2    C2 5180   3.461   4.654  17.379  0.0343 -0.5596  0.1078
  342MPD2    C3 5181   3.378   0.029  17.399  0.0122 -0.0627  0.0319
  342MPD2    C4 5182   3.245   0.013  17.424  1.1949 -0.1826 -0.3515
  342MPD2    C5 5183   3.198   4.628  17.445 -0.0641  1.1843  0.7683
  342MPD2     H 5184   3.568   4.659  17.360  0.0505 -0.1951  0.3105
  342MPD2    H1 5185   3.183   0.100  17.443 -2.1909 -2.1762 -2.2477
  342MPD2    H2 5186   3.223   4.423  17.429 -0.7596  1.0818 -1.7556
  342MPD2    H3 5187   3.095   4.618  17.476  0.1177  0.7673  1.2436
  342MPD2     N 5188   3.417   0.163  17.405  0.3528  0.5026  0.2133
  342MPD2    H5 5189   3.342   0.230  17.418  0.7480  0.9335  0.2578
  342MPD2    N1 5190   3.488   4.407  17.341 -0.5085 -0.0836  0.3286
  342MPD2    H7 5191   3.574   4.419  17.288 -1.2343  1.6259 -0.4824
  343TMC3    C1 5192   3.525   4.179  17.270 -0.2145  0.3237 -0.0829
  343TMC3    C2 5193   3.662   4.200  17.242 -0.5712 -0.6468 -0.3609
  343TMC3    C3 5194   3.721   4.103  17.176  0.6649  0.4627  0.6833
  343TMC3    C4 5195   3.461   4.067  17.246  0.5179  0.4319  0.1357
  343TMC3    C5 5196   3.529   3.963  17.196 -0.2754 -0.5055  0.3372
  343TMC3    C6 5197   3.654   3.983  17.149 -0.7399  0.4392 -0.1402
  343TMC3     C 5198   3.452   4.270  17.355 -0.3975 -0.1908  0.2362
  343TMC3     O 5199   3.361   4.224  17.425  0.2225 -0.4198 -0.3215
  343TMC3     H 5200   3.718   4.285  17.278 -2.1610  0.9632 -1.6786
  343TMC3    H1 5201   3.353   4.058  17.257  0.3044  0.3334 -2.1561
  343TMC3    H2 5202   3.699   3.891  17.112  1.9023  2.5671 -2.3087
  343TMC3    C7 5203   3.469   3.834  17.189 -0.0496  0.5001  0.3895
  343TMC3    C8 5204   3.864   4.120  17.151  0.3660 -0.2185  0.4084
  343TMC3    O1 5205   3.503   3.748  17.106 -0.0930 -0.3439  0.5306
  343TMC3    O2 5206   3.918   4.206  17.222 -0.0956 -0.3365 -0.3406
  344MPD2     C 5207   4.662   4.260  11.334 -0.1968  0.3896  0.6978
  344MPD2    C1 5208   4.695   4.167  11.232  0.5807  0.6203  0.5410
  344MPD2    C2 5209   4.737   4.220  11.114  0.0652  0.4070  0.2608
  344MPD2    C3 5210   4.724   4.355  11.082 -0.0487  0.0789 -0.3058
  344MPD2    C4 5211   4.718   4.437  11.190  0.8004  0.0362  0.2213
  344MPD2    C5 5212   4.685   4.392  11.314 -0.2216  0.6141  0.3106
  344MPD2     H 5213   0.027   4.158  11.029  1.2747 -0.5734  1.3801
  344MPD2    H1 5214   0.005   4.541  11.177  1.0105 -0.0403  0.0200
  344MPD2    H2 5215   4.635   4.235  11.436  0.5121  0.3827  0.8854
  344MPD2    H3 5216   4.666   4.457  11.398 -0.0578  0.5997  0.3587
  344MPD2     N 5217   0.007   4.404  10.953 -0.3981  0.5807  0.0441
  344MPD2    H5 5218   0.003   4.505  10.942  1.3168  0.9292  2.7771
  344MPD2    N1 5219   4.683   4.028  11.240  0.0507  0.3505 -0.1446
  344MPD2    H7 5220   4.723   3.972  11.166  1.8220 -0.0702  1.1311
  345TMC3    C1 5221   0.058   4.424  10.734  0.2104 -0.8092 -0.9477
  345TMC3    C2 5222   0.158   4.515  10.768 -0.6136  0.4725 -0.3914
  345TMC3    C3 5223   0.229   4.576  10.667  0.3719  0.4439 -1.0430
  345TMC3    C4 5224   0.009   4.422  10.605 -0.2504  0.3223 -0.2973
  345TMC3    C5 5225   0.082   4.488  10.503  0.1974 -0.7418  0.3238
  345TMC3    C6 5226   0.197   4.556  10.532 -0.5399  0.2763 -0.9777
  345TMC3     C 5227   0.002   4.340  10.835  0.2681 -0.9370  0.7708
  345TMC3     O 5228   4.688   4.228  10.817 -0.1515  0.2829 -0.1072
  345TMC3     H 5229   0.204   4.524  10.865  0.5954 -1.4251 -0.7867
  345TMC3    H1 5230   4.657   4.364  10.592 -0.0968  0.2572 -1.0735
  345TMC3    H2 5231   0.259   4.618  10.468  0.8368 -0.0810 -0.0004
  345TMC3    C7 5232   0.003   4.558  10.404 -0.2294  0.3557  0.3230
  345TMC3    C8 5233   0.290   4.701  10.706 -0.2469 -0.1006  0.5999
  345TMC3    O1 5234   0.070   4.647  10.346  0.2152 -0.3557  0.2055
  345TMC3    O2 5235   0.232   0.018  10.801 -0.4798 -0.1066  0.1369
  346MPD2     C 5236   4.193   0.515  13.917  0.0227  0.1742  0.0414
  346MPD2    C1 5237   4.327   0.496  13.901  0.9971  0.1998  0.4554
  346MPD2    C2 5238   4.418   0.562  13.988  0.4379 -0.5527  0.0771
  346MPD2    C3 5239   4.377   0.664  14.075 -0.1248  0.3413  0.2874
  346MPD2    C4 5240   4.241   0.691  14.068 -0.6805 -0.1393 -0.2991
  346MPD2    C5 5241   4.146   0.615  13.999  0.1594  0.1961  0.2053
  346MPD2     H 5242   4.520   0.528  13.978  0.1637 -0.8389 -1.8806
  346MPD2    H1 5243   4.185   0.772  14.112 -0.5792  0.0115 -0.4480
  346MPD2    H2 5244   4.123   0.468  13.848  2.1952  0.9891 -2.7376
  346MPD2    H3 5245   4.043   0.648  14.000  0.3400  0.6586  2.2595
  346MPD2     N 5246   4.470   0.730  14.158 -0.0960  0.2033  0.9729
  346MPD2    H5 5247   4.566   0.699  14.145 -0.5648 -0.3471 -1.3167
  346MPD2    N1 5248   4.385   0.404  13.806 -0.3116 -0.4187  0.3143
  346MPD2    H7 5249   4.484   0.410  13.785 -0.7790  0.6338 -1.5810
  347TMC3    C1 5250   4.576   0.870  14.308  0.2594 -1.0128 -0.0623
  347TMC3    C2 5251   4.695   0.830  14.253 -0.8922  0.6030  0.6476
  347TMC3    C3 5252   0.063   0.860  14.333  0.4355 -0.3961  0.3355
  347TMC3    C4 5253   4.553   0.937  14.432 -0.0587 -0.1341 -0.1314
  347TMC3    C5 5254   4.666   0.967  14.496  0.0900 -0.2271  0.5481
  347TMC3    C6 5255   0.048   0.924  14.449 -0.4985 -0.4422 -0.5527
  347TMC3     C 5256   4.450   0.829  14.250 -0.0467 -0.6234 -0.0601
  347TMC3     O 5257   4.344   0.877  14.283  0.0811  0.2562  0.0232
  347TMC3     H 5258   4.703   0.787  14.154 -0.4854 -2.8618  2.1662
  347TMC3    H1 5259   4.456   0.975  14.460 -0.4759  0.7132 -2.7116
  347TMC3    H2 5260   0.141   0.931  14.504 -1.4980 -1.2417  1.2132
  347TMC3    C7 5261   4.650   1.050  14.614 -0.0956 -0.3789 -0.3011
  347TMC3    C8 5262   0.197   0.826  14.294 -0.8435  0.0964 -0.1235
  347TMC3    O1 5263   4.537   1.085  14.642 -0.1509  0.1539  0.5209
  347TMC3    O2 5264   0.269   0.796  14.386  0.1558 -0.1681 -0.4164
  348MPD2     C 5265   3.669   0.389  12.166  0.4924 -0.9506  0.0037
  348MPD2    C1 5266   3.679   0.313  12.049  0.5474  0.5072 -0.0303
  348MPD2    C2 5267   3.651   0.381  11.930  0.5995 -0.2905 -0.5811
  348MPD2    C3 5268   3.602   0.514  11.924  0.1855  0.1282 -0.0937
  348MPD2    C4 5269   3.604   0.585  12.040  0.1001 -0.3936 -0.2475
  348MPD2    C5 5270   3.634   0.524  12.159  0.7035 -0.4571 -0.2487
  348MPD2     H 5271   3.670   0.341  11.831 -2.4824 -0.1329 -1.2180
  348MPD2    H1 5272   3.596   0.693  12.045 -0.7062 -0.5670  2.1471
  348MPD2    H2 5273   3.682   0.352  12.267  3.6012  2.8056  0.9602
  348MPD2    H3 5274   3.640   0.581  12.251  2.5744  0.1653 -0.7541
  348MPD2     N 5275   3.571   0.582  11.799  0.5138  0.2326 -0.0489
  348MPD2    H5 5276   3.584   0.522  11.719 -0.0381  0.1650 -0.0855
  348MPD2    N1 5277   3.713   0.177  12.047  0.0266 -0.5961 -0.2468
  348MPD2    H7 5278   3.707   0.138  11.953  0.4708 -1.0266 -0.0944
  349TMC3    C1 5279   3.717   4.695  12.137 -0.8617 -0.3574  0.8135
  349TMC3    C2 5280   3.713   4.611  12.246 -1.5376 -0.2213 -0.2339
  349TMC3    C3 5281   3.685   4.477  12.231 -0.0402 -0.7690 -0.0441
  349TMC3    C4 5282   3.681   4.647  12.012 -0.0656  0.0916  0.0694
  349TMC3    C5 5283   3.644   4.516  12.007  0.2739  0.2838 -0.3277
  349TMC3    C6 5284   3.648   4.424  12.105  0.5391  0.1364 -1.0084
  349TMC3     C 5285   3.742   0.099  12.154  0.7521  0.0079 -0.4002
  349TMC3     O 5286   3.774   0.129  12.268 -0.1582 -0.2153  0.0571
  349TMC3     H 5287   3.725   4.649  12.347  0.2484  3.0485 -1.6862
  349TMC3    H1 5288   3.675   4.705  11.920 -0.4212 -1.3315 -0.7938
  349TMC3    H2 5289   3.609   4.323  12.096  0.6719 -0.3451  3.4780
  349TMC3    C7 5290   3.529   4.497  11.920  0.3114  0.3531 -0.9480
  349TMC3    C8 5291   3.696   4.415  12.364 -0.3026 -0.3547  0.4348
  349TMC3    O1 5292   3.422   4.485  11.980 -0.3315  0.1988  0.5032
  349TMC3    O2 5293   3.790   4.445  12.439 -0.5065  0.5533 -0.6866
  350MPD2     C 5294   2.424   3.529  10.826 -0.3270 -0.1382 -0.0241
  350MPD2    C1 5295   2.466   3.408  10.848  0.3067  0.4930 -0.5122
  350MPD2    C2 5296   2.557   3.385  10.948  0.0272  0.2004 -0.0874
  350MPD2    C3 5297   2.590   3.493  11.030 -0.0266 -0.4466 -0.4971
  350MPD2    C4 5298   2.548   3.624  11.003 -0.9002  0.6155  0.4773
  350MPD2    C5 5299   2.465   3.637  10.899  0.1379  0.5821  0.4718
  350MPD2     H 5300   2.595   3.285  10.961  0.8013  0.5786  0.5759
  350MPD2    H1 5301   2.587   3.706  11.063  0.9388  1.4253 -1.8276
  350MPD2    H2 5302   2.350   3.540  10.747 -1.5481  1.7902  1.3775
  350MPD2    H3 5303   2.425   3.734  10.873 -0.5477  0.6273  1.6999
  350MPD2     N 5304   2.642   3.455  11.151  0.1393 -0.0328 -0.1404
  350MPD2    H5 5305   2.658   3.355  11.158 -2.1694 -0.3888 -0.0027
  350MPD2    N1 5306   2.430   3.300  10.765 -0.0500  0.4381 -0.7065
  350MPD2    H7 5307   2.471   3.210  10.783  0.8725  1.3848  1.9054
  351TMC3    C1 5308   2.312   3.158  10.614  0.3906  0.0735 -0.4979
  351TMC3    C2 5309   2.421   3.117  10.536 -0.0142 -0.6564 -0.3043
  351TMC3    C3 5310   2.394   3.024  10.438 -0.3124  0.2078 -0.2720
  351TMC3    C4 5311   2.188   3.118  10.587  0.5660  0.7497 -0.1589
  351TMC3    C5 5312   2.162   3.037  10.487 -1.1245  0.5405  0.2146
  351TMC3    C6 5313   2.265   2.981  10.413  0.1227 -0.7185  0.9120
  351TMC3     C 5314   2.318   3.291  10.678 -0.7857  0.3895  0.0334
  351TMC3     O 5315   2.239   3.378  10.641 -0.1389 -0.1357 -0.6096
  351TMC3     H 5316   2.522   3.156  10.550 -1.3543  2.1314  1.6714
  351TMC3    H1 5317   2.111   3.152  10.655  1.7712  1.2247  0.9709
  351TMC3    H2 5318   2.255   2.894  10.349 -1.1350  0.1783 -0.1065
  351TMC3    C7 5319   2.033   2.965  10.488 -0.5315  0.2180 -0.3610
  351TMC3    C8 5320   2.490   2.967  10.355 -0.1389 -0.1157  0.6920
  351TMC3    O1 5321   1.965   2.988  10.587  0.3145 -0.5844 -0.1450
  351TMC3    O2 5322   2.456   2.939  10.241 -0.0203  0.1710  0.3203
  352MPD2     C 5323   1.314   1.390   0.896 -0.7495  0.0058 -0.1093
  352MPD2    C1 5324   1.216   1.313   0.949  0.4020  0.2525  0.2162
  352MPD2    C2 5325   1.252   1.182   0.972 -0.3665  0.1708  0.3705
  352MPD2    C3 5326   1.372   1.122   0.951 -0.6214  0.2009 -0.1755
  352MPD2    C4 5327   1.470   1.208   0.898 -0.4097 -0.6312  0.0742
  352MPD2    C5 5328   1.437   1.336   0.864 -0.0037 -0.0966 -0.4252
  352MPD2     H 5329   1.168   1.119   1.001 -0.1685  0.2522  1.1141
  352MPD2    H1 5330   1.564   1.170   0.860  2.6689  3.0661  4.0717
  352MPD2    H2 5331   1.295   1.494   0.874 -1.0173 -0.7155 -3.3086
  352MPD2    H3 5332   1.509   1.391   0.805  0.9872  1.3188  2.0823
  352MPD2     N 5333   1.391   0.985   0.969 -0.0915 -0.0967 -0.1947
  352MPD2    H5 5334   1.482   0.945   0.948  0.5390  1.5060 -0.5228
  352MPD2    N1 5335   1.086   1.364   0.968  0.1990 -0.5334  0.4711
  352MPD2    H7 5336   1.055   1.446   0.916  1.4936 -2.2769 -3.0039
  353TMC3    C1 5337   1.342   0.756   1.009 -0.4025  0.7445 -0.3869
  353TMC3    C2 5338   1.473   0.721   0.990  0.0310  0.0607 -0.5894
  353TMC3    C3 5339   1.502   0.587   0.995  0.1269  0.6851 -0.2060
  353TMC3    C4 5340   1.246   0.660   1.019  0.0213 -0.0881 -0.8180
  353TMC3    C5 5341   1.283   0.525   1.023 -0.3135  0.0082 -0.3263
  353TMC3    C6 5342   1.415   0.485   1.002  0.1079  0.8027  0.5359
  353TMC3     C 5343   1.295   0.891   1.006  0.3766 -0.2051  0.0961
  353TMC3     O 5344   1.185   0.909   1.051  0.3071 -0.3462  0.4985
  353TMC3     H 5345   1.550   0.797   0.979 -0.3079  0.4792 -0.1009
  353TMC3    H1 5346   1.141   0.685   1.016 -0.0367 -0.2815 -0.3706
  353TMC3    H2 5347   1.440   0.380   1.012 -1.0995  0.7483  2.8217
  353TMC3    C7 5348   1.184   0.425   1.023  0.9121 -0.1526  0.3689
  353TMC3    C8 5349   1.646   0.561   1.021  0.1953  0.0238  0.7795
  353TMC3    O1 5350   1.221   0.313   0.982  0.5429  0.5435 -0.2695
  353TMC3    O2 5351   1.724   0.657   1.041  0.5725 -0.4652 -0.1352
  354TMC3    C1 5352   2.599   1.144  13.534  0.1023  0.8812  0.4262
  354TMC3    C2 5353   2.595   1.282  13.544 -0.0043 -0.4591  0.5982
  354TMC3    C3 5354   2.591   1.357  13.428  0.9350 -0.1103 -0.1522
  354TMC3    C4 5355   2.576   1.082  13.414 -0.1407  1.0106 -0.1494
  354TMC3    C5 5356   2.595   1.152  13.299 -1.1363 -0.0824 -0.2920
  354TMC3    C6 5357   2.586   1.292  13.305  0.1494  0.5069 -0.4206
  354TMC3     C 5358   2.615   1.064  13.656 -0.2401 -0.3813 -0.5973
  354TMC3     O 5359   2.559   0.956  13.661  0.7380  0.5174  0.0029
  354TMC3     H 5360   2.609   1.333  13.638 -0.5009  1.8812 -0.5756
  354TMC3    H1 5361   2.594   0.975  13.412 -1.3075  0.8322 -0.8735
  354TMC3    H2 5362   2.593   1.342  13.208 -1.0245  0.9223 -0.2801
  354TMC3    C7 5363   2.639   1.074  13.182  0.2923 -0.0518 -0.0943
  354TMC3    C8 5364   2.620   1.499  13.447 -0.6072  0.7003 -0.0271
  354TMC3    O1 5365   2.628   0.955  13.178 -0.7863 -0.2309  0.3815
  354TMC3    O2 5366   2.606   1.532  13.563  0.5350 -0.1023  0.7153
  355MPD2     C 5367   2.667   2.364  11.799  0.5437  0.1595  0.6934
  355MPD2    C1 5368   2.741   2.413  11.688  0.5499 -0.6747  0.3770
  355MPD2    C2 5369   2.881   2.424  11.700  0.1122  0.7457  0.1259
  355MPD2    C3 5370   2.936   2.400  11.823  0.0745  0.1446 -0.5003
  355MPD2    C4 5371   2.856   2.372  11.933  0.2501  0.0612 -0.0756
  355MPD2    C5 5372   2.723   2.339  11.921  0.5561  0.4801  0.1969
  355MPD2     H 5373   2.944   2.456  11.618  0.0008 -3.3896 -1.5822
  355MPD2    H1 5374   2.908   2.346  12.024 -0.3527  3.1554  1.1483
  355MPD2    H2 5375   2.561   2.349  11.783  0.8921 -2.4580  0.9886
  355MPD2    H3 5376   2.667   2.332  12.014 -0.2350  1.1124 -0.2248
  355MPD2     N 5377   3.070   2.436  11.852  0.3520 -0.1019  0.5362
  355MPD2    H5 5378   3.096   2.429  11.950 -0.2728 -2.3596  0.5454
  355MPD2    N1 5379   2.664   2.455  11.574 -0.2177  0.1595 -0.2820
  355MPD2    H7 5380   2.564   2.440  11.576 -0.0840 -0.7701 -0.5345
  356TMC3    C1 5381   3.248   2.583  11.840 -0.5480 -0.7070  0.2318
  356TMC3    C2 5382   3.340   2.643  11.768 -0.5117  0.2516  0.0208
  356TMC3    C3 5383   3.411   2.751  11.822  0.4223  0.2002  0.7873
  356TMC3    C4 5384   3.210   2.634  11.968 -0.2484 -0.4920  0.2675
  356TMC3    C5 5385   3.289   2.733  12.020  0.5862  0.7170 -0.5315
  356TMC3    C6 5386   3.385   2.799  11.950  0.3204  0.9720 -0.3072
  356TMC3     C 5387   3.158   2.497  11.769  0.4352 -0.0460 -0.2526
  356TMC3     O 5388   3.171   2.498  11.648  0.3750  0.0506  0.6843
  356TMC3     H 5389   3.369   2.602  11.672 -1.1036 -1.8544  0.7584
  356TMC3    H1 5390   3.146   2.578  12.037  0.6964 -0.9793  0.7452
  356TMC3    H2 5391   3.435   2.887  11.987  0.5284  0.7853 -0.1472
  356TMC3    C7 5392   3.237   2.788  12.148  0.2091  0.1821  0.2711
  356TMC3    C8 5393   3.506   2.817  11.737 -0.1388 -0.0785 -0.0723
  356TMC3    O1 5394   3.121   2.753  12.173 -0.2369 -0.4321  0.6471
  356TMC3    O2 5395   3.533   2.758  11.630  0.8514 -0.1349 -0.1474
  357MPD2     C 5396   2.152   2.682   1.113 -0.5763  0.4958  0.1792
  357MPD2    C1 5397   2.231   2.650   1.220 -0.5573 -0.0461 -0.2352
  357MPD2    C2 5398   2.178   2.679   1.345 -0.5647  0.2661  0.4971
  357MPD2    C3 5399   2.056   2.734   1.362 -0.0787  0.2638 -0.2752
  357MPD2    C4 5400   1.979   2.754   1.254 -0.5326  0.0186 -0.2559
  357MPD2    C5 5401   2.029   2.731   1.131 -0.4432 -0.2561  0.0987
  357MPD2     H 5402   2.237   2.647   1.431 -0.2411 -1.4102 -0.3381
  357MPD2    H1 5403   1.882   2.802   1.257  0.1361  1.3353  0.2013
  357MPD2    H2 5404   2.183   2.666   1.010 -1.9899  0.3007 -0.2189
  357MPD2    H3 5405   1.964   2.768   1.052 -2.2103 -1.7294  0.8634
  357MPD2     N 5406   1.987   2.753   1.486 -0.1116  0.7499 -0.6502
  357MPD2    H5 5407   1.886   2.762   1.474 -0.2567  1.0346  0.8180
  357MPD2    N1 5408   2.361   2.598   1.193 -0.1417 -0.0934  0.3434
  357MPD2    H7 5409   2.390   2.589   1.097 -2.1023 -0.6935 -0.1861
  358TMC3    C1 5410   2.559   2.469   1.233  0.4370 -0.6597  0.1296
  358TMC3    C2 5411   2.536   2.375   1.136 -0.0634  0.0469  0.1468
  358TMC3    C3 5412   2.631   2.280   1.127 -0.0398  0.7903  0.8975
  358TMC3    C4 5413   2.671   2.469   1.310  0.3162  0.0956 -0.7030
  358TMC3    C5 5414   2.768   2.375   1.284  0.9984 -0.7808 -0.2214
  358TMC3    C6 5415   2.749   2.280   1.192 -0.6513 -0.4020  0.1330
  358TMC3     C 5416   2.443   2.535   1.286 -1.1613 -0.2040  0.4243
  358TMC3     O 5417   2.438   2.526   1.409 -0.0418  0.5851 -0.0196
  358TMC3     H 5418   2.446   2.362   1.077 -1.3708  0.8086  1.9567
  358TMC3    H1 5419   2.691   2.540   1.390  0.4244 -1.1100  0.3376
  358TMC3    H2 5420   2.824   2.207   1.162  1.1158  1.0955  0.9252
  358TMC3    C7 5421   2.874   2.345   1.379  0.6080  0.0757 -0.7526
  358TMC3    C8 5422   2.616   2.196   1.008 -0.1936 -0.3450  0.3057
  358TMC3    O1 5423   2.963   2.287   1.327  0.1682  0.7528 -0.1848
  358TMC3    O2 5424   2.699   2.209   0.926 -0.1553  0.4319  0.8569
  359MPD2     C 5425   3.057   0.258  12.334 -0.5145 -0.0166 -0.7268
  359MPD2    C1 5426   2.989   0.364  12.278  0.0762 -0.1045  0.3320
  359MPD2    C2 5427   2.848   0.373  12.292  0.3453 -0.3020  0.3658
  359MPD2    C3 5428   2.778   0.278  12.362  0.4782  0.1802  0.2851
  359MPD2    C4 5429   2.842   0.162  12.399 -0.1171  0.6001 -0.5760
  359MPD2    C5 5430   2.978   0.151  12.381  0.4916 -0.4839  0.5607
  359MPD2     H 5431   2.792   0.450  12.239  0.1217  0.8911  2.3561
  359MPD2    H1 5432   2.788   0.075  12.434  1.0790  0.8404  1.8455
  359MPD2    H2 5433   3.161   0.232  12.318 -0.3790  1.0279 -1.5234
  359MPD2    H3 5434   3.020   0.051  12.385 -0.9335 -1.1366 -1.1166
  359MPD2     N 5435   2.636   0.281  12.379 -0.0905  0.1451  0.0827
  359MPD2    H5 5436   2.595   0.198  12.422  0.8554  0.1241  0.9349
  359MPD2    N1 5437   3.049   0.472  12.221  0.1363 -0.4987  0.7560
  359MPD2    H7 5438   2.991   0.554  12.206  1.8923  0.7412  0.7805
  360TMC3    C1 5439   3.219   0.619  12.160  0.0027 -0.0885  0.0893
  360TMC3    C2 5440   3.319   0.689  12.220  0.3753  0.3013 -0.2323
  360TMC3    C3 5441   3.341   0.818  12.182  0.6155 -0.7696 -0.4652
  360TMC3    C4 5442   3.143   0.675  12.062  0.0175  0.4413 -0.0543
  360TMC3    C5 5443   3.177   0.796  12.020 -0.3878  0.2949  0.3576
  360TMC3    C6 5444   3.275   0.873  12.076  0.1640  0.1567 -0.6304
  360TMC3     C 5445   3.182   0.497  12.222 -0.3217  0.0297 -0.6492
  360TMC3     O 5446   3.275   0.424  12.262 -0.2749  0.0015  0.0876
  360TMC3     H 5447   3.374   0.642  12.301 -2.9079  0.1870  1.9169
  360TMC3    H1 5448   3.065   0.618  12.012 -2.9510  2.9681  1.6962
  360TMC3    H2 5449   3.311   0.965  12.033  1.3751 -0.7555 -1.5702
  360TMC3    C7 5450   3.152   0.834  11.878 -0.1473 -0.0010 -0.0270
  360TMC3    C8 5451   3.477   0.860  12.216 -0.2104  0.8954  0.0240
  360TMC3    O1 5452   3.143   0.954  11.851 -0.4178  0.8290 -0.2263
  360TMC3    O2 5453   3.516   0.835  12.329 -0.5966  0.3245  0.2516
  361MPD2     C 5454   0.140   0.794  17.431 -0.3401  0.1014  0.3965
  361MPD2    C1 5455   0.099   0.738  17.311 -0.3301  0.1729 -0.1933
  361MPD2    C2 5456   0.194   0.682  17.230 -0.3672  0.0111 -0.7907
  361MPD2    C3 5457   0.328   0.671  17.275 -0.3846  0.2619  0.4677
  361MPD2    C4 5458   0.363   0.746  17.385  0.5763  0.2327  0.1355
  361MPD2    C5 5459   0.272   0.799  17.467 -0.1726 -0.4340  0.3305
  361MPD2     H 5460   0.156   0.629  17.144  0.7457 -1.4016 -0.4187
  361MPD2    H1 5461   0.467   0.744  17.417  0.7830 -1.2672 -0.6491
  361MPD2    H2 5462   0.072   0.846  17.498 -1.5365 -0.5726 -0.2996
  361MPD2    H3 5463   0.300   0.847  17.561  2.2986  2.1187 -1.7084
  361MPD2     N 5464   0.423   0.583  17.226 -0.4274  0.2830 -1.7543
  361MPD2    H5 5465   0.508   0.570  17.281 -2.4412 -0.3210  1.2593
  361MPD2    N1 5466   4.697   0.750  17.277 -0.4091  0.4101  0.9090
  361MPD2    H7 5467   4.673   0.730  17.181  2.4151  0.1277  0.2819
  362TMC3    C1 5468   4.460   0.734  17.313 -0.3767 -0.2938  0.2946
  362TMC3    C2 5469   4.357   0.792  17.377  0.2883 -0.3872 -0.2075
  362TMC3    C3 5470   4.228   0.769  17.336 -0.2147 -0.2452  0.0432
  362TMC3    C4 5471   4.434   0.661  17.202  0.5397  0.1014 -0.1628
  362TMC3    C5 5472   4.303   0.632  17.165 -0.0112  0.4185  0.1447
  362TMC3    C6 5473   4.197   0.693  17.235 -0.0820  0.9026 -0.3398
  362TMC3     C 5474   4.596   0.763  17.365 -1.1517  0.1194  0.2666
  362TMC3     O 5475   4.601   0.793  17.484 -0.5770  0.3750  0.3180
  362TMC3     H 5476   4.383   0.863  17.454 -0.0903 -0.8198  0.3142
  362TMC3    H1 5477   4.519   0.614  17.155  0.3723  0.5359 -0.8896
  362TMC3    H2 5478   4.093   0.670  17.217  0.4008 -1.9754  0.4528
  362TMC3    C7 5479   4.260   0.548  17.055  0.2493 -1.2372 -0.1455
  362TMC3    C8 5480   4.134   0.859  17.404  0.0798 -0.4182 -0.1217
  362TMC3    O1 5481   4.147   0.572  17.014 -0.2861  0.4706 -0.8450
  362TMC3    O2 5482   4.170   0.928  17.497  0.3620 -0.0662  0.1374
  363TMC3    C1 5483   3.214   2.899   9.012 -0.3435 -0.2594 -0.0533
  363TMC3    C2 5484   3.274   2.874   9.135 -0.3585  0.5254  0.5217
  363TMC3    C3 5485   3.230   2.954   9.241 -0.0749 -0.4170  0.0445
  363TMC3    C4 5486   3.120   2.996   8.989  0.1569 -0.4410 -0.3644
  363TMC3    C5 5487   3.078   3.075   9.095 -0.4207  1.2433 -0.0810
  363TMC3    C6 5488   3.136   3.056   9.223 -0.3778  0.4663 -0.1576
  363TMC3     C 5489   3.234   2.789   8.911 -0.5338  0.4121  0.3139
  363TMC3     O 5490   3.278   2.680   8.944 -0.4728 -0.3139 -0.7700
  363TMC3     H 5491   3.348   2.795   9.142 -0.5845  0.2108 -0.5549
  363TMC3    H1 5492   3.072   3.015   8.894 -1.1281  0.6866  0.5115
  363TMC3    H2 5493   3.121   3.121   9.308 -0.2956  4.4008 -3.1553
  363TMC3    C7 5494   2.980   3.183   9.086  0.3479 -0.1883  0.1396
  363TMC3    C8 5495   3.265   2.921   9.375 -0.2033 -0.4212 -0.3199
  363TMC3    O1 5496   2.936   3.219   9.194  0.6065  0.1264 -0.1550
  363TMC3    O2 5497   3.247   3.014   9.453 -0.1719  0.6344 -0.1128
  364MPD2     C 5498   1.869   2.046  10.648 -0.5891 -0.6794 -0.1927
  364MPD2    C1 5499   1.980   2.048  10.565 -0.6703  0.7369  0.0451
  364MPD2    C2 5500   2.049   1.927  10.553  0.3074 -0.3952 -0.5280
  364MPD2    C3 5501   2.019   1.816  10.637 -0.0642  0.2211 -0.9079
  364MPD2    C4 5502   1.914   1.831  10.726 -0.6186 -0.1625 -0.2730
  364MPD2    C5 5503   1.838   1.941  10.732 -0.1079  0.4364  0.5426
  364MPD2     H 5504   2.132   1.921  10.484  0.3330  1.4279 -0.6489
  364MPD2    H1 5505   1.887   1.741  10.781 -0.5342  0.9490  1.6018
  364MPD2    H2 5506   1.818   2.137  10.675  0.8504  0.1950 -0.3855
  364MPD2    H3 5507   1.752   1.947  10.797  1.8007 -0.6274  3.1817
  364MPD2     N 5508   2.085   1.688  10.643 -0.3033  0.2696  0.5272
  364MPD2    H5 5509   2.052   1.619  10.711  2.5444 -2.7058 -1.1199
  364MPD2    N1 5510   2.019   2.162  10.496  0.0966  0.4180 -0.6693
  364MPD2    H7 5511   1.980   2.251  10.525 -1.0644 -0.2912 -0.0830
  365TMC3    C1 5512   2.154   2.304  10.376 -0.3103  0.3601  0.7090
  365TMC3    C2 5513   2.202   2.343  10.258 -0.1810  0.5763  0.8835
  365TMC3    C3 5514   2.243   2.470  10.250 -0.6218  0.2536  0.1522
  365TMC3    C4 5515   2.145   2.394  10.483 -0.6670 -0.0752 -0.4202
  365TMC3    C5 5516   2.181   2.524  10.467  0.4360 -0.3914  0.3422
  365TMC3    C6 5517   2.228   2.565  10.348  0.0268 -0.3035 -0.8300
  365TMC3     C 5518   2.119   2.165  10.398 -0.4106 -0.1824  0.1108
  365TMC3     O 5519   2.167   2.083  10.319 -0.3953  0.1736  0.6214
  365TMC3     H 5520   2.179   2.273  10.178  0.1192  1.2720  0.1869
  365TMC3    H1 5521   2.128   2.361  10.585 -0.1643  0.4422 -0.1664
  365TMC3    H2 5522   2.252   2.670  10.334  0.7639 -0.4864 -0.9559
  365TMC3    C7 5523   2.182   2.624  10.576 -0.0255  0.3153 -0.1286
  365TMC3    C8 5524   2.275   2.527  10.127 -0.3477  0.0734  0.2906
  365TMC3    O1 5525   2.272   2.706  10.564 -0.0631  0.7585  0.3525
  365TMC3    O2 5526   2.233   2.638  10.108  0.2324 -0.6854 -0.4770
  366MPD2     C 5527   4.680   3.547  15.117 -0.5900  0.5919 -0.0863
  366MPD2    C1 5528   0.056   3.591  15.184  0.1206  0.4838 -0.0492
  366MPD2    C2 5529   0.132   3.501  15.261  0.5017 -0.1460  0.3320
  366MPD2    C3 5530   0.099   3.368  15.263 -0.9245  0.3750 -0.2203
  366MPD2    C4 5531   4.727   3.328  15.193  0.0377  0.0609 -0.4681
  366MPD2    C5 5532   4.651   3.418  15.116  0.0489 -0.2975  0.5565
  366MPD2     H 5533   0.223   3.528  15.312  0.3468 -0.9424  1.0238
  366MPD2    H1 5534   4.700   3.223  15.188 -0.0138  0.0001  1.2373
  366MPD2    H2 5535   4.610   3.601  15.054 -2.9633 -1.6253  0.6567
  366MPD2    H3 5536   4.567   3.396  15.053  1.3576 -0.3077 -1.1768
  366MPD2     N 5537   0.194   3.279  15.319 -0.3356  0.3024  0.0220
  366MPD2    H5 5538   0.280   3.315  15.361 -0.2565 -1.6001  1.4689
  366MPD2    N1 5539   0.090   3.728  15.186  0.1610 -0.5507  0.8952
  366MPD2    H7 5540   0.186   3.743  15.217  0.2885 -2.5544  1.4833
  367TMC3    C1 5541   0.082   3.967  15.162 -0.4308 -0.0437 -0.0153
  367TMC3    C2 5542   0.200   3.974  15.217 -0.0253 -0.6445 -0.0971
  367TMC3    C3 5543   0.232   4.074  15.308  1.1262 -0.2103  0.2575
  367TMC3    C4 5544   4.727   4.063  15.195 -0.0200 -0.6409 -0.1271
  367TMC3    C5 5545   0.021   4.165  15.282 -0.0219  0.5464 -0.1808
  367TMC3    C6 5546   0.141   4.170  15.348 -0.0535 -0.0258  0.2528
  367TMC3     C 5547   0.018   3.835  15.138 -0.1454  0.1893  0.0352
  367TMC3     O 5548   4.638   3.840  15.104  0.1971  0.3428 -0.1328
  367TMC3     H 5549   0.270   3.898  15.186  0.0127 -1.4302  1.9731
  367TMC3    H1 5550   4.633   4.070  15.141 -0.7615  0.3145  1.2887
  367TMC3    H2 5551   0.162   4.248  15.421  1.2652  0.4254 -0.6164
  367TMC3    C7 5552   4.666   4.278  15.310 -0.4273 -0.0608  0.4980
  367TMC3    C8 5553   0.352   4.050  15.387  0.0284 -0.1517 -0.8437
  367TMC3    O1 5554   4.670   4.332  15.419 -0.3844  0.2829  0.6567
  367TMC3    O2 5555   0.401   3.944  15.377 -0.2357  0.0280 -0.6196
  368MPD2     C 5556   1.637   4.559  13.576  0.3013  0.5982  0.1557
  368MPD2    C1 5557   1.687   4.671  13.514  0.1203  0.2730 -1.3194
  368MPD2    C2 5558   1.812   4.665  13.460 -0.1640  0.3421 -0.8502
  368MPD2    C3 5559   1.885   4.551  13.471  0.1130 -0.5022 -0.4150
  368MPD2    C4 5560   1.825   4.436  13.527 -0.4947  0.5233 -0.6383
  368MPD2    C5 5561   1.698   4.440  13.578 -0.0742  0.2815 -0.4601
  368MPD2     H 5562   1.857   0.002  13.396  0.1667  1.7005  0.9786
  368MPD2    H1 5563   1.887   4.353  13.558  0.3846  1.1831 -0.6182
  368MPD2    H2 5564   1.540   4.570  13.623  1.0353  1.9238  1.3706
  368MPD2    H3 5565   1.649   4.365  13.639  1.0580 -1.1578 -1.3298
  368MPD2     N 5566   2.020   4.556  13.423  0.2089  0.1906  0.6186
  368MPD2    H5 5567   2.072   4.469  13.429  0.3264  0.1977 -0.2932
  368MPD2    N1 5568   1.601   0.045  13.508  0.2811  0.2214 -0.1238
  368MPD2    H7 5569   1.523   0.053  13.572  0.2889 -0.6135 -0.0118
  369TMC3    C1 5570   1.523   0.250  13.435  1.0983  0.1203  0.1362
  369TMC3    C2 5571   1.584   0.348  13.364 -0.2238  0.0976  0.2120
  369TMC3    C3 5572   1.495   0.420  13.293  0.5081 -0.3066 -0.5137
  369TMC3    C4 5573   1.386   0.212  13.433 -0.3629  0.1095 -0.3650
  369TMC3    C5 5574   1.307   0.278  13.346  0.2915  0.0251 -0.5017
  369TMC3    C6 5575   1.356   0.383  13.277 -0.1739 -0.3542 -0.4741
  369TMC3     C 5576   1.619   0.149  13.425  0.2044 -0.4658  0.4333
  369TMC3     O 5577   1.697   0.159  13.332  0.1070 -0.0513 -0.7174
  369TMC3     H 5578   1.687   0.377  13.381  0.5843 -1.1295 -2.6146
  369TMC3    H1 5579   1.351   0.134  13.500 -0.5011  0.1636 -0.3741
  369TMC3    H2 5580   1.304   0.442  13.203 -1.0979 -0.3842  0.1577
  369TMC3    C7 5581   1.165   0.285  13.392  0.1245  0.0407 -0.2640
  369TMC3    C8 5582   1.539   0.477  13.174  0.2921 -0.4716 -0.5137
  369TMC3    O1 5583   1.127   0.190  13.458 -0.0931 -0.1961  0.1668
  369TMC3    O2 5584   1.467   0.556  13.111  0.1924 -0.4118 -0.5596
  370TMC3    C1 5585   1.114   1.132  15.915 -1.1275 -0.0611 -0.1116
  370TMC3    C2 5586   1.085   1.103  16.043  0.3844  0.1278  0.5426
  370TMC3    C3 5587   1.143   0.998  16.101  0.3971  0.2774  0.0694
  370TMC3    C4 5588   1.209   1.053  15.844 -0.0401  0.5657  0.2192
  370TMC3    C5 5589   1.259   0.945  15.910 -0.2170 -1.5402 -0.0005
  370TMC3    C6 5590   1.227   0.912  16.042  0.1172  0.1846 -0.2956
  370TMC3     C 5591   1.025   1.214  15.846  0.8351  0.2310 -0.9487
  370TMC3     O 5592   0.911   1.207  15.889  0.4971 -0.4365  0.3669
  370TMC3     H 5593   1.022   1.173  16.097 -1.4037 -0.2278 -1.0725
  370TMC3    H1 5594   1.225   1.078  15.740 -0.5155  0.3889  0.1022
  370TMC3    H2 5595   1.271   0.825  16.089  0.6243 -0.9535 -2.8379
  370TMC3    C7 5596   1.333   0.847  15.826  0.3718 -0.4246 -0.2629
  370TMC3    C8 5597   1.102   0.957  16.238 -0.0638  0.1216  0.7750
  370TMC3    O1 5598   1.312   0.863  15.706  0.0648 -0.0434  0.4896
  370TMC3    O2 5599   1.104   0.838  16.266  1.1348 -0.4677 -0.4545
  371TMC3    C1 5600   2.496   4.122  15.481 -0.4455  1.2344  0.1963
  371TMC3    C2 5601   2.456   4.138  15.610  0.0535 -0.0905  0.3122
  371TMC3    C3 5602   2.439   4.265  15.662 -0.4246  0.0949  0.2140
  371TMC3    C4 5603   2.560   4.227  15.413  0.5282 -0.4683 -0.0719
  371TMC3    C5 5604   2.563   4.348  15.479 -0.1009 -0.3902 -0.0827
  371TMC3    C6 5605   2.500   4.370  15.599  0.1835  0.6240  0.4759
  371TMC3     C 5606   2.514   3.994  15.422  0.0352  0.7260  0.0998
  371TMC3     O 5607   2.575   3.987  15.318 -0.8375  0.1962 -0.1844
  371TMC3     H 5608   2.419   4.057  15.672  0.4285 -0.8052 -0.3950
  371TMC3    H1 5609   2.602   4.217  15.313  0.5113 -1.5631  0.0356
  371TMC3    H2 5610   2.491   4.471  15.637 -4.0057  0.2070  0.5767
  371TMC3    C7 5611   2.611   4.478  15.418 -0.3736  0.8815 -0.3626
  371TMC3    C8 5612   2.422   4.282  15.799 -0.4129 -0.1343  1.3201
  371TMC3    O1 5613   2.610   4.579  15.488  0.6560  0.0996  0.2600
  371TMC3    O2 5614   2.407   4.175  15.862 -0.3118 -0.3357 -0.5581
  372MPD2     C 5615   1.757   0.219  13.777  0.3279 -0.5077  0.3328
  372MPD2    C1 5616   1.875   0.152  13.747  0.0536 -0.2334  0.3241
  372MPD2    C2 5617   1.918   0.054  13.833  0.1140  0.4753 -0.0459
  372MPD2    C3 5618   1.825   4.737  13.924 -0.2010 -0.0068 -0.5540
  372MPD2    C4 5619   1.707   0.065  13.943  0.1626 -0.5088 -0.2841
  372MPD2    C5 5620   1.669   0.168  13.871  0.0511 -0.6936  0.0488
  372MPD2     H 5621   2.014   0.009  13.810 -0.2393  0.0998 -0.7933
  372MPD2    H1 5622   1.633   0.036  14.016 -1.4520  0.1407 -1.6501
  372MPD2    H2 5623   1.722   0.309  13.727 -0.8004 -1.7686 -1.1552
  372MPD2    H3 5624   1.572   0.208  13.901 -0.9998 -0.7470 -3.3361
  372MPD2     N 5625   1.868   4.633  14.012  0.2432 -0.1172  0.5168
  372MPD2    H5 5626   1.967   4.611  14.011  0.4338  0.7484  0.4148
  372MPD2    N1 5627   1.959   0.199  13.648 -0.1493  0.1240  0.2113
  372MPD2    H7 5628   2.042   0.147  13.622 -1.8489 -2.3061 -0.3314
  373TMC3    C1 5629   1.869   4.489  14.191 -0.3681 -0.7286 -0.2678
  373TMC3    C2 5630   1.962   4.572  14.246 -0.3297  0.3286  0.1110
  373TMC3    C3 5631   2.070   4.500  14.299 -0.1494 -0.2956  0.0140
  373TMC3    C4 5632   1.869   4.355  14.206 -0.8512 -0.2536 -0.3188
  373TMC3    C5 5633   1.972   4.287  14.280  0.0236 -0.2955  0.3124
  373TMC3    C6 5634   2.075   4.367  14.325  0.0003 -0.0307 -0.1339
  373TMC3     C 5635   1.792   4.550  14.088  0.9574  0.0777 -1.0546
  373TMC3     O 5636   1.670   4.551  14.105 -0.0837 -0.2965  0.3116
  373TMC3     H 5637   1.970   4.678  14.224 -0.8743  0.6348  1.3866
  373TMC3    H1 5638   1.791   4.297  14.159 -2.2420  0.3541  1.2489
  373TMC3    H2 5639   2.154   4.316  14.379  0.1194  1.8794  1.4881
  373TMC3    C7 5640   2.020   4.159  14.240  0.2246 -0.2563  0.2050
  373TMC3    C8 5641   2.158   4.573  14.383 -0.0089  0.1400  0.0499
  373TMC3    O1 5642   2.136   4.126  14.258  0.0005  0.2180  0.2764
  373TMC3    O2 5643   2.278   4.549  14.391  0.0938 -0.5523 -0.0769
  374TMC3    C1 5644   2.592   0.664   9.704 -0.3346  0.4340 -0.4484
  374TMC3    C2 5645   2.672   0.773   9.739 -0.2515 -0.0429 -0.0049
  374TMC3    C3 5646   2.638   0.896   9.681 -0.0131  0.1967 -0.5454
  374TMC3    C4 5647   2.492   0.673   9.615  0.8763 -0.1066 -0.1236
  374TMC3    C5 5648   2.486   0.783   9.538 -1.0175 -0.0670  0.3799
  374TMC3    C6 5649   2.552   0.893   9.572 -0.5581  0.2024 -0.0387
  374TMC3     C 5650   2.646   0.539   9.763 -0.5230 -0.3095 -0.3063
  374TMC3     O 5651   2.742   0.547   9.843  0.1058  0.3773  0.1489
  374TMC3     H 5652   2.757   0.762   9.805 -0.3187 -1.6006 -0.1957
  374TMC3    H1 5653   2.440   0.583   9.583 -2.6840  2.2187 -0.9286
  374TMC3    H2 5654   2.533   0.985   9.518 -1.3506  0.2570  0.3399
  374TMC3    C7 5655   2.357   0.780   9.451 -0.0499 -0.2615 -0.0446
  374TMC3    C8 5656   2.726   1.009   9.698  0.1463 -0.3583  0.0887
  374TMC3    O1 5657   2.271   0.708   9.487  0.1038 -0.2056  0.3044
  374TMC3    O2 5658   2.711   1.102   9.613  0.0639 -0.1268  0.5468
  375MPD2     C 5659   2.512   1.985  16.638  0.0107  0.3767  0.2532
  375MPD2    C1 5660   2.435   1.946  16.530 -0.5222  0.4966 -0.1824
  375MPD2    C2 5661   2.495   1.876  16.428 -0.2058  0.2972  0.2640
  375MPD2    C3 5662   2.628   1.838  16.440  0.4077  0.6396  0.3773
  375MPD2    C4 5663   2.705   1.882  16.544 -0.0723 -0.2829  0.4482
  375MPD2    C5 5664   2.644   1.962  16.637 -0.0761  0.6826  0.5571
  375MPD2     H 5665   2.432   1.840  16.346  0.1313 -0.0116  0.1399
  375MPD2    H1 5666   2.812   1.870  16.553  0.3028  1.2277 -1.9296
  375MPD2    H2 5667   2.482   2.032  16.731 -2.6093  1.1466 -0.9890
  375MPD2    H3 5668   2.701   2.002  16.721  0.1596 -2.2204  1.7797
  375MPD2     N 5669   2.697   1.744  16.361 -0.0789 -0.2129  0.2222
  375MPD2    H5 5670   2.786   1.716  16.401 -0.5053 -0.9332  0.6835
  375MPD2    N1 5671   2.297   1.950  16.529  0.3017  0.6751 -0.8546
  375MPD2    H7 5672   2.251   1.902  16.452  0.1999 -1.1729  0.3680
  376TMC3    C1 5673   2.714   1.554  16.219 -0.0412 -0.3380  0.6429
  376TMC3    C2 5674   2.814   1.503  16.288 -0.3975  0.2213 -0.2164
  376TMC3    C3 5675   2.872   1.385  16.252 -0.0451 -0.0494  0.7535
  376TMC3    C4 5676   2.658   1.479  16.118 -0.2187 -0.0086 -0.4309
  376TMC3    C5 5677   2.708   1.349  16.092 -0.1552 -0.1943 -0.4901
  376TMC3    C6 5678   2.818   1.307  16.162  0.1432  0.1932  0.0015
  376TMC3     C 5679   2.648   1.682  16.249 -0.0133 -1.0960  0.3316
  376TMC3     O 5680   2.560   1.723  16.177  0.4533  0.7794 -0.6872
  376TMC3     H 5681   2.870   1.572  16.351  0.8283 -0.3026 -0.7361
  376TMC3    H1 5682   2.572   1.515  16.063  0.1924 -0.8730 -1.6372
  376TMC3    H2 5683   2.855   1.207  16.146 -0.2648  0.1803 -0.8706
  376TMC3    C7 5684   2.700   1.315  15.953 -0.6046 -0.7708  0.6861
  376TMC3    C8 5685   3.014   1.370  16.274  0.2572  0.4538 -0.5127
  376TMC3    O1 5686   2.636   1.394  15.880  0.6066  0.5739 -0.0883
  376TMC3    O2 5687   3.082   1.337  16.178 -0.0017 -0.0597 -0.2254
  377MPD2     C 5688   0.542   1.462  12.814  0.5488  0.3146 -0.1233
  377MPD2    C1 5689   0.614   1.353  12.851 -0.2939 -0.1098 -0.0729
  377MPD2    C2 5690   0.536   1.240  12.884  0.3724  0.6101  0.3611
  377MPD2    C3 5691   0.397   1.237  12.870 -0.3571 -0.1328  0.9866
  377MPD2    C4 5692   0.326   1.354  12.838  0.3888  0.2097 -0.3196
  377MPD2    C5 5693   0.402   1.461  12.803  0.5499 -0.4887  0.4907
  377MPD2     H 5694   0.592   1.148  12.900  1.5841  1.2247 -0.3123
  377MPD2    H1 5695   0.219   1.353  12.823 -0.1366  1.6775  3.2832
  377MPD2    H2 5696   0.591   1.552  12.779  1.4074 -0.8998 -2.0390
  377MPD2    H3 5697   0.352   1.545  12.756  2.1165 -0.3924 -1.0125
  377MPD2     N 5698   0.316   1.116  12.875  0.0841  0.3669  0.2292
  377MPD2    H5 5699   0.217   1.130  12.864  0.1744  2.2397  1.7826
  377MPD2    N1 5700   0.757   1.356  12.839 -0.3792 -0.7587  0.0614
  377MPD2    H7 5701   0.792   1.436  12.789 -2.1979  1.2407  1.9564
  378TMC3    C1 5702   1.051   1.327  12.587 -0.8262  0.7170 -0.4258
  378TMC3    C2 5703   0.972   1.351  12.701 -0.2654 -0.4829 -0.2157
  378TMC3    C3 5704   0.965   1.255  12.795  0.4684 -0.5818 -1.5192
  378TMC3    C4 5705   1.113   1.205  12.571  0.3954  0.4345  0.2526
  378TMC3    C5 5706   1.109   1.117  12.677  0.2401 -0.2173 -0.5317
  378TMC3    C6 5707   1.039   1.139  12.790  0.7862 -0.0871 -1.0467
  378TMC3     C 5708   1.018   1.400  12.469  0.2854  1.0236  0.0522
  378TMC3     O 5709   0.924   1.475  12.480 -0.3229  0.8861  0.0002
  378TMC3     H 5710   0.940   1.454  12.713 -1.9787 -1.0895  0.3109
  378TMC3    H1 5711   1.185   1.192  12.491  0.5949  1.8648  0.1966
  378TMC3    H2 5712   1.036   1.058  12.861 -0.8516  2.5097  1.7968
  378TMC3    C7 5713   1.218   1.004  12.680 -0.5965 -0.1033  0.2357
  378TMC3    C8 5714   0.844   1.252  12.872 -0.1456 -0.3516 -0.2248
  378TMC3    O1 5715   1.250   0.956  12.789  0.5170  0.7134 -0.9239
  378TMC3    O2 5716   0.814   1.159  12.944 -0.2648 -0.4133 -0.0447
  379MPD2     C 5717   1.305   3.291  15.871 -0.2343 -0.0064 -0.0447
  379MPD2    C1 5718   1.285   3.410  15.939  0.0707  0.0943  0.0591
  379MPD2    C2 5719   1.385   3.466  16.016  0.8081  0.0476  0.1968
  379MPD2    C3 5720   1.508   3.402  16.029 -0.1812 -0.0898 -0.2354
  379MPD2    C4 5721   1.535   3.292  15.944 -0.3147 -1.2378 -0.5711
  379MPD2    C5 5722   1.429   3.236  15.876  0.2715 -0.4287  0.6894
  379MPD2     H 5723   1.361   3.560  16.063  0.3123 -0.2791  0.6036
  379MPD2    H1 5724   1.635   3.252  15.932  0.7798  1.7556 -1.3751
  379MPD2    H2 5725   1.230   3.237  15.814  1.5321 -0.4892 -1.9350
  379MPD2    H3 5726   1.444   3.148  15.815  0.7195 -0.0755  0.2815
  379MPD2     N 5727   1.613   3.451  16.108 -0.1318 -0.2024 -0.0754
  379MPD2    H5 5728   1.707   3.415  16.092 -0.2658 -0.3005 -0.6567
  379MPD2    N1 5729   1.157   3.466  15.923 -0.1099  0.2404 -0.8029
  379MPD2    H7 5730   1.091   3.417  15.863  1.6598 -2.4368 -0.5747
  380TMC3    C1 5731   0.965   3.590  15.951  0.0940  0.5403 -0.0723
  380TMC3    C2 5732   0.909   3.490  15.884 -0.4391 -0.6484 -0.1827
  380TMC3    C3 5733   0.824   3.518  15.783  0.2648  0.1162 -0.4312
  380TMC3    C4 5734   0.944   3.717  15.930  0.0046  0.4799 -0.6429
  380TMC3    C5 5735   0.868   3.755  15.826  0.2841 -0.3159 -0.1282
  380TMC3    C6 5736   0.807   3.654  15.754  0.2596 -0.1347  0.1615
  380TMC3     C 5737   1.102   3.569  15.989 -0.9215  0.4609  0.6350
  380TMC3     O 5738   1.151   3.638  16.077  0.0579  0.4068 -0.5448
  380TMC3     H 5739   0.904   3.391  15.927  0.5028 -0.4953  0.2836
  380TMC3    H1 5740   1.006   3.790  15.981  2.5250 -0.8455 -1.8451
  380TMC3    H2 5741   0.741   3.676  15.670  1.3486  0.3922 -0.5476
  380TMC3    C7 5742   0.865   3.898  15.795 -0.3014 -0.3861  0.0109
  380TMC3    C8 5743   0.866   3.445  15.660  0.5253  0.0370 -0.0889
  380TMC3    O1 5744   0.927   3.986  15.857  0.2466 -0.3708 -0.1167
  380TMC3    O2 5745   0.977   3.394  15.660 -0.1300  0.0063  0.4159
  381TMC3    C1 5746   1.287   0.259  16.256 -0.2023 -0.2812  0.1469
  381TMC3    C2 5747   1.337   0.375  16.211  0.1541 -0.1609 -0.3261
  381TMC3    C3 5748   1.307   0.487  16.287 -0.6591 -0.7480  0.4869
  381TMC3    C4 5749   1.203   0.254  16.359  0.3048  0.1711 -0.4766
  381TMC3    C5 5750   1.164   0.369  16.431 -1.0963 -0.2110  0.9404
  381TMC3    C6 5751   1.231   0.484  16.397 -1.1119  0.0240 -0.1540
  381TMC3     C 5752   1.329   0.138  16.185  0.2028 -0.4412  0.1203
  381TMC3     O 5753   1.387   0.163  16.078  0.0862 -0.2660 -0.5025
  381TMC3     H 5754   1.405   0.373  16.127  1.5754  0.1705  0.8226
  381TMC3    H1 5755   1.148   0.166  16.390 -1.2928  1.5784  0.7059
  381TMC3    H2 5756   1.230   0.570  16.463  1.1977 -0.6037  0.6875
  381TMC3    C7 5757   1.121   0.352  16.568  0.2634 -0.0018 -0.0423
  381TMC3    C8 5758   1.422   0.577  16.276  0.1454  0.2780  0.6269
  381TMC3    O1 5759   1.118   0.239  16.610  0.3770  0.1746 -0.2636
  381TMC3    O2 5760   1.532   0.526  16.247  0.2650  0.1070  0.1153
  382MPD2     C 5761   0.452   2.460  16.563 -0.2554  0.2459  0.3353
  382MPD2    C1 5762   0.336   2.458  16.636  0.6078  0.2627 -0.6284
  382MPD2    C2 5763   0.299   2.340  16.697  0.2618  1.2433  0.4239
  382MPD2    C3 5764   0.371   2.225  16.681  0.6549 -0.3130  0.5112
  382MPD2    C4 5765   0.484   2.233  16.613  0.0350  0.5350  0.1468
  382MPD2    C5 5766   0.521   2.342  16.550  0.0641 -0.5421  0.0559
  382MPD2     H 5767   0.208   2.346  16.756 -2.8247 -1.8878 -3.9538
  382MPD2    H1 5768   0.535   2.138  16.599 -1.5002 -0.4649  1.2394
  382MPD2    H2 5769   0.493   2.547  16.514 -0.2924  0.1781  0.1859
  382MPD2    H3 5770   0.621   2.346  16.506 -0.2480  0.8516 -0.5209
  382MPD2     N 5771   0.341   2.100  16.742 -0.1485  0.0155  0.2033
  382MPD2    H5 5772   0.410   2.026  16.751 -1.7602 -1.4179  0.8240
  382MPD2    N1 5773   0.243   2.567  16.647  0.5795 -0.1475 -0.8043
  382MPD2    H7 5774   0.167   2.562  16.714 -0.5775  2.0268 -1.9723
  383TMC3    C1 5775   0.201   1.934  16.851 -1.2620 -0.1455 -0.5510
  383TMC3    C2 5776   0.078   1.873  16.842  0.0187  0.0924 -0.6230
  383TMC3    C3 5777   0.062   1.761  16.909  0.2929 -0.1969 -0.0727
  383TMC3    C4 5778   0.302   1.885  16.931 -0.1418  0.4558  0.4397
  383TMC3    C5 5779   0.273   1.779  17.013 -0.1709  0.2589 -0.4209
  383TMC3    C6 5780   0.155   1.715  17.003 -0.4619 -1.0622 -0.0711
  383TMC3     C 5781   0.216   2.061  16.778 -0.2889  0.2317 -1.2962
  383TMC3     O 5782   0.111   2.128  16.766 -0.3805  0.0103  0.2431
  383TMC3     H 5783   0.007   1.905  16.767  1.9371  2.9662 -1.2247
  383TMC3    H1 5784   0.390   1.946  16.945 -0.3644  0.5073  1.5354
  383TMC3    H2 5785   0.131   1.643  17.080 -1.5224  0.1882  0.7459
  383TMC3    C7 5786   0.367   1.739  17.117  0.3590 -1.1652  0.2212
  383TMC3    C8 5787   4.672   1.706  16.908 -0.3087  0.1326  0.2920
  383TMC3    O1 5788   0.330   1.646  17.187 -0.2422 -0.3189  0.1207
  383TMC3    O2 5789   4.574   1.780  16.916 -0.3934 -0.0169  0.1213
  384MPD2     C 5790   1.861   3.616  12.039 -0.2567 -0.6588  0.0370
  384MPD2    C1 5791   1.859   3.577  12.172  0.2745  0.0786  1.0436
  384MPD2    C2 5792   1.956   3.479  12.203 -0.4871 -0.3564 -0.8922
  384MPD2    C3 5793   2.044   3.422  12.112  0.4475 -0.3528  0.0721
  384MPD2    C4 5794   2.040   3.469  11.986 -0.2720 -0.6883  0.2689
  384MPD2    C5 5795   1.952   3.570  11.953 -0.8816  0.3923 -0.0768
  384MPD2     H 5796   1.964   3.440  12.304  0.5232 -0.5212 -1.0410
  384MPD2    H1 5797   2.103   3.432  11.906  0.6433  0.1755  0.6029
  384MPD2    H2 5798   1.794   3.695  12.010 -0.6459 -0.8373  0.4600
  384MPD2    H3 5799   1.940   3.606  11.851 -1.8714  1.5376  0.4472
  384MPD2     N 5800   2.109   3.312  12.161 -0.5436 -0.2214 -0.2883
  384MPD2    H5 5801   2.098   3.301  12.261  0.3043 -0.4464 -0.2202
  384MPD2    N1 5802   1.768   3.620  12.267 -0.0480  0.1213 -0.5928
  384MPD2    H7 5803   1.767   3.568  12.354 -2.1726  0.5447 -0.3544
  385TMC3    C1 5804   2.218   3.112  12.181  0.3873  0.0648  0.2458
  385TMC3    C2 5805   2.167   2.986  12.154  0.1569 -0.9811 -0.0982
  385TMC3    C3 5806   2.126   2.908  12.253 -0.7545 -0.4375 -0.1972
  385TMC3    C4 5807   2.232   3.149  12.306 -0.9776 -0.0326  0.2538
  385TMC3    C5 5808   2.193   3.073  12.409  0.0791  0.2399  0.3046
  385TMC3    C6 5809   2.143   2.945  12.385 -0.7519 -0.0590  0.2080
  385TMC3     C 5810   2.183   3.217  12.092  0.3288 -0.7829  0.3982
  385TMC3     O 5811   2.205   3.201  11.972 -0.0760 -0.2784 -0.1822
  385TMC3     H 5812   2.148   2.968  12.049  2.7335 -2.0934 -0.3640
  385TMC3    H1 5813   2.268   3.249  12.326  0.3146 -0.5865  0.6547
  385TMC3    H2 5814   2.141   2.869  12.462 -0.2959 -1.2148 -0.9440
  385TMC3    C7 5815   2.095   3.153  12.480 -0.8157 -0.3247  0.0162
  385TMC3    C8 5816   2.026   2.808  12.232  0.1570 -0.4523 -0.8109
  385TMC3    O1 5817   2.073   3.267  12.436  0.7135 -0.0101  0.6289
  385TMC3    O2 5818   1.978   2.757  12.334  0.0177  0.0078 -0.1385
  386TMC3    C1 5819   2.359   0.663  11.784 -0.5683  0.0207  0.2922
  386TMC3    C2 5820   2.342   0.680  11.651 -0.2681  0.1593 -0.0705
  386TMC3    C3 5821   2.225   0.742  11.620  0.2381 -0.1968 -0.8403
  386TMC3    C4 5822   2.265   0.695  11.876 -0.1715 -0.3191 -0.1170
  386TMC3    C5 5823   2.147   0.746  11.838  0.5567 -0.0211 -0.3223
  386TMC3    C6 5824   2.122   0.768  11.704 -0.7052  0.8265  0.2250
  386TMC3     C 5825   2.495   0.621  11.823 -0.1004  0.3768 -0.6473
  386TMC3     O 5826   2.589   0.678  11.766  0.0333 -0.1701 -0.3590
  386TMC3     H 5827   2.422   0.659  11.581 -0.0600 -2.4857  0.9554
  386TMC3    H1 5828   2.289   0.678  11.980 -0.7122  2.7889  0.5171
  386TMC3    H2 5829   2.025   0.785  11.659 -1.1537 -1.2228  0.4199
  386TMC3    C7 5830   2.064   0.814  11.939 -0.3355  0.4259  0.1644
  386TMC3    C8 5831   2.215   0.789  11.489 -0.5054  0.0886 -0.7747
  386TMC3    O1 5832   2.095   0.785  12.054 -0.6507  0.1596  0.4434
  386TMC3    O2 5833   2.099   0.802  11.453 -0.1600 -0.1925 -0.1561
  387MPD2     C 5834   4.547   1.297  10.561  0.1007 -0.1538  0.3724
  387MPD2    C1 5835   4.585   1.266  10.433  0.2206 -0.3981 -0.1239
  387MPD2    C2 5836   4.546   1.141  10.389  0.6387  0.1193 -0.4459
  387MPD2    C3 5837   4.461   1.056  10.455 -0.0638  0.0743  0.0204
  387MPD2    C4 5838   4.428   1.084  10.583 -0.2347  0.0652  0.2954
  387MPD2    C5 5839   4.465   1.208  10.630 -0.2725  0.8318 -0.8539
  387MPD2     H 5840   4.575   1.104  10.291  1.9997  0.1902 -0.0711
  387MPD2    H1 5841   4.352   1.023  10.632 -0.1041 -0.1028  0.2899
  387MPD2    H2 5842   4.568   1.392  10.609 -1.7247  0.2215  0.4305
  387MPD2    H3 5843   4.423   1.247  10.722  1.2694  1.4384 -0.3996
  387MPD2     N 5844   4.440   0.935  10.381 -0.4866 -0.1285 -0.0347
  387MPD2    H5 5845   4.476   0.926  10.286  0.7583  4.1161  0.0635
  387MPD2    N1 5846   4.666   1.349  10.351  0.0617 -0.3758  0.3168
  387MPD2    H7 5847   4.683   1.308  10.260 -3.2046 -0.7762 -0.0922
  388TMC3    C1 5848   0.110   1.485  10.308 -0.1806  0.0277 -0.0955
  388TMC3    C2 5849   0.147   1.609  10.271  0.5791  0.4295 -0.1644
  388TMC3    C3 5850   0.238   1.629  10.173 -0.1746 -0.6394 -0.1307
  388TMC3    C4 5851   0.175   1.377  10.249  0.1597 -0.6718 -0.5745
  388TMC3    C5 5852   0.271   1.393  10.156  0.8627  0.1384 -0.0000
  388TMC3    C6 5853   0.298   1.520  10.106  0.3105  0.3303  0.2611
  388TMC3     C 5854   4.732   1.463  10.394 -0.0450 -0.0762  0.7977
  388TMC3     O 5855   4.711   1.541  10.484  0.8203 -0.2806  0.8422
  388TMC3     H 5856   0.088   1.687  10.319 -0.6044 -1.3522  1.3152
  388TMC3    H1 5857   0.158   1.276  10.286  1.5107 -0.0828  1.6487
  388TMC3    H2 5858   0.375   1.531  10.031 -1.2701 -0.2615 -1.4212
  388TMC3    C7 5859   0.321   1.277  10.090 -0.3408 -0.4641  0.6760
  388TMC3    C8 5860   0.256   1.760  10.119  0.2882  0.1721  0.2730
  388TMC3    O1 5861   0.434   1.277  10.034 -0.0767  0.0486  0.1816
  388TMC3    O2 5862   0.327   1.765  10.023 -0.3940  0.7183 -0.5317
  389MPD2     C 5863   3.936   3.974  11.656  0.2689 -0.2588 -0.1952
  389MPD2    C1 5864   3.809   3.930  11.617  0.7427 -1.0086  0.1607
  389MPD2    C2 5865   3.734   3.854  11.703 -0.0885  0.4445  0.3815
  389MPD2    C3 5866   3.783   3.823  11.826 -0.1271  0.6343  0.2261
  389MPD2    C4 5867   3.902   3.879  11.864 -0.2145 -0.3190  0.2205
  389MPD2    C5 5868   3.985   3.949  11.782  0.3818  0.4110  0.0206
  389MPD2     H 5869   3.632   3.822  11.684  0.9564 -2.2669 -0.8016
  389MPD2    H1 5870   3.932   3.864  11.967  2.4088  2.3111 -0.1563
  389MPD2    H2 5871   3.988   4.036  11.584 -2.3121  0.2318 -1.6178
  389MPD2    H3 5872   4.079   3.990  11.819  0.2055  1.5506 -0.7987
  389MPD2     N 5873   3.704   3.750  11.921  0.7494  0.2248 -0.7460
  389MPD2    H5 5874   3.743   3.753  12.015 -1.2316 -0.2030  0.0777
  389MPD2    N1 5875   3.758   3.966  11.486 -0.2438 -0.3778  0.1718
  389MPD2    H7 5876   3.812   4.033  11.432 -0.5164 -1.1522 -1.0413
  390TMC3    C1 5877   3.572   3.562  11.993  0.4143  0.1654 -0.1432
  390TMC3    C2 5878   3.527   3.441  11.963 -0.3288 -0.2247  0.1916
  390TMC3    C3 5879   3.435   3.384  12.041 -0.1247 -0.4871 -0.1467
  390TMC3    C4 5880   3.546   3.625  12.114  0.7064 -0.0963 -0.4020
  390TMC3    C5 5881   3.456   3.561  12.196 -0.8735 -0.5750  0.4100
  390TMC3    C6 5882   3.404   3.442  12.159 -0.2925  0.4292 -0.0856
  390TMC3     C 5883   3.619   3.643  11.889  0.2494  0.9248 -0.0889
  390TMC3     O 5884   3.585   3.609  11.781 -0.3561 -0.5115 -0.0046
  390TMC3     H 5885   3.543   3.398  11.865  1.4191  1.2354 -0.1610
  390TMC3    H1 5886   3.593   3.721  12.133  3.8501 -1.5334 -0.8527
  390TMC3    H2 5887   3.343   3.392  12.234 -1.9847  1.3155 -0.8772
  390TMC3    C7 5888   3.427   3.623  12.323  0.3025 -0.2630 -0.6833
  390TMC3    C8 5889   3.360   3.263  11.992 -0.0430  0.3403 -0.1395
  390TMC3    O1 5890   3.472   3.735  12.340 -0.3597 -0.2906 -0.0683
  390TMC3    O2 5891   3.392   3.199  11.892  0.1130 -0.2503  0.2560
  391MPD2     C 5892   3.141   0.585  11.113 -0.6784  0.2416  0.1071
  391MPD2    C1 5893   3.227   0.689  11.112  1.3591  0.8580  0.6243
  391MPD2    C2 5894   3.214   0.792  11.015 -0.6982 -0.3641  0.7543
  391MPD2    C3 5895   3.110   0.791  10.929 -0.6651 -0.0471 -1.0594
  391MPD2    C4 5896   3.021   0.685  10.935  0.4616  0.3656 -0.2771
  391MPD2    C5 5897   3.039   0.579  11.029 -0.1064 -0.1063 -0.8405
  391MPD2     H 5898   3.287   0.872  11.013 -0.7226 -0.3196  1.9163
  391MPD2    H1 5899   2.935   0.669  10.870 -0.4048  1.9549  0.4880
  391MPD2    H2 5900   3.166   0.500  11.175  1.4776  0.1993 -0.8089
  391MPD2    H3 5901   2.962   0.503  11.036 -0.3913  0.2624  0.0895
  391MPD2     N 5902   3.096   0.891  10.833 -0.2854  0.1912  0.3920
  391MPD2    H5 5903   3.175   0.955  10.835 -1.0835  1.1549  1.5847
  391MPD2    N1 5904   3.334   0.700  11.204 -0.3510 -0.3680  0.0073
  391MPD2    H7 5905   3.391   0.783  11.193  2.6068 -2.2960  0.4854
  392TMC3    C1 5906   3.047   1.014  10.640 -0.0487 -0.3027 -0.4412
  392TMC3    C2 5907   2.985   1.018  10.515  0.1446  0.2214 -0.2191
  392TMC3    C3 5908   3.049   1.093  10.416 -1.0613 -0.2899 -0.2826
  392TMC3    C4 5909   3.168   1.077  10.665  0.3086 -1.0134  0.2189
  392TMC3    C5 5910   3.233   1.137  10.563  0.2482 -0.0292  0.0211
  392TMC3    C6 5911   3.177   1.140  10.439  0.0671 -0.3957  0.4796
  392TMC3     C 5912   3.001   0.909  10.730 -0.1942 -1.3614 -0.1140
  392TMC3     O 5913   2.893   0.857  10.707 -0.4332 -0.1053 -0.0117
  392TMC3     H 5914   2.900   0.956  10.487 -1.0288  1.7667 -0.0586
  392TMC3    H1 5915   3.210   1.076  10.765  2.1647 -1.6177 -0.5626
  392TMC3    H2 5916   3.236   1.163  10.351  0.0446 -1.5884  0.1621
  392TMC3    C7 5917   3.336   1.229  10.598  0.1893  0.7656  0.2560
  392TMC3    C8 5918   2.971   1.098  10.291 -0.0084 -0.3632  0.6692
  392TMC3    O1 5919   3.380   1.213  10.710 -0.4047 -0.0526 -0.0606
  392TMC3    O2 5920   2.855   1.064  10.300  0.3575 -0.1733 -0.1131
  393TMC3    C1 5921   1.870   3.446  10.680 -0.3180 -0.1491 -0.3729
  393TMC3    C2 5922   1.746   3.391  10.658  0.0109  0.0364 -0.7334
  393TMC3    C3 5923   1.710   3.291  10.739 -0.4685 -0.9189 -0.0722
  393TMC3    C4 5924   1.968   3.393  10.765  0.3462  0.5897  0.1278
  393TMC3    C5 5925   1.928   3.282  10.840 -0.9472 -0.2648 -0.0010
  393TMC3    C6 5926   1.802   3.234  10.825  0.5507  0.3090 -0.0710
  393TMC3     C 5927   1.905   3.552  10.585 -0.2268  0.3914 -0.6672
  393TMC3     O 5928   1.814   3.619  10.545 -0.1534  0.3120 -0.0514
  393TMC3     H 5929   1.686   3.436  10.580 -0.3977 -1.0126 -1.0333
  393TMC3    H1 5930   2.069   3.429  10.780  0.8134 -0.7989  0.3855
  393TMC3    H2 5931   1.784   3.139  10.874 -0.5967  0.0859 -0.9201
  393TMC3    C7 5932   2.014   3.241  10.953  0.0941 -0.1330  0.1619
  393TMC3    C8 5933   1.571   3.244  10.752 -0.3139  0.6739 -1.0972
  393TMC3    O1 5934   2.131   3.281  10.941  0.7916 -0.0691  0.5690
  393TMC3    O2 5935   1.563   3.143  10.822  0.3813 -0.1465 -0.7693
  394TMC3    C1 5936   3.632   4.006  11.300  0.1144 -0.0842  0.0202
  394TMC3    C2 5937   3.508   3.998  11.228 -0.3549 -0.3633 -0.3214
  394TMC3    C3 5938   3.502   4.041  11.099  0.2282 -0.0912 -0.0739
  394TMC3    C4 5939   3.752   4.048  11.236 -0.1222  0.1891  0.3857
  394TMC3    C5 5940   3.738   4.072  11.101  0.1788  0.0029 -0.0601
  394TMC3    C6 5941   3.616   4.071  11.029 -0.8717  0.0199 -0.0098
  394TMC3     C 5942   3.637   3.941  11.429  0.1233  0.8484 -0.3689
  394TMC3     O 5943   3.538   3.880  11.469 -0.1976 -0.0337  0.1840
  394TMC3     H 5944   3.419   3.958  11.276 -0.7787  1.2640  0.2444
  394TMC3    H1 5945   3.850   4.062  11.281  0.6305 -0.2036 -1.1092
  394TMC3    H2 5946   3.622   4.111  10.928  1.2163  0.7799  0.4039
  394TMC3    C7 5947   3.850   4.129  11.025  0.0281 -0.6448 -0.3811
  394TMC3    C8 5948   3.413   3.954  11.031 -0.0587 -0.0582 -0.1808
  394TMC3    O1 5949   3.827   4.205  10.932  0.2482 -0.0932 -0.7978
  394TMC3    O2 5950   3.315   3.910  11.087  0.0589 -0.0472 -0.1106
  395TMC3    C1 5951   3.609   1.031  14.589  0.3185 -0.0346 -0.2438
  395TMC3    C2 5952   3.476   1.033  14.632 -0.1802  0.0733  0.0801
  395TMC3    C3 5953   3.433   1.144  14.704 -0.7412 -0.7385 -0.3331
  395TMC3    C4 5954   3.691   1.130  14.614 -0.3847  0.1910  0.1128
  395TMC3    C5 5955   3.640   1.235  14.688  0.1463 -0.6899  0.0849
  395TMC3    C6 5956   3.510   1.251  14.730  0.4413  0.2738 -0.5105
  395TMC3     C 5957   3.663   0.904  14.561 -0.6242 -0.3985 -0.0986
  395TMC3     O 5958   3.778   0.886  14.591 -0.5600 -0.1713  0.5078
  395TMC3     H 5959   3.407   0.955  14.602  1.3156 -0.6550 -1.4382
  395TMC3    H1 5960   3.794   1.137  14.582 -0.5649  2.0097 -0.0935
  395TMC3    H2 5961   3.494   1.333  14.799 -0.4215 -0.4902  0.2013
  395TMC3    C7 5962   3.726   1.343  14.715  0.2297  0.3529 -0.3612
  395TMC3    C8 5963   3.335   1.129  14.810 -0.1129  0.4219  0.1743
  395TMC3    O1 5964   3.664   1.447  14.741 -0.0715 -0.3448  0.2144
  395TMC3    O2 5965   3.299   1.236  14.854  0.8112  0.5429  0.1523
  396MPD2     C 5966   3.037   2.115  16.792  0.1365 -0.1378 -0.6509
  396MPD2    C1 5967   3.130   2.187  16.867  0.4098 -0.8268  0.2591
  396MPD2    C2 5968   3.196   2.284  16.798 -0.0910  0.0804  0.0232
  396MPD2    C3 5969   3.171   2.325  16.661  0.0409 -0.0939  0.5310
  396MPD2    C4 5970   3.084   2.245  16.585 -0.0545  0.6501  0.0712
  396MPD2    C5 5971   3.027   2.144  16.658 -0.1665 -0.5628  0.4007
  396MPD2     H 5972   3.270   2.344  16.851  0.3227 -0.2441 -0.1839
  396MPD2    H1 5973   3.070   2.268  16.480 -1.4879 -0.0045  0.1274
  396MPD2    H2 5974   2.971   2.040  16.834 -1.5095  0.4758 -2.1186
  396MPD2    H3 5975   2.950   2.081  16.614 -1.9083  1.6014  0.4006
  396MPD2     N 5976   3.234   2.443  16.606 -0.2275 -0.3283  0.3764
  396MPD2    H5 5977   3.285   2.492  16.679 -3.5274  0.9169  1.8337
  396MPD2    N1 5978   3.143   2.157  17.008  0.5509  0.2154 -0.2260
  396MPD2    H7 5979   3.082   2.083  17.040  0.6812  0.6101  0.9172
  397TMC3    C1 5980   3.241   2.137  17.217  0.0519  0.3706 -0.0203
  397TMC3    C2 5981   3.346   2.052  17.214 -0.0820  0.3744 -0.1562
  397TMC3    C3 5982   3.330   1.919  17.218 -0.4847  0.6014 -0.1079
  397TMC3    C4 5983   3.118   2.088  17.240 -0.2247 -0.1512  0.3557
  397TMC3    C5 5984   3.103   1.954  17.268  0.2039  0.3076 -0.8284
  397TMC3    C6 5985   3.211   1.865  17.261 -0.1259 -0.0648 -0.2949
  397TMC3     C 5986   3.242   2.199  17.086  0.3231 -0.0339  0.0455
  397TMC3     O 5987   3.335   2.270  17.060 -0.2388 -0.8075 -0.3743
  397TMC3     H 5988   3.434   2.080  17.158 -0.5895  2.7466  0.2320
  397TMC3    H1 5989   3.033   2.155  17.239  1.8941  2.5420 -1.0688
  397TMC3    H2 5990   3.206   1.757  17.261 -2.0419  0.0333  2.6245
  397TMC3    C7 5991   2.963   1.916  17.303  0.1401 -0.1844 -0.2619
  397TMC3    C8 5992   3.385   1.846  17.104 -0.0462 -0.6280  0.1947
  397TMC3    O1 5993   2.871   1.976  17.254  0.0722  1.1541  0.3695
  397TMC3    O2 5994   3.309   1.778  17.037  0.3676 -0.3850 -0.4851
  398MPD2     C 5995   1.670   3.932  17.551  0.2192 -0.1641 -0.5224
  398MPD2    C1 5996   1.652   3.848  17.656  0.0646  0.1075 -0.2083
  398MPD2    C2 5997   1.659   3.896   0.034 -0.1525 -0.1173  0.1459
  398MPD2    C3 5998   1.670   4.033   0.056  0.1396 -0.1411  0.3862
  398MPD2    C4 5999   1.668   4.121  17.698 -0.1175  0.0021 -0.3242
  398MPD2    C5 6000   1.682   4.068  17.571  0.0440  0.3617  0.1545
  398MPD2     H 6001   1.652   3.824   0.115 -0.6808  0.3604  0.5214
  398MPD2    H1 6002   1.671   4.229  17.708 -0.3171 -0.4001  4.1200
  398MPD2    H2 6003   1.667   3.899  17.448 -1.6660 -1.1998 -0.1239
  398MPD2    H3 6004   1.704   4.141  17.494  2.3555 -2.5203 -1.9655
  398MPD2     N 6005   1.687   4.072   0.189 -0.0443 -0.1234 -0.3111
  398MPD2    H5 6006   1.696   3.994   0.253 -1.3231 -0.8849 -1.0483
  398MPD2    N1 6007   1.618   3.708  17.637  0.3480  0.2289  0.1514
  398MPD2    H7 6008   1.602   3.648  17.716 -0.4984  1.5777  0.9999
  399TMC3    C1 6009   1.566   3.501  17.524  0.5587  0.0560 -0.3659
  399TMC3    C2 6010   1.592   3.422  17.639  0.4376 -0.1843 -0.6307
  399TMC3    C3 6011   1.515   3.305  17.656 -0.0796 -0.6587  0.2917
  399TMC3    C4 6012   1.465   3.468  17.434  0.3140 -0.3254 -0.2015
  399TMC3    C5 6013   1.383   3.361  17.460 -0.3518  0.2157 -0.6430
  399TMC3    C6 6014   1.411   3.274  17.569 -0.3991  0.0040  0.3727
  399TMC3     C 6015   1.603   3.647  17.511 -0.2941  0.1045  0.0528
  399TMC3     O 6016   1.587   3.700  17.400 -0.4392 -0.3310  0.1806
  399TMC3     H 6017   1.684   3.439  17.694  0.1545  0.5977 -0.3982
  399TMC3    H1 6018   1.446   3.536  17.352 -0.4111  1.5375  1.5241
  399TMC3    H2 6019   1.348   3.187  17.588 -2.4613  1.0850 -1.5408
  399TMC3    C7 6020   1.305   3.311  17.348 -0.2750 -0.1075  0.6234
  399TMC3    C8 6021   1.555   3.202  17.744 -0.7051 -0.7158 -0.0502
  399TMC3    O1 6022   1.318   3.376  17.245  0.0324 -0.5251 -0.0005
  399TMC3    O2 6023   1.510   3.090  17.724 -0.6399 -0.5894 -0.5222
  400TMC3    C1 6024   4.594   1.168  16.660 -0.7811 -0.1254 -0.3665
  400TMC3    C2 6025   4.464   1.128  16.629 -0.1758  0.7501  0.5816
  400TMC3    C3 6026   4.383   1.230  16.582  0.4172  0.0941 -0.4807
  400TMC3    C4 6027   4.655   1.289  16.633 -0.7095 -0.1097  0.4564
  400TMC3    C5 6028   4.572   1.378  16.571  0.3103  0.3867 -0.2233
  400TMC3    C6 6029   4.440   1.353  16.544  0.4296 -0.4003  0.1803
  400TMC3     C 6030   4.647   1.085  16.765  0.4254 -0.3876  0.1238
  400TMC3     O 6031   4.582   0.998  16.822  1.2294  0.2140 -0.3876
  400TMC3     H 6032   4.434   1.024  16.644  0.8917  0.1725 -1.2525
  400TMC3    H1 6033   0.020   1.309  16.662 -1.0522  0.6581  1.1424
  400TMC3    H2 6034   4.379   1.424  16.489  0.8356 -1.0723 -1.1391
  400TMC3    C7 6035   4.630   1.494  16.519 -0.1062  0.0192 -0.0216
  400TMC3    C8 6036   4.248   1.204  16.550  0.8634 -0.5757  0.2215
  400TMC3    O1 6037   4.737   1.484  16.465 -0.2343 -0.4516 -0.5007
  400TMC3    O2 6038   4.188   1.303  16.502 -0.4071 -0.0150  0.2594
  401MPD2     C 6039   2.890   0.746   0.919  0.0448  0.4535 -0.1086
  401MPD2    C1 6040   3.007   0.678   0.934  0.0830 -0.2264 -0.6967
  401MPD2    C2 6041   3.006   0.541   0.940 -0.2607  0.2812  0.8128
  401MPD2    C3 6042   2.897   0.472   0.897 -0.0022  0.3309 -1.0198
  401MPD2    C4 6043   2.783   0.541   0.870 -0.6895 -0.2805 -0.2024
  401MPD2    C5 6044   2.778   0.677   0.889  0.3458 -0.2374  0.0333
  401MPD2     H 6045   3.097   0.486   0.962 -1.4147 -1.8276  0.2883
  401MPD2    H1 6046   2.691   0.490   0.843 -1.3670  0.7729  0.1268
  401MPD2    H2 6047   2.872   0.852   0.929 -0.8713  0.4488 -1.7959
  401MPD2    H3 6048   2.681   0.725   0.888  0.3993 -0.1231  0.3923
  401MPD2     N 6049   2.909   0.330   0.888 -0.2307  0.2888  0.5472
  401MPD2    H5 6050   3.000   0.295   0.916 -0.3456  0.1768  0.7810
  401MPD2    N1 6051   3.122   0.748   0.970 -0.0747 -0.2166 -0.3090
  401MPD2    H7 6052   3.208   0.697   0.989 -0.1828  0.0175  0.7865
  402TMC3    C1 6053   2.866   0.107   0.833 -0.1729  1.1201 -0.0479
  402TMC3    C2 6054   2.981   0.074   0.900  0.1033 -0.1137  0.0403
  402TMC3    C3 6055   3.021   4.682   0.883  0.5620  0.3722  0.0580
  402TMC3    C4 6056   2.793   0.016   0.764 -0.1808 -0.7349 -0.5369
  402TMC3    C5 6057   2.835   4.626   0.753  0.3133 -0.3399  0.0337
  402TMC3    C6 6058   2.960   4.589   0.801  0.4095 -0.1162 -0.4458
  402TMC3     C 6059   2.821   0.244   0.824  0.2480 -0.1323  0.5809
  402TMC3     O 6060   2.709   0.273   0.787  0.0998  0.5932  0.2018
  402TMC3     H 6061   3.021   0.135   0.980 -3.0750  0.9273  0.8255
  402TMC3    H1 6062   2.707   0.057   0.713  0.4805  0.8473 -0.3627
  402TMC3    H2 6063   3.006   4.492   0.788  1.3161  0.2651 -0.0785
  402TMC3    C7 6064   2.771   4.550   0.645  0.1603  0.0333 -0.6971
  402TMC3    C8 6065   3.146   4.639   0.944  0.2287  0.7360  0.2212
  402TMC3    O1 6066   2.694   4.617   0.580  0.8733 -0.7373  0.0871
  402TMC3    O2 6067   3.217   4.572   0.870 -0.3907 -0.2560 -0.2911
  403MPD2     C 6068   1.444   2.961  13.390 -0.3114  0.5158  0.4629
  403MPD2    C1 6069   1.374   3.026  13.488 -0.1289 -0.3500  0.2758
  403MPD2    C2 6070   1.427   3.044  13.612  0.1853 -0.5830 -0.7221
  403MPD2    C3 6071   1.554   2.988  13.637 -0.5699 -0.1650 -0.0840
  403MPD2    C4 6072   1.626   2.930  13.535  0.0677  0.2409  0.0762
  403MPD2    C5 6073   1.562   2.909  13.414 -0.5681  0.1793  0.4728
  403MPD2     H 6074   1.374   3.092  13.694 -2.5752  2.3018 -4.2002
  403MPD2    H1 6075   1.730   2.898  13.538 -0.4349 -1.5955 -2.6604
  403MPD2    H2 6076   1.396   2.948  13.294  0.8941  0.2055 -0.0892
  403MPD2    H3 6077   1.613   2.851  13.337 -0.7065  2.2868 -1.1907
  403MPD2     N 6078   1.599   2.996  13.763  0.0470  0.4582 -0.4095
  403MPD2    H5 6079   1.547   3.056  13.825 -1.0697 -0.9895  0.0532
  403MPD2    N1 6080   1.252   3.085  13.437  0.6800 -0.3617  0.4652
  403MPD2    H7 6081   1.233   3.073  13.338 -2.9818  2.4246  0.8627
  404TMC3    C1 6082   1.025   3.145  13.442  1.5206  0.3402 -0.1245
  404TMC3    C2 6083   0.940   3.052  13.496 -0.1835 -0.3462 -0.0708
  404TMC3    C3 6084   0.886   2.965  13.404 -0.3380 -0.0910  0.0878
  404TMC3    C4 6085   1.058   3.157  13.310 -0.1119  0.6738 -0.2075
  404TMC3    C5 6086   0.994   3.075  13.225 -0.6712  0.2412 -0.0058
  404TMC3    C6 6087   0.911   2.978  13.272 -0.1908  0.4874 -0.7516
  404TMC3     C 6088   1.146   3.140  13.517 -0.6752 -0.3645  0.8528
  404TMC3     O 6089   1.144   3.153  13.639 -0.2271 -0.6296 -0.1022
  404TMC3     H 6090   0.913   3.047  13.601  1.4693  0.3290  0.3997
  404TMC3    H1 6091   1.135   3.223  13.271  1.3387 -0.8986  0.0068
  404TMC3    H2 6092   0.880   2.902  13.202 -1.3343  2.7986 -2.7495
  404TMC3    C7 6093   1.080   3.053  13.106 -0.2933 -0.1038  0.4709
  404TMC3    C8 6094   0.907   2.831  13.452 -0.3831  0.7190 -0.2726
  404TMC3    O1 6095   1.198   3.066  13.127 -0.3510 -0.3554  0.7034
  404TMC3    O2 6096   0.948   2.749  13.367 -0.2721 -0.0675 -0.6782
  405MPD2     C 6097   1.497   3.824  14.778  0.3289  0.4382  0.0668
  405MPD2    C1 6098   1.467   3.713  14.699 -0.6725 -0.0953  0.1627
  405MPD2    C2 6099   1.381   3.726  14.594  0.9230 -0.1215 -0.0871
  405MPD2    C3 6100   1.343   3.850  14.546 -0.5176  0.5507 -0.1613
  405MPD2    C4 6101   1.381   3.962  14.615  0.6844  0.1115 -0.3850
  405MPD2    C5 6102   1.450   3.947  14.736  0.4838 -1.1266 -0.3120
  405MPD2     H 6103   1.361   3.639  14.532  1.0655  0.2197 -0.6071
  405MPD2    H1 6104   1.346   4.061  14.590  1.2306  0.5594  0.6348
  405MPD2    H2 6105   1.560   3.818  14.866 -2.6561 -0.6944  2.1406
  405MPD2    H3 6106   1.473   4.045  14.775 -4.8279  0.9983 -2.4931
  405MPD2     N 6107   1.263   3.851  14.429 -0.5036 -0.1252 -0.5851
  405MPD2    H5 6108   1.236   3.757  14.400  0.4522  0.5788 -3.7736
  405MPD2    N1 6109   1.516   3.579  14.734  0.2208  0.0702 -0.5990
  405MPD2    H7 6110   1.595   3.584  14.798 -0.8261  3.7993  0.3821
  406TMC3    C1 6111   0.912   3.964  14.135  0.3152 -0.5130 -0.0943
  406TMC3    C2 6112   0.890   3.832  14.119  0.2409 -0.2085 -0.7092
  406TMC3    C3 6113   0.984   3.741  14.168  1.0447 -0.0816  0.1583
  406TMC3    C4 6114   1.021   4.012  14.203 -0.0542  0.4357 -0.3234
  406TMC3    C5 6115   1.115   3.915  14.255 -0.1081  0.0953  0.0121
  406TMC3    C6 6116   1.099   3.782  14.229  0.1186  0.4989 -0.3928
  406TMC3     C 6117   0.787   4.033  14.145 -1.0366  0.2652  0.0784
  406TMC3     O 6118   0.751   4.125  14.074 -0.1737  0.1876 -0.5086
  406TMC3     H 6119   0.797   3.794  14.076 -0.4333  0.5596  0.0718
  406TMC3    H1 6120   1.022   4.115  14.237 -1.8320  0.2461  0.3227
  406TMC3    H2 6121   1.181   3.714  14.247  0.6574  0.7994 -1.7135
  406TMC3    C7 6122   1.203   3.958  14.372 -0.1336 -0.3387  0.2927
  406TMC3    C8 6123   0.997   3.601  14.117  1.0677  0.2443 -0.3748
  406TMC3    O1 6124   1.196   4.073  14.401  0.6641 -0.9103  0.0786
  406TMC3    O2 6125   0.966   3.562  14.007  0.6251  0.0175  0.1030
  407MPD2     C 6126   4.201   0.608  10.085 -0.3892  0.7065  0.4168
  407MPD2    C1 6127   4.266   0.721  10.034  0.7634 -0.5984 -0.5121
  407MPD2    C2 6128   4.220   0.846  10.070  0.1308  0.2661  0.0165
  407MPD2    C3 6129   4.117   0.872  10.158 -0.3907  0.4465  0.2342
  407MPD2    C4 6130   4.057   0.754  10.213  0.3664 -0.0376 -0.7094
  407MPD2    C5 6131   4.106   0.629  10.184 -0.3377 -0.1012 -0.1616
  407MPD2     H 6132   4.271   0.933  10.032  0.2409  0.6680  1.0622
  407MPD2    H1 6133   3.965   0.757  10.269 -0.0582  0.7945 -1.4582
  407MPD2    H2 6134   4.227   0.506  10.062 -2.8299 -0.0580  1.0950
  407MPD2    H3 6135   4.057   0.542  10.225 -0.1016  0.1970  0.7417
  407MPD2     N 6136   4.077   0.999  10.208  0.2658  0.2717 -0.0346
  407MPD2    H5 6137   4.016   0.992  10.289 -0.1084 -1.3448 -0.4433
  407MPD2    N1 6138   4.379   0.711   9.941  0.0429 -0.8797  0.6447
  407MPD2    H7 6139   4.425   0.798   9.918  1.2527 -1.4467  0.9313
  408TMC3    C1 6140   4.573   0.637   9.821 -0.5332  0.4085  0.8516
  408TMC3    C2 6141   4.672   0.546   9.817  0.7676 -0.3923 -0.3561
  408TMC3    C3 6142   0.063   0.586   9.801 -0.0755  0.3628  0.7267
  408TMC3    C4 6143   4.595   0.767   9.794 -1.1224 -0.3526 -0.0230
  408TMC3    C5 6144   4.724   0.807   9.766  0.4857 -0.3288 -0.1300
  408TMC3    C6 6145   0.092   0.714   9.763  0.0471 -0.5483 -0.0276
  408TMC3     C 6146   4.453   0.603   9.898 -0.4343  0.0975  0.6144
  408TMC3     O 6147   4.437   0.487   9.929  0.0205 -0.4696 -0.7257
  408TMC3     H 6148   4.659   0.449   9.863 -0.2311  0.3955  1.0206
  408TMC3    H1 6149   4.514   0.839   9.791  0.2333  1.1855  0.6662
  408TMC3    H2 6150   0.194   0.748   9.758  0.0529 -0.7935 -1.6114
  408TMC3    C7 6151   0.000   0.956   9.737  0.1862  0.9000  0.1832
  408TMC3    C8 6152   0.164   0.488   9.835  0.5152  0.0806 -0.0171
  408TMC3    O1 6153   4.644   1.022   9.774  0.2386  0.2393  0.8467
  408TMC3    O2 6154   0.131   0.370   9.848 -0.1092 -0.3088 -0.0149
  409MPD2     C 6155   3.305   1.107  16.594 -0.4505 -0.0817 -0.1621
  409MPD2    C1 6156   3.396   1.113  16.698  0.2347  0.3646  0.0316
  409MPD2    C2 6157   3.515   1.188  16.684 -0.0897  0.3771 -0.7160
  409MPD2    C3 6158   3.539   1.265  16.572 -0.6158  0.9890  0.6602
  409MPD2    C4 6159   3.450   1.239  16.462  0.0148  0.3891  0.2797
  409MPD2    C5 6160   3.342   1.161  16.478 -0.8992 -0.5239 -0.1124
  409MPD2     H 6161   3.589   1.185  16.764  2.3749  0.9671 -2.9568
  409MPD2    H1 6162   3.469   1.285  16.365 -0.0562 -2.5818 -1.1390
  409MPD2    H2 6163   3.207   1.062  16.589 -0.4891 -0.0124 -0.0217
  409MPD2    H3 6164   3.270   1.163  16.398  0.8843  1.5158 -1.6429
  409MPD2     N 6165   3.649   1.353  16.553 -0.5462 -1.1234  0.0226
  409MPD2    H5 6166   3.656   1.408  16.469  1.5984 -1.2381  0.1281
  409MPD2    N1 6167   3.369   1.053  16.823  0.0703  0.1579  0.1949
  409MPD2    H7 6168   3.448   1.059  16.886 -0.6727 -0.7452  1.2035
  410TMC3    C1 6169   3.844   1.482  16.599  0.1705  0.9630  0.1059
  410TMC3    C2 6170   3.960   1.492  16.677  0.5976  0.1877 -0.9285
  410TMC3    C3 6171   4.068   1.567  16.631  0.8614 -0.6997  0.6129
  410TMC3    C4 6172   3.839   1.537  16.472 -0.2750  0.3129 -0.2699
  410TMC3    C5 6173   3.940   1.620  16.435 -0.3090  0.9544  0.3978
  410TMC3    C6 6174   4.053   1.639  16.513 -1.0003  0.2179 -0.0170
  410TMC3     C 6175   3.742   1.386  16.650  0.2875 -0.1907  0.2986
  410TMC3     O 6176   3.739   1.362  16.769 -0.0303 -0.6024  0.2675
  410TMC3     H 6177   3.956   1.447  16.775  2.4119 -0.4805 -1.1619
  410TMC3    H1 6178   3.761   1.520  16.400  0.9118 -1.8594 -1.0507
  410TMC3    H2 6179   4.135   1.696  16.472  2.3252 -2.3400  3.0132
  410TMC3    C7 6180   3.974   1.608  16.293  0.5423 -0.4566  0.1716
  410TMC3    C8 6181   4.195   1.570  16.694 -0.2127  0.7313  0.1898
  410TMC3    O1 6182   3.947   1.501  16.239 -0.3154  0.4641  0.8343
  410TMC3    O2 6183   4.285   1.645  16.660 -0.1889  0.3326  0.1583
  411MPD2     C 6184   3.938   1.952  14.442  0.2495 -0.3452  0.2752
  411MPD2    C1 6185   3.809   1.988  14.413 -0.2744 -1.1176 -0.0670
  411MPD2    C2 6186   3.704   1.902  14.449 -0.4518  0.3362 -0.3387
  411MPD2    C3 6187   3.731   1.789  14.526 -0.5849 -0.2833  0.7375
  411MPD2    C4 6188   3.861   1.754  14.549 -1.0675 -0.4628  0.4631
  411MPD2    C5 6189   3.963   1.826  14.496  0.4205  0.0618 -0.2585
  411MPD2     H 6190   3.601   1.918  14.420 -0.8530  1.5671  1.8209
  411MPD2    H1 6191   3.898   1.656  14.579  2.1810  0.5191 -0.2528
  411MPD2    H2 6192   4.023   2.003  14.398 -1.2679  1.9730  0.0575
  411MPD2    H3 6193   4.068   1.797  14.500 -0.4843 -3.1292  0.4260
  411MPD2     N 6194   3.642   1.685  14.546  0.2288 -1.1577  0.0501
  411MPD2    H5 6195   3.683   1.596  14.571 -0.3223 -1.3280  0.3534
  411MPD2    N1 6196   3.783   2.100  14.332  0.5785 -0.3118  0.4094
  411MPD2    H7 6197   3.689   2.112  14.296  0.8010  0.6135  0.1402
  412TMC3    C1 6198   3.444   1.562  14.522  0.2026  0.4367  0.2187
  412TMC3    C2 6199   3.315   1.550  14.568 -0.8320 -0.0844  0.4650
  412TMC3    C3 6200   3.235   1.442  14.532  0.2069 -0.8224  0.0622
  412TMC3    C4 6201   3.492   1.475  14.434 -0.3639  0.1415  0.0322
  412TMC3    C5 6202   3.418   1.362  14.411  0.1562 -0.2404  0.6769
  412TMC3    C6 6203   3.293   1.339  14.464  0.4783 -0.0531 -0.0232
  412TMC3     C 6204   3.502   1.691  14.535  0.1436 -0.3557  0.6242
  412TMC3     O 6205   3.438   1.790  14.565 -0.0835 -0.2550 -0.1849
  412TMC3     H 6206   3.263   1.629  14.622  0.5958  2.3617 -1.7868
  412TMC3    H1 6207   3.588   1.495  14.388 -0.7905 -0.5100 -1.1446
  412TMC3    H2 6208   3.236   1.254  14.432  1.9488 -1.0561  0.0146
  412TMC3    C7 6209   3.409   1.324  14.270  0.3180 -0.4951  0.3521
  412TMC3    C8 6210   3.114   1.475  14.465  0.0643  0.3789 -0.3351
  412TMC3    O1 6211   3.310   1.273  14.233 -0.3888  0.5646 -0.6095
  412TMC3    O2 6212   3.103   1.591  14.431 -0.0534 -0.5380  0.3339
  413MPD2     C 6213   1.086   0.479  15.745  0.3577  0.4052 -0.1285
  413MPD2    C1 6214   0.999   0.429  15.647 -0.1318  1.3434 -0.2074
  413MPD2    C2 6215   1.026   0.303  15.592 -0.4189  0.0311  0.3146
  413MPD2    C3 6216   1.139   0.230  15.630  0.1217 -0.4086  0.1199
  413MPD2    C4 6217   1.226   0.276  15.726  0.8163  1.1121 -0.6801
  413MPD2    C5 6218   1.193   0.396  15.778  0.5478  0.4500  0.3839
  413MPD2     H 6219   0.978   0.256  15.507  1.3064 -0.1397 -0.5745
  413MPD2    H1 6220   1.322   0.233  15.753 -0.5522 -0.7234  1.2735
  413MPD2    H2 6221   1.082   0.577  15.793 -0.8220 -0.6202  1.9061
  413MPD2    H3 6222   1.258   0.440  15.853 -1.9029  2.9988  0.9967
  413MPD2     N 6223   1.175   0.120  15.545 -0.1888 -0.6544  0.0052
  413MPD2    H5 6224   1.126   0.108  15.457  2.0744 -0.5967 -1.2461
  413MPD2    N1 6225   0.896   0.508  15.613 -0.1391  0.0731  0.5985
  413MPD2    H7 6226   0.901   0.603  15.650  0.6638  0.0223  0.6078
  414TMC3    C1 6227   1.321   4.695  15.457 -0.7367 -0.5277  0.0832
  414TMC3    C2 6228   1.343   4.565  15.477 -0.5189 -0.3311  0.2650
  414TMC3    C3 6229   1.371   4.489  15.370  0.2974  0.0241  0.2189
  414TMC3    C4 6230   1.305   0.011  15.339  0.6073  0.2080  0.1325
  414TMC3    C5 6231   1.328   4.677  15.230 -0.0906 -0.7902 -0.4391
  414TMC3    C6 6232   1.355   4.538  15.243  0.0500 -0.3510 -0.8253
  414TMC3     C 6233   1.272   0.027  15.575 -0.1125  0.3243 -0.5117
  414TMC3     O 6234   1.320   4.729  15.679  0.5748  1.0326 -0.0026
  414TMC3     H 6235   1.341   4.522  15.577  0.1631  1.3508  1.0208
  414TMC3    H1 6236   1.275   0.114  15.323  0.3887 -0.0829 -1.3745
  414TMC3    H2 6237   1.364   4.476  15.154 -0.2286 -0.2330 -0.9352
  414TMC3    C7 6238   1.399   0.008  15.120  0.3098 -0.6507  0.2506
  414TMC3    C8 6239   1.360   4.345  15.391 -0.3404  0.0394  0.2354
  414TMC3    O1 6240   1.458   0.114  15.144  0.4313 -0.2043  0.3223
  414TMC3    O2 6241   1.291   4.283  15.310 -0.6413  0.3432 -0.2145
  415TMC3    C1 6242   1.314   2.907  10.544 -0.1002  0.8150  0.2044
  415TMC3    C2 6243   1.362   3.021  10.495 -0.2381  0.9664 -0.4814
  415TMC3    C3 6244   1.289   3.083  10.399 -0.2191  0.3956  0.0974
  415TMC3    C4 6245   1.195   2.857  10.502  0.3476 -0.1426 -0.1549
  415TMC3    C5 6246   1.119   2.924  10.409 -0.5011 -0.2384 -0.1844
  415TMC3    C6 6247   1.167   3.038  10.354 -0.8230 -0.2631  0.0963
  415TMC3     C 6248   1.371   2.838  10.654  0.0260 -0.3269  0.2851
  415TMC3     O 6249   1.305   2.760  10.720 -0.1753  0.2467  0.0237
  415TMC3     H 6250   1.444   3.074  10.542  0.2602  0.0551 -0.3322
  415TMC3    H1 6251   1.145   2.779  10.558  0.8421  0.2652  0.8596
  415TMC3    H2 6252   1.104   3.094  10.287 -0.6208  1.1453  1.0817
  415TMC3    C7 6253   0.976   2.889  10.403 -0.3017 -0.4053 -0.3548
  415TMC3    C8 6254   1.334   3.212  10.357  0.6149 -0.5703 -0.5223
  415TMC3    O1 6255   0.898   2.979  10.364 -0.3900  0.7721 -0.6922
  415TMC3    O2 6256   1.249   3.295  10.324  0.3811  0.0354 -0.7922
  416MPD2     C 6257   3.456   2.013  11.220 -0.1971  0.8143 -0.1994
  416MPD2    C1 6258   3.416   1.935  11.326 -0.2930 -1.2281  0.1432
  416MPD2    C2 6259   3.400   1.793  11.312  0.2205  1.2161  0.2722
  416MPD2    C3 6260   3.426   1.731  11.189  0.2518  0.1533  0.2802
  416MPD2    C4 6261   3.464   1.811  11.086 -0.5817 -0.2677 -0.4319
  416MPD2    C5 6262   3.481   1.944  11.102  0.6136 -0.1326  0.0729
  416MPD2     H 6263   3.363   1.738  11.397 -1.0850  0.0379 -1.0560
  416MPD2    H1 6264   3.477   1.765  10.989  0.4000 -1.4283  0.2585
  416MPD2    H2 6265   3.457   2.120  11.231 -0.5140  0.9352 -1.3744
  416MPD2    H3 6266   3.511   2.005  11.018  0.5711 -2.3308 -1.5431
  416MPD2     N 6267   3.391   1.596  11.161 -0.4156  0.1916  0.5798
  416MPD2    H5 6268   3.400   1.561  11.067 -1.0204 -1.6668  1.2156
  416MPD2    N1 6269   3.364   1.992  11.441  0.6721  0.4304  0.0999
  416MPD2    H7 6270   3.363   2.094  11.439 -2.6684  0.3744 -0.0690
  417TMC3    C1 6271   3.254   2.028  11.640  0.4828  0.2960  0.0090
  417TMC3    C2 6272   3.249   1.999  11.778 -0.1492 -0.5899  0.1549
  417TMC3    C3 6273   3.132   2.017  11.845 -0.1337  0.3477  0.3527
  417TMC3    C4 6274   3.145   2.073  11.571 -0.0376  0.2168  0.7763
  417TMC3    C5 6275   3.028   2.083  11.641 -0.1146  0.5913 -0.0471
  417TMC3    C6 6276   3.022   2.076  11.778  0.7106  0.1611  0.4246
  417TMC3     C 6277   3.339   1.942  11.564  0.2393 -0.0101  0.2626
  417TMC3     O 6278   3.359   1.831  11.612  0.4773 -0.2670 -0.0490
  417TMC3     H 6279   3.330   1.948  11.827  1.7481  1.4731 -0.8471
  417TMC3    H1 6280   3.143   2.080  11.463  1.5279 -3.9261  0.4779
  417TMC3    H2 6281   2.928   2.095  11.830 -0.3258 -1.3908 -0.8858
  417TMC3    C7 6282   2.914   2.123  11.575  0.1614  0.4810 -0.0969
  417TMC3    C8 6283   3.124   2.022  11.988 -0.0903  0.1279 -1.0073
  417TMC3    O1 6284   2.930   2.211  11.491  0.0810  0.3560  0.4838
  417TMC3    O2 6285   3.038   2.092  12.041  0.3742 -0.0239 -0.8694
  418TMC3    C1 6286   1.858   4.232   0.553 -0.0862  0.1726 -0.0174
  418TMC3    C2 6287   1.811   4.275   0.432 -0.3675  0.3857  0.2068
  418TMC3    C3 6288   1.715   4.196   0.376  0.7288  0.1344 -0.5404
  418TMC3    C4 6289   1.787   4.142   0.638 -0.3636 -0.1434 -0.0222
  418TMC3    C5 6290   1.684   4.074   0.578 -0.5665  0.2889 -0.0172
  418TMC3    C6 6291   1.647   4.099   0.447 -0.3102  0.6813  0.0793
  418TMC3     C 6292   1.996   4.254   0.579 -0.2545  0.2090 -0.1195
  418TMC3     O 6293   2.048   4.345   0.522  0.4393 -0.5249  0.0736
  418TMC3     H 6294   1.880   4.329   0.369 -0.5587  0.9205  0.4499
  418TMC3    H1 6295   1.829   4.113   0.734 -0.1717  2.3846  0.6453
  418TMC3    H2 6296   1.586   4.020   0.404  2.6002  0.1045 -3.0139
  418TMC3    C7 6297   1.645   3.949   0.640 -0.0231 -0.4773  0.1149
  418TMC3    C8 6298   1.699   4.197   0.237  0.9044 -0.1685 -0.2168
  418TMC3    O1 6299   1.631   3.849   0.573  0.2239 -0.2329  0.1161
  418TMC3    O2 6300   1.708   4.302   0.183 -0.6705 -0.1129  0.2375
  419MPD2     C 6301   0.502   1.875  12.742 -0.1384 -0.5117 -0.2752
  419MPD2    C1 6302   0.407   1.955  12.686 -0.2473 -0.9842  0.4912
  419MPD2    C2 6303   0.297   1.996  12.761 -0.0309 -0.1161  0.1515
  419MPD2    C3 6304   0.292   1.958  12.895 -0.1763  0.3954 -0.4087
  419MPD2    C4 6305   0.386   1.874  12.949  0.1587  0.0144  0.1306
  419MPD2    C5 6306   0.494   1.841  12.873 -0.2049  0.2705  0.1078
  419MPD2     H 6307   0.220   2.055  12.712  0.2806 -0.6488 -0.9721
  419MPD2    H1 6308   0.393   1.832  13.049  3.1381 -2.9325 -1.3321
  419MPD2    H2 6309   0.593   1.845  12.692  1.4359  2.5935  0.7599
  419MPD2    H3 6310   0.575   1.783  12.916 -1.0933 -0.5189  0.7438
  419MPD2     N 6311   0.182   1.998  12.970 -0.0361  0.1343 -0.0418
  419MPD2    H5 6312   0.106   2.046  12.923  1.6735  1.6004 -1.2975
  419MPD2    N1 6313   0.424   1.999  12.556 -0.3688  0.6363 -0.6813
  419MPD2    H7 6314   0.366   2.073  12.518 -0.2606  0.1657 -1.7633
  420TMC3    C1 6315   0.051   2.024  13.165 -0.0119  0.5739  0.6391
  420TMC3    C2 6316   4.704   2.096  13.084  0.4424  1.2616 -0.1359
  420TMC3    C3 6317   4.612   2.172  13.152 -0.3278  0.0627 -0.4739
  420TMC3    C4 6318   0.053   2.044  13.300  0.0990 -0.2554 -0.6121
  420TMC3    C5 6319   4.697   2.120  13.350  0.6212 -0.2601  0.3064
  420TMC3    C6 6320   4.595   2.183  13.281 -0.3293 -0.1588  0.1507
  420TMC3     C 6321   0.175   1.970  13.107 -0.5960 -0.0791  0.4007
  420TMC3     O 6322   0.253   1.927  13.188  0.0382 -0.1969  0.5610
  420TMC3     H 6323   4.685   2.062  12.982 -0.7299 -0.2123  0.5698
  420TMC3    H1 6324   0.117   1.983  13.363  1.0324  0.2698 -1.0397
  420TMC3    H2 6325   4.535   2.261  13.327  1.1441  3.0598 -3.3883
  420TMC3    C7 6326   4.701   2.122  13.491 -0.5387 -0.3284  0.3419
  420TMC3    C8 6327   4.493   2.200  13.064 -0.2069  0.4705 -0.7780
  420TMC3    O1 6328   0.061   2.082  13.556  0.2533 -0.2542 -0.1082
  420TMC3    O2 6329   4.512   2.230  12.949 -0.4104 -0.3591 -0.1521
  421TMC3    C1 6330   1.751   2.955  13.952 -0.7626  0.9126 -0.5084
  421TMC3    C2 6331   1.664   3.021  14.038 -0.2672 -0.1850  0.3245
  421TMC3    C3 6332   1.698   3.036  14.170  0.1128 -0.3023 -0.4667
  421TMC3    C4 6333   1.864   2.897  14.004  0.1802 -0.6163 -0.8860
  421TMC3    C5 6334   1.901   2.921  14.137  0.9870  0.3064 -0.1601
  421TMC3    C6 6335   1.821   2.990  14.214 -0.5454 -0.3398 -0.2876
  421TMC3     C 6336   1.720   2.940  13.812  0.1629 -0.7494 -0.1949
  421TMC3     O 6337   1.807   2.882  13.750 -0.5049  0.1228 -0.1575
  421TMC3     H 6338   1.566   3.048  14.001 -1.2304 -1.7622  1.7004
  421TMC3    H1 6339   1.941   2.869  13.933 -1.5093  0.6176 -3.2114
  421TMC3    H2 6340   1.873   3.026  14.302  1.9403 -1.7546 -1.1763
  421TMC3    C7 6341   2.043   2.915  14.154 -0.0546 -0.4970  0.2473
  421TMC3    C8 6342   1.650   3.150  14.247 -0.7274  0.4080  0.1604
  421TMC3    O1 6343   2.096   3.002  14.218 -0.1128  0.6398 -0.4679
  421TMC3    O2 6344   1.717   3.172  14.351 -0.6525  0.1176  0.8880
  422TMC3    C1 6345   3.974   4.678  12.748 -0.1368  0.7649 -0.7717
  422TMC3    C2 6346   3.973   0.053  12.672  0.0162  0.0990 -0.1888
  422TMC3    C3 6347   3.856   0.075  12.602  0.6745 -0.0429 -0.1480
  422TMC3    C4 6348   3.869   4.590  12.758 -0.0217  0.3797 -1.0257
  422TMC3    C5 6349   3.747   4.635  12.701  0.3518 -0.7101 -0.5215
  422TMC3    C6 6350   3.738   0.012  12.636  0.1060  0.2878 -0.2829
  422TMC3     C 6351   4.104   4.622  12.773  0.0146  0.5200 -0.3410
  422TMC3     O 6352   4.118   4.514  12.839  0.0753  0.0464 -0.0413
  422TMC3     H 6353   4.053   0.125  12.684 -0.8199  1.3060 -1.8654
  422TMC3    H1 6354   3.891   4.496  12.806  0.8403  1.5767  0.9595
  422TMC3    H2 6355   3.655   0.024  12.568  0.7577  0.8281 -0.9890
  422TMC3    C7 6356   3.630   4.558  12.723  0.1270 -0.0700 -0.7491
  422TMC3    C8 6357   3.842   0.221  12.576  0.0028 -0.2141 -0.1776
  422TMC3    O1 6358   3.534   4.587  12.648 -0.1248 -0.0223 -0.4279
  422TMC3    O2 6359   3.937   0.293  12.592 -0.1403  0.1039  0.2052
  423MPD2     C 6360   0.576   1.634   0.547  0.2679  0.3405 -0.1414
  423MPD2    C1 6361   0.668   1.537   0.570 -0.7148  0.3844  0.1028
  423MPD2    C2 6362   0.718   1.452   0.478 -0.5016 -0.4436  0.1565
  423MPD2    C3 6363   0.694   1.477   0.343  0.3083 -0.1770  0.7659
  423MPD2    C4 6364   0.617   1.584   0.313  0.4607 -1.0506 -0.6414
  423MPD2    C5 6365   0.563   1.661   0.417 -0.4499 -1.2723 -0.5596
  423MPD2     H 6366   0.779   1.367   0.506 -2.6620 -2.5895 -1.6369
  423MPD2    H1 6367   0.586   1.607   0.211  0.1345  1.7103  0.0934
  423MPD2    H2 6368   0.534   1.704   0.618  0.4659  0.0735  0.2384
  423MPD2    H3 6369   0.499   1.744   0.391  0.5980 -0.4603 -0.5691
  423MPD2     N 6370   0.749   1.401   0.239  0.1259  0.3663 -0.1571
  423MPD2    H5 6371   0.721   1.435   0.147 -0.1615  1.2974  0.2789
  423MPD2    N1 6372   0.691   1.498   0.705 -0.2537 -0.7815  0.0320
  423MPD2    H7 6373   0.746   1.414   0.719  0.2312 -0.2322  1.4417
  424TMC3    C1 6374   0.687   1.471   0.926  0.2906 -0.9728  0.5788
  424TMC3    C2 6375   0.820   1.448   0.936  0.0008 -0.5281 -0.0882
  424TMC3    C3 6376   0.858   1.384   1.048  0.5441 -0.0780 -0.0617
  424TMC3    C4 6377   0.595   1.459   1.034  0.7092  0.2743  0.0225
  424TMC3    C5 6378   0.642   1.394   1.147  0.2374  0.0094 -0.4295
  424TMC3    C6 6379   0.773   1.349   1.155 -0.1945 -0.1333 -0.3246
  424TMC3     C 6380   0.649   1.556   0.817  0.2778  1.0227 -0.7308
  424TMC3     O 6381   0.572   1.650   0.836 -0.1213  0.1852 -0.5344
  424TMC3     H 6382   0.891   1.454   0.854  0.7963  0.0709  0.6436
  424TMC3    H1 6383   0.505   1.518   1.021  0.2081 -0.6120 -0.5584
  424TMC3    H2 6384   0.801   1.289   1.240 -0.0467  0.3658 -0.0216
  424TMC3    C7 6385   0.549   1.368   1.254  0.0489 -0.7018 -0.0081
  424TMC3    C8 6386   0.982   1.313   1.048 -0.3716  0.3339 -0.0706
  424TMC3    O1 6387   0.603   1.322   1.352  0.7415 -0.3345  0.1874
  424TMC3    O2 6388   0.991   1.220   1.133  0.6843 -0.2290  0.1273
  425MPD2     C 6389   4.327   0.346  17.461 -0.4612  0.0701  0.1542
  425MPD2    C1 6390   4.244   0.309  17.353  0.1223  0.1348  1.1250
  425MPD2    C2 6391   4.119   0.366  17.348  0.1108 -0.3307 -0.2564
  425MPD2    C3 6392   4.073   0.448  17.443 -0.2319 -0.1779 -0.4047
  425MPD2    C4 6393   4.158   0.494  17.538 -0.1729 -0.1825  0.8308
  425MPD2    C5 6394   4.285   0.439  17.552  0.4516 -0.7490 -0.0955
  425MPD2     H 6395   4.043   0.331  17.280 -0.7068 -1.9563  1.5096
  425MPD2    H1 6396   4.125   0.557  17.619 -0.7593  1.1054 -0.4251
  425MPD2    H2 6397   4.422   0.295  17.475  0.0263  1.2308  1.0959
  425MPD2    H3 6398   4.335   0.466  17.644  0.7865 -1.4971 -0.0582
  425MPD2     N 6399   3.936   0.477  17.429  0.4514 -0.0800  0.1816
  425MPD2    H5 6400   3.886   0.437  17.350  0.7509  2.3593 -1.2592
  425MPD2    N1 6401   4.277   0.188  17.279  0.2097 -0.1237  0.0729
  425MPD2    H7 6402   4.367   0.145  17.297  0.8414  1.3470  0.4039
  426TMC3    C1 6403   4.241   4.732  17.138  0.1440 -0.4926 -0.2861
  426TMC3    C2 6404   4.184   4.674  17.029 -0.1539 -0.2359 -0.1817
  426TMC3    C3 6405   4.164   4.539  17.027  0.0103  0.4481 -0.0732
  426TMC3    C4 6406   4.264   4.651  17.249  0.6665 -0.7234  0.7791
  426TMC3    C5 6407   4.222   4.523  17.243 -0.3510  0.7183  0.4375
  426TMC3    C6 6408   4.169   4.459  17.133  0.1789  0.5036 -0.7327
  426TMC3     C 6409   4.200   0.129  17.175 -0.2065 -0.2514  0.4919
  426TMC3     O 6410   4.099   0.169  17.115  0.1174 -0.0777 -0.4677
  426TMC3     H 6411   4.189   4.736  16.940  1.6395  0.9287  0.7215
  426TMC3    H1 6412   4.291   4.702  17.341  0.1757  2.2072 -0.7056
  426TMC3    H2 6413   4.143   4.354  17.140  2.0560  0.0313 -0.7604
  426TMC3    C7 6414   4.249   4.443  17.365  0.3253 -0.8063 -0.2912
  426TMC3    C8 6415   4.172   4.472  16.899  0.4433 -0.2973  0.3638
  426TMC3    O1 6416   4.228   4.324  17.350  0.2312 -0.3987 -0.1692
  426TMC3    O2 6417   4.247   4.522  16.817 -0.1062 -0.6570  0.5263
  427MPD2     C 6418   2.903   1.649  14.788 -0.8656 -0.7259 -0.0897
  427MPD2    C1 6419   2.974   1.739  14.862 -0.5886 -0.4051 -0.3758
  427MPD2    C2 6420   2.905   1.851  14.904 -0.0207  0.1949 -0.4413
  427MPD2    C3 6421   2.763   1.862  14.901  0.2417 -0.2104 -0.0746
  427MPD2    C4 6422   2.706   1.764  14.825  0.1552 -0.1998  0.3920
  427MPD2    C5 6423   2.776   1.662  14.762  0.1170  0.1487  0.1130
  427MPD2     H 6424   2.968   1.925  14.951  2.0048 -2.0064  0.3129
  427MPD2    H1 6425   2.600   1.749  14.813  0.0337 -0.6600  2.0695
  427MPD2    H2 6426   2.954   1.573  14.730 -0.0468  0.2998 -0.7193
  427MPD2    H3 6427   2.731   1.593  14.692  1.7128 -0.9800  0.1995
  427MPD2     N 6428   2.682   1.973  14.943 -0.7371 -0.1906  0.1146
  427MPD2    H5 6429   2.585   1.960  14.916 -0.8087 -0.2147  0.3886
  427MPD2    N1 6430   3.115   1.721  14.887  0.4001  0.5416 -0.2542
  427MPD2    H7 6431   3.165   1.805  14.915  1.7397 -0.8337  1.4308
  428TMC3    C1 6432   3.313   1.605  14.921  0.0159 -0.3977  0.2527
  428TMC3    C2 6433   3.350   1.505  15.003 -0.0568 -0.0172 -0.7166
  428TMC3    C3 6434   3.477   1.498  15.044  0.3780  0.3951 -0.0597
  428TMC3    C4 6435   3.397   1.696  14.877 -0.0997 -0.1151 -0.3401
  428TMC3    C5 6436   3.525   1.691  14.932  0.0429  0.3923  0.2028
  428TMC3    C6 6437   3.575   1.589  15.008 -0.1376 -0.3387 -0.2618
  428TMC3     C 6438   3.176   1.599  14.876 -0.3861  0.6218 -0.1552
  428TMC3     O 6439   3.118   1.491  14.854 -0.3120  0.6795  0.3353
  428TMC3     H 6440   3.278   1.426  15.023 -2.1237  2.1409  0.4862
  428TMC3    H1 6441   3.361   1.762  14.799 -0.4281  1.4220  1.1219
  428TMC3    H2 6442   3.675   1.590  15.050 -0.4496 -1.0992  0.4944
  428TMC3    C7 6443   3.614   1.806  14.919 -0.3022  0.1645  0.7218
  428TMC3    C8 6444   3.500   1.395  15.142 -0.6263  0.1453 -0.5548
  428TMC3    O1 6445   3.721   1.800  14.979  0.7903 -0.5763  0.4837
  428TMC3    O2 6446   3.607   1.340  15.133 -0.3307  0.0818 -0.1685
  429MPD2     C 6447   3.831   2.200  17.163 -1.0572 -1.1398 -0.0836
  429MPD2    C1 6448   3.942   2.125  17.203  0.3753  0.9957 -0.0015
  429MPD2    C2 6449   4.063   2.185  17.158 -0.1408  0.4242  0.3713
  429MPD2    C3 6450   4.069   2.284  17.065 -0.3118  0.4250  0.0834
  429MPD2    C4 6451   3.960   2.358  17.024  0.0294 -0.1475  0.2727
  429MPD2    C5 6452   3.846   2.314  17.082 -0.4790  0.1665  0.5888
  429MPD2     H 6453   4.153   2.140  17.197  0.3787  1.8862  0.8501
  429MPD2    H1 6454   3.951   2.437  16.949 -0.6918 -0.4521  0.0420
  429MPD2    H2 6455   3.734   2.188  17.210 -1.8674 -0.2989 -1.5370
  429MPD2    H3 6456   3.749   2.353  17.052 -0.1791 -0.0470 -0.6604
  429MPD2     N 6457   4.201   2.317  17.019 -0.3992  0.1418 -0.2386
  429MPD2    H5 6458   4.277   2.271  17.068  1.9322  3.0214 -1.1106
  429MPD2    N1 6459   3.937   2.012  17.286  0.2252 -0.6696  0.0985
  429MPD2    H7 6460   4.026   1.967  17.306  1.0047 -0.0803 -2.1256
  430TMC3    C1 6461   4.371   2.404  16.903  0.1004  0.3126 -0.6825
  430TMC3    C2 6462   4.415   2.499  16.813 -0.3698  0.5712 -0.9346
  430TMC3    C3 6463   4.490   2.464  16.705  0.4315  0.0936 -0.5202
  430TMC3    C4 6464   4.428   2.268  16.890 -0.5560  0.9495  0.1915
  430TMC3    C5 6465   4.506   2.238  16.779  0.2365  0.7214 -0.0061
  430TMC3    C6 6466   4.535   2.334  16.686 -0.7187 -0.3995 -0.3037
  430TMC3     C 6467   4.230   2.403  16.919  0.1392  0.3406  0.1470
  430TMC3     O 6468   4.164   2.457  16.830 -0.0592  0.0689 -0.4133
  430TMC3     H 6469   4.368   2.596  16.801  0.3390  0.9710 -0.4918
  430TMC3    H1 6470   4.415   2.185  16.959 -1.2818  0.9437  0.0450
  430TMC3    H2 6471   4.578   2.306  16.590  0.9589  1.1200  0.0102
  430TMC3    C7 6472   4.499   2.101  16.725 -0.1245 -0.2999 -0.4438
  430TMC3    C8 6473   4.489   2.552  16.587 -0.1248  0.6606 -0.3532
  430TMC3    O1 6474   4.404   2.031  16.761  0.1079 -0.2648 -0.1854
  430TMC3    O2 6475   4.493   2.672  16.603  0.1645 -0.3526 -0.3065
  431MPD2     C 6476   0.230   2.806  12.277 -0.4519 -0.3682  0.0599
  431MPD2    C1 6477   0.355   2.782  12.233  0.3150  0.5846 -1.0299
  431MPD2    C2 6478   0.418   2.657  12.233 -0.2237  0.1278 -0.4291
  431MPD2    C3 6479   0.345   2.545  12.261  0.2209  0.4730 -0.0059
  431MPD2    C4 6480   0.212   2.566  12.300 -0.2861  0.5685 -0.6354
  431MPD2    C5 6481   0.160   2.693  12.294 -0.8871 -0.1625  0.2715
  431MPD2     H 6482   0.524   2.658  12.212 -0.5964 -1.8932 -2.4386
  431MPD2    H1 6483   0.147   2.483  12.323 -0.8907  1.4301  0.7690
  431MPD2    H2 6484   0.175   2.896  12.251 -0.2924  0.0033  1.0128
  431MPD2    H3 6485   0.052   2.687  12.300 -0.8127 -1.4871  0.1959
  431MPD2     N 6486   0.398   2.414  12.263 -0.4977  0.4217 -0.0541
  431MPD2    H5 6487   0.342   2.352  12.320 -0.0227 -0.2075 -0.2720
  431MPD2    N1 6488   0.444   2.891  12.228 -0.0458 -0.4343 -0.3450
  431MPD2    H7 6489   0.542   2.867  12.222  0.3688  0.8528  1.4437
  432TMC3    C1 6490   0.544   2.228  12.220  0.0548  0.4434 -0.0741
  432TMC3    C2 6491   0.635   2.175  12.132 -0.2003 -0.2008  0.0057
  432TMC3    C3 6492   0.675   2.044  12.155 -1.2225  0.0638  0.3115
  432TMC3    C4 6493   0.496   2.159  12.331 -0.5299  0.1303  0.1610
  432TMC3    C5 6494   0.558   2.036  12.356  0.0042 -0.0907  0.4812
  432TMC3    C6 6495   0.640   1.978  12.262  1.0150 -0.4934 -0.6808
  432TMC3     C 6496   0.511   2.370  12.203 -0.7888  0.6195 -0.3097
  432TMC3     O 6497   0.599   2.436  12.148 -0.0909 -0.0525 -0.6577
  432TMC3     H 6498   0.674   2.229  12.046 -2.1234  3.1531  1.2816
  432TMC3    H1 6499   0.417   2.208  12.386  1.9252  2.3016  1.7450
  432TMC3    H2 6500   0.698   1.889  12.282  1.1548 -0.0803  0.7906
  432TMC3    C7 6501   0.527   1.956  12.474  0.0585  0.3444  0.3265
  432TMC3    C8 6502   0.771   1.979  12.071 -0.1026 -0.0679  0.2411
  432TMC3    O1 6503   0.583   1.847  12.486 -0.0848 -0.2754 -0.1506
  432TMC3    O2 6504   0.746   1.871  12.013 -0.7471  0.2061  0.5767
  433MPD2     C 6505   3.746   1.006  10.810  0.1957  0.7674  0.0219
  433MPD2    C1 6506   3.798   0.899  10.874 -0.0725 -0.7562 -0.0267
  433MPD2    C2 6507   3.851   0.913  11.005 -0.1243 -0.0326 -0.2443
  433MPD2    C3 6508   3.852   1.035  11.074 -0.7802 -0.7827  0.3383
  433MPD2    C4 6509   3.812   1.144  11.001  0.7353  0.9552 -0.4249
  433MPD2    C5 6510   3.760   1.130  10.875 -0.7934 -0.1885  0.6696
  433MPD2     H 6511   3.902   0.829  11.052  1.8512  0.6693 -1.1262
  433MPD2    H1 6512   3.831   1.243  11.040 -0.3329  0.4237  1.4462
  433MPD2    H2 6513   3.691   0.998  10.717  1.0377  2.5846 -0.6194
  433MPD2    H3 6514   3.716   1.210  10.817  1.5144 -0.5087 -1.5096
  433MPD2     N 6515   3.904   1.040  11.206  0.2836  0.0651  0.0017
  433MPD2    H5 6516   3.948   0.953  11.235 -0.4156  1.1236  4.3159
  433MPD2    N1 6517   3.795   0.773  10.808 -0.4630  0.8049 -0.5501
  433MPD2    H7 6518   3.766   0.769  10.711 -2.8464  0.8815  0.1575
  434TMC3    C1 6519   3.852   0.541  10.772 -0.1438  1.2415  0.0027
  434TMC3    C2 6520   3.951   0.456  10.814  0.3550 -0.0535 -0.5491
  434TMC3    C3 6521   3.939   0.322  10.814  0.2308 -0.0025 -0.2923
  434TMC3    C4 6522   3.743   0.476  10.726 -0.5155 -0.0409  0.4763
  434TMC3    C5 6523   3.730   0.340  10.727  0.8289 -0.1498  0.0819
  434TMC3    C6 6524   3.831   0.255  10.770 -0.2677  0.5810  0.5055
  434TMC3     C 6525   3.823   0.649  10.864 -0.5954 -0.9459 -0.1138
  434TMC3     O 6526   3.825   0.625  10.987 -0.7344 -0.7739  0.4687
  434TMC3     H 6527   4.041   0.507  10.848  0.5872  0.5937 -2.1556
  434TMC3    H1 6528   3.652   0.532  10.706 -1.2362 -1.5666 -0.4644
  434TMC3    H2 6529   3.832   0.147  10.766 -0.5276  0.5949  0.0741
  434TMC3    C7 6530   3.600   0.278  10.692  0.6029  0.6267 -0.2094
  434TMC3    C8 6531   4.052   0.247  10.863  0.0652 -0.3809  0.2930
  434TMC3    O1 6532   3.526   0.342  10.617  0.3899  0.0619 -0.5290
  434TMC3    O2 6533   4.159   0.306  10.864 -0.4965  0.2141 -0.5583
  435MPD2     C 6534   1.517   0.803  15.263  0.3538 -0.0753 -0.1653
  435MPD2    C1 6535   1.485   0.853  15.387 -0.2090  0.0755  0.1090
  435MPD2    C2 6536   1.585   0.857  15.486 -0.5364  0.0734  0.3726
  435MPD2    C3 6537   1.720   0.836  15.457 -0.7484 -0.0649 -0.2963
  435MPD2    C4 6538   1.752   0.802  15.327  0.2314 -0.0806 -0.0775
  435MPD2    C5 6539   1.651   0.781  15.232  0.6987 -0.0173 -0.5009
  435MPD2     H 6540   1.553   0.880  15.587 -0.5286 -1.1285  0.6473
  435MPD2    H1 6541   1.853   0.775  15.297  1.2333  0.0813  3.2197
  435MPD2    H2 6542   1.438   0.790  15.190  1.4874  1.0643 -1.5932
  435MPD2    H3 6543   1.676   0.747  15.132 -0.6610  0.8559 -1.1345
  435MPD2     N 6544   1.822   0.837  15.562 -0.0477  0.2628 -0.3564
  435MPD2    H5 6545   1.913   0.804  15.531  0.1107  1.6600 -1.3548
  435MPD2    N1 6546   1.346   0.877  15.422 -0.2003  0.2504  0.3537
  435MPD2    H7 6547   1.322   0.879  15.521  1.6473  1.4131  0.7871
  436TMC3    C1 6548   0.986   0.978  15.588 -0.7829  0.1386  0.4438
  436TMC3    C2 6549   1.086   0.913  15.520  0.1063 -0.1715  0.0103
  436TMC3    C3 6550   1.114   0.945  15.387  0.1204  0.0912  0.2073
  436TMC3    C4 6551   0.912   1.070  15.524  0.5215 -0.1840  0.8739
  436TMC3    C5 6552   0.947   1.105  15.398 -0.5469 -0.0622 -0.0110
  436TMC3    C6 6553   1.049   1.050  15.330  0.8500  0.2528  0.5653
  436TMC3     C 6554   0.916   0.886  15.682 -0.3339  0.2419  0.0013
  436TMC3     O 6555   0.928   0.767  15.653 -0.6812 -0.7400 -0.0230
  436TMC3     H 6556   1.151   0.837  15.563  0.2572  1.9010  3.3933
  436TMC3    H1 6557   0.847   1.130  15.587  0.9128  0.2313  0.8852
  436TMC3    H2 6558   1.085   1.093  15.237  0.9426 -1.8860 -0.3796
  436TMC3    C7 6559   0.882   1.216  15.338 -0.3989  0.7220  0.2495
  436TMC3    C8 6560   1.242   0.901  15.326  0.4719 -0.1085  0.3968
  436TMC3    O1 6561   0.931   1.279  15.242  0.5949 -0.0157  0.2376
  436TMC3    O2 6562   1.249   0.919  15.203  0.0439 -0.3375  0.0262
  437TMC3    C1 6563   4.598   2.537  12.847  0.2503  0.0223  0.0995
  437TMC3    C2 6564   4.488   2.548  12.924  0.1496  0.0402 -0.4751
  437TMC3    C3 6565   4.385   2.616  12.871  0.6444 -0.0693  0.0083
  437TMC3    C4 6566   4.610   2.603  12.727  0.6492  0.3714  0.1235
  437TMC3    C5 6567   4.508   2.679  12.680 -0.1770 -0.0032  0.4026
  437TMC3    C6 6568   4.395   2.689  12.758  0.4944  0.2148  0.3153
  437TMC3     C 6569   4.727   2.484  12.892 -0.1592 -0.6824  0.8698
  437TMC3     O 6570   0.073   2.456  12.806 -0.0292 -0.5139  0.1343
  437TMC3     H 6571   4.477   2.501  13.021 -2.1658  1.8718  0.1656
  437TMC3    H1 6572   4.683   2.572  12.654  1.8923  1.7871  0.7844
  437TMC3    H2 6573   4.323   2.762  12.724 -0.6467 -0.9482  0.2276
  437TMC3    C7 6574   4.518   2.775  12.570  0.1555  0.6640 -0.5868
  437TMC3    C8 6575   4.273   2.638  12.955 -0.2382 -0.0618  0.7560
  437TMC3    O1 6576   4.417   2.829  12.528  0.1336 -1.0244 -0.1561
  437TMC3    O2 6577   4.264   2.559  13.048  0.5681 -0.3703 -0.2896
  438MPD2     C 6578   2.494   4.046  16.323 -0.3744 -0.3850 -0.0608
  438MPD2    C1 6579   2.503   3.932  16.395 -0.4449 -0.7954  0.6791
  438MPD2    C2 6580   2.470   3.931  16.530  0.2766 -0.7158  0.5350
  438MPD2    C3 6581   2.426   4.045  16.592 -0.4310 -0.5378  0.1248
  438MPD2    C4 6582   2.401   4.156  16.520  0.4508 -0.8196  0.3370
  438MPD2    C5 6583   2.445   4.156  16.389  0.4723 -0.2212  0.4756
  438MPD2     H 6584   2.471   3.843  16.593 -0.0815 -0.4237  0.9485
  438MPD2    H1 6585   2.376   4.247  16.574 -0.7326 -0.4780 -0.7605
  438MPD2    H2 6586   2.523   4.046  16.218 -0.7568  0.0153 -0.1705
  438MPD2    H3 6587   2.437   4.250  16.336 -1.0350  0.8439  2.5668
  438MPD2     N 6588   2.391   4.041  16.732  1.1102  0.8123  0.1424
  438MPD2    H5 6589   2.314   4.099  16.766  2.9556  3.9155 -0.9671
  438MPD2    N1 6590   2.534   3.805  16.348 -0.0304  0.4136  0.4950
  438MPD2    H7 6591   2.526   3.728  16.414  1.1515  1.1065  1.4630
  439TMC3    C1 6592   2.573   3.642  16.186  0.3612  0.3784  0.1973
  439TMC3    C2 6593   2.550   3.611  16.054 -0.1054  0.7786 -0.5640
  439TMC3    C3 6594   2.576   3.484  16.019 -0.1945 -0.0700 -0.0418
  439TMC3    C4 6595   2.634   3.552  16.271 -0.5475  0.2443 -0.1298
  439TMC3    C5 6596   2.651   3.422  16.230 -0.3386  0.5570  0.6790
  439TMC3    C6 6597   2.621   3.377  16.101 -0.3109 -0.3853 -0.6029
  439TMC3     C 6598   2.551   3.779  16.215 -0.6891 -0.2662 -0.2201
  439TMC3     O 6599   2.525   3.852  16.118  0.5414  0.4614  0.6807
  439TMC3     H 6600   2.493   3.682  15.995 -0.4702  0.2061 -0.9050
  439TMC3    H1 6601   2.641   3.588  16.373  2.3031 -1.8028  0.3937
  439TMC3    H2 6602   2.642   3.278  16.061  0.0071  0.0946 -1.6271
  439TMC3    C7 6603   2.751   3.352  16.311  0.7665 -0.1721  0.4331
  439TMC3    C8 6604   2.657   3.483  15.894  0.0407  0.3193 -0.3076
  439TMC3    O1 6605   2.798   3.413  16.399 -0.4021  0.3972  0.2373
  439TMC3    O2 6606   2.699   3.380  15.850  0.3108 -0.2814 -0.1094
  440MPD2     C 6607   0.894   4.124  14.739 -0.2993 -0.2993  0.2056
  440MPD2    C1 6608   0.947   4.150  14.870  0.5290 -0.0147  0.1952
  440MPD2    C2 6609   1.041   4.054  14.917  0.5449 -0.0227  0.2440
  440MPD2    C3 6610   1.074   3.941  14.842  0.2986 -0.3399 -0.5749
  440MPD2    C4 6611   1.023   3.927  14.715 -0.5275 -0.7772  0.4297
  440MPD2    C5 6612   0.929   4.016  14.672 -0.2709 -0.2003 -0.1808
  440MPD2     H 6613   1.081   4.069  15.016 -0.1031 -1.0101  0.6455
  440MPD2    H1 6614   1.064   3.852  14.648 -1.1663 -0.8742  0.1489
  440MPD2    H2 6615   0.826   4.193  14.690 -0.2070  1.6177  2.7872
  440MPD2    H3 6616   0.887   4.009  14.572 -2.2279  0.4006  0.6036
  440MPD2     N 6617   1.164   3.844  14.894 -0.7667  0.4761  0.2276
  440MPD2    H5 6618   1.185   3.763  14.835 -1.6765  0.5585 -0.2014
  440MPD2    N1 6619   0.924   4.262  14.951  0.2920 -0.2119 -0.2151
  440MPD2    H7 6620   0.965   4.267  15.043 -0.1332 -0.7339  0.0033
  441TMC3    C1 6621   1.314   3.733  15.042  0.2127  0.4730 -0.2413
  441TMC3    C2 6622   1.433   3.757  15.113  0.5723 -0.1275 -0.1697
  441TMC3    C3 6623   1.467   3.675  15.214 -0.4628 -0.5569  0.2620
  441TMC3    C4 6624   1.235   3.624  15.064 -0.7836 -0.2312 -0.5597
  441TMC3    C5 6625   1.283   3.539  15.159 -0.2464  0.1100  0.4669
  441TMC3    C6 6626   1.393   3.563  15.234 -0.0691  0.4008 -0.3672
  441TMC3     C 6627   1.232   3.855  15.012  0.2664 -0.6005 -0.2994
  441TMC3     O 6628   1.266   3.954  15.076 -0.7929 -0.0901 -0.2916
  441TMC3     H 6629   1.494   3.842  15.085 -1.3228  1.0356 -0.7016
  441TMC3    H1 6630   1.131   3.637  15.035 -0.3733  1.3030 -1.3282
  441TMC3    H2 6631   1.426   3.498  15.314  1.0425  1.7946  0.2990
  441TMC3    C7 6632   1.183   3.493  15.251  0.3638  0.1523 -0.7848
  441TMC3    C8 6633   1.512   3.736  15.339  0.7098 -0.1790 -0.0173
  441TMC3    O1 6634   1.202   3.523  15.370 -0.0078  0.0423  0.5862
  441TMC3    O2 6635   1.538   3.667  15.434 -0.0324  0.9001  0.6079
  442MPD2     C 6636   3.841   4.733  16.834  0.1444 -0.4769  0.0394
  442MPD2    C1 6637   3.724   4.669  16.814  0.1176 -0.3734  0.5188
  442MPD2    C2 6638   3.717   4.563  16.730  1.0944 -0.7259 -0.7682
  442MPD2    C3 6639   3.823   4.528  16.648  0.1708 -0.4031  0.3205
  442MPD2    C4 6640   3.938   4.601  16.656 -0.4300  0.1435  0.0957
  442MPD2    C5 6641   3.947   4.693  16.752  0.6140 -0.6945  0.3337
  442MPD2     H 6642   3.627   4.505  16.716  1.0260 -0.8204  0.1020
  442MPD2    H1 6643   4.024   4.604  16.590 -0.1733  0.8197  0.4704
  442MPD2    H2 6644   3.864   0.070  16.908 -0.4803 -0.4660  0.2178
  442MPD2    H3 6645   4.034   0.019  16.761 -0.6233  1.0114  0.0002
  442MPD2     N 6646   3.825   4.430  16.556  0.3333  0.3271 -0.7299
  442MPD2    H5 6647   3.913   4.414  16.508  1.5625 -1.1744  2.0133
  442MPD2    N1 6648   3.608   4.697  16.884  0.3944 -0.0283 -0.3615
  442MPD2    H7 6649   3.538   4.626  16.864  0.0121  0.4633 -0.7796
  443TMC3    C1 6650   3.452   0.042  17.031 -0.9015 -0.1783 -0.7246
  443TMC3    C2 6651   3.365   0.134  16.998 -0.7023 -0.5796  0.9087
  443TMC3    C3 6652   3.237   0.097  16.970 -0.2352  0.5926 -0.0147
  443TMC3    C4 6653   3.412   4.652  17.054 -0.5316  0.2941 -0.6852
  443TMC3    C5 6654   3.281   4.630  17.058 -0.6162  0.0071 -0.3488
  443TMC3    C6 6655   3.192   4.717  17.024 -0.1753 -0.2159 -0.2658
  443TMC3     C 6656   3.585   0.059  16.976 -0.1450 -0.3082  0.7012
  443TMC3     O 6657   3.627   0.173  16.963 -0.0593 -0.4137  0.1951
  443TMC3     H 6658   3.404   0.232  16.970  0.5176 -1.7565 -1.5655
  443TMC3    H1 6659   3.477   4.568  17.077 -0.8447  0.4175  0.6801
  443TMC3    H2 6660   3.094   4.680  16.994  1.1791 -3.0158 -1.2004
  443TMC3    C7 6661   3.239   4.492  17.067  0.9746  0.6225 -0.1188
  443TMC3    C8 6662   3.223   0.094  16.820 -0.1703 -0.3823 -0.9282
  443TMC3    O1 6663   3.320   4.405  17.029 -0.5393 -0.0438  0.4010
  443TMC3    O2 6664   3.179   4.731  16.767  0.3345 -0.6946 -0.1399
  444MPD2     C 6665   4.148   4.099  17.086 -0.2849  0.1967 -0.0238
  444MPD2    C1 6666   4.054   4.015  17.037  0.0271  0.0721 -0.1627
  444MPD2    C2 6667   4.102   3.920  16.947  0.0240  0.6377  0.3643
  444MPD2    C3 6668   4.239   3.903  16.913  0.2878 -0.4059  0.0413
  444MPD2    C4 6669   4.330   3.992  16.957 -0.4848  0.5384  0.0331
  444MPD2    C5 6670   4.282   4.085  17.049  0.1767 -0.7262  0.2123
  444MPD2     H 6671   4.031   3.852  16.900  0.5600 -0.5035  1.1899
  444MPD2    H1 6672   4.432   4.002  16.921 -1.6142  2.0441 -2.7543
  444MPD2    H2 6673   4.134   4.171  17.166  0.5963 -1.4475  1.6154
  444MPD2    H3 6674   4.354   4.157  17.088 -0.1129  0.6548 -1.8371
  444MPD2     N 6675   4.274   3.783  16.836  0.3864 -0.7314 -0.1026
  444MPD2    H5 6676   4.198   3.731  16.794  0.6861 -0.7480 -0.6224
  444MPD2    N1 6677   3.913   4.016  17.070 -0.2410  0.1154 -0.2474
  444MPD2    H7 6678   3.845   3.959  17.021  1.2884 -0.8363 -1.2605
  445TMC3    C1 6679   4.420   3.627  16.732  0.0417  0.0138 -0.3028
  445TMC3    C2 6680   4.329   3.622  16.635 -0.2728 -0.6031 -0.2370
  445TMC3    C3 6681   4.345   3.516  16.554  0.0718  0.5870  0.1160
  445TMC3    C4 6682   4.540   3.562  16.730  1.2250 -0.6371 -0.9015
  445TMC3    C5 6683   4.555   3.458  16.648 -0.2647  0.2878 -0.2988
  445TMC3    C6 6684   4.458   3.432  16.555  0.8132  0.5468 -0.3744
  445TMC3     C 6685   4.406   3.747  16.814  0.6098  0.4092  0.2202
  445TMC3     O 6686   4.507   3.793  16.863  0.3525 -0.0132 -0.4355
  445TMC3     H 6687   4.245   3.690  16.629 -0.5125 -1.0154 -1.6473
  445TMC3    H1 6688   4.620   3.591  16.797  1.3921 -1.1227 -0.8956
  445TMC3    H2 6689   4.477   3.346  16.491  0.1608 -0.9783  1.4541
  445TMC3    C7 6690   4.686   3.414  16.620  0.5883 -0.1750 -0.0443
  445TMC3    C8 6691   4.244   3.499  16.449  0.1646  0.1419  0.5959
  445TMC3    O1 6692   0.038   3.495  16.627  0.1559 -0.6013  0.2761
  445TMC3    O2 6693   4.164   3.592  16.430  0.4107  0.1782 -0.2290
  446MPD2     C 6694   3.665   0.104  11.193  0.6226 -0.0858  0.3971
  446MPD2    C1 6695   3.627   0.223  11.145 -0.4504 -0.3010  0.3585
  446MPD2    C2 6696   3.733   0.323  11.134 -0.1806  0.4585  0.4512
  446MPD2    C3 6697   3.865   0.300  11.179  0.1665  0.4392  0.1442
  446MPD2    C4 6698   3.893   0.173  11.226  0.3656 -0.7522  0.6545
  446MPD2    C5 6699   3.791   0.085  11.240 -0.2918  0.0973 -0.1062
  446MPD2     H 6700   3.705   0.421  11.097 -0.0304  0.1667 -0.4359
  446MPD2    H1 6701   3.991   0.144  11.262  1.6713  0.1969 -2.1070
  446MPD2    H2 6702   3.607   0.014  11.205  0.2505  0.0440 -0.4880
  446MPD2    H3 6703   3.810   4.725  11.280  0.7229 -0.5620 -2.1873
  446MPD2     N 6704   3.961   0.397  11.161  0.2166  0.0285 -0.6769
  446MPD2    H5 6705   3.940   0.474  11.098 -0.6201 -0.6054 -1.1707
  446MPD2    N1 6706   3.491   0.254  11.109 -0.1862 -0.4504  0.5199
  446MPD2    H7 6707   3.478   0.349  11.075  0.3374 -1.3514 -2.2514
  447TMC3    C1 6708   4.191   0.473  11.149  0.7046  0.0439 -0.1785
  447TMC3    C2 6709   4.151   0.596  11.115 -0.5887  0.0789  0.3555
  447TMC3    C3 6710   4.234   0.700  11.111  0.4638  0.2923 -0.1473
  447TMC3    C4 6711   4.316   0.457  11.193  0.1899  0.3443  0.3858
  447TMC3    C5 6712   4.402   0.564  11.181 -0.3582 -0.4328  1.1199
  447TMC3    C6 6713   4.366   0.688  11.144 -0.9796  0.1737  0.4416
  447TMC3     C 6714   4.092   0.391  11.216 -0.0601 -0.7570 -0.2523
  447TMC3     O 6715   4.132   0.306  11.296  0.4988  0.4884  0.2139
  447TMC3     H 6716   4.045   0.610  11.097 -0.5379  1.7116  1.3693
  447TMC3    H1 6717   4.360   0.364  11.228  0.5494  0.4522  0.2236
  447TMC3    H2 6718   4.437   0.761  11.107 -0.8841 -0.0892  0.1135
  447TMC3    C7 6719   4.542   0.529  11.206 -0.3536  0.1662 -0.2162
  447TMC3    C8 6720   4.199   0.805  11.020 -0.3051 -0.4326 -0.2187
  447TMC3    O1 6721   4.586   0.416  11.207  0.1179 -0.1424 -0.6196
  447TMC3    O2 6722   4.143   0.782  10.916 -0.1070  0.1980  0.5521
  448TMC3    C1 6723   2.232   4.713  17.343  0.3669  0.2980  0.2922
  448TMC3    C2 6724   2.283   4.668  17.221  0.0193 -0.3455  0.1093
  448TMC3    C3 6725   2.325   4.539  17.220  0.1319  0.0100  0.3856
  448TMC3    C4 6726   2.230   4.642  17.456 -0.3800 -0.3858  0.5764
  448TMC3    C5 6727   2.279   4.515  17.449 -0.8840  0.5346 -0.1721
  448TMC3    C6 6728   2.312   4.457  17.329  0.4088 -0.0512 -0.3767
  448TMC3     C 6729   2.195   0.114  17.353 -0.0822  0.5052 -0.5262
  448TMC3     O 6730   2.172   0.153  17.465 -0.2213  0.8102 -0.4766
  448TMC3     H 6731   2.330   4.731  17.147  1.8097 -1.3539  0.3910
  448TMC3    H1 6732   2.194   4.687  17.548  0.1877  0.4821  0.3801
  448TMC3    H2 6733   2.356   4.358  17.325  0.4900 -0.0848  1.2608
  448TMC3    C7 6734   2.315   4.436  17.561  0.0359 -0.3848  0.1553
  448TMC3    C8 6735   2.400   4.493  17.102 -0.9001  0.3775  0.2277
  448TMC3    O1 6736   2.316   4.313  17.554  0.2460 -0.5693  0.1029
  448TMC3    O2 6737   2.478   4.401  17.115  0.2593  0.1010  0.4331
  449MPD2     C 6738   3.877   3.485  13.883 -0.2926  0.8567  0.5406
  449MPD2    C1 6739   3.749   3.431  13.861 -0.2078  0.1927  0.0818
  449MPD2    C2 6740   3.661   3.423  13.964 -0.4838 -0.0999 -0.9628
  449MPD2    C3 6741   3.697   3.462  14.093 -0.0325 -0.4435 -0.7852
  449MPD2    C4 6742   3.820   3.522  14.110  0.2296  0.5309  0.1033
  449MPD2    C5 6743   3.904   3.543  14.004  0.1285  0.2175 -0.0264
  449MPD2     H 6744   3.558   3.394  13.951 -0.3199  0.0719 -2.6058
  449MPD2    H1 6745   3.856   3.543  14.210 -0.2747 -0.3960  0.4801
  449MPD2    H2 6746   3.945   3.500  13.799  1.5716  1.2228  2.1251
  449MPD2    H3 6747   4.000   3.589  14.023  2.0087 -4.0324  0.9568
  449MPD2     N 6748   3.594   3.453  14.190  0.6105 -0.0568 -0.3414
  449MPD2    H5 6749   3.501   3.433  14.157  0.5462  1.5400 -1.1140
  449MPD2    N1 6750   3.701   3.384  13.739  0.1029 -0.0453  0.5266
  449MPD2    H7 6751   3.599   3.379  13.739  0.0375  1.0373  1.2192
  450TMC3    C1 6752   3.690   3.270  13.544  0.0750  0.4932  0.7807
  450TMC3    C2 6753   3.660   3.320  13.421  0.3846 -0.2314  0.3987
  450TMC3    C3 6754   3.528   3.302  13.374  0.1748  0.1920 -0.4502
  450TMC3    C4 6755   3.595   3.200  13.621 -0.6812 -0.0554 -0.1754
  450TMC3    C5 6756   3.466   3.182  13.574  0.0771  0.2954  0.1588
  450TMC3    C6 6757   3.434   3.236  13.451  0.1913 -0.8728 -0.3418
  450TMC3     C 6758   3.776   3.342  13.632  0.6740  0.2945 -0.8228
  450TMC3     O 6759   3.895   3.346  13.601  0.3026  0.8386  0.1629
  450TMC3     H 6760   3.728   3.376  13.358 -1.1027  1.0395 -0.0942
  450TMC3    H1 6761   3.624   3.163  13.719 -2.5423 -3.8207 -1.0067
  450TMC3    H2 6762   3.338   3.206  13.413 -0.3508  0.1036  0.2669
  450TMC3    C7 6763   3.371   3.181  13.682 -0.0481 -0.0452  0.1882
  450TMC3    C8 6764   3.506   3.302  13.228  0.4407 -0.6574 -0.6552
  450TMC3    O1 6765   3.402   3.125  13.789 -0.2488  0.4302 -0.1003
  450TMC3    O2 6766   3.407   3.244  13.191 -0.0158  0.4007  0.8953
  451MPD2     C 6767   0.239   2.320   1.199 -0.4030  0.6607  0.0836
  451MPD2    C1 6768   0.236   2.374   1.070  0.4155 -0.4610  0.4302
  451MPD2    C2 6769   0.288   2.299   0.970  0.4166 -0.1596 -0.1614
  451MPD2    C3 6770   0.335   2.168   0.983 -0.0580  0.2944 -0.1738
  451MPD2    C4 6771   0.326   2.112   1.104  0.3994  0.0644  0.1311
  451MPD2    C5 6772   0.283   2.187   1.209 -1.0761 -0.6109 -0.0313
  451MPD2     H 6773   0.298   2.338   0.869  1.1674 -0.9518 -0.3991
  451MPD2    H1 6774   0.366   2.013   1.124 -0.8535 -0.6297 -0.8669
  451MPD2    H2 6775   0.201   2.367   1.289 -0.8972  2.0864 -0.8692
  451MPD2    H3 6776   0.269   2.147   1.309  1.2547 -1.5181 -0.0685
  451MPD2     N 6777   0.384   2.098   0.871 -0.2350 -0.3370 -0.6276
  451MPD2    H5 6778   0.396   1.998   0.886  1.2693 -0.4668 -2.5412
  451MPD2    N1 6779   0.182   2.506   1.056 -0.6199 -0.4288 -0.3056
  451MPD2    H7 6780   0.116   2.530   1.129  0.7438 -0.2832  0.8875
  452TMC3    C1 6781   0.469   2.057   0.656  0.8564 -0.2804 -0.6543
  452TMC3    C2 6782   0.371   1.974   0.606 -0.1568  0.3641 -0.0153
  452TMC3    C3 6783   0.360   1.953   0.469 -0.1291 -0.5969  0.1383
  452TMC3    C4 6784   0.555   2.111   0.570  0.4873 -0.4967  0.6494
  452TMC3    C5 6785   0.546   2.088   0.437 -0.6678 -0.4759 -0.1872
  452TMC3    C6 6786   0.452   2.009   0.382 -0.9548  0.2553 -0.1853
  452TMC3     C 6787   0.417   2.149   0.748  0.5536  0.0014 -0.5287
  452TMC3     O 6788   0.406   2.259   0.697 -0.8387 -0.3932 -0.0325
  452TMC3     H 6789   0.294   1.935   0.672  1.5112 -0.6736  1.3361
  452TMC3    H1 6790   0.613   2.194   0.610  0.9357  0.2558 -1.5457
  452TMC3    H2 6791   0.439   2.006   0.274 -0.7907  0.7846 -0.2214
  452TMC3    C7 6792   0.636   2.149   0.344 -0.2184 -0.5868  0.6232
  452TMC3    C8 6793   0.255   1.862   0.424  0.4756  0.1145 -0.1370
  452TMC3    O1 6794   0.604   2.141   0.227  0.2925 -0.5173  0.0307
  452TMC3    O2 6795   0.175   1.830   0.512 -0.3253  0.5800 -0.0466
  453TMC3    C1 6796   1.305   4.364  12.063  0.1619 -0.2521 -0.0817
  453TMC3    C2 6797   1.208   4.263  12.060 -0.0070 -0.0601 -0.2246
  453TMC3    C3 6798   1.116   4.268  11.957  0.2381 -0.2766 -0.0275
  453TMC3    C4 6799   1.315   4.458  11.966 -0.2986  0.0564  0.3400
  453TMC3    C5 6800   1.228   4.453  11.866 -0.0438  0.4922 -0.2518
  453TMC3    C6 6801   1.127   4.360  11.857 -0.3216 -0.4123  0.1301
  453TMC3     C 6802   1.394   4.368  12.175  0.7839 -0.2132 -0.0817
  453TMC3     O 6803   1.454   4.264  12.191 -0.0563 -0.4859  0.2522
  453TMC3     H 6804   1.210   4.184  12.135  1.0821 -2.0211 -2.3258
  453TMC3    H1 6805   1.387   4.539  11.965  0.4724 -0.6310  0.1572
  453TMC3    H2 6806   1.063   4.354  11.770 -1.9343 -2.7117  1.4848
  453TMC3    C7 6807   1.271   4.524  11.746  0.1925 -0.0470  0.6705
  453TMC3    C8 6808   1.026   4.159  11.943  0.8960  0.0516  0.0330
  453TMC3    O1 6809   1.283   4.457  11.645 -0.3491  0.2250  0.2557
  453TMC3    O2 6810   0.923   4.174  11.878  0.2137 -0.0740 -0.4200
  454MPD2     C 6811   0.382   3.728  16.310 -0.6028 -0.0592  0.3821
  454MPD2    C1 6812   0.279   3.819  16.305  0.1145  0.1423 -1.1696
  454MPD2    C2 6813   0.235   3.874  16.421  0.2662  0.1324  0.4461
  454MPD2    C3 6814   0.267   3.815  16.543 -0.3872  0.1951  0.3242
  454MPD2    C4 6815   0.370   3.723  16.544 -0.0151 -0.6373  0.5665
  454MPD2    C5 6816   0.437   3.690  16.428  0.3242  0.4464  0.2207
  454MPD2     H 6817   0.159   3.951  16.416 -0.5393 -0.6761  0.1429
  454MPD2    H1 6818   0.406   3.689  16.641 -1.1341 -1.3180  0.7383
  454MPD2    H2 6819   0.435   3.692  16.223  0.9167 -0.3513  1.4358
  454MPD2    H3 6820   0.504   3.605  16.427 -0.2894 -0.0710  1.9596
  454MPD2     N 6821   0.209   3.845  16.672 -0.0226  0.1821  0.2813
  454MPD2    H5 6822   0.277   3.817  16.743 -0.4614 -3.5802 -0.7661
  454MPD2    N1 6823   0.211   3.862  16.188 -0.1753  0.6317  0.1504
  454MPD2    H7 6824   0.133   3.927  16.194 -0.5534  0.4892 -3.1566
  455TMC3    C1 6825   4.724   3.919  16.599 -0.0383  0.0882 -0.2597
  455TMC3    C2 6826   4.643   4.022  16.615  0.4858 -0.0848 -0.1706
  455TMC3    C3 6827   4.528   4.020  16.538  0.7966  0.0256  0.1130
  455TMC3    C4 6828   4.691   3.807  16.536 -0.0672  0.2182 -0.4101
  455TMC3    C5 6829   4.579   3.806  16.457 -0.4210  0.1305  0.0458
  455TMC3    C6 6830   4.495   3.915  16.452  0.6700  0.0093  0.3706
  455TMC3     C 6831   0.097   3.916  16.700  0.1231  0.0311 -0.3851
  455TMC3     O 6832   0.070   3.959  16.810 -0.0018  0.3038  0.6720
  455TMC3     H 6833   4.660   4.106  16.681 -1.8556 -0.7628  1.2884
  455TMC3    H1 6834   0.028   3.730  16.546 -1.0621 -0.4037  2.4448
  455TMC3    H2 6835   4.421   3.923  16.374 -0.0906 -3.1717  0.7402
  455TMC3    C7 6836   4.563   3.702  16.354 -0.1310 -0.0095 -0.5469
  455TMC3    C8 6837   4.421   4.111  16.589 -0.3335 -0.2791 -0.0791
  455TMC3    O1 6838   4.462   3.707  16.286  0.0995 -0.3366  0.3253
  455TMC3    O2 6839   4.457   4.207  16.655 -0.2125 -0.6382 -0.1972
  456MPD2     C 6840   2.960   3.662  16.035  0.0799  0.0109 -0.0400
  456MPD2    C1 6841   2.979   3.606  16.155  0.3040  0.6755  0.2528
  456MPD2    C2 6842   2.945   3.676  16.270 -0.1677 -0.2015 -0.1096
  456MPD2    C3 6843   2.889   3.801  16.261 -0.2771 -0.3943  1.4825
  456MPD2    C4 6844   2.869   3.862  16.134  0.8275  0.3329 -0.4634
  456MPD2    C5 6845   2.911   3.790  16.027 -0.3157  1.2036  0.4336
  456MPD2     H 6846   2.971   3.640  16.368 -0.1871 -0.7974 -0.3256
  456MPD2    H1 6847   2.828   3.960  16.115 -1.9321 -0.9562 -1.0778
  456MPD2    H2 6848   2.991   3.611  15.945  1.2779 -0.7860  0.8270
  456MPD2    H3 6849   2.907   3.826  15.924  1.0175  0.3573  0.0852
  456MPD2     N 6850   2.862   3.871  16.383  0.6412  0.2127  0.1406
  456MPD2    H5 6851   2.870   3.827  16.474  0.2510 -0.1185  0.0169
  456MPD2    N1 6852   3.041   3.474  16.157  0.0961 -0.6295  0.2218
  456MPD2    H7 6853   3.065   3.430  16.068  1.0711 -1.8994  1.1061
  457TMC3    C1 6854   2.829   4.062  16.525 -0.0589  0.7451 -0.0512
  457TMC3    C2 6855   2.812   4.198  16.535  0.6195  0.0669 -0.4936
  457TMC3    C3 6856   2.851   4.260  16.649 -0.5730 -0.9943 -0.9300
  457TMC3    C4 6857   2.880   3.993  16.634  0.5582 -0.2579 -0.8375
  457TMC3    C5 6858   2.925   4.063  16.741  0.0955 -1.1681 -0.6631
  457TMC3    C6 6859   2.918   4.196  16.746 -0.1802  0.0988 -0.1357
  457TMC3     C 6860   2.828   4.005  16.387 -0.2485  0.2135 -0.2745
  457TMC3     O 6861   2.829   4.089  16.300 -0.0933  0.7361  0.9402
  457TMC3     H 6862   2.750   4.248  16.461 -1.5571 -0.5684  0.9099
  457TMC3    H1 6863   2.887   3.884  16.632 -0.4265 -0.3578  2.1702
  457TMC3    H2 6864   2.962   4.249  16.830 -0.3972  2.5251 -1.5649
  457TMC3    C7 6865   2.872   3.994  16.857  0.1185 -0.1340 -0.0646
  457TMC3    C8 6866   2.753   4.334  16.717 -0.4540 -0.1663 -0.1719
  457TMC3    O1 6867   2.896   3.876  16.865 -0.1450 -0.8919 -0.8829
  457TMC3    O2 6868   2.770   4.340  16.841 -0.7996 -0.0821 -0.5447
  458MPD2     C 6869   0.046   3.197  12.476  0.7209 -0.3209 -0.2351
  458MPD2    C1 6870   0.126   3.104  12.540 -0.2949  0.8726 -0.4621
  458MPD2    C2 6871   0.086   2.977  12.559  0.2304  0.5084 -0.8483
  458MPD2    C3 6872   4.698   2.937  12.518 -0.5194 -0.4265 -0.1586
  458MPD2    C4 6873   4.619   3.029  12.446  0.2131  0.6076 -0.1472
  458MPD2    C5 6874   4.657   3.161  12.430 -0.1187 -0.3520 -0.1287
  458MPD2     H 6875   0.135   2.906  12.625 -0.8390  1.2622  0.7409
  458MPD2    H1 6876   4.514   3.008  12.429  0.4802 -1.4692  0.7849
  458MPD2    H2 6877   0.079   3.299  12.460 -0.4299 -0.2086 -1.8445
  458MPD2    H3 6878   4.592   3.234  12.382  1.5068 -0.6404 -2.7812
  458MPD2     N 6879   4.650   2.813  12.562 -0.6865  0.5718  0.0093
  458MPD2    H5 6880   4.721   2.764  12.616 -1.8597  0.0362  1.0545
  458MPD2    N1 6881   0.246   3.141  12.605 -0.5547  0.2625  0.0297
  458MPD2    H7 6882   0.296   3.069  12.656 -1.3432 -1.2014 -1.2691
  459TMC3    C1 6883   0.451   3.251  12.666  0.0309  0.1959 -0.3321
  459TMC3    C2 6884   0.541   3.338  12.625 -0.0741  0.2040 -0.0033
  459TMC3    C3 6885   0.662   3.341  12.697  0.4476 -0.5068  0.6411
  459TMC3    C4 6886   0.476   3.162  12.770 -0.1116  0.1197 -0.3869
  459TMC3    C5 6887   0.600   3.158  12.820 -0.1011 -0.8593 -0.0237
  459TMC3    C6 6888   0.692   3.249  12.789 -0.8364  0.2396  0.9917
  459TMC3     C 6889   0.314   3.259  12.598 -0.3153 -0.5581  0.7962
  459TMC3     O 6890   0.290   3.363  12.540 -0.1968 -0.4179  0.1421
  459TMC3     H 6891   0.515   3.416  12.554 -1.5415 -1.3247 -1.1660
  459TMC3    H1 6892   0.390   3.106  12.804 -2.4018  2.0092 -2.9583
  459TMC3    H2 6893   0.795   3.245  12.822 -0.3398  0.3664 -0.5512
  459TMC3    C7 6894   0.637   3.067  12.932 -0.8057  0.0421 -0.3288
  459TMC3    C8 6895   0.781   3.389  12.619 -0.0045 -1.0462 -0.7261
  459TMC3    O1 6896   0.749   3.072  12.979  0.2520 -0.5020 -0.8932
  459TMC3    O2 6897   0.889   3.344  12.649  0.2391  0.3205  0.1106
  460MPD2     C 6898   4.269   1.160  11.051 -0.4110 -0.2405  0.0010
  460MPD2    C1 6899   4.223   1.049  10.987 -0.5168  0.4823 -0.1851
  460MPD2    C2 6900   4.164   1.061  10.864  0.8201  0.4338  0.1572
  460MPD2    C3 6901   4.149   1.187  10.802 -0.0942  1.4451  1.0624
  460MPD2    C4 6902   4.212   1.297  10.868  0.6839 -0.0145 -0.1364
  460MPD2    C5 6903   4.258   1.283  10.994  0.2774  0.2682  0.3648
  460MPD2     H 6904   4.112   0.975  10.824 -2.3512  1.7135  1.5168
  460MPD2    H1 6905   4.221   1.393  10.818 -1.0188 -0.8995 -2.1668
  460MPD2    H2 6906   4.320   1.154  11.146  2.1991  2.7940 -1.2157
  460MPD2    H3 6907   4.306   1.370  11.038 -1.2367  0.7585  1.0638
  460MPD2     N 6908   4.084   1.195  10.681  0.5986  0.2199  0.1246
  460MPD2    H5 6909   4.065   1.109  10.631 -0.6451 -0.2984  1.5001
  460MPD2    N1 6910   4.235   0.927  11.064  0.1818 -0.7894  0.0770
  460MPD2    H7 6911   4.282   0.938  11.154 -0.3206 -1.6161  0.4389
  461TMC3    C1 6912   4.030   1.296  10.468 -0.1549 -0.1126 -0.6874
  461TMC3    C2 6913   4.082   1.199  10.394 -0.2405  0.4237  0.1145
  461TMC3    C3 6914   4.086   1.225  10.261 -0.1670  0.7778  0.3883
  461TMC3    C4 6915   3.976   1.413  10.416  0.6316 -1.0079  0.1963
  461TMC3    C5 6916   3.986   1.434  10.281 -0.8411  0.2442 -0.4047
  461TMC3    C6 6917   4.046   1.343  10.198 -0.3575 -0.2739  0.4499
  461TMC3     C 6918   4.086   1.313  10.605  0.3449  1.1563  0.8151
  461TMC3     O 6919   4.111   1.430  10.632 -0.1871  0.3080  0.1149
  461TMC3     H 6920   4.128   1.109  10.434  0.5842  2.1411  3.0852
  461TMC3    H1 6921   3.938   1.488  10.485  2.1837 -1.3759  1.4632
  461TMC3    H2 6922   4.061   1.341  10.091 -0.6374 -0.0816  0.4054
  461TMC3    C7 6923   3.957   1.553  10.211  0.0789  0.2879  0.1158
  461TMC3    C8 6924   4.135   1.117  10.180  0.1920 -0.2666 -0.0326
  461TMC3    O1 6925   3.946   1.549  10.091  0.3372  0.7153  0.1709
  461TMC3    O2 6926   4.217   1.129  10.090 -0.1970 -0.4552  0.1533
  462TMC3    C1 6927   4.086   2.472  17.372 -0.0397  0.2595  0.0529
  462TMC3    C2 6928   4.218   2.445  17.346 -0.2108  0.9173  0.1376
  462TMC3    C3 6929   4.274   2.339  17.417 -1.1195 -0.2501 -0.0061
  462TMC3    C4 6930   4.009   2.410  17.469 -1.1015  0.2123  0.0409
  462TMC3    C5 6931   4.068   2.305  17.534  0.2813 -0.5040  0.3522
  462TMC3    C6 6932   4.202   2.275  17.514  0.1344 -0.1908 -0.5577
  462TMC3     C 6933   4.015   2.571  17.289 -0.4197 -0.0644  0.2872
  462TMC3     O 6934   3.893   2.581  17.308  0.3009  0.5917  0.0166
  462TMC3     H 6935   4.271   2.493  17.265 -0.2481  0.4836 -0.1430
  462TMC3    H1 6936   3.904   2.432  17.484 -1.3643 -1.7152  0.9622
  462TMC3    H2 6937   4.245   2.185  17.557 -1.1267 -0.3062  0.4782
  462TMC3    C7 6938   3.984   2.200  17.592  0.6050 -0.2854 -1.3583
  462TMC3    C8 6939   4.365   2.259  17.333 -0.2417 -0.5312 -0.5009
  462TMC3    O1 6940   4.034   2.089  17.611  0.0198  0.2944 -0.3307
  462TMC3    O2 6941   4.379   2.293  17.219  0.0099 -0.4713 -0.2234
  463MPD2     C 6942   1.543   0.502   1.359  0.3740  0.3674  0.1402
  463MPD2    C1 6943   1.420   0.548   1.374  0.2964  0.6656  0.3169
  463MPD2    C2 6944   1.393   0.684   1.368  0.8210 -0.2324 -0.3846
  463MPD2    C3 6945   1.499   0.777   1.359  0.5003 -0.1652  0.6255
  463MPD2    C4 6946   1.623   0.724   1.350  0.0216 -0.3734  0.1819
  463MPD2    C5 6947   1.642   0.590   1.356 -0.1530  0.4001  0.1308
  463MPD2     H 6948   1.292   0.718   1.389  1.8499  3.6744 -1.8252
  463MPD2    H1 6949   1.708   0.789   1.337  0.6909 -1.2187  0.3527
  463MPD2    H2 6950   1.575   0.399   1.370  0.4670  0.5993  2.0639
  463MPD2    H3 6951   1.743   0.550   1.366 -0.6240 -0.8519 -0.1185
  463MPD2     N 6952   1.477   0.915   1.359  0.2438 -0.4566  0.0378
  463MPD2    H5 6953   1.560   0.972   1.350 -1.1023  1.5928  0.5235
  463MPD2    N1 6954   1.300   0.462   1.377 -0.3081 -0.2503  0.5197
  463MPD2    H7 6955   1.213   0.513   1.388 -0.6153 -0.5099 -0.7134
  464TMC3    C1 6956   1.169   0.253   1.352  0.0484  0.3205  0.6009
  464TMC3    C2 6957   1.066   0.310   1.420 -0.1838 -0.2484  0.0027
  464TMC3    C3 6958   0.943   0.247   1.425 -0.5866  1.0636  0.2887
  464TMC3    C4 6959   1.163   0.131   1.301  0.2860 -0.1320 -0.1688
  464TMC3    C5 6960   1.041   0.068   1.307 -0.4078 -0.2627 -0.1494
  464TMC3    C6 6961   0.932   0.117   1.371 -0.5244  0.1859  0.5948
  464TMC3     C 6962   1.296   0.324   1.341 -0.3045  0.4414  0.4177
  464TMC3     O 6963   1.402   0.268   1.318 -0.1966  0.0491  0.0965
  464TMC3     H 6964   1.086   0.411   1.453 -0.2880  0.6876 -2.8574
  464TMC3    H1 6965   1.252   0.093   1.251  0.1696  1.4109 -1.5196
  464TMC3    H2 6966   0.842   0.060   1.388 -0.4698 -0.2433 -0.5306
  464TMC3    C7 6967   1.028   4.695   1.221 -0.3801 -0.0686 -0.4528
  464TMC3    C8 6968   0.827   0.322   1.471 -0.0614  0.5422 -0.4827
  464TMC3    O1 6969   1.130   4.658   1.161  0.6615  0.6278 -0.0003
  464TMC3    O2 6970   0.715   0.279   1.448  0.3463 -0.0478 -0.1976
  465MPD2     C 6971   2.054   3.811  16.995 -0.2523  0.7115  0.3009
  465MPD2    C1 6972   1.984   3.892  17.072 -0.3372 -0.4630 -0.0937
  465MPD2    C2 6973   1.911   3.988  17.006  0.4082 -0.0122  0.3408
  465MPD2    C3 6974   1.920   4.010  16.874  0.1580 -0.2846 -0.1429
  465MPD2    C4 6975   1.983   3.912  16.795 -0.4803 -0.1754 -0.7240
  465MPD2    C5 6976   2.055   3.815  16.857 -0.3382  0.5182 -0.4535
  465MPD2     H 6977   1.856   4.062  17.063 -0.5520  0.4522 -1.1867
  465MPD2    H1 6978   1.983   3.910  16.687  1.5626 -2.2860 -0.6957
  465MPD2    H2 6979   2.120   3.735  17.034 -0.8838 -0.9268 -1.8324
  465MPD2    H3 6980   2.106   3.748  16.790 -1.8519 -0.0668 -1.0163
  465MPD2     N 6981   1.834   4.102  16.810  0.1670 -0.9151 -0.2339
  465MPD2    H5 6982   1.763   4.138  16.873  1.9010 -2.9128  2.8642
  465MPD2    N1 6983   1.963   3.886  17.212  0.0832  0.5202 -0.5779
  465MPD2    H7 6984   1.932   3.974  17.252 -2.7268 -0.4247 -0.6615
  466TMC3    C1 6985   1.497   4.247  16.728  0.0875 -0.4253 -0.2459
  466TMC3    C2 6986   1.495   4.350  16.635 -0.1594  0.6764 -0.2174
  466TMC3    C3 6987   1.601   4.362  16.546 -0.1110 -0.1403  0.0851
  466TMC3    C4 6988   1.598   4.159  16.729  0.0340 -0.2748 -0.1289
  466TMC3    C5 6989   1.700   4.171  16.639  0.0387 -0.1038  0.1549
  466TMC3    C6 6990   1.702   4.271  16.542  0.2957  0.0206  0.4208
  466TMC3     C 6991   1.442   4.280  16.858  0.7154  0.1087  0.0761
  466TMC3     O 6992   1.504   4.234  16.954 -0.7964 -0.0539  0.0146
  466TMC3     H 6993   1.416   4.424  16.620 -0.0415  0.6954 -0.7609
  466TMC3    H1 6994   1.594   4.082  16.805 -0.4578  0.4548  0.5860
  466TMC3    H2 6995   1.774   4.257  16.463  0.7257  2.2432  0.4162
  466TMC3    C7 6996   1.832   4.108  16.677  0.3257  0.3312 -0.5381
  466TMC3    C8 6997   1.627   4.489  16.493  0.9610 -0.5384 -0.3945
  466TMC3    O1 6998   1.932   4.113  16.602  0.7219  0.5424 -0.1515
  466TMC3    O2 6999   1.727   4.491  16.418 -0.2257  0.2616 -0.2503
  467TMC3    C1 7000   2.620   2.098  14.147  0.3069 -0.9691  0.2703
  467TMC3    C2 7001   2.571   2.063  14.019  0.2103  0.6436 -0.3925
  467TMC3    C3 7002   2.479   2.142  13.959  0.9259  0.3364 -0.1389
  467TMC3    C4 7003   2.543   2.184  14.217 -0.7136  0.2771  0.0427
  467TMC3    C5 7004   2.418   2.214  14.175 -0.0341  0.3528 -0.2490
  467TMC3    C6 7005   2.393   2.214  14.037  0.4290  0.1773  0.5705
  467TMC3     C 7006   2.756   2.143  14.142  0.2448  0.3686 -0.0977
  467TMC3     O 7007   2.782   2.243  14.204 -0.4456  0.1837  0.0232
  467TMC3     H 7008   2.618   1.988  13.957 -2.3286 -1.6490  0.4598
  467TMC3    H1 7009   2.575   2.203  14.319  1.9448 -1.6082 -0.4237
  467TMC3    H2 7010   2.312   2.270  13.991 -0.1413 -0.2122  1.1078
  467TMC3    C7 7011   2.324   2.130  14.248  0.7660  0.3293  0.5631
  467TMC3    C8 7012   2.540   2.232  13.861 -0.6003  0.5447 -0.3770
  467TMC3    O1 7013   2.366   2.069  14.341  0.3000 -0.5531  0.0350
  467TMC3    O2 7014   2.480   2.330  13.812  0.1368  0.4975 -0.1953
  468MPD2     C 7015   1.537   0.834  10.972  1.2909 -0.2767 -0.2301
  468MPD2    C1 7016   1.635   0.759  10.905 -0.7278  0.6467  0.4353
  468MPD2    C2 7017   1.627   0.622  10.908 -0.4691 -0.9323  0.3882
  468MPD2    C3 7018   1.521   0.558  10.968 -0.1969 -0.6182  0.2085
  468MPD2    C4 7019   1.415   0.624  11.020  0.2593 -0.3192  0.0838
  468MPD2    C5 7020   1.426   0.760  11.021 -0.5560  0.7849 -0.1834
  468MPD2     H 7021   1.709   0.567  10.863  1.0692  0.5557  1.3480
  468MPD2    H1 7022   1.333   0.567  11.063 -2.2740  4.6979  1.8537
  468MPD2    H2 7023   1.543   0.941  10.982  1.5765 -0.4273  1.1064
  468MPD2    H3 7024   1.337   0.797  11.071 -0.1579  1.6046 -0.0729
  468MPD2     N 7025   1.514   0.412  10.964  0.1648 -0.2686 -0.0798
  468MPD2    H5 7026   1.430   0.369  11.000  0.0720 -0.5824 -0.6713
  468MPD2    N1 7027   1.748   0.819  10.840  0.3747  0.2994  0.5072
  468MPD2    H7 7028   1.807   0.757  10.785  0.1183 -0.0270  0.5984
  469TMC3    C1 7029   1.878   0.979  10.740 -0.2970 -0.5036  0.2258
  469TMC3    C2 7030   1.993   0.957  10.804 -0.0454 -0.0440 -0.3018
  469TMC3    C3 7031   2.086   1.055  10.798 -0.1415  0.6193 -0.4620
  469TMC3    C4 7032   1.850   1.097  10.673 -0.5419 -0.5550 -0.0104
  469TMC3    C5 7033   1.944   1.200  10.678  0.1820  0.6401  0.4615
  469TMC3    C6 7034   2.058   1.181  10.751  0.1840  0.2221 -0.3580
  469TMC3     C 7035   1.768   0.956  10.827 -0.2629  0.2465  0.8629
  469TMC3     O 7036   1.699   1.056  10.860 -0.6908  0.3668 -0.4584
  469TMC3     H 7037   2.011   0.859  10.847  1.2606 -0.5736 -2.0597
  469TMC3    H1 7038   1.752   1.110  10.628 -1.7401 -1.2646  2.4197
  469TMC3    H2 7039   2.128   1.263  10.761  1.7321 -1.3286  1.5684
  469TMC3    C7 7040   1.891   1.330  10.692 -0.4047 -0.2147  0.6167
  469TMC3    C8 7041   2.211   1.049  10.874  0.5865 -0.3755  0.5132
  469TMC3    O1 7042   1.955   1.434  10.672  0.0555  0.4258 -0.0175
  469TMC3    O2 7043   2.313   1.090  10.826 -0.4372  0.0865  0.6710
  470TMC3    C1 7044   3.500   1.656   0.614 -0.3606 -0.3072 -0.3565
  470TMC3    C2 7045   3.557   1.784   0.636  0.0881  0.4033  0.2238
  470TMC3    C3 7046   3.580   1.811   0.767  0.3369 -0.7318  0.7125
  470TMC3    C4 7047   3.465   1.559   0.704 -0.0026  0.2313 -0.0764
  470TMC3    C5 7048   3.490   1.596   0.839 -0.5136  0.2295 -0.5959
  470TMC3    C6 7049   3.549   1.715   0.871  0.2480 -0.4451  0.1739
  470TMC3     C 7050   3.451   1.621   0.478 -0.0969 -0.2477  0.0333
  470TMC3     O 7051   3.510   1.654   0.377 -0.4283  0.1592 -0.7313
  470TMC3     H 7052   3.572   1.854   0.555 -0.4098 -1.6179 -1.5994
  470TMC3    H1 7053   3.416   1.468   0.675 -0.6577  0.3294  0.7244
  470TMC3    H2 7054   3.584   1.740   0.970 -0.5335 -0.5118  0.4661
  470TMC3    C7 7055   3.437   1.517   0.949  0.1469 -0.2583 -0.1327
  470TMC3    C8 7056   3.629   1.940   0.813 -0.4884 -0.1954  0.6515
  470TMC3    O1 7057   3.348   1.433   0.930 -0.0828 -0.3847 -0.4217
  470TMC3    O2 7058   3.603   1.974   0.925 -0.1163 -0.6311  0.0239
  471MPD2     C 7059   4.494   2.674  16.093  0.0321 -0.0795 -0.2521
  471MPD2    C1 7060   4.439   2.542  16.107 -0.4088 -0.6940  0.2052
  471MPD2    C2 7061   4.445   2.478  16.230 -1.2449  0.1497 -0.0108
  471MPD2    C3 7062   4.493   2.543  16.346  0.0622  0.4522  0.3760
  471MPD2    C4 7063   4.548   2.671  16.329 -0.2875  0.2005 -0.2499
  471MPD2    C5 7064   4.545   2.731  16.208  0.4668  0.3163  0.4676
  471MPD2     H 7065   4.394   2.383  16.242 -2.0888  0.4797 -0.9622
  471MPD2    H1 7066   4.577   2.729  16.415  1.0293 -2.8294  1.3667
  471MPD2    H2 7067   4.514   2.728  16.001 -1.2500  0.6673 -0.0871
  471MPD2    H3 7068   4.592   2.826  16.186  0.8712 -0.4715 -2.1444
  471MPD2     N 7069   4.474   2.480  16.470  0.1170 -0.3068 -0.7085
  471MPD2    H5 7070   4.429   2.389  16.481 -0.0924 -0.1573 -0.3148
  471MPD2    N1 7071   4.377   2.472  16.004  0.2594 -0.1331 -0.3925
  471MPD2    H7 7072   4.353   2.375  16.025  1.5422 -0.5449 -0.8073
  472TMC3    C1 7073   4.233   2.449  15.821 -0.0281 -0.2718 -0.5412
  472TMC3    C2 7074   4.118   2.522  15.809  0.0402 -0.1776 -0.3296
  472TMC3    C3 7075   4.005   2.449  15.829 -0.1748 -0.1086  0.1951
  472TMC3    C4 7076   4.233   2.316  15.851  0.1744  0.5641 -1.0355
  472TMC3    C5 7077   4.113   2.250  15.864  0.7019  0.3468 -0.1080
  472TMC3    C6 7078   3.996   2.315  15.851  0.7486 -0.5294 -0.1537
  472TMC3     C 7079   4.340   2.523  15.883  0.4297  0.3434 -0.5133
  472TMC3     O 7080   4.371   2.638  15.848  0.0298 -0.2667 -0.1004
  472TMC3     H 7081   4.120   2.629  15.795 -2.2131 -0.1443 -0.4616
  472TMC3    H1 7082   4.331   2.272  15.863  0.1299  0.8392  0.3917
  472TMC3    H2 7083   3.905   2.260  15.873 -0.2449  1.3752  0.4990
  472TMC3    C7 7084   4.102   2.133  15.939  0.4215 -0.4475 -1.2657
  472TMC3    C8 7085   3.878   2.517  15.840  0.8221  0.9472 -0.3201
  472TMC3    O1 7086   4.018   2.139  16.025  0.3089 -0.2742 -0.1331
  472TMC3    O2 7087   3.872   2.628  15.781 -0.2072 -0.1636 -0.6521
  473MPD2     C 7088   4.212   4.510  13.947 -0.4650  0.2366 -0.2178
  473MPD2    C1 7089   4.154   4.620  13.883  0.3117 -0.4940 -0.4156
  473MPD2    C2 7090   4.158   0.001  13.957  0.3217  0.1703 -0.3800
  473MPD2    C3 7091   4.216   0.011  14.082  0.0976 -0.0063  0.1090
  473MPD2    C4 7092   4.265   4.630  14.138 -0.6074  0.2154  0.7834
  473MPD2    C5 7093   4.275   4.515  14.064  0.7157 -0.2828 -0.3593
  473MPD2     H 7094   4.117   0.093  13.915  1.4349  0.2005 -1.3768
  473MPD2    H1 7095   4.305   4.639  14.238 -1.1669  0.0788  1.0203
  473MPD2    H2 7096   4.212   4.411  13.903  1.1464 -1.3157  3.3326
  473MPD2    H3 7097   4.316   4.426  14.111  0.1277 -0.8632 -0.9453
  473MPD2     N 7098   4.206   0.126  14.166 -0.5437  0.1809 -0.1043
  473MPD2    H5 7099   4.269   0.131  14.245 -0.2747 -0.6381 -0.2633
  473MPD2    N1 7100   4.082   4.624  13.765 -0.4706 -0.3473  0.1311
  473MPD2    H7 7101   4.031   4.708  13.743 -1.6927 -0.6633  1.7349
  474TMC3    C1 7102   4.135   0.314  14.254 -0.3317  0.3019 -0.0721
  474TMC3    C2 7103   4.030   0.399  14.275  0.2490  0.1434  0.2114
  474TMC3    C3 7104   4.052   0.510  14.349  0.8169 -0.3406  0.0404
  474TMC3    C4 7105   4.266   0.342  14.291 -0.4302  0.6603 -0.4433
  474TMC3    C5 7106   4.280   0.455  14.367  0.4333  0.4986  0.4810
  474TMC3    C6 7107   4.179   0.538  14.399 -0.5841 -0.1871  0.9980
  474TMC3     C 7108   4.114   0.225  14.147 -0.8239  0.9700 -0.2266
  474TMC3     O 7109   4.014   0.231  14.078 -0.7751 -0.2416  0.3193
  474TMC3     H 7110   3.933   0.387  14.228  0.3121  1.7706 -0.3131
  474TMC3    H1 7111   4.348   0.277  14.262 -1.8632 -0.5301 -1.8485
  474TMC3    H2 7112   4.195   0.639  14.436  1.8353 -0.1308 -0.1562
  474TMC3    C7 7113   4.415   0.472  14.413 -0.8113 -0.0844  0.5228
  474TMC3    C8 7114   3.948   0.607  14.328 -0.6160 -0.6381  0.0327
  474TMC3    O1 7115   4.488   0.399  14.347 -0.1924 -0.1746 -0.3912
  474TMC3    O2 7116   3.838   0.562  14.309  0.0515  0.0259  0.1781
  475MPD2     C 7117   2.086   3.016  11.419  0.3121 -0.2125  0.3661
  475MPD2    C1 7118   2.164   3.101  11.349  0.1609  0.1582 -0.1027
  475MPD2    C2 7119   2.126   3.156  11.231 -0.1658  0.5607 -0.2326
  475MPD2    C3 7120   1.991   3.125  11.179  1.1914  0.2016 -0.5764
  475MPD2    C4 7121   1.917   3.039  11.258  0.6373 -0.4837  0.4371
  475MPD2    C5 7122   1.966   2.981  11.367  0.1398 -0.5703 -0.3368
  475MPD2     H 7123   2.191   3.225  11.177 -0.5029  0.9225 -0.1767
  475MPD2    H1 7124   1.813   3.023  11.232  0.2653  2.7859 -0.0601
  475MPD2    H2 7125   2.117   2.989  11.520  2.3903 -0.1503 -0.2630
  475MPD2    H3 7126   1.908   2.901  11.413 -0.0453 -0.5379 -0.5138
  475MPD2     N 7127   1.938   3.172  11.054 -0.4165 -0.2052 -0.2952
  475MPD2    H5 7128   1.838   3.170  11.042 -0.6043  1.4888  0.9679
  475MPD2    N1 7129   2.281   3.144  11.414  0.3512 -0.3694  0.2598
  475MPD2    H7 7130   2.283   3.116  11.512  2.4734  0.2266  0.3785
  476TMC3    C1 7131   2.491   3.261  11.446  0.2742 -0.4743  0.7071
  476TMC3    C2 7132   2.596   3.310  11.370 -0.1973 -0.3686  0.0196
  476TMC3    C3 7133   2.641   3.435  11.389  0.3392 -0.2696 -0.1934
  476TMC3    C4 7134   2.453   3.325  11.557 -0.2563  0.3833  0.2872
  476TMC3    C5 7135   2.504   3.450  11.586 -0.5697  0.4662 -0.7264
  476TMC3    C6 7136   2.601   3.502  11.503  0.0943 -0.1875  0.7649
  476TMC3     C 7137   2.383   3.219  11.357 -0.5212  0.9668 -0.1519
  476TMC3     O 7138   2.404   3.233  11.240  0.1551 -0.7113 -0.4568
  476TMC3     H 7139   2.622   3.248  11.285  0.1317 -2.3176  1.5215
  476TMC3    H1 7140   2.364   3.302  11.615  0.2922 -0.5061  0.7812
  476TMC3    H2 7141   2.645   3.598  11.527 -0.6817  0.4640 -0.4123
  476TMC3    C7 7142   2.410   3.545  11.635  0.0119 -0.7966  0.0312
  476TMC3    C8 7143   2.633   3.528  11.272 -0.0070 -0.7766 -0.5474
  476TMC3    O1 7144   2.335   3.502  11.719 -0.3105 -0.4747 -0.1488
  476TMC3    O2 7145   2.593   3.642  11.293 -0.2831 -0.0648  0.2788
  477MPD2     C 7146   0.419   0.224  11.755 -0.0282  0.4949 -0.0307
  477MPD2    C1 7147   0.330   0.135  11.706 -0.5791 -0.3249  0.1478
  477MPD2    C2 7148   0.313   0.008  11.755 -0.4442 -0.1774  0.7735
  477MPD2    C3 7149   0.378   4.719  11.874  0.8075  0.5003 -0.0714
  477MPD2    C4 7150   0.473   0.067  11.924 -0.3099  0.4212  0.8268
  477MPD2    C5 7151   0.497   0.185  11.858  0.6343  0.0044 -0.0890
  477MPD2     H 7152   0.233   4.679  11.728 -0.8616  1.1411 -1.2373
  477MPD2    H1 7153   0.521   0.062  12.020 -2.1412 -0.7924  1.6896
  477MPD2    H2 7154   0.421   0.320  11.704 -0.0004  0.5189  0.0158
  477MPD2    H3 7155   0.572   0.257  11.888 -0.2605  1.0836 -0.4419
  477MPD2     N 7156   0.333   4.596  11.930 -0.1052  0.2061  0.8833
  477MPD2    H5 7157   0.261   4.541  11.884  2.0817 -0.8569 -1.2824
  477MPD2    N1 7158   0.243   0.188  11.608  0.3063  0.1672  0.0547
  477MPD2    H7 7159   0.212   0.284  11.618 -1.8760 -0.5660  0.1362
  478TMC3    C1 7160   0.040   0.157  11.471  0.3219  0.4885  0.8086
  478TMC3    C2 7161   4.735   0.277  11.515  0.1468 -0.0980  0.2496
  478TMC3    C3 7162   4.602   0.304  11.501  0.8670  0.1633  0.3405
  478TMC3    C4 7163   4.696   0.063  11.415 -0.5381 -0.1103 -0.7369
  478TMC3    C5 7164   4.567   0.104  11.397 -0.7519  0.3972 -1.0651
  478TMC3    C6 7165   4.514   0.224  11.436  0.0575  0.4500  0.1192
  478TMC3     C 7166   0.170   0.106  11.521  0.1725 -0.0556 -0.0352
  478TMC3     O 7167   0.188   4.723  11.507  0.1321  0.2677  0.2117
  478TMC3     H 7168   0.069   0.352  11.547  0.0865 -0.2983  0.8599
  478TMC3    H1 7169   4.733   4.705  11.384  0.5014  0.2578 -0.6508
  478TMC3    H2 7170   4.409   0.249  11.433  0.1622  0.7050 -1.2235
  478TMC3    C7 7171   4.482   0.012  11.330 -0.4001  0.6793 -0.2009
  478TMC3    C8 7172   4.541   0.422  11.560  0.2714 -0.5414 -0.0147
  478TMC3    O1 7173   4.498   4.629  11.340 -0.6318  0.1344 -0.2765
  478TMC3    O2 7174   4.424   0.429  11.530  0.1928  0.6440 -0.2981
  479MPD2     C 7175   3.589   2.082  14.672  1.4485  0.0267 -0.5865
  479MPD2    C1 7176   3.616   2.025  14.793  0.4745  0.2506  0.0787
  479MPD2    C2 7177   3.689   2.102  14.888  0.4441  0.5170 -0.7015
  479MPD2    C3 7178   3.728   2.230  14.858 -0.1544 -0.0787 -0.8676
  479MPD2    C4 7179   3.703   2.283  14.730  0.4664  0.7581  0.0373
  479MPD2    C5 7180   3.632   2.206  14.638 -0.4913 -0.5508 -0.1937
  479MPD2     H 7181   3.716   2.071  14.988  0.7876 -0.6476 -1.1643
  479MPD2    H1 7182   3.715   2.387  14.699 -0.7693  0.7867 -0.3231
  479MPD2    H2 7183   3.528   2.031  14.598  0.2920  1.6296 -0.7329
  479MPD2    H3 7184   3.611   2.240  14.537  1.5850  0.5078 -0.2707
  479MPD2     N 7185   3.782   2.319  14.953 -0.1661  0.4248  0.9584
  479MPD2    H5 7186   3.822   2.402  14.911  2.8978 -1.1086  0.8573
  479MPD2    N1 7187   3.569   1.899  14.824 -0.4259 -0.5845  0.0995
  479MPD2    H7 7188   3.498   1.863  14.761  0.2322 -0.0643 -0.9196
  480TMC3    C1 7189   3.637   2.477  15.332 -0.5376  0.7666  0.1051
  480TMC3    C2 7190   3.563   2.552  15.249  0.2510  0.8674 -0.6288
  480TMC3    C3 7191   3.613   2.579  15.124 -0.5698  0.0182 -0.5281
  480TMC3    C4 7192   3.758   2.420  15.286 -0.2394  0.5776 -0.1379
  480TMC3    C5 7193   3.791   2.429  15.155  0.3588 -0.3705  0.5194
  480TMC3    C6 7194   3.730   2.529  15.084 -0.3793  0.5523 -0.1833
  480TMC3     C 7195   3.593   2.425  15.461  0.3912 -0.0073  0.4080
  480TMC3     O 7196   3.679   2.389  15.539 -0.3685  0.1390  0.6107
  480TMC3     H 7197   3.472   2.604  15.278  1.5943  1.3011  2.8059
  480TMC3    H1 7198   3.818   2.347  15.339 -0.0742  0.0994 -0.9857
  480TMC3    H2 7199   3.778   2.577  14.999  1.3112  1.3798  1.2349
  480TMC3    C7 7200   3.773   2.304  15.088 -0.0303 -0.2803  0.1545
  480TMC3    C8 7201   3.517   2.632  15.032  0.4524 -0.1331 -0.1897
  480TMC3    O1 7202   3.702   2.228  15.150 -0.3077 -0.6610 -0.0223
  480TMC3    O2 7203   3.407   2.680  15.068 -0.0004  0.1611 -0.1444
  481MPD2     C 7204   0.488   1.758  13.973  0.6400  0.3370  0.2487
  481MPD2    C1 7205   0.411   1.653  14.032 -0.0558  0.0816  0.5013
  481MPD2    C2 7206   0.466   1.582  14.139  0.1516  0.6564  0.4342
  481MPD2    C3 7207   0.594   1.606  14.192 -0.2414  0.2859 -0.4054
  481MPD2    C4 7208   0.664   1.715  14.135  0.2739 -0.7619 -0.1032
  481MPD2    C5 7209   0.609   1.795  14.036  0.3250  0.1982  0.4992
  481MPD2     H 7210   0.414   1.492  14.170  1.5839  0.2454  1.6556
  481MPD2    H1 7211   0.767   1.736  14.162  0.7716 -2.4672 -0.6905
  481MPD2    H2 7212   0.449   1.826  13.899  1.2790 -0.4482 -0.8032
  481MPD2    H3 7213   0.652   1.889  14.003 -0.4406 -0.7763 -3.2423
  481MPD2     N 7214   0.658   1.531  14.292 -0.9751 -0.5726 -0.5420
  481MPD2    H5 7215   0.755   1.553  14.312 -1.8323  1.2138  1.7134
  481MPD2    N1 7216   0.279   1.637  13.981 -0.2794  0.2064  0.1352
  481MPD2    H7 7217   0.246   1.702  13.911 -0.2889  3.0260  2.7647
  482TMC3    C1 7218   0.086   1.535  13.949 -0.0757  0.1228 -0.1914
  482TMC3    C2 7219   0.022   1.422  13.911  0.5140  0.0089  0.1815
  482TMC3    C3 7220   4.624   1.413  13.936  0.3448 -0.3747  0.4271
  482TMC3    C4 7221   0.018   1.644  13.992 -0.7016  0.1089 -0.7556
  482TMC3    C5 7222   4.623   1.637  14.008 -0.4816 -0.2423  0.1147
  482TMC3    C6 7223   4.554   1.522  13.981  0.0146 -0.2877  0.4194
  482TMC3     C 7224   0.218   1.515  13.991  0.5288 -0.5397 -0.4662
  482TMC3     O 7225   0.245   1.412  14.050 -0.6205 -0.0324 -0.0195
  482TMC3     H 7226   0.079   1.330  13.906  0.9023  0.3254 -1.1876
  482TMC3    H1 7227   0.061   1.731  14.040  1.5862 -2.6672  2.2619
  482TMC3    H2 7228   4.449   1.514  14.006 -0.0926  0.3941  0.1913
  482TMC3    C7 7229   4.552   1.762  13.996 -0.2072 -0.2919  0.4584
  482TMC3    C8 7230   4.562   1.286  13.908  0.5542 -0.9781  0.7938
  482TMC3    O1 7231   4.434   1.764  14.034 -0.1029 -0.0497  0.0314
  482TMC3    O2 7232   4.642   1.198  13.874 -0.1959  0.2865 -0.6132
  483TMC3    C1 7233   3.282   0.916   0.987  0.8098  0.3294 -0.0342
  483TMC3    C2 7234   3.335   1.021   0.916  0.2569  0.9983  0.3510
  483TMC3    C3 7235   3.467   1.052   0.938  0.7179  0.3664 -0.3752
  483TMC3    C4 7236   3.354   0.854   1.083  0.7020  0.0213 -1.0184
  483TMC3    C5 7237   3.481   0.897   1.110 -0.0461  0.0471  0.1514
  483TMC3    C6 7238   3.543   0.995   1.033 -0.7179  0.4092 -0.2125
  483TMC3     C 7239   3.142   0.882   0.958 -0.4675 -0.1350  0.3306
  483TMC3     O 7240   3.066   0.972   0.927  0.0676 -0.6948 -0.4307
  483TMC3     H 7241   3.276   1.072   0.841 -0.6508  0.8848  0.9829
  483TMC3    H1 7242   3.305   0.783   1.148  3.0054  0.0160  0.6884
  483TMC3    H2 7243   3.638   1.037   1.063 -0.6599  0.3540 -0.3197
  483TMC3    C7 7244   3.545   0.848   1.231  0.4644  0.2292  0.1113
  483TMC3    C8 7245   3.521   1.145   0.842  0.2392 -0.4265  0.2290
  483TMC3    O1 7246   3.472   0.792   1.313  0.4444 -0.1094 -0.4013
  483TMC3    O2 7247   3.457   1.155   0.739 -0.1094  0.1437 -0.9947
  484MPD2     C 7248   0.782   3.699  12.423  0.1509 -0.0085 -0.0168
  484MPD2    C1 7249   0.832   3.578  12.465  0.0397  0.1493 -0.1140
  484MPD2    C2 7250   0.966   3.549  12.434 -0.4236  0.1733 -0.6263
  484MPD2    C3 7251   1.044   3.636  12.360 -0.5618  0.5408  0.2886
  484MPD2    C4 7252   0.989   3.756  12.320  0.1896  0.1553  0.8633
  484MPD2    C5 7253   0.861   3.784  12.351  0.2178  0.9549 -0.8031
  484MPD2     H 7254   0.998   3.451  12.467 -0.4285 -0.1095 -1.4491
  484MPD2    H1 7255   1.045   3.834  12.269  0.1899  1.0357  2.2025
  484MPD2    H2 7256   0.685   3.743  12.442 -0.6073 -1.7956  0.2704
  484MPD2    H3 7257   0.822   3.878  12.315  2.2724  2.0141 -0.2796
  484MPD2     N 7258   1.182   3.617  12.331 -0.2266 -0.2872  0.2210
  484MPD2    H5 7259   1.232   3.698  12.297  1.0618 -1.0214  0.3728
  484MPD2    N1 7260   0.746   3.491  12.535 -0.0183  0.1150  0.5896
  484MPD2    H7 7261   0.650   3.524  12.538 -0.0160  0.2736 -1.3007
  485TMC3    C1 7262   1.390   3.529  12.391  0.4497  0.5240  0.0929
  485TMC3    C2 7263   1.441   3.492  12.512  0.3592 -0.3118  0.1467
  485TMC3    C3 7264   1.559   3.555  12.553 -0.2736  0.5109  0.9291
  485TMC3    C4 7265   1.449   3.631  12.320 -0.6299 -0.4476  0.5146
  485TMC3    C5 7266   1.566   3.688  12.358  0.7026 -0.2004  0.3151
  485TMC3    C6 7267   1.615   3.660  12.481  0.1912 -0.1495 -0.6421
  485TMC3     C 7268   1.249   3.500  12.367  0.3513  0.4809  0.4876
  485TMC3     O 7269   1.209   3.385  12.395 -0.3776 -0.4094 -0.4626
  485TMC3     H 7270   1.398   3.404  12.558  0.1306  0.3984  1.2790
  485TMC3    H1 7271   1.410   3.665  12.224  0.4690 -0.6468 -0.0061
  485TMC3    H2 7272   1.708   3.712  12.502  0.3650 -1.5154  1.9346
  485TMC3    C7 7273   1.666   3.705  12.251 -0.1513  0.1747  0.8321
  485TMC3    C8 7274   1.660   3.446  12.564  0.4726  0.1711  0.2920
  485TMC3    O1 7275   1.622   3.740  12.142  0.0563  0.0153 -0.4252
  485TMC3    O2 7276   1.761   3.458  12.493  0.0830  0.5281  0.1503
  486MPD2     C 7277   3.272   1.757  13.196  0.1574 -0.3485  0.6076
  486MPD2    C1 7278   3.257   1.789  13.063 -0.1727  0.8307 -0.8674
  486MPD2    C2 7279   3.218   1.916  13.023  0.3210  0.2724 -0.6000
  486MPD2    C3 7280   3.184   2.010  13.121 -0.2033 -0.1828  0.5019
  486MPD2    C4 7281   3.206   1.982  13.252  0.1726 -0.1113 -0.2011
  486MPD2    C5 7282   3.250   1.855  13.285  0.0652  0.7736  0.4606
  486MPD2     H 7283   3.214   1.940  12.918 -4.4670  0.0612 -0.4630
  486MPD2    H1 7284   3.178   2.050  13.332  0.0463  0.5762 -0.8346
  486MPD2    H2 7285   3.307   1.659  13.227 -0.5741 -0.5005  0.9652
  486MPD2    H3 7286   3.257   1.848  13.393  0.0332  1.3546  0.5023
  486MPD2     N 7287   3.135   2.136  13.068 -0.2170 -0.0669 -0.5946
  486MPD2    H5 7288   3.159   2.150  12.970 -1.3081  0.3842 -0.7989
  486MPD2    N1 7289   3.283   1.685  12.973  0.2161  0.2120 -0.2918
  486MPD2    H7 7290   3.314   1.598  13.015 -0.6643  0.2936  0.5329
  487TMC3    C1 7291   3.306   1.562  12.781  0.2361  0.0223  0.1028
  487TMC3    C2 7292   3.210   1.510  12.702  0.2592  0.2980  0.1236
  487TMC3    C3 7293   3.188   1.374  12.699 -0.1288 -0.1123  0.5327
  487TMC3    C4 7294   3.376   1.477  12.859  0.2537 -0.6398 -0.4243
  487TMC3    C5 7295   3.344   1.346  12.868 -0.8137 -0.5428 -0.9574
  487TMC3    C6 7296   3.270   1.285  12.769  0.0395 -0.0243  0.2835
  487TMC3     C 7297   3.258   1.688  12.837 -0.1992  0.7882  0.2275
  487TMC3     O 7298   3.208   1.773  12.760 -0.5571 -0.0203  0.5282
  487TMC3     H 7299   3.148   1.570  12.637  2.1255  0.7344 -1.2666
  487TMC3    H1 7300   3.456   1.509  12.925 -0.0752 -0.8190  0.0604
  487TMC3    H2 7301   3.235   1.184  12.786 -2.1497  0.9637  1.6034
  487TMC3    C7 7302   3.292   1.330  13.000 -0.7859  0.6585 -0.1157
  487TMC3    C8 7303   3.050   1.350  12.742 -0.0198  0.5015  0.2097
  487TMC3    O1 7304   3.312   1.428  13.075 -0.6451  0.8764 -0.2687
  487TMC3    O2 7305   2.994   1.440  12.802 -0.1140  0.2646  0.2350
  488MPD2     C 7306   3.297   3.861  16.251  0.3763  0.1611  0.3194
  488MPD2    C1 7307   3.270   3.970  16.329  0.0114 -0.5771  0.3220
  488MPD2    C2 7308   3.217   3.955  16.453 -0.0180 -0.7180  0.0829
  488MPD2    C3 7309   3.201   3.824  16.507 -0.6053 -0.3609  0.4138
  488MPD2    C4 7310   3.233   3.714  16.426  0.4192  0.6706 -0.2158
  488MPD2    C5 7311   3.274   3.732  16.298  0.2469  0.5378 -0.1994
  488MPD2     H 7312   3.218   4.039  16.521  2.4294 -0.5853 -0.1148
  488MPD2    H1 7313   3.214   3.613  16.459  0.8538  0.5932 -0.1949
  488MPD2    H2 7314   3.343   3.869  16.153 -2.1613  1.7098 -0.7581
  488MPD2    H3 7315   3.298   3.644  16.239  0.7140  0.5840 -0.0778
  488MPD2     N 7316   3.179   3.803  16.639  0.9244  0.0682 -0.0807
  488MPD2    H5 7317   3.188   3.881  16.704  1.3856 -0.9447  1.0585
  488MPD2    N1 7318   3.303   4.096  16.295  0.2114 -0.5026 -0.8810
  488MPD2    H7 7319   3.306   4.161  16.373 -0.6837 -2.6817  0.9849
  489TMC3    C1 7320   3.144   3.689  16.837  0.7036  0.2928 -0.3384
  489TMC3    C2 7321   3.207   3.787  16.908  0.1967 -0.1224  0.6323
  489TMC3    C3 7322   3.172   3.814  17.038  0.2244  0.4296  0.3646
  489TMC3    C4 7323   3.053   3.604  16.894  0.3047  0.5698  0.6353
  489TMC3    C5 7324   3.023   3.628  17.029 -0.5462 -0.4536  0.3322
  489TMC3    C6 7325   3.073   3.738  17.099  0.7964 -0.3352  0.1819
  489TMC3     C 7326   3.139   3.688  16.688 -0.2109 -0.5461  0.0934
  489TMC3     O 7327   3.077   3.596  16.637 -0.3385 -0.5220 -0.0436
  489TMC3     H 7328   3.286   3.847  16.862 -0.9215  0.8035 -0.0740
  489TMC3    H1 7329   2.985   3.537  16.843 -0.2054  3.0811 -1.9925
  489TMC3    H2 7330   3.050   3.744  17.205  0.0315 -1.7920  0.0853
  489TMC3    C7 7331   2.933   3.546  17.105 -0.0809  0.4213  0.1570
  489TMC3    C8 7332   3.173   3.958  17.074  0.3947  0.7143 -0.7397
  489TMC3    O1 7333   2.891   3.584  17.215 -0.1070  0.1357  0.4073
  489TMC3    O2 7334   3.250   4.024  17.008  0.6833 -0.4057  0.2665
  490MPD2     C 7335   3.654   3.720  17.497 -0.9697  0.0377  0.0657
  490MPD2    C1 7336   3.705   3.620  17.414  0.0863  0.1819  0.0291
  490MPD2    C2 7337   3.826   3.648  17.351  0.1983 -0.3806 -0.0705
  490MPD2    C3 7338   3.904   3.763  17.370  0.1725 -0.7147 -0.6002
  490MPD2    C4 7339   3.848   3.857  17.449 -0.1522 -0.3598  0.2928
  490MPD2    C5 7340   3.731   3.833  17.509  0.1036 -0.1593  0.1944
  490MPD2     H 7341   3.856   3.575  17.275  3.6165 -0.6956  1.5488
  490MPD2    H1 7342   3.902   3.949  17.467 -0.3192 -0.9215  3.6773
  490MPD2    H2 7343   3.563   3.707  17.554 -2.8336 -1.0770 -3.1005
  490MPD2    H3 7344   3.690   3.913  17.569  1.0673  1.2177 -0.9826
  490MPD2     N 7345   4.030   3.792  17.309 -0.2025 -0.2778 -0.0446
  490MPD2    H5 7346   4.073   3.882  17.326  1.7919 -0.7928 -2.2294
  490MPD2    N1 7347   3.634   3.496  17.391 -0.2215 -0.3425  0.1735
  490MPD2    H7 7348   3.673   3.439  17.318 -1.3031  1.7585 -2.0614
  491TMC3    C1 7349   3.521   3.301  17.430 -0.5777 -0.2597 -0.7701
  491TMC3    C2 7350   3.507   3.219  17.531  0.0859  0.4616 -0.1461
  491TMC3    C3 7351   3.517   3.085  17.502 -0.3411  0.3174 -0.1504
  491TMC3    C4 7352   3.534   3.264  17.299  0.1869  0.3753  0.1191
  491TMC3    C5 7353   3.539   3.133  17.271  0.2400  0.1795 -0.1722
  491TMC3    C6 7354   3.516   3.043  17.371  0.5457 -0.5798  1.0084
  491TMC3     C 7355   3.537   3.438  17.469  0.3710  0.2487 -0.0610
  491TMC3     O 7356   3.495   3.473  17.576 -0.4531 -0.1872 -0.1191
  491TMC3     H 7357   3.501   3.256  17.633 -0.6734 -0.8800  0.2909
  491TMC3    H1 7358   3.531   3.334  17.217  1.3394  1.2953  0.8660
  491TMC3    H2 7359   3.510   2.936  17.356 -0.2568 -0.2542 -0.9513
  491TMC3    C7 7360   3.548   3.089  17.136  1.2199  0.6558 -0.8717
  491TMC3    C8 7361   3.565   3.003  17.615 -0.2352 -0.2629 -0.4783
  491TMC3    O1 7362   3.489   2.980  17.109  0.0361  0.2502 -0.0163
  491TMC3    O2 7363   3.529   3.028  17.727 -0.1727 -0.5332 -0.0616
  492MPD2     C 7364   4.524   3.495  11.868  0.0128  0.3857 -0.0232
  492MPD2    C1 7365   4.478   3.465  11.744 -0.4551  0.0968 -0.1991
  492MPD2    C2 7366   4.402   3.348  11.736 -0.0564 -0.1691  0.4492
  492MPD2    C3 7367   4.353   3.282  11.854 -0.3212 -0.1241 -0.2611
  492MPD2    C4 7368   4.399   3.326  11.977  0.0046  0.9766 -0.3078
  492MPD2    C5 7369   4.485   3.430  11.983 -0.5894  0.4031 -0.2966
  492MPD2     H 7370   4.379   3.306  11.638 -0.2116  0.0527  0.3907
  492MPD2    H1 7371   4.363   3.269  12.062  1.1953 -0.4964 -0.7768
  492MPD2    H2 7372   4.588   3.583  11.877  0.5381 -0.0242  0.2797
  492MPD2    H3 7373   4.524   3.468  12.077 -0.9648 -2.7416  1.1222
  492MPD2     N 7374   4.262   3.176  11.852 -0.7448  0.0023  0.1666
  492MPD2    H5 7375   4.240   3.129  11.940  1.7525 -0.4912  0.5265
  492MPD2    N1 7376   4.511   3.549  11.633  0.8316 -0.4231  0.9150
  492MPD2    H7 7377   4.579   3.623  11.643  2.0398 -1.2966 -0.7427
  493TMC3    C1 7378   4.528   3.606  11.407 -0.3208  0.3238 -0.1503
  493TMC3    C2 7379   4.577   3.732  11.431  0.0993 -0.8699  0.8264
  493TMC3    C3 7380   4.602   3.817  11.326  0.4255 -0.2084 -0.8873
  493TMC3    C4 7381   4.499   3.576  11.279 -0.4562  0.2329  0.3014
  493TMC3    C5 7382   4.514   3.668  11.177 -0.3608 -0.1560  0.0475
  493TMC3    C6 7383   4.571   3.793  11.198  0.7680 -0.4724  0.2374
  493TMC3     C 7384   4.464   3.527  11.505  0.4713  0.6068  0.0048
  493TMC3     O 7385   4.372   3.462  11.455 -0.0733 -0.4354 -0.7519
  493TMC3     H 7386   4.595   3.776  11.529  1.4346 -1.0978  0.6876
  493TMC3    H1 7387   4.447   3.482  11.260  0.2045 -0.1600  0.4499
  493TMC3    H2 7388   4.577   3.861  11.113 -2.0600 -0.7708 -0.1925
  493TMC3    C7 7389   4.429   3.636  11.065  0.0081  0.5079 -0.0757
  493TMC3    C8 7390   4.651   3.958  11.354 -0.1316  0.7145  0.1151
  493TMC3    O1 7391   4.347   3.547  11.071  0.0076  0.1177  0.1349
  493TMC3    O2 7392   4.660   4.000  11.471 -0.4650  0.9114  0.0264
  494TMC3    C1 7393   0.307   0.833   0.512  0.2618  0.5790  0.2057
  494TMC3    C2 7394   0.294   0.696   0.502 -0.6402 -0.1218  0.1427
  494TMC3    C3 7395   0.337   0.628   0.398  0.5569 -0.2725 -0.5803
  494TMC3    C4 7396   0.373   0.910   0.410  0.2134  0.5337 -0.6189
  494TMC3    C5 7397   0.413   0.831   0.304  0.5062  0.3273 -0.5806
  494TMC3    C6 7398   0.405   0.692   0.299  0.8525  0.7642  0.7012
  494TMC3     C 7399   0.326   0.872   0.652  0.0041 -0.6127 -0.5773
  494TMC3     O 7400   0.259   0.804   0.725 -0.0418 -0.2783 -0.0912
  494TMC3     H 7401   0.248   0.645   0.585  0.8583 -1.8490 -0.0816
  494TMC3    H1 7402   0.390   1.016   0.428  2.7727 -0.1082  0.7165
  494TMC3    H2 7403   0.442   0.646   0.208 -0.1202  0.7410  0.3238
  494TMC3    C7 7404   0.472   0.894   0.189 -0.7065  0.5743  0.1033
  494TMC3    C8 7405   0.363   0.483   0.414  0.2582 -0.6594 -0.9513
  494TMC3    O1 7406   0.534   0.821   0.114  0.5852  0.2611  0.1979
  494TMC3    O2 7407   0.400   0.452   0.526 -0.7137  0.2999  0.2864
  495TMC3    C1 7408   3.810   2.309  14.244  0.6568  0.6429 -0.2442
  495TMC3    C2 7409   3.734   2.269  14.138 -0.2341  0.5141  0.2701
  495TMC3    C3 7410   3.621   2.337  14.106  0.2614 -0.1080 -0.0700
  495TMC3    C4 7411   3.784   2.419  14.318 -0.4940 -0.0190  0.0718
  495TMC3    C5 7412   3.672   2.485  14.284  0.4224 -0.1790  0.0500
  495TMC3    C6 7413   3.588   2.448  14.182  0.3621 -0.3799 -0.2820
  495TMC3     C 7414   3.868   2.205  14.320  0.5238 -0.5488 -0.5050
  495TMC3     O 7415   3.966   2.234  14.388 -0.1160 -0.1605 -0.2715
  495TMC3     H 7416   3.773   2.181  14.088  1.0328  0.5626  1.1688
  495TMC3    H1 7417   3.854   2.438  14.398 -1.1591  2.4614  0.0702
  495TMC3    H2 7418   3.507   2.513  14.152  0.5698 -0.0417 -0.1067
  495TMC3    C7 7419   3.611   2.574  14.384 -0.4242 -0.1400 -0.6396
  495TMC3    C8 7420   3.507   2.249  14.130  0.0149 -0.2542  0.1494
  495TMC3    O1 7421   3.688   2.640  14.452  0.3432  0.5107  0.0797
  495TMC3    O2 7422   3.420   2.299  14.196 -0.6019  0.1611  0.1175
  496MPD2     C 7423   0.665   2.654  14.858  0.4341 -0.2052  0.0419
  496MPD2    C1 7424   0.702   2.594  14.974 -0.4039  0.1998 -0.7584
  496MPD2    C2 7425   0.600   2.584  15.077 -0.1867  0.0483  0.8839
  496MPD2    C3 7426   0.483   2.650  15.073  0.7994 -0.4560 -0.0652
  496MPD2    C4 7427   0.447   2.715  14.959 -0.0766 -0.0239 -0.3941
  496MPD2    C5 7428   0.537   2.711  14.850 -0.1107  0.1612 -0.2332
  496MPD2     H 7429   0.623   2.515  15.158 -0.2182 -0.7512  0.2204
  496MPD2    H1 7430   0.348   2.756  14.950  0.5568  1.5455 -0.2293
  496MPD2    H2 7431   0.733   2.644  14.775 -1.1258  1.1645 -1.4095
  496MPD2    H3 7432   0.512   2.756  14.755  2.0792  0.7830 -0.5127
  496MPD2     N 7433   0.381   2.640  15.173  0.7308  0.6289 -0.2295
  496MPD2    H5 7434   0.295   2.693  15.158  0.4820  1.2284  3.0934
  496MPD2    N1 7435   0.822   2.526  14.980  0.0922 -0.0620  0.0097
  496MPD2    H7 7436   0.876   2.525  14.893  1.1382  1.1101  0.6434
  497TMC3    C1 7437   0.291   2.598  15.378  0.5320 -0.5401 -0.5870
  497TMC3    C2 7438   0.173   2.574  15.324  0.0992 -0.5674 -0.6904
  497TMC3    C3 7439   0.075   2.540  15.419  0.3214 -1.2888  0.2131
  497TMC3    C4 7440   0.314   2.591  15.511 -0.4172 -0.0171  1.0892
  497TMC3    C5 7441   0.219   2.569  15.602  0.1084  0.9398 -0.1264
  497TMC3    C6 7442   0.092   2.543  15.553  0.0121 -0.0856 -0.2682
  497TMC3     C 7443   0.414   2.595  15.300 -0.0165  1.2425  0.1559
  497TMC3     O 7444   0.522   2.589  15.353 -0.0229 -0.4132  0.8484
  497TMC3     H 7445   0.153   2.576  15.217 -1.4986  1.2454 -0.3419
  497TMC3    H1 7446   0.417   2.599  15.542 -0.4521  2.0008  0.7217
  497TMC3    H2 7447   0.016   2.509  15.622 -0.5647 -0.0339 -0.8816
  497TMC3    C7 7448   0.250   2.504  15.730  0.2346  0.0218  0.2586
  497TMC3    C8 7449   4.699   2.457  15.358 -0.2153 -0.1142 -0.2901
  497TMC3    O1 7450   0.146   2.451  15.772  0.2873  0.3854 -0.2504
  497TMC3    O2 7451   4.714   2.417  15.242 -0.0928  0.1211 -0.1296
  498MPD2     C 7452   1.676   3.580  10.279 -0.3246 -0.0324 -0.0811
  498MPD2    C1 7453   1.746   3.460  10.289 -0.1324 -0.0316 -0.7613
  498MPD2    C2 7454   1.672   3.353  10.324  0.5886 -0.5076  0.5152
  498MPD2    C3 7455   1.535   3.357  10.352 -0.0152  0.4503 -0.5902
  498MPD2    C4 7456   1.468   3.477  10.346 -0.7119  0.2927 -0.2357
  498MPD2    C5 7457   1.540   3.582  10.299 -0.5536 -0.4044  0.1089
  498MPD2     H 7458   1.721   3.257  10.313  1.4323 -0.1766  1.4548
  498MPD2    H1 7459   1.363   3.479  10.369 -0.3270  1.6824  1.4032
  498MPD2    H2 7460   1.717   3.675  10.248  1.3513 -0.3754  1.1149
  498MPD2    H3 7461   1.496   3.679  10.319  1.1578  0.4613 -0.3063
  498MPD2     N 7462   1.469   3.231  10.375  0.7515  0.5390  0.0948
  498MPD2    H5 7463   1.522   3.146  10.390 -0.8499 -0.6876 -1.2228
  498MPD2    N1 7464   1.870   3.461  10.229 -0.0726 -0.0683 -0.3448
  498MPD2    H7 7465   1.891   3.553  10.192  0.3422 -0.0333 -0.0191
  499TMC3    C1 7466   2.090   3.405  10.156  0.3527 -0.0402  0.2679
  499TMC3    C2 7467   2.210   3.357  10.193  0.8034 -0.1640  0.0304
  499TMC3    C3 7468   2.320   3.396  10.123  0.2971 -0.0011  0.3189
  499TMC3    C4 7469   2.079   3.487  10.046 -0.3378  0.3613  0.2914
  499TMC3    C5 7470   2.193   3.520   9.975 -0.7319  0.3588  0.3224
  499TMC3    C6 7471   2.315   3.481  10.016  0.1843 -0.5572  0.5084
  499TMC3     C 7472   1.967   3.367  10.232  0.8359  0.1114 -0.2329
  499TMC3     O 7473   1.979   3.274  10.312 -0.1972 -0.0571 -0.7092
  499TMC3     H 7474   2.220   3.297  10.283 -0.6331  0.4647  0.6102
  499TMC3    H1 7475   1.983   3.525  10.015 -0.3463 -1.1597 -1.5866
  499TMC3    H2 7476   2.404   3.502   9.957 -0.4243  0.6900  0.0479
  499TMC3    C7 7477   2.194   3.620   9.869 -0.5322  0.4979  0.0627
  499TMC3    C8 7478   2.444   3.367  10.177 -0.1509 -0.3290 -0.1684
  499TMC3    O1 7479   2.306   3.670   9.835 -0.2072  0.4709 -0.0220
  499TMC3    O2 7480   2.537   3.371  10.095 -1.1300 -0.5956 -0.1898
  500MPD2     C 7481   2.824   4.017  11.107  0.1657  0.2579  0.7287
  500MPD2    C1 7482   2.918   4.087  11.026  0.4623 -0.2058  0.4699
  500MPD2    C2 7483   2.906   4.087  10.886  0.0457 -0.6681 -1.0003
  500MPD2    C3 7484   2.788   4.029  10.832  0.2788  0.4854  0.1967
  500MPD2    C4 7485   2.701   3.965  10.918 -0.1724  0.3099 -0.2550
  500MPD2    C5 7486   2.719   3.953  11.053 -0.7560 -0.7822  0.0012
  500MPD2     H 7487   2.980   4.140  10.826 -0.0910 -2.8052 -3.0689
  500MPD2    H1 7488   2.610   3.917  10.884  0.3386  0.9566 -2.4970
  500MPD2    H2 7489   2.827   4.014  11.215 -2.2728  0.9226  0.7991
  500MPD2    H3 7490   2.648   3.905  11.120 -0.8244 -0.4452  0.1710
  500MPD2     N 7491   2.754   4.024  10.697  0.8923  0.5266  0.4287
  500MPD2    H5 7492   2.657   4.000  10.681  0.8985  0.5450  0.3590
  500MPD2    N1 7493   3.027   4.165  11.078 -0.2069 -0.3435 -0.2845
  500MPD2    H7 7494   3.086   4.216  11.013 -1.1077  1.6325  0.4697
  501TMC3    C1 7495   3.186   4.264  11.223  0.8255  0.7699 -0.0580
  501TMC3    C2 7496   3.221   4.356  11.133 -0.5846 -0.1848 -0.3757
  501TMC3    C3 7497   3.334   4.427  11.153 -0.0198 -0.2312  1.0506
  501TMC3    C4 7498   3.254   4.253  11.348 -0.3056  0.0045  0.1025
  501TMC3    C5 7499   3.376   4.317  11.359  0.8185 -0.7260  0.3448
  501TMC3    C6 7500   3.411   4.405  11.262 -0.0374 -0.5006 -0.2484
  501TMC3     C 7501   3.065   4.181  11.211  0.7909 -0.1201 -0.4123
  501TMC3     O 7502   3.013   4.129  11.309  0.1559 -0.0770 -0.2449
  501TMC3     H 7503   3.155   4.383  11.051 -1.1401  2.2440  0.8767
  501TMC3    H1 7504   3.233   4.162  11.402 -0.7480 -0.1666 -0.3540
  501TMC3    H2 7505   3.512   4.442  11.251 -0.3866  0.2509 -0.9178
  501TMC3    C7 7506   3.486   4.302  11.456  0.3090 -0.4760 -0.7269
  501TMC3    C8 7507   3.377   4.522  11.056  0.0710 -0.9409 -0.6695
  501TMC3    O1 7508   3.595   4.347  11.424  0.1814 -0.7776 -0.1474
  501TMC3    O2 7509   3.497   4.545  11.051 -0.0336  0.3293  0.1342
  502TMC3    C1 7510   3.218   2.934  14.738  0.6858 -0.3442 -0.9449
  502TMC3    C2 7511   3.187   3.050  14.671 -0.0502  0.4215 -0.3887
  502TMC3    C3 7512   3.097   3.136  14.736  0.1562 -1.2627  0.1777
  502TMC3    C4 7513   3.135   2.890  14.839 -0.4534 -0.5229  0.0378
  502TMC3    C5 7514   3.042   2.970  14.896  0.1482  0.0284  0.6809
  502TMC3    C6 7515   3.011   3.098  14.835  0.4039  0.5828  0.3072
  502TMC3     C 7516   3.350   2.944  14.782 -0.4201  0.2799  0.0401
  502TMC3     O 7517   3.428   2.978  14.699  0.3959 -0.4018 -0.2312
  502TMC3     H 7518   3.239   3.091  14.585 -0.4028  0.7134 -0.4618
  502TMC3    H1 7519   3.171   2.803  14.891  0.2114  0.0003  0.4581
  502TMC3    H2 7520   2.933   3.162  14.872 -0.4013  0.1478 -0.6365
  502TMC3    C7 7521   2.990   2.938  15.027  0.8900 -0.4341 -0.4008
  502TMC3    C8 7522   3.137   3.277  14.754  0.3430  0.4437 -0.1608
  502TMC3    O1 7523   3.048   2.848  15.088 -0.3179  0.0570  0.1855
  502TMC3    O2 7524   3.062   3.357  14.806 -0.0396  0.3426  0.1971
  503MPD2     C 7525   0.842   0.082  16.632 -0.0244 -0.1393  0.0120
  503MPD2    C1 7526   0.824   0.030  16.764  0.0810 -0.1143 -0.2236
  503MPD2    C2 7527   0.848   4.631  16.797 -0.7641  0.0225  0.2850
  503MPD2    C3 7528   0.884   4.548  16.704 -0.9130  0.1641  0.8940
  503MPD2    C4 7529   0.900   4.591  16.576  0.8466  0.3213 -0.3056
  503MPD2    C5 7530   0.884   4.726  16.542  0.6056 -0.4364 -0.4665
  503MPD2     H 7531   0.833   4.587  16.895  1.5184 -1.0040  0.1690
  503MPD2    H1 7532   0.938   4.527  16.496 -0.4556  1.2449 -1.6490
  503MPD2    H2 7533   0.827   0.184  16.598 -0.7278 -0.4126 -0.4979
  503MPD2    H3 7534   0.904   0.014  16.439  1.6223 -0.3002 -0.2421
  503MPD2     N 7535   0.892   4.411  16.742 -0.3464 -0.1125  0.0012
  503MPD2    H5 7536   0.873   4.401  16.841  0.7104 -0.0064  0.2140
  503MPD2    N1 7537   0.781   0.114  16.869 -0.8453 -0.1884 -0.0299
  503MPD2    H7 7538   0.801   0.089  16.965  1.0464 -1.1044 -0.6556
  504TMC3    C1 7539   0.917   4.189  16.758 -1.2964  0.2186  0.3974
  504TMC3    C2 7540   0.878   4.210  16.888  0.6943 -0.0498  0.5573
  504TMC3    C3 7541   0.960   4.174  16.991 -0.7650 -0.3793  0.4616
  504TMC3    C4 7542   1.040   4.126  16.731  0.4640 -0.2014 -0.5089
  504TMC3    C5 7543   1.112   4.085  16.836  0.2884 -0.1746  0.3832
  504TMC3    C6 7544   1.078   4.103  16.963  0.8659  0.3322 -0.0048
  504TMC3     C 7545   0.903   4.297  16.665  0.0214 -0.3953 -0.2739
  504TMC3     O 7546   0.918   4.275  16.546  0.0794 -0.4411 -0.0922
  504TMC3     H 7547   0.784   4.261  16.904 -0.1328 -0.7818 -1.9667
  504TMC3    H1 7548   1.077   4.100  16.632  1.9212  0.9583 -0.2602
  504TMC3    H2 7549   1.138   4.071  17.048 -1.4732  0.4764  1.7023
  504TMC3    C7 7550   1.229   4.000  16.803 -0.1404  0.1173 -0.4633
  504TMC3    C8 7551   0.970   4.267  17.100 -0.7192 -0.0811 -0.2931
  504TMC3    O1 7552   1.244   3.969  16.687 -0.2674  0.4269  0.0652
  504TMC3    O2 7553   0.921   4.377  17.082 -0.2513  0.0671 -0.1488
  505MPD2     C 7554   0.699   2.304  11.294  0.1925 -0.1230  0.3783
  505MPD2    C1 7555   0.776   2.237  11.197 -0.3308  0.7668 -0.2344
  505MPD2    C2 7556   0.915   2.236  11.224  0.0054  0.3852  0.5469
  505MPD2    C3 7557   0.976   2.316  11.317 -0.4168  0.1247 -0.0789
  505MPD2    C4 7558   0.895   2.388  11.400 -0.4077 -0.2487  0.6470
  505MPD2    C5 7559   0.761   2.376  11.397 -0.0197  1.1722  0.1029
  505MPD2     H 7560   0.980   2.171  11.166 -0.1072  1.1237 -0.4117
  505MPD2    H1 7561   0.942   2.453  11.472  0.9183  2.2651 -2.4631
  505MPD2    H2 7562   0.592   2.291  11.293  0.2283 -0.2744 -1.0219
  505MPD2    H3 7563   0.701   2.430  11.469  0.6598 -0.8831  2.1889
  505MPD2     N 7564   1.119   2.308  11.323  0.6143 -0.1682 -0.5877
  505MPD2    H5 7565   1.164   2.232  11.273  1.3524 -0.5054  0.5915
  505MPD2    N1 7566   0.712   2.169  11.084 -0.4289 -0.5064 -0.1168
  505MPD2    H7 7567   0.610   2.168  11.080 -0.4486  0.2002  0.3208
  506TMC3    C1 7568   0.698   2.052  10.879 -0.7502  0.1138 -0.5251
  506TMC3    C2 7569   0.645   2.156  10.813  0.1614  0.0704  0.0328
  506TMC3    C3 7570   0.668   2.168  10.680 -0.2651 -0.4995  0.4376
  506TMC3    C4 7571   0.772   1.962  10.807 -0.1331 -0.7715  0.6165
  506TMC3    C5 7572   0.808   1.990  10.675 -0.6355  0.4947  0.6830
  506TMC3    C6 7573   0.748   2.092  10.610  0.1093 -0.2793 -0.2070
  506TMC3     C 7574   0.783   2.096  10.984 -0.3835  0.1372 -0.9099
  506TMC3     O 7575   0.907   2.082  10.967 -0.2476 -0.3486  0.1990
  506TMC3     H 7576   0.602   2.245  10.857 -3.3548 -2.7958  2.3893
  506TMC3    H1 7577   0.831   1.882  10.851 -2.0377 -2.0477  0.8984
  506TMC3    H2 7578   0.774   2.101  10.505 -1.3137  0.3116 -0.5143
  506TMC3    C7 7579   0.945   1.967  10.636 -0.1610 -0.2717  0.9343
  506TMC3    C8 7580   0.610   2.294  10.625 -0.0918  0.4215 -0.4045
  506TMC3    O1 7581   0.987   1.959  10.521  0.3667  0.4221 -0.7519
  506TMC3    O2 7582   0.505   2.335  10.663 -0.3011  0.0265 -0.3671
  507TMC3    C1 7583   1.396   3.202  14.865  0.0441  0.2721 -0.5706
  507TMC3    C2 7584   1.365   3.114  14.764  0.1349  0.1239 -0.2037
  507TMC3    C3 7585   1.427   3.132  14.641  0.3916 -0.2027  0.3491
  507TMC3    C4 7586   1.474   3.317  14.846  0.3584  0.1173  0.7603
  507TMC3    C5 7587   1.521   3.341  14.718  0.0973 -0.6700  0.6472
  507TMC3    C6 7588   1.504   3.246  14.619  0.3586  1.0278  0.0784
  507TMC3     C 7589   1.354   3.191  15.005 -0.7299  0.1751  0.0377
  507TMC3     O 7590   1.417   3.245  15.096  0.3098  0.6069 -0.0788
  507TMC3     H 7591   1.324   3.016  14.784  0.1898  0.1798  0.1767
  507TMC3    H1 7592   1.515   3.369  14.931  3.5075 -0.7216 -0.2563
  507TMC3    H2 7593   1.531   3.281  14.520 -0.3979  3.6094  0.7966
  507TMC3    C7 7594   1.452   3.460  14.687  0.2557 -0.0206  0.1427
  507TMC3    C8 7595   1.340   3.106  14.525 -0.0833 -0.2395 -0.3436
  507TMC3    O1 7596   1.346   3.439  14.631 -0.2572  0.3274 -0.8558
  507TMC3    O2 7597   1.316   2.988  14.495  0.3685  0.4026 -0.4131
  508MPD2     C 7598   2.845   1.025  15.778  0.1719 -0.6575 -0.8103
  508MPD2    C1 7599   2.793   1.151  15.793 -0.0182 -0.0315 -0.4517
  508MPD2    C2 7600   2.775   1.226  15.683 -0.1184  0.3749  0.0479
  508MPD2    C3 7601   2.793   1.175  15.560 -0.1516  0.6165 -0.0809
  508MPD2    C4 7602   2.852   1.054  15.539 -0.4283  0.0326  0.0322
  508MPD2    C5 7603   2.884   0.983  15.648 -0.0012 -0.2299 -0.1388
  508MPD2     H 7604   2.753   1.331  15.693 -2.7321 -0.3176  1.5989
  508MPD2    H1 7605   2.867   0.998  15.448  1.1076  1.7684 -0.7717
  508MPD2    H2 7606   2.860   0.958  15.861 -0.3593  2.3046  1.6933
  508MPD2    H3 7607   2.921   0.882  15.636 -1.4162 -0.6093 -1.3742
  508MPD2     N 7608   2.764   1.257  15.449  0.3084  0.2081 -0.1085
  508MPD2    H5 7609   2.724   1.349  15.465 -1.5031 -0.6645  0.3920
  508MPD2    N1 7610   2.765   1.201  15.919  0.0153 -0.5649 -0.0265
  508MPD2    H7 7611   2.776   1.131  15.992  0.0036  0.1660  0.6689
  509TMC3    C1 7612   2.648   1.531  15.195  1.0530  0.0076  0.4393
  509TMC3    C2 7613   2.758   1.608  15.176  0.2248 -0.3570 -0.2992
  509TMC3    C3 7614   2.882   1.545  15.196  0.3827 -0.4089 -0.1916
  509TMC3    C4 7615   2.649   1.397  15.217  0.5472  0.3845  0.1878
  509TMC3    C5 7616   2.773   1.342  15.236 -0.2038  0.0146  1.2627
  509TMC3    C6 7617   2.893   1.413  15.228  0.2884 -0.9322 -0.3033
  509TMC3     C 7618   2.514   1.587  15.182 -0.0825  0.3692  0.8542
  509TMC3     O 7619   2.426   1.517  15.135 -0.8687  0.1730  0.4530
  509TMC3     H 7620   2.765   1.714  15.154  0.9262 -0.6373 -1.4705
  509TMC3    H1 7621   2.561   1.343  15.250  1.0124 -1.1017 -1.0252
  509TMC3    H2 7622   2.989   1.362  15.221  1.3922  1.0608  0.2606
  509TMC3    C7 7623   2.774   1.220  15.317  0.2777 -0.0531 -0.6771
  509TMC3    C8 7624   3.014   1.621  15.193 -0.2990  0.3174  0.0766
  509TMC3    O1 7625   2.791   1.116  15.254  0.2882 -0.2708 -0.1428
  509TMC3    O2 7626   3.116   1.558  15.180  0.1672  0.6256 -0.4833
  510MPD2     C 7627   0.128   2.854  14.565 -0.0290  0.7695  0.2166
  510MPD2    C1 7628   0.163   2.734  14.632 -0.2176  0.2097  0.5944
  510MPD2    C2 7629   0.287   2.683  14.604  0.4690 -0.4069 -0.5602
  510MPD2    C3 7630   0.373   2.752  14.521  0.3172 -0.1612 -0.9964
  510MPD2    C4 7631   0.331   2.873  14.472  0.1020  0.3342  0.5984
  510MPD2    C5 7632   0.203   2.916  14.480 -0.4763 -0.1673 -0.2446
  510MPD2     H 7633   0.326   2.593  14.651 -2.5305 -1.7154 -0.5855
  510MPD2    H1 7634   0.397   2.933  14.411 -0.4848 -1.1859 -1.5470
  510MPD2    H2 7635   0.026   2.890  14.562 -0.6508 -0.8325  1.8629
  510MPD2    H3 7636   0.162   3.002  14.429  0.4879 -0.1273 -0.9660
  510MPD2     N 7637   0.501   2.694  14.490 -0.7882  0.5575 -0.2676
  510MPD2    H5 7638   0.508   2.605  14.536  1.5499  1.6344  1.4244
  510MPD2    N1 7639   0.080   2.662  14.728 -0.1771  0.4062  1.1143
  510MPD2    H7 7640   0.100   2.568  14.762 -0.6830 -0.0435  0.1800
  511TMC3    C1 7641   4.627   2.625  14.860  0.4126 -0.2264 -0.1187
  511TMC3    C2 7642   4.551   2.685  14.957  0.0693  0.7166 -0.1743
  511TMC3    C3 7643   4.478   2.604  15.044  0.5276  0.6393 -0.1551
  511TMC3    C4 7644   4.627   2.491  14.839 -0.3428  0.0100 -0.2646
  511TMC3    C5 7645   4.555   2.412  14.938  0.2387 -0.2736 -0.4351
  511TMC3    C6 7646   4.475   2.468  15.035 -0.2036 -0.2391 -0.4836
  511TMC3     C 7647   4.705   2.716  14.783  0.5501 -0.2190 -0.4472
  511TMC3     O 7648   4.676   2.835  14.782  0.0467  0.1845  0.1589
  511TMC3     H 7649   4.532   2.792  14.962 -3.5553  0.0599  0.1817
  511TMC3    H1 7650   4.681   2.443  14.759 -1.6636  1.6375 -2.1371
  511TMC3    H2 7651   4.430   2.402  15.108  0.6132 -0.7290 -0.4185
  511TMC3    C7 7652   4.550   2.270  14.927 -0.6909 -0.1936  0.2976
  511TMC3    C8 7653   4.407   2.670  15.159 -0.4657  0.3808 -0.5471
  511TMC3    O1 7654   4.488   2.220  15.020  0.0536 -0.1551 -0.6129
  511TMC3    O2 7655   4.447   2.781  15.189  0.3216  0.4182  0.8232
  512TMC3    C1 7656   3.479   2.254  13.127 -0.2991  0.1323 -0.1049
  512TMC3    C2 7657   3.528   2.203  13.247 -0.0871 -0.8334 -0.1720
  512TMC3    C3 7658   3.551   2.069  13.263 -0.2534 -0.4758 -0.4844
  512TMC3    C4 7659   3.471   2.178  13.021  0.0390  0.4658 -0.7590
  512TMC3    C5 7660   3.513   2.047  13.028  0.3412  0.7616  0.1531
  512TMC3    C6 7661   3.551   1.987  13.148  0.1103 -0.0499 -0.5011
  512TMC3     C 7662   3.515   2.391  13.093  0.2575  0.4247 -0.0523
  512TMC3     O 7663   3.576   2.416  12.988 -0.5043 -0.5404  0.4820
  512TMC3     H 7664   3.522   2.263  13.337  1.2357 -1.8499  0.5900
  512TMC3    H1 7665   3.426   2.212  12.928 -0.7712  0.4802 -0.3612
  512TMC3    H2 7666   3.591   1.886  13.153  2.7331  1.0134 -0.1662
  512TMC3    C7 7667   3.519   1.971  12.900 -0.4268  0.5486 -0.2441
  512TMC3    C8 7668   3.649   2.013  13.359  0.4308  0.3033 -0.4429
  512TMC3    O1 7669   3.466   2.023  12.802 -0.0645 -0.9378  0.3946
  512TMC3    O2 7670   3.660   1.892  13.368 -0.6718  0.1791 -0.3433
  513MPD2     C 7671   1.738   1.595  13.214  0.1253 -0.5365  0.0166
  513MPD2    C1 7672   1.817   1.697  13.257 -0.5301 -0.1837 -1.0497
  513MPD2    C2 7673   1.819   1.726  13.389 -0.0831  0.4720 -0.0799
  513MPD2    C3 7674   1.748   1.663  13.486 -0.2765  0.2725 -0.1439
  513MPD2    C4 7675   1.689   1.549  13.452  0.1673 -0.3796  0.4800
  513MPD2    C5 7676   1.682   1.523  13.314  0.6942  0.0704  0.9407
  513MPD2     H 7677   1.874   1.814  13.421 -1.3042  1.9237 -1.9755
  513MPD2    H1 7678   1.642   1.479  13.519 -1.7871  1.2964  0.8622
  513MPD2    H2 7679   1.734   1.560  13.112 -3.4474  1.5527 -0.5585
  513MPD2    H3 7680   1.621   1.439  13.283 -0.1923  0.6906  0.9941
  513MPD2     N 7681   1.751   1.719  13.615 -0.1731 -0.2182  0.0760
  513MPD2    H5 7682   1.781   1.815  13.630 -0.1177 -0.3193  0.6011
  513MPD2    N1 7683   1.880   1.786  13.163  0.0146  0.4112 -0.2376
  513MPD2    H7 7684   1.927   1.863  13.210  0.1681  0.3882 -0.3547
  514TMC3    C1 7685   1.978   1.886  12.985  0.6020 -0.2857  0.3086
  514TMC3    C2 7686   1.920   1.998  12.934 -0.4583 -0.0495 -0.1142
  514TMC3    C3 7687   1.943   2.122  12.986  0.0991 -0.4529  0.0246
  514TMC3    C4 7688   2.083   1.909  13.079 -0.1976  0.5050 -0.4694
  514TMC3    C5 7689   2.098   2.032  13.144  0.7874  0.1707 -0.1731
  514TMC3    C6 7690   2.018   2.137  13.098 -0.6755  0.3228  0.2658
  514TMC3     C 7691   1.892   1.779  13.024 -0.8481 -0.0400 -0.2110
  514TMC3     O 7692   1.820   1.717  12.948 -0.6523 -0.5752 -0.4449
  514TMC3     H 7693   1.832   1.992  12.871  0.8044 -0.4734 -1.8222
  514TMC3    H1 7694   2.134   1.822  13.120  1.4512  1.9910  0.5957
  514TMC3    H2 7695   2.015   2.238  13.139 -0.0696  1.0089 -1.3874
  514TMC3    C7 7696   2.107   2.028  13.289  0.6378  0.0924  0.5116
  514TMC3    C8 7697   1.860   2.225  12.940  0.5382 -0.7796 -0.4343
  514TMC3    O1 7698   2.091   1.918  13.340  0.7197  0.1786  0.2372
  514TMC3    O2 7699   1.810   2.304  13.019 -0.5677 -0.9098 -0.0031
  515MPD2     C 7700   3.632   4.018  15.157 -0.4087 -0.1560 -0.0923
  515MPD2    C1 7701   3.761   4.011  15.109  0.8168  0.7119  0.5993
  515MPD2    C2 7702   3.869   4.065  15.172 -0.0101  0.0069 -0.1400
  515MPD2    C3 7703   3.847   4.122  15.295 -0.0316  0.1753  0.5309
  515MPD2    C4 7704   3.724   4.123  15.349 -0.0044 -0.3964 -0.0870
  515MPD2    C5 7705   3.621   4.076  15.277  0.2765  0.1713  0.2044
  515MPD2     H 7706   3.968   4.061  15.127 -0.5491  1.2918 -1.4382
  515MPD2    H1 7707   3.705   4.153  15.452  0.0001 -1.6084  0.2574
  515MPD2    H2 7708   3.546   3.968  15.115  0.5547  0.7326 -3.1165
  515MPD2    H3 7709   3.526   4.072  15.328 -1.0746  1.6217 -2.2320
  515MPD2     N 7710   3.951   4.182  15.371 -0.2154  0.5894  0.6612
  515MPD2    H5 7711   3.929   4.230  15.458 -1.8755  0.9541  0.0533
  515MPD2    N1 7712   3.778   3.939  14.986  0.2513 -0.1678  0.1116
  515MPD2    H7 7713   3.689   3.924  14.939 -0.0293 -0.0189  0.6022
  516TMC3    C1 7714   3.896   3.843  14.801 -0.0080  0.2056 -0.4263
  516TMC3    C2 7715   3.808   3.892  14.711  0.2665 -0.6694 -0.0111
  516TMC3    C3 7716   3.795   3.821  14.591 -0.2546 -0.1463 -0.3926
  516TMC3    C4 7717   3.974   3.730  14.782 -0.0406  0.2089  0.4395
  516TMC3    C5 7718   3.969   3.671  14.658 -0.4375 -0.0585  0.3237
  516TMC3    C6 7719   3.878   3.712  14.563  0.0215  0.2902  0.3018
  516TMC3     C 7720   3.901   3.896  14.930  0.2935  0.5536  0.4622
  516TMC3     O 7721   4.008   3.885  14.991  0.1608 -0.1177 -0.3227
  516TMC3     H 7722   3.765   3.991  14.724  0.9638 -0.4925  0.9388
  516TMC3    H1 7723   4.040   3.689  14.858  2.2113  0.8922 -1.1186
  516TMC3    H2 7724   3.869   3.655  14.471  1.2377 -0.1084  0.4279
  516TMC3    C7 7725   4.001   3.523  14.670 -0.2487  0.0913  0.5558
  516TMC3    C8 7726   3.701   3.869  14.488 -0.1799  0.1550 -0.0465
  516TMC3    O1 7727   4.093   3.494  14.745  0.5440 -0.2885 -0.2038
  516TMC3    O2 7728   3.592   3.911  14.522  0.3687 -0.2689  0.2582
  517MPD2     C 7729   3.223   0.902  17.620 -0.1078  0.0227 -0.3085
  517MPD2    C1 7730   3.354   0.871  17.653  0.3705 -0.1355  0.4509
  517MPD2    C2 7731   3.430   0.975  17.712  0.3822  0.1952 -0.1543
  517MPD2    C3 7732   3.376   1.103  17.731 -0.0134  0.0415 -0.8431
  517MPD2    C4 7733   3.242   1.121  17.694  0.0389 -0.3315 -0.6950
  517MPD2    C5 7734   3.167   1.024  17.633  0.3752  0.4618 -0.3504
  517MPD2     H 7735   3.533   0.961  17.743 -0.5998  1.7843  3.9314
  517MPD2    H1 7736   3.204   1.220  17.714  0.1412 -0.3577 -0.3535
  517MPD2    H2 7737   3.151   0.833  17.576 -0.3678  0.1206 -0.0332
  517MPD2    H3 7738   3.066   1.048  17.602 -0.1698 -1.3357  0.0491
  517MPD2     N 7739   3.459   1.212   0.018  0.4451  0.3761 -0.0233
  517MPD2    H5 7740   3.413   1.303   0.019  0.1042  0.1974  0.7948
  517MPD2    N1 7741   3.421   0.754  17.628  0.5520  0.3179  0.5270
  517MPD2    H7 7742   3.516   0.764  17.663  0.5319 -0.5410  0.8133
  518TMC3    C1 7743   3.499   0.557  17.524 -0.2281  0.0047 -0.0032
  518TMC3    C2 7744   3.462   0.434  17.488 -0.0010 -0.5799 -0.5341
  518TMC3    C3 7745   3.562   0.343  17.466 -0.3727 -1.1195  0.0284
  518TMC3    C4 7746   3.631   0.598  17.544 -0.3792  0.1407 -0.1318
  518TMC3    C5 7747   3.728   0.503  17.519  0.6841 -0.3303 -0.0311
  518TMC3    C6 7748   3.698   0.379  17.489 -0.2367  0.1945 -0.6034
  518TMC3     C 7749   3.393   0.652  17.544 -1.1238 -0.1982  0.2804
  518TMC3     O 7750   3.285   0.630  17.490 -0.5576  0.0215 -0.4272
  518TMC3     H 7751   3.355   0.417  17.476 -0.1181 -2.1547  2.6828
  518TMC3    H1 7752   3.662   0.700  17.563 -0.0854  0.0734 -0.2366
  518TMC3    H2 7753   3.779   0.308  17.484  0.9292  1.5466 -0.9995
  518TMC3    C7 7754   3.857   0.551  17.517 -0.2546 -0.8736 -0.3467
  518TMC3    C8 7755   3.547   0.205  17.426  0.0949 -0.4236 -0.4699
  518TMC3    O1 7756   3.895   0.636  17.598  0.3530 -0.2225  0.1789
  518TMC3    O2 7757   3.640   0.133  17.443 -1.1838  0.1097  0.1418
  519MPD2     C 7758   0.482   3.771  14.172 -0.7146  0.1799 -0.0649
  519MPD2    C1 7759   0.503   3.717  14.050 -0.5845  0.3274 -0.0569
  519MPD2    C2 7760   0.560   3.590  14.043  0.2129 -0.0512  0.6371
  519MPD2    C3 7761   0.594   3.520  14.154 -0.7864  0.2335 -0.8317
  519MPD2    C4 7762   0.580   3.581  14.276  0.5673  0.1832  0.1621
  519MPD2    C5 7763   0.519   3.703  14.286  0.4688  0.0279 -0.0120
  519MPD2     H 7764   0.573   3.535  13.951 -0.7629 -3.5850  2.6061
  519MPD2    H1 7765   0.609   3.526  14.365 -1.3457  0.9274  1.2639
  519MPD2    H2 7766   0.433   3.867  14.182  0.7321  0.9755 -0.4854
  519MPD2    H3 7767   0.500   3.745  14.384 -0.9429  1.0621 -0.7199
  519MPD2     N 7768   0.635   3.388  14.126  0.1918 -0.0898 -0.2332
  519MPD2    H5 7769   0.627   3.359  14.030 -1.7514 -0.8603  0.1539
  519MPD2    N1 7770   0.441   3.788  13.945  0.3914 -0.6341 -0.1275
  519MPD2    H7 7771   0.392   3.875  13.962  0.7588 -0.2515 -1.0467
  520TMC3    C1 7772   0.670   3.170  14.144  0.1785 -0.7702  0.2802
  520TMC3    C2 7773   0.599   3.148  14.023 -0.3342 -0.0974 -0.0863
  520TMC3    C3 7774   0.642   3.030  13.949  0.4927  0.0710 -0.5697
  520TMC3    C4 7775   0.762   3.081  14.200 -1.1937 -0.7589 -0.6855
  520TMC3    C5 7776   0.810   2.984  14.120 -0.4263  0.4707  0.8097
  520TMC3    C6 7777   0.744   2.955  14.000  0.3322 -0.0666  0.1907
  520TMC3     C 7778   0.662   3.294  14.213 -0.1100 -0.7941 -0.4204
  520TMC3     O 7779   0.694   3.304  14.333 -0.1675  0.8385 -0.1558
  520TMC3     H 7780   0.535   3.220  13.975  1.3327  0.9904 -0.6739
  520TMC3    H1 7781   0.808   3.108  14.294  2.7840 -2.9294 -1.9901
  520TMC3    H2 7782   0.789   2.880  13.937  1.2249  0.0954  0.6388
  520TMC3    C7 7783   0.946   2.936  14.143 -0.4175  0.4634 -0.5878
  520TMC3    C8 7784   0.628   3.031  13.801 -0.6754 -0.4761 -0.1581
  520TMC3    O1 7785   0.980   2.910  14.260 -0.0712 -0.0033 -0.4154
  520TMC3    O2 7786   0.708   2.966  13.732 -0.0026 -0.3568  0.1511
  521MPD2     C 7787   1.329   2.288  17.013  0.6533 -0.4316 -0.3670
  521MPD2    C1 7788   1.303   2.214  16.901  0.4720  0.1209  0.2887
  521MPD2    C2 7789   1.410   2.159  16.827 -0.1492  0.0092 -0.8326
  521MPD2    C3 7790   1.542   2.187  16.868  0.1064  0.1732 -0.3495
  521MPD2    C4 7791   1.563   2.265  16.977 -0.5628  0.5481  0.2299
  521MPD2    C5 7792   1.456   2.321  17.042  0.2701 -0.6015  0.2817
  521MPD2     H 7793   1.396   2.103  16.736  1.8020  0.9180 -1.7018
  521MPD2    H1 7794   1.664   2.285  17.011 -0.1577 -0.3437 -0.4416
  521MPD2    H2 7795   1.249   2.300  17.085 -0.5876 -2.5868 -1.3920
  521MPD2    H3 7796   1.479   2.371  17.135 -1.9155 -1.2914  1.1850
  521MPD2     N 7797   1.652   2.139  16.787  0.0219 -0.2989  0.4116
  521MPD2    H5 7798   1.625   2.090  16.702  0.6862  0.1896 -0.0835
  521MPD2    N1 7799   1.164   2.200  16.863 -0.1752 -0.0209  1.3381
  521MPD2    H7 7800   1.096   2.251  16.918 -1.0171  0.3313 -0.0232
  522TMC3    C1 7801   1.867   2.105  16.691  0.8811 -0.5468  0.1490
  522TMC3    C2 7802   2.001   2.076  16.710  0.0499 -0.3683 -0.1382
  522TMC3    C3 7803   2.077   2.036  16.604 -0.0128  0.5663  0.3628
  522TMC3    C4 7804   1.813   2.113  16.563 -0.3655  0.4673 -0.4211
  522TMC3    C5 7805   1.897   2.067  16.461 -0.0522  0.0579 -0.1621
  522TMC3    C6 7806   2.024   2.024  16.479 -0.3074 -0.4484  0.4368
  522TMC3     C 7807   1.791   2.147  16.810 -0.3355  0.0110  0.5202
  522TMC3     O 7808   1.861   2.177  16.904 -0.0912  0.5733  0.1541
  522TMC3     H 7809   2.047   2.088  16.807  1.0461 -1.4418 -0.4837
  522TMC3    H1 7810   1.720   2.164  16.542 -0.3939  0.8155  0.5079
  522TMC3    H2 7811   2.088   1.987  16.400 -0.0106  2.5512 -0.7527
  522TMC3    C7 7812   1.846   2.061  16.325 -0.7181  0.3516  0.0833
  522TMC3    C8 7813   2.222   2.013  16.627 -0.2236 -1.2272  0.6610
  522TMC3    O1 7814   1.936   2.041  16.246 -0.6013  0.4970  0.9902
  522TMC3    O2 7815   2.251   2.042  16.741 -0.1388  0.0746  0.4093
  523MPD2     C 7816   4.046   1.895  10.310 -0.3122  0.2350 -0.2309
  523MPD2    C1 7817   3.991   1.801  10.226  0.2660  0.0945  0.1595
  523MPD2    C2 7818   3.938   1.848  10.107  0.8379 -0.7314  0.5170
  523MPD2    C3 7819   3.937   1.981  10.077 -0.5340 -0.2857  0.2377
  523MPD2    C4 7820   3.988   2.073  10.168  0.0949 -0.4791 -0.2818
  523MPD2    C5 7821   4.041   2.029  10.283  0.0958 -0.1605 -0.0377
  523MPD2     H 7822   3.886   1.779  10.041  0.3674 -1.0059  1.1825
  523MPD2    H1 7823   3.995   2.180  10.150  2.0152 -0.2208  2.0052
  523MPD2    H2 7824   4.104   1.861  10.395 -1.5257 -1.9830 -0.2932
  523MPD2    H3 7825   4.092   2.098  10.350 -0.4206  1.0693 -0.9015
  523MPD2     N 7826   3.871   2.037   9.960  0.3011  0.2787  0.5100
  523MPD2    H5 7827   3.880   2.137   9.946 -0.1348  0.3215  0.5376
  523MPD2    N1 7828   3.986   1.667  10.275  0.5217  0.3984 -0.4349
  523MPD2    H7 7829   4.008   1.661  10.374  0.5084  2.5857 -0.2979
  524TMC3    C1 7830   3.772   2.055   9.753  0.3263  0.0583  0.7240
  524TMC3    C2 7831   3.775   2.005   9.628  0.1790 -0.8427  0.1333
  524TMC3    C3 7832   3.734   2.089   9.528 -1.5717  0.6589 -0.4951
  524TMC3    C4 7833   3.714   2.174   9.792  0.0517  0.0516  0.3850
  524TMC3    C5 7834   3.672   2.252   9.685 -0.2087  0.1118 -0.1405
  524TMC3    C6 7835   3.684   2.213   9.556 -0.4893 -0.4955  0.1549
  524TMC3     C 7836   3.814   1.969   9.856 -0.5959 -0.1560  0.3746
  524TMC3     O 7837   3.786   1.849   9.841 -0.5716 -0.2332 -0.7214
  524TMC3     H 7838   3.835   1.917   9.610  2.3804  0.1418  2.7438
  524TMC3    H1 7839   3.698   2.210   9.893  0.5252 -0.2309  0.5623
  524TMC3    H2 7840   3.643   2.275   9.478  1.3790 -1.8753 -1.9312
  524TMC3    C7 7841   3.630   2.385   9.720 -0.3705  0.0554  0.2725
  524TMC3    C8 7842   3.695   2.031   9.395  0.4759  0.5468  0.1637
  524TMC3    O1 7843   3.657   2.432   9.829  0.5570  0.0013 -0.0641
  524TMC3    O2 7844   3.622   2.100   9.328 -0.2943 -0.2970 -0.1687
  525MPD2     C 7845   2.024   2.894  14.625  0.4998 -0.0768 -0.1175
  525MPD2    C1 7846   2.147   2.906  14.683  0.3732 -0.2933  0.1395
  525MPD2    C2 7847   2.219   3.022  14.654  0.0468  0.1300  0.6553
  525MPD2    C3 7848   2.174   3.120  14.575  0.3289  0.3382 -0.1714
  525MPD2    C4 7849   2.044   3.111  14.518 -0.1088  0.2240  0.3947
  525MPD2    C5 7850   1.974   2.996  14.549 -0.1879  0.0041 -0.4563
  525MPD2     H 7851   2.323   3.025  14.686  0.1471 -1.9842  0.5312
  525MPD2    H1 7852   1.998   3.178  14.447 -0.1392  1.6341  1.7620
  525MPD2    H2 7853   1.964   2.806  14.645 -0.0393  0.6897  1.6706
  525MPD2    H3 7854   1.876   2.984  14.504  1.1523 -0.3784 -3.2451
  525MPD2     N 7855   2.239   3.247  14.572  0.1614  0.2898 -0.2665
  525MPD2    H5 7856   2.185   3.325  14.538  1.4177  1.5095  0.5483
  525MPD2    N1 7857   2.199   2.811  14.771  0.0131 -0.7511  0.3789
  525MPD2    H7 7858   2.284   2.836  14.820  0.1796 -1.0100  0.2231
  526TMC3    C1 7859   2.199   2.657  14.936 -0.3407  0.5796  0.5855
  526TMC3    C2 7860   2.148   2.694  15.060  0.0761  0.1214 -0.2715
  526TMC3    C3 7861   2.238   2.714  15.167 -0.4528 -0.7251  0.1701
  526TMC3    C4 7862   2.334   2.649  14.920 -0.7605 -0.1270 -0.0219
  526TMC3    C5 7863   2.417   2.651  15.030 -0.6213  0.5935 -0.3332
  526TMC3    C6 7864   2.369   2.689  15.156  0.0438  0.3112 -0.4559
  526TMC3     C 7865   2.129   2.707  14.823 -0.0357 -0.3000 -0.1637
  526TMC3     O 7866   2.017   2.656  14.798  0.5637 -0.2179 -0.2464
  526TMC3     H 7867   2.041   2.711  15.062  0.0050 -0.5225  1.5753
  526TMC3    H1 7868   2.377   2.614  14.827 -2.3815 -1.3833 -0.3011
  526TMC3    H2 7869   2.429   2.707  15.244 -1.5464 -0.5614  0.8092
  526TMC3    C7 7870   2.559   2.631  15.015  0.3631 -0.7538 -0.2806
  526TMC3    C8 7871   2.206   2.792  15.281  0.0311 -0.1665  0.7008
  526TMC3    O1 7872   2.625   2.666  15.114 -0.1251 -0.2403  0.0680
  526TMC3    O2 7873   2.300   2.845  15.339 -0.5693 -0.1804 -0.4078
  527MPD2     C 7874   0.103   1.345   1.489  0.0135  0.8486  0.6469
  527MPD2    C1 7875   0.074   1.364   1.358  0.1723 -0.5055  0.6630
  527MPD2    C2 7876   0.183   1.365   1.268 -0.0148 -0.4169  0.1373
  527MPD2    C3 7877   0.314   1.366   1.318 -0.0304 -0.2682 -0.8745
  527MPD2    C4 7878   0.333   1.362   1.451  0.4621  1.6983  0.1161
  527MPD2    C5 7879   0.231   1.345   1.533  0.1345 -0.1737 -0.7794
  527MPD2     H 7880   0.162   1.360   1.162  0.6856  1.6738 -0.0998
  527MPD2    H1 7881   0.431   1.369   1.496  0.5747  1.2868 -0.0678
  527MPD2    H2 7882   0.025   1.330   1.563 -2.2658  0.1801 -1.8913
  527MPD2    H3 7883   0.244   1.340   1.641 -0.6722 -3.0064 -0.7887
  527MPD2     N 7884   0.415   1.371   1.221  1.3494 -0.5778  0.1986
  527MPD2    H5 7885   0.388   1.383   1.124  2.1467 -1.7071 -0.1715
  527MPD2    N1 7886   4.688   1.349   1.301 -0.2677  0.0671  0.5456
  527MPD2    H7 7887   4.680   1.376   1.203 -0.6928 -1.8607  0.0506
  528TMC3    C1 7888   4.449   1.314   1.294  0.0063 -0.3398  1.0403
  528TMC3    C2 7889   4.443   1.305   1.158 -0.2529  0.0135  0.4708
  528TMC3    C3 7890   4.318   1.294   1.097  0.3550 -0.3400  0.7261
  528TMC3    C4 7891   4.340   1.322   1.373  0.1393  0.3035  0.0629
  528TMC3    C5 7892   4.219   1.333   1.305 -0.0676 -0.3432 -1.2401
  528TMC3    C6 7893   4.205   1.333   1.166 -0.0188  0.3166 -0.6803
  528TMC3     C 7894   4.577   1.294   1.365 -0.4931 -0.1527  0.4706
  528TMC3     O 7895   4.574   1.231   1.468 -0.0350 -0.0613  0.3438
  528TMC3     H 7896   4.527   1.285   1.093 -1.5124 -0.6258 -0.9492
  528TMC3    H1 7897   4.364   1.320   1.479  0.7607  2.7536 -0.0428
  528TMC3    H2 7898   4.106   1.322   1.121 -0.0528 -1.2072 -0.2480
  528TMC3    C7 7899   4.100   1.307   1.384 -0.0317  0.1322  1.1703
  528TMC3    C8 7900   4.313   1.296   0.946  0.1746  0.3206  0.3030
  528TMC3    O1 7901   3.999   1.275   1.323  0.5152 -0.3755  0.1643
  528TMC3    O2 7902   4.413   1.332   0.882 -0.5124 -0.4887 -0.4227
  529MPD2     C 7903   1.969   4.359   0.910  0.3459  0.1523 -0.4954
  529MPD2    C1 7904   2.095   4.383   0.958 -0.0169  0.1791  0.2078
  529MPD2    C2 7905   2.158   4.506   0.940 -0.2278 -0.1510  0.3160
  529MPD2    C3 7906   2.097   4.602   0.860  0.5163  0.2322  0.2687
  529MPD2    C4 7907   1.966   4.585   0.826  0.1454  0.3214  0.3402
  529MPD2    C5 7908   1.908   4.465   0.842 -0.4963  0.9249 -0.1343
  529MPD2     H 7909   2.257   4.519   0.981 -0.3711 -3.0251  1.5067
  529MPD2    H1 7910   1.902   4.658   0.779  1.6079 -1.1851 -3.9619
  529MPD2    H2 7911   1.910   4.271   0.933 -1.7248  1.2445 -1.6429
  529MPD2    H3 7912   1.804   4.455   0.811 -0.1759  2.2714 -1.6414
  529MPD2     N 7913   2.162   4.715   0.804  0.7300 -0.5087  0.5275
  529MPD2    H5 7914   2.105   0.030   0.739  0.9721  0.4917  1.1333
  529MPD2    N1 7915   2.161   4.289   1.039  0.2815 -0.0346 -0.2821
  529MPD2    H7 7916   2.252   4.314   1.075 -0.2280 -0.2563  1.1571
  530TMC3    C1 7917   2.211   4.086   1.137 -0.0262 -0.5431  0.4026
  530TMC3    C2 7918   2.334   4.141   1.163  0.2494 -0.3007 -0.2356
  530TMC3    C3 7919   2.439   4.054   1.178  0.3443 -0.0294 -0.3730
  530TMC3    C4 7920   2.197   3.951   1.114  0.0441  0.6017  0.6536
  530TMC3    C5 7921   2.304   3.881   1.142 -0.1661  0.6637  0.0753
  530TMC3    C6 7922   2.432   3.924   1.165 -0.6234  0.3792 -0.0882
  530TMC3     C 7923   2.112   4.163   1.071 -0.1523 -0.3416  0.5208
  530TMC3     O 7924   2.009   4.104   1.038 -0.3103  0.2373 -0.1593
  530TMC3     H 7925   2.344   4.247   1.179 -1.4465  0.0935 -1.7177
  530TMC3    H1 7926   2.108   3.900   1.077  1.5373 -0.2759 -1.7085
  530TMC3    H2 7927   2.521   3.865   1.148 -0.8323  0.3034 -0.9066
  530TMC3    C7 7928   2.281   3.737   1.157  0.1591 -0.7788 -0.1144
  530TMC3    C8 7929   2.567   4.116   1.164 -0.7491  0.5564  0.1245
  530TMC3    O1 7930   2.366   3.656   1.116  0.1746 -0.1947 -0.3514
  530TMC3    O2 7931   2.566   4.237   1.135 -0.9001  1.1133 -0.4881
  531MPD2     C 7932   2.105   2.250  13.748  0.2672  0.5797  0.1155
  531MPD2    C1 7933   2.088   2.117  13.715  0.5844  0.7515 -0.0625
  531MPD2    C2 7934   2.096   2.079  13.580 -0.3239  0.7028  0.0643
  531MPD2    C3 7935   2.123   2.179  13.481  0.8743  0.1749 -0.0145
  531MPD2    C4 7936   2.149   2.308  13.520 -0.7102 -0.1538  0.4623
  531MPD2    C5 7937   2.147   2.342  13.653  1.0751  0.0496  0.4058
  531MPD2     H 7938   2.076   1.975  13.556 -0.2451  0.0923  2.5919
  531MPD2    H1 7939   2.154   2.379  13.438  0.4223 -1.2108 -0.3947
  531MPD2    H2 7940   2.096   2.294  13.846 -1.4202 -1.6390  0.9603
  531MPD2    H3 7941   2.150   2.447  13.681 -0.8173 -0.2614  1.7482
  531MPD2     N 7942   2.121   2.154  13.342  0.2411  0.1448 -0.5235
  531MPD2    H5 7943   2.150   2.228  13.278  1.1063 -1.0178 -1.4809
  531MPD2    N1 7944   2.040   2.031  13.813 -0.0953  0.3501 -0.4062
  531MPD2    H7 7945   1.980   2.068  13.886  1.5705  0.8279  0.7308
  532TMC3    C1 7946   1.944   1.830  13.884  0.5167 -0.2310  0.7471
  532TMC3    C2 7947   1.820   1.828  13.824 -0.5624  0.2710  0.7552
  532TMC3    C3 7948   1.733   1.724  13.855 -0.5462  0.2235 -0.6584
  532TMC3    C4 7949   1.994   1.726  13.959 -0.4170  0.3644 -0.0210
  532TMC3    C5 7950   1.899   1.633  14.000  0.0123  0.0339  0.4328
  532TMC3    C6 7951   1.775   1.629  13.941 -0.4098  0.4867 -0.5558
  532TMC3     C 7952   2.049   1.895  13.809 -0.4321 -0.0082 -0.1134
  532TMC3     O 7953   2.117   1.823  13.735  0.3124  0.0076  0.0871
  532TMC3     H 7954   1.791   1.912  13.763  1.4225  1.6449  1.7197
  532TMC3    H1 7955   2.097   1.709  13.988 -0.5273 -0.0421  0.1300
  532TMC3    H2 7956   1.700   1.558  13.974  0.0598  0.2537  0.0031
  532TMC3    C7 7957   1.952   1.498  14.015  0.4541 -0.0482  0.1616
  532TMC3    C8 7958   1.694   1.659  13.729  0.2877  0.5046  0.7079
  532TMC3    O1 7959   1.951   1.453  14.130 -0.0031 -0.3004  0.0475
  532TMC3    O2 7960   1.661   1.544  13.746 -0.2956  0.4833 -0.3668
  533TMC3    C1 7961   2.377   3.412  14.656 -0.0165 -0.4852  0.0749
  533TMC3    C2 7962   2.492   3.478  14.613  0.3782  1.0778 -0.0946
  533TMC3    C3 7963   2.480   3.609  14.593  0.0918  0.8060 -0.2944
  533TMC3    C4 7964   2.266   3.477  14.679 -0.3618  0.9447 -0.2042
  533TMC3    C5 7965   2.256   3.609  14.658  0.7911  0.4111  0.3108
  533TMC3    C6 7966   2.366   3.680  14.625  0.1250  0.0042 -0.3886
  533TMC3     C 7967   2.362   3.273  14.624  0.2302  0.0916  0.3316
  533TMC3     O 7968   2.462   3.203  14.614  0.0652  0.2894  0.2452
  533TMC3     H 7969   2.581   3.421  14.588  0.6804  1.1770  0.7420
  533TMC3    H1 7970   2.180   3.426  14.721 -1.0330  1.7925 -0.5197
  533TMC3    H2 7971   2.369   3.789  14.625 -3.2748  0.0953 -1.0842
  533TMC3    C7 7972   2.148   3.663  14.746  0.1236  0.3470  0.4497
  533TMC3    C8 7973   2.605   3.682  14.578 -1.2219  0.4570  0.4715
  533TMC3    O1 7974   2.041   3.604  14.755  0.6892  0.0749 -0.0012
  533TMC3    O2 7975   2.709   3.621  14.605  0.1784  0.2968 -0.4717
  534MPD2     C 7976   0.954   4.449   1.070  0.3073  0.3608  0.2785
  534MPD2    C1 7977   0.858   4.524   1.142 -0.2689 -0.6223  0.8431
  534MPD2    C2 7978   0.727   4.482   1.138 -0.2800  0.3998 -0.4078
  534MPD2    C3 7979   0.695   4.371   1.061  0.5961  0.1899 -0.0874
  534MPD2    C4 7980   0.793   4.292   1.006 -0.0117  0.0086  0.4758
  534MPD2    C5 7981   0.926   4.333   1.011 -0.3336 -0.5293 -0.3893
  534MPD2     H 7982   0.650   4.551   1.172 -1.2437  0.3051 -2.3861
  534MPD2    H1 7983   0.769   4.201   0.952  0.1033 -0.3698  1.0611
  534MPD2    H2 7984   1.060   4.468   1.076  0.0243  2.1086 -0.3185
  534MPD2    H3 7985   1.008   4.275   0.971  1.6520  1.4272  0.8717
  534MPD2     N 7986   0.560   4.337   1.025 -0.1248 -0.4229  0.2879
  534MPD2    H5 7987   0.549   4.265   0.954  0.3211 -0.2848  0.0756
  534MPD2    N1 7988   0.899   4.645   1.215 -0.4752  1.0088 -1.1458
  534MPD2    H7 7989   0.817   4.686   1.258  0.5973  2.1284 -0.1468
  535TMC3    C1 7990   0.330   4.335   1.026  0.6271  0.3050  0.4498
  535TMC3    C2 7991   0.226   4.305   1.103  0.2648  0.1104  0.2618
  535TMC3    C3 7992   0.126   4.253   1.034  1.2643  0.2822 -0.3819
  535TMC3    C4 7993   0.329   4.337   0.889 -0.1894  0.1446  0.6612
  535TMC3    C5 7994   0.225   4.280   0.822  0.0398 -0.3053  0.6021
  535TMC3    C6 7995   0.125   4.228   0.897 -0.1689 -0.0757 -0.8125
  535TMC3     C 7996   0.449   4.382   1.095 -0.0037 -0.0041 -0.6019
  535TMC3     O 7997   0.448   4.432   1.204 -0.5117  0.1195  0.0384
  535TMC3     H 7998   0.222   4.331   1.208 -1.2880 -0.9319  0.4630
  535TMC3    H1 7999   0.416   4.373   0.835 -0.2945  0.5736  0.7791
  535TMC3    H2 8000   0.031   4.199   0.850 -0.8596  2.6104 -1.0737
  535TMC3    C7 8001   0.196   4.345   0.701 -0.8114  0.3687 -0.5433
  535TMC3    C8 8002   4.732   4.266   1.090 -0.7069  0.3104 -0.2084
  535TMC3    O1 8003   0.159   4.271   0.611 -0.1077 -0.0304  0.1455
  535TMC3    O2 8004   4.650   4.291   1.005 -0.4423 -0.1826  0.0044
  536MPD2     C 8005   3.064   2.799  15.946 -0.1531  0.3151  0.8470
  536MPD2    C1 8006   3.176   2.859  15.997  0.5703 -1.3063 -0.6629
  536MPD2    C2 8007   3.222   2.975  15.932  0.0360 -0.2986 -0.8967
  536MPD2    C3 8008   3.165   3.029  15.822 -0.2342  0.2213 -1.1820
  536MPD2    C4 8009   3.055   2.969  15.778 -0.3505 -0.1499 -0.2702
  536MPD2    C5 8010   3.002   2.855  15.836  0.1553 -0.2236  0.0621
  536MPD2     H 8011   3.299   3.034  15.980  1.0751 -1.5873 -0.9801
  536MPD2    H1 8012   3.001   3.020  15.699 -0.0586  0.9107  0.2142
  536MPD2    H2 8013   3.015   2.714  15.993  0.5633 -2.0680 -2.7618
  536MPD2    H3 8014   2.911   2.812  15.797  1.4005 -1.7704 -1.1614
  536MPD2     N 8015   3.224   3.138  15.753 -0.0453  0.1888 -0.5742
  536MPD2    H5 8016   3.162   3.172  15.680 -1.9965 -2.9570 -0.4026
  536MPD2    N1 8017   3.239   2.799  16.113 -0.2909 -0.9455 -0.7573
  536MPD2    H7 8018   3.186   2.730  16.166 -2.0240  0.6639 -0.4058
  537TMC3    C1 8019   3.371   2.776  16.311  0.6390 -0.3985 -0.3725
  537TMC3    C2 8020   3.437   2.839  16.409 -0.7709  0.0931  0.1658
  537TMC3    C3 8021   3.441   2.779  16.529  0.5874  0.1412 -0.8920
  537TMC3    C4 8022   3.306   2.653  16.329 -0.4450 -0.2719  0.4728
  537TMC3    C5 8023   3.321   2.595  16.450  0.1468 -0.1214  0.3055
  537TMC3    C6 8024   3.379   2.661  16.556 -0.0614 -0.0535  0.4046
  537TMC3     C 8025   3.347   2.844  16.184 -0.0418 -0.1363  0.4013
  537TMC3     O 8026   3.420   2.940  16.159  0.2522 -0.5554 -0.0994
  537TMC3     H 8027   3.489   2.932  16.391 -0.4566 -0.6891 -2.8870
  537TMC3    H1 8028   3.240   2.614  16.253  1.9060 -1.4278 -0.9840
  537TMC3    H2 8029   3.385   2.613  16.653 -0.2521  0.8115  0.8448
  537TMC3    C7 8030   3.231   2.485  16.478 -0.2083  0.1561 -0.5075
  537TMC3    C8 8031   3.510   2.839  16.642  0.2426  0.0954  0.4168
  537TMC3    O1 8032   3.175   2.436  16.381 -0.5367 -0.2656  1.0253
  537TMC3    O2 8033   3.490   2.790  16.755  0.0409  0.4388 -0.1972
  538TMC3    C1 8034   0.150   1.189  11.061 -0.1030  0.1618 -0.5517
  538TMC3    C2 8035   0.132   1.113  10.951 -0.3240  0.1528  0.4676
  538TMC3    C3 8036   0.037   1.147  10.853 -0.2400  0.2086  0.2085
  538TMC3    C4 8037   0.077   1.300  11.080 -0.1587  0.4074  0.2244
  538TMC3    C5 8038   4.722   1.328  10.991  0.8661 -0.3959  0.2948
  538TMC3    C6 8039   4.717   1.265  10.871 -1.0353 -0.7634  0.8734
  538TMC3     C 8040   0.274   1.177  11.132  0.3066 -0.2393  0.5113
  538TMC3     O 8041   0.362   1.125  11.067 -0.2206 -0.0823 -0.1694
  538TMC3     H 8042   0.193   1.025  10.936 -2.5459 -1.4329  0.7840
  538TMC3    H1 8043   0.104   1.365  11.163 -0.4497  0.5562  0.2007
  538TMC3    H2 8044   4.650   1.299  10.792 -0.3346  0.3941  0.7664
  538TMC3    C7 8045   4.637   1.443  10.996 -0.0641 -0.0063  0.4141
  538TMC3    C8 8046   0.071   1.105  10.719  0.2283  0.1129  0.3856
  538TMC3    O1 8047   4.549   1.447  10.912 -0.3160 -0.5946 -1.3509
  538TMC3    O2 8048   0.090   0.985  10.709  0.0442 -0.1097  0.4608
  539MPD2     C 8049   4.680   0.717  11.706  0.3935  0.2678  0.5604
  539MPD2    C1 8050   4.597   0.643  11.636 -0.2006 -0.5071 -0.0687
  539MPD2    C2 8051   4.479   0.706  11.601  0.2692 -0.0599 -0.0455
  539MPD2    C3 8052   4.440   0.833  11.638 -0.7003  0.8059 -0.7311
  539MPD2    C4 8053   4.530   0.907  11.709 -0.3141  0.1353 -0.0718
  539MPD2    C5 8054   4.654   0.852  11.737  0.6846 -0.4033 -0.6081
  539MPD2     H 8055   4.417   0.644  11.537 -1.5590 -1.4261  3.0606
  539MPD2    H1 8056   4.513   1.011  11.737  0.5854  0.5291 -0.9799
  539MPD2    H2 8057   0.037   0.681  11.744  0.1591 -0.0180  0.8735
  539MPD2    H3 8058   4.736   0.906  11.784 -0.1846  0.3681  0.0198
  539MPD2     N 8059   4.318   0.895  11.598 -0.0639  0.7108  0.3787
  539MPD2    H5 8060   4.315   0.993  11.625 -1.9640  0.6527  0.4117
  539MPD2    N1 8061   4.631   0.510  11.616 -0.4974 -0.8162 -0.8597
  539MPD2    H7 8062   4.727   0.488  11.637 -0.7815 -0.0311  1.3347
  540TMC3    C1 8063   4.129   0.960  11.511  0.0842  0.1073 -0.7586
  540TMC3    C2 8064   4.093   1.022  11.399 -0.1023 -0.7709  0.0032
  540TMC3    C3 8065   4.001   1.123  11.406  0.4845 -0.6457  0.6708
  540TMC3    C4 8066   4.078   0.982  11.637  0.5625 -0.6235  0.2890
  540TMC3    C5 8067   3.974   1.080  11.644 -0.2156  0.5400  0.2612
  540TMC3    C6 8068   3.936   1.138  11.529 -0.1971 -0.4019  0.2753
  540TMC3     C 8069   4.228   0.857  11.508  0.1580  0.1101  0.2618
  540TMC3     O 8070   4.224   0.762  11.430  0.4660 -0.5453 -0.0468
  540TMC3     H 8071   4.154   0.998  11.313 -1.4634 -3.4792 -0.2136
  540TMC3    H1 8072   4.111   0.916  11.717  2.5979  2.0628  1.6472
  540TMC3    H2 8073   3.859   1.214  11.525  1.3920  1.2148  0.5453
  540TMC3    C7 8074   3.886   1.074  11.761  0.2546 -0.2408 -0.8244
  540TMC3    C8 8075   3.919   1.152  11.289  0.3678  0.1996 -0.4179
  540TMC3    O1 8076   3.779   1.133  11.749  0.1273 -1.1358  0.3086
  540TMC3    O2 8077   3.904   1.269  11.262  0.3513  0.0201  0.3740
  541MPD2     C 8078   2.768   1.757  13.448 -0.3360 -0.2889  0.7113
  541MPD2    C1 8079   2.727   1.697  13.329 -0.9006 -0.3569  0.0099
  541MPD2    C2 8080   2.755   1.761  13.208 -0.0866  0.2727 -0.4751
  541MPD2    C3 8081   2.816   1.885  13.211 -0.0559  0.3537 -0.8445
  541MPD2    C4 8082   2.856   1.938  13.328  0.3622  0.0090  0.0100
  541MPD2    C5 8083   2.841   1.871  13.445 -0.1737 -0.0328  0.1380
  541MPD2     H 8084   2.707   1.715  13.122  1.0200  0.2147 -1.0664
  541MPD2    H1 8085   2.915   2.030  13.329  0.1178  0.1358  1.7381
  541MPD2    H2 8086   2.749   1.725  13.550 -0.3033  0.6316  1.0014
  541MPD2    H3 8087   2.870   1.917  13.539  1.4954 -0.0125 -0.4001
  541MPD2     N 8088   2.836   1.968  13.094  0.5453 -0.2954 -0.0138
  541MPD2    H5 8089   2.865   2.063  13.115  1.3029 -1.1002  2.6216
  541MPD2    N1 8090   2.661   1.568  13.335 -0.0790 -0.3589  0.0416
  541MPD2    H7 8091   2.655   1.522  13.245 -2.3264 -1.8133  0.9317
  542TMC3    C1 8092   2.862   2.029  12.864  0.0914 -0.1045 -0.3797
  542TMC3    C2 8093   2.902   1.991  12.738  0.2139 -0.1298 -0.3061
  542TMC3    C3 8094   2.906   2.086  12.644 -0.5071 -0.0374 -0.1231
  542TMC3    C4 8095   2.809   2.150  12.893 -0.2871 -0.6713 -0.0898
  542TMC3    C5 8096   2.791   2.233  12.789  0.4653  0.1115  0.5258
  542TMC3    C6 8097   2.844   2.208  12.665 -0.2428 -0.8186 -0.0215
  542TMC3     C 8098   2.863   1.925  12.966 -0.2415  0.2830 -0.1217
  542TMC3     O 8099   2.856   1.812  12.919  0.6585 -0.9221  0.1139
  542TMC3     H 8100   2.941   1.892  12.721 -2.3851 -1.4403  1.3221
  542TMC3    H1 8101   2.766   2.173  12.990  0.9819 -0.0553  0.3262
  542TMC3    H2 8102   2.839   2.278  12.582  1.3609  1.4161  1.7848
  542TMC3    C7 8103   2.765   2.371  12.835  0.0121  0.5091 -0.7034
  542TMC3    C8 8104   2.966   2.069  12.511  0.8037 -0.6683 -0.4749
  542TMC3    O1 8105   2.789   2.393  12.952  0.4607 -0.5940 -0.1427
  542TMC3    O2 8106   2.939   2.140  12.414  0.1957 -0.1884 -0.3250
  543TMC3    C1 8107   2.380   3.967  16.960 -0.7144  0.1783  0.6856
  543TMC3    C2 8108   2.388   3.860  17.047  0.3036 -0.1527  0.3731
  543TMC3    C3 8109   2.342   3.870  17.177 -0.0854 -0.2395  0.5421
  543TMC3    C4 8110   2.329   4.086  16.998 -0.1712 -0.0053  0.0445
  543TMC3    C5 8111   2.275   4.092  17.129  0.0742  0.1012 -0.0974
  543TMC3    C6 8112   2.287   3.987  17.218  0.4508 -0.4619 -0.3739
  543TMC3     C 8113   2.437   3.949  16.827  0.3110 -0.9379  0.7268
  543TMC3     O 8114   2.520   3.862  16.813 -0.0326  0.4814 -0.4651
  543TMC3     H 8115   2.441   3.771  17.012 -0.5756  0.6568 -3.0423
  543TMC3    H1 8116   2.326   4.177  16.938 -0.8169 -0.1273 -0.1026
  543TMC3    H2 8117   2.258   4.001  17.321 -1.8441  1.1135 -1.2108
  543TMC3    C7 8118   2.173   4.200  17.157 -0.3225  0.3732  0.4891
  543TMC3    C8 8119   2.348   3.757  17.267 -0.1930  0.3044  0.1199
  543TMC3    O1 8120   2.139   4.204  17.275 -0.1109  0.5337 -0.1243
  543TMC3    O2 8121   2.357   3.642  17.223  0.1855 -0.3389 -0.4489
  544MPD2     C 8122   2.324   3.527  17.724 -0.0610  0.0158  0.1507
  544MPD2    C1 8123   2.293   3.483  17.595  0.1716  0.2848 -0.0867
  544MPD2    C2 8124   2.291   3.571  17.491 -0.2687 -0.7746 -0.2178
  544MPD2    C3 8125   2.331   3.698  17.507 -0.0149  0.0601  0.1847
  544MPD2    C4 8126   2.363   3.737  17.636 -0.0540  0.2723  0.5611
  544MPD2    C5 8127   2.357   3.654  17.744  0.6311 -0.8261  1.0522
  544MPD2     H 8128   2.240   3.540  17.401  1.7301 -0.3637 -1.4996
  544MPD2    H1 8129   2.398   3.838  17.652 -0.3278  0.8098 -2.1861
  544MPD2    H2 8130   2.347   3.451   0.048 -0.0556  0.2753  0.4114
  544MPD2    H3 8131   2.383   3.679   0.095  2.5240 -2.2747  0.9368
  544MPD2     N 8132   2.352   3.789  17.404  0.4091  0.5141  0.9023
  544MPD2    H5 8133   2.362   3.885  17.435 -0.1648  0.7958  0.2298
  544MPD2    N1 8134   2.259   3.343  17.581  0.6649 -0.3266 -0.0644
  544MPD2    H7 8135   2.272   3.280  17.659 -1.5200 -0.1531  0.4145
  545TMC3    C1 8136   2.193   3.137  17.471  0.5171 -0.2917  0.0684
  545TMC3    C2 8137   2.148   3.077  17.350  0.1657  0.1335  0.3618
  545TMC3    C3 8138   2.102   2.952  17.360  0.1390 -0.2668 -0.2940
  545TMC3    C4 8139   2.205   3.072  17.591  0.3947 -0.3402 -0.4286
  545TMC3    C5 8140   2.160   2.944  17.590 -0.1602 -0.3430  0.2522
  545TMC3    C6 8141   2.100   2.884  17.479  0.3126 -0.6877 -0.5268
  545TMC3     C 8142   2.236   3.277  17.461 -0.5745 -0.2784 -0.0188
  545TMC3     O 8143   2.244   3.316  17.344 -0.4682 -0.3898  0.3160
  545TMC3     H 8144   2.152   3.132  17.257 -0.3102 -1.1812 -0.4269
  545TMC3    H1 8145   2.251   3.118  17.677  1.2996 -0.0024 -1.0950
  545TMC3    H2 8146   2.066   2.783  17.499 -0.3627 -0.2493  0.4911
  545TMC3    C7 8147   2.184   2.877  17.722 -0.2274  0.1350  0.9117
  545TMC3    C8 8148   2.057   2.894  17.237  0.5675  0.3374  0.1406
  545TMC3    O1 8149   2.179   2.938   0.078 -0.3592 -0.2329 -0.3785
  545TMC3    O2 8150   2.086   2.944  17.131 -0.2464  0.4131  0.1203
  546MPD2     C 8151   3.166   3.469  17.395 -0.3890  0.4237 -0.7048
  546MPD2    C1 8152   3.227   3.466  17.271  0.2842  0.1250 -0.0647
  546MPD2    C2 8153   3.293   3.584  17.236 -0.2483  0.2567  0.2501
  546MPD2    C3 8154   3.313   3.693  17.319  0.0309  0.1102 -0.4185
  546MPD2    C4 8155   3.240   3.694  17.436  0.0373  0.2962 -0.1461
  546MPD2    C5 8156   3.169   3.584  17.468 -0.2576 -0.0643 -0.0651
  546MPD2     H 8157   3.338   3.586  17.138  1.2211 -1.7675  0.8840
  546MPD2    H1 8158   3.226   3.774  17.508 -0.3874 -0.9112  1.1347
  546MPD2    H2 8159   3.118   3.380  17.433 -0.7875 -0.2942 -2.8560
  546MPD2    H3 8160   3.111   3.581  17.560 -0.8848  2.2285 -0.3812
  546MPD2     N 8161   3.380   3.810  17.287 -0.0197 -0.9515  0.2736
  546MPD2    H5 8162   3.370   3.880  17.360 -0.7314 -0.1576 -0.5978
  546MPD2    N1 8163   3.229   3.341  17.197 -0.2289 -1.0164  0.0300
  546MPD2    H7 8164   3.197   3.259  17.247  0.6187 -0.6363  1.2070
  547TMC3    C1 8165   3.257   3.211  17.009 -0.0092  0.3433  0.3489
  547TMC3    C2 8166   3.221   3.218  16.880  0.2696  0.0687  0.3279
  547TMC3    C3 8167   3.150   3.120  16.825 -0.6635 -0.0573 -0.2369
  547TMC3    C4 8168   3.229   3.099  17.083 -0.1210  0.0365  0.0768
  547TMC3    C5 8169   3.166   2.994  17.021  0.5286 -0.1384 -0.0353
  547TMC3    C6 8170   3.127   3.003  16.888 -0.0138  0.0606  0.0715
  547TMC3     C 8171   3.274   3.335  17.070  0.1528 -1.3916  0.2849
  547TMC3     O 8172   3.328   3.422  16.998 -0.4794 -0.5266 -0.4997
  547TMC3     H 8173   3.245   3.308  16.824  0.3257 -1.1708 -1.6387
  547TMC3    H1 8174   3.269   3.087  17.184  1.2845 -0.2816 -0.5091
  547TMC3    H2 8175   3.072   2.922  16.841  1.4930 -0.1400 -1.3195
  547TMC3    C7 8176   3.120   2.884  17.099 -0.2134 -0.0707  0.5520
  547TMC3    C8 8177   3.070   3.144  16.706 -0.0526 -0.7737 -0.5704
  547TMC3    O1 8178   3.122   2.912  17.221  0.0328  0.3541  0.6274
  547TMC3    O2 8179   3.032   3.263  16.695  0.4287 -0.6770  0.2081
  548MPD2     C 8180   3.162   3.819  13.074 -0.2819 -0.0880 -0.0549
  548MPD2    C1 8181   3.130   3.689  13.041  0.1467 -0.0526 -0.5224
  548MPD2    C2 8182   3.214   3.611  12.955  0.8265  0.1126 -0.2740
  548MPD2    C3 8183   3.334   3.665  12.919 -0.3719 -0.8968 -0.0118
  548MPD2    C4 8184   3.371   3.786  12.961  0.3715 -0.4248 -0.0429
  548MPD2    C5 8185   3.286   3.869  13.031 -0.2805 -0.7961 -0.1145
  548MPD2     H 8186   3.183   3.514  12.919 -0.8623 -0.0673  1.5839
  548MPD2    H1 8187   3.459   3.834  12.919 -0.0901 -0.4963 -1.0719
  548MPD2    H2 8188   3.096   3.876  13.138  0.1218  0.1566  0.1462
  548MPD2    H3 8189   3.322   3.970  13.047 -0.5857 -0.8751  1.1454
  548MPD2     N 8190   3.420   3.588  12.833 -0.1012  0.1417  0.3794
  548MPD2    H5 8191   3.386   3.501  12.795  2.3033 -0.8158  0.4245
  548MPD2    N1 8192   3.003   3.646  13.088  0.5510 -0.7044 -0.1878
  548MPD2    H7 8193   2.942   3.712  13.135  1.0055 -2.0575  2.3505
  549TMC3    C1 8194   2.823   3.484  13.092  0.2596 -0.1310  0.4943
  549TMC3    C2 8195   2.736   3.591  13.093 -0.0820 -0.1617 -0.7105
  549TMC3    C3 8196   2.605   3.570  13.125  0.6441 -0.2078 -0.2688
  549TMC3    C4 8197   2.785   3.361  13.129 -0.5762 -0.4313 -0.6205
  549TMC3    C5 8198   2.652   3.342  13.152  0.5453 -0.0641  0.0097
  549TMC3    C6 8199   2.558   3.444  13.152 -0.1773  0.3227 -0.5753
  549TMC3     C 8200   2.960   3.513  13.061 -0.1134  0.2613 -0.2501
  549TMC3     O 8201   3.030   3.414  13.041 -0.5963 -0.8781 -0.2493
  549TMC3     H 8202   2.764   3.681  13.041 -2.8483  1.4891  0.6879
  549TMC3    H1 8203   2.852   3.276  13.116 -1.2600 -0.8482 -1.4282
  549TMC3    H2 8204   2.456   3.417  13.177 -0.2469 -0.2643 -1.4675
  549TMC3    C7 8205   2.591   3.207  13.160 -0.0766  0.1309 -0.5441
  549TMC3    C8 8206   2.513   3.680  13.112  0.6496 -0.1927 -0.4102
  549TMC3    O1 8207   2.471   3.197  13.161  0.1447 -0.4141 -0.8945
  549TMC3    O2 8208   2.398   3.650  13.094  0.4497  0.0530  0.6844
  550TMC3    C1 8209   2.516   1.885  12.512 -0.1601  0.1175  0.8444
  550TMC3    C2 8210   2.555   2.008  12.549  1.0475 -0.1332  0.4011
  550TMC3    C3 8211   2.594   2.082  12.441  0.5865 -0.0618 -0.2087
  550TMC3    C4 8212   2.525   1.838  12.378  0.5024 -0.3064  0.0647
  550TMC3    C5 8213   2.574   1.914  12.281 -0.1326 -0.1559 -0.1408
  550TMC3    C6 8214   2.607   2.040  12.314  0.3692  0.7891  0.0335
  550TMC3     C 8215   2.421   1.830  12.603 -0.5461  0.9660  0.6340
  550TMC3     O 8216   2.434   1.841  12.726 -0.0797 -0.0535 -0.1665
  550TMC3     H 8217   2.537   2.051  12.647  1.4435  0.8205  0.0498
  550TMC3    H1 8218   2.492   1.738  12.352  0.0769 -0.1945  0.1744
  550TMC3    H2 8219   2.645   2.110  12.240  1.8804  0.0421  0.0897
  550TMC3    C7 8220   2.464   1.928  12.196 -0.4796  0.0128  0.1672
  550TMC3    C8 8221   2.530   2.210  12.443  0.3727 -0.0742  0.0950
  550TMC3    O1 8222   2.358   1.890  12.243 -0.4113 -0.4676  0.1806
  550TMC3    O2 8223   2.529   2.264  12.553 -0.0125  0.5211 -0.1318
  551TMC3    C1 8224   4.471   0.054  13.588 -0.7444 -0.1597  0.1803
  551TMC3    C2 8225   4.576   0.092  13.510 -0.4333  0.2622 -0.9404
  551TMC3    C3 8226   4.692   0.127  13.567  0.0474  0.2083  0.0164
  551TMC3    C4 8227   4.490   0.016  13.721  0.5481 -0.5617  0.8176
  551TMC3    C5 8228   4.615   0.030  13.768 -0.3308  0.0361 -0.3543
  551TMC3    C6 8229   4.716   0.098  13.697 -0.1417 -0.4349  0.4559
  551TMC3     C 8230   4.360   4.730  13.515  0.4642 -0.2961  0.3814
  551TMC3     O 8231   4.318   4.623  13.554  0.3914 -0.5670 -0.0264
  551TMC3     H 8232   4.572   0.120  13.405  0.2200 -1.5424 -1.4468
  551TMC3    H1 8233   4.412   4.727  13.790 -0.9681  1.3365 -0.1210
  551TMC3    H2 8234   0.076   0.115  13.739  0.0734  1.8922 -0.9847
  551TMC3    C7 8235   4.650   4.738  13.909 -0.1716  0.6225 -0.0177
  551TMC3    C8 8236   0.076   0.127  13.483  0.1803  0.0380  1.1613
  551TMC3    O1 8237   4.728   0.076  13.964 -0.1522  0.8486 -0.0671
  551TMC3    O2 8238   0.155   0.033  13.490  0.1598  0.8654  1.0516
  552MPD2     C 8239   1.209   1.263  14.237  0.2365  0.2881  0.3945
  552MPD2    C1 8240   1.317   1.184  14.205  0.3308 -0.1238  0.4919
  552MPD2    C2 8241   1.439   1.208  14.262 -0.6664  0.2519 -0.4222
  552MPD2    C3 8242   1.451   1.296  14.369  0.0197  0.6285 -0.1174
  552MPD2    C4 8243   1.338   1.365  14.410  0.0138 -0.1045 -0.2476
  552MPD2    C5 8244   1.220   1.354  14.337 -0.6801 -0.3120  0.5367
  552MPD2     H 8245   1.518   1.137  14.243 -0.8908  0.2791 -1.4828
  552MPD2    H1 8246   1.338   1.428  14.498 -1.9704 -1.5121  0.7605
  552MPD2    H2 8247   1.114   1.264  14.186 -0.9837  1.0391  2.6591
  552MPD2    H3 8248   1.136   1.421  14.351  0.5118  1.1830  0.6176
  552MPD2     N 8249   1.578   1.320  14.431 -0.2508 -0.1918  0.1526
  552MPD2    H5 8250   1.578   1.353  14.528 -0.7311  2.2216 -0.6632
  552MPD2    N1 8251   1.316   1.094  14.096 -0.1055 -0.2943 -0.2660
  552MPD2    H7 8252   1.404   1.049  14.072 -0.8644 -2.1957  0.5034
  553TMC3    C1 8253   1.280   0.995  13.891  0.2652 -0.6630  0.2554
  553TMC3    C2 8254   1.298   1.057  13.769 -0.0759 -0.3427 -0.2800
  553TMC3    C3 8255   1.406   1.014  13.700  0.7355 -0.0422 -0.4538
  553TMC3    C4 8256   1.363   0.894  13.933  0.2394 -0.2616 -0.1275
  553TMC3    C5 8257   1.463   0.853  13.859 -0.1130  0.8804 -0.2873
  553TMC3    C6 8258   1.487   0.914  13.737 -0.7833  0.2908 -0.3925
  553TMC3     C 8259   1.220   1.076  13.998  0.2921 -0.7851  0.2159
  553TMC3     O 8260   1.119   1.145  13.983  0.0568  0.1234 -0.5778
  553TMC3     H 8261   1.243   1.148  13.748  2.1428  0.8017 -1.0529
  553TMC3    H1 8262   1.350   0.841  14.027  2.1902  1.8675  1.3510
  553TMC3    H2 8263   1.572   0.895  13.672 -0.8540 -0.9900 -0.1108
  553TMC3    C7 8264   1.579   0.812  13.935 -0.3499  0.3028 -0.5111
  553TMC3    C8 8265   1.430   1.066  13.565  0.3317  0.0817  0.4908
  553TMC3    O1 8266   1.586   0.839  14.054  0.2939 -0.0865 -0.0594
  553TMC3    O2 8267   1.547   1.057  13.527  0.6602  0.7017  0.0051
  554TMC3    C1 8268   3.487   0.744  11.641 -0.5094 -0.3309 -0.0644
  554TMC3    C2 8269   3.461   0.655  11.541  0.6617  0.1104  0.0387
  554TMC3    C3 8270   3.442   0.706  11.415 -0.6261 -0.2995  0.3764
  554TMC3    C4 8271   3.496   0.877  11.622 -0.2693  0.0113  0.0284
  554TMC3    C5 8272   3.493   0.927  11.499 -0.6587  0.1342  1.0516
  554TMC3    C6 8273   3.476   0.838  11.393 -0.5772 -0.4042  0.1566
  554TMC3     C 8274   3.513   0.708  11.783  0.5311  0.2382  0.4706
  554TMC3     O 8275   3.480   0.793  11.869 -0.1621 -0.2462 -0.1801
  554TMC3     H 8276   3.422   0.556  11.564 -0.4389  0.5752  0.1560
  554TMC3    H1 8277   3.522   0.946  11.702  0.3208 -0.4107  0.2047
  554TMC3    H2 8278   3.473   0.887  11.297 -1.2051  2.0023  1.4164
  554TMC3    C7 8279   3.555   1.052  11.463 -0.0380  0.5952 -0.5699
  554TMC3    C8 8280   3.355   0.628  11.324 -0.6744  0.1547 -0.5853
  554TMC3    O1 8281   3.594   1.063  11.351  1.3272 -0.5853 -0.1213
  554TMC3    O2 8282   3.320   0.513  11.340 -0.0794 -0.2752  0.0803
  555TMC3    C1 8283   2.481   0.545  15.140  0.5672  0.1078  1.1057
  555TMC3    C2 8284   2.453   0.624  15.244 -0.1301  0.1307  0.9487
  555TMC3    C3 8285   2.510   0.594  15.365  0.8369  0.3787 -0.2044
  555TMC3    C4 8286   2.550   0.425  15.152  0.5075 -0.7549  0.8879
  555TMC3    C5 8287   2.607   0.394  15.273  0.0685  0.2771 -0.4725
  555TMC3    C6 8288   2.594   0.482  15.380 -0.0765 -0.1008 -0.6415
  555TMC3     C 8289   2.413   0.557  15.013 -0.1470  0.0587 -0.1055
  555TMC3     O 8290   2.440   0.477  14.923  0.3565 -0.5434  0.1944
  555TMC3     H 8291   2.416   0.724  15.225 -1.8442 -0.6898 -0.0275
  555TMC3    H1 8292   2.544   0.351  15.072  1.1990  2.0732 -1.7730
  555TMC3    H2 8293   2.648   0.450  15.468  1.5119  1.8454 -0.9239
  555TMC3    C7 8294   2.655   0.261  15.298  0.8363  0.5127 -0.6526
  555TMC3    C8 8295   2.481   0.685  15.480 -0.6347  0.0611  0.8388
  555TMC3    O1 8296   2.655   0.223  15.414  0.0088 -0.5257  0.2189
  555TMC3    O2 8297   2.387   0.764  15.464  0.1811 -0.3901 -0.1553
  556MPD2     C 8298   1.066   1.845  11.252 -0.1027 -0.0690  0.2363
  556MPD2    C1 8299   0.931   1.842  11.228  0.4095  0.1982 -0.1677
  556MPD2    C2 8300   0.881   1.771  11.119 -0.6672  0.3855  0.2181
  556MPD2    C3 8301   0.965   1.724  11.017  0.0117 -0.1347 -0.3186
  556MPD2    C4 8302   1.101   1.731  11.048 -0.7977  0.0286 -1.0895
  556MPD2    C5 8303   1.149   1.788  11.157  0.1979  0.7095 -0.7834
  556MPD2     H 8304   0.778   1.745  11.100 -1.7801  3.5055  1.8883
  556MPD2    H1 8305   1.179   1.691  10.984 -0.5804 -1.9007  0.4090
  556MPD2    H2 8306   1.106   1.892  11.341  1.1607 -1.1541  0.2397
  556MPD2    H3 8307   1.256   1.795  11.173 -0.5077 -0.0206  4.2746
  556MPD2     N 8308   0.914   1.674  10.895  0.1061  0.0958 -0.2195
  556MPD2    H5 8309   0.813   1.673  10.884  0.1752 -1.7964 -0.6231
  556MPD2    N1 8310   0.846   1.890  11.331 -0.6588  0.6441 -0.2909
  556MPD2    H7 8311   0.910   1.922  11.403  1.5284  0.4123 -2.1365
  557TMC3    C1 8312   0.915   1.599  10.672 -0.2641  0.3300  0.5097
  557TMC3    C2 8313   0.990   1.596  10.555  0.5935 -0.1985 -0.1907
  557TMC3    C3 8314   0.935   1.530  10.439  0.0563 -0.0557 -0.1590
  557TMC3    C4 8315   0.797   1.525  10.675 -1.2625 -0.4734  0.1900
  557TMC3    C5 8316   0.748   1.468  10.559  0.1679  0.4664 -0.6594
  557TMC3    C6 8317   0.818   1.466  10.442  0.6754  0.1232  0.8676
  557TMC3     C 8318   0.989   1.627  10.791 -0.0325  0.0303  0.4259
  557TMC3     O 8319   1.104   1.594  10.791  0.2015 -0.5172  0.1154
  557TMC3     H 8320   1.083   1.652  10.559  0.9253 -0.7476 -0.2104
  557TMC3    H1 8321   0.739   1.508  10.764  2.4369 -5.4783  1.6490
  557TMC3    H2 8322   0.772   1.419  10.356  0.7620 -0.9432  1.3950
  557TMC3    C7 8323   0.597   1.455  10.552  0.1462 -0.0435  0.8621
  557TMC3    C8 8324   1.031   1.499  10.332 -0.0880  0.0263 -0.3776
  557TMC3    O1 8325   0.531   1.534  10.618 -0.3718 -0.4525  0.2544
  557TMC3    O2 8326   1.114   1.588  10.315  0.1089  0.4996  0.0328
  558TMC3    C1 8327   2.747   4.087  10.473  1.2672  0.3156  0.0236
  558TMC3    C2 8328   2.637   4.163  10.497  0.0841 -0.4864 -0.1366
  558TMC3    C3 8329   2.577   4.225  10.391 -0.1674  0.0705 -0.7359
  558TMC3    C4 8330   2.800   4.084  10.346 -0.3569  0.0993  0.4281
  558TMC3    C5 8331   2.735   4.143  10.238 -0.3755 -0.4098 -0.2502
  558TMC3    C6 8332   2.630   4.225  10.265  0.5514 -0.2190  0.3360
  558TMC3     C 8333   2.832   4.068  10.587 -0.0432  0.1701  0.3552
  558TMC3     O 8334   2.950   4.090  10.585 -0.2172  0.5359  0.0321
  558TMC3     H 8335   2.588   4.158  10.593 -1.1083 -3.0131 -0.8602
  558TMC3    H1 8336   2.884   4.017  10.332 -0.6314 -0.6293  2.3507
  558TMC3    H2 8337   2.581   4.281  10.186  2.5746  1.0000 -0.0784
  558TMC3    C7 8338   2.811   4.153  10.116 -0.1697  0.1482 -0.0864
  558TMC3    C8 8339   2.451   4.295  10.413  0.3491 -0.1515 -0.3817
  558TMC3    O1 8340   2.930   4.128  10.120  0.0413  0.3126  0.0284
  558TMC3    O2 8341   2.373   4.306  10.319  0.3785  0.0130  0.8487
  559MPD2     C 8342   2.900   0.273  10.309  0.3316  0.0588 -0.4449
  559MPD2    C1 8343   2.816   0.199  10.395  0.0748  0.4387  0.0323
  559MPD2    C2 8344   2.844   0.191  10.528  0.2173 -0.1266  0.0070
  559MPD2    C3 8345   2.958   0.257  10.580 -0.0757 -0.9570  0.7016
  559MPD2    C4 8346   3.041   0.324  10.486 -0.9835 -0.5914  0.2579
  559MPD2    C5 8347   3.006   0.339  10.356 -0.3103  0.2074  0.1883
  559MPD2     H 8348   2.774   0.140  10.592  0.7760 -0.5014  0.3177
  559MPD2    H1 8349   3.129   0.377  10.518 -1.2464  0.3583 -0.5927
  559MPD2    H2 8350   2.882   0.266  10.202  0.5148  1.1995 -0.5408
  559MPD2    H3 8351   3.070   0.390  10.284 -0.2037 -2.1776 -1.3999
  559MPD2     N 8352   2.990   0.245  10.714 -1.0483 -0.5998 -0.3979
  559MPD2    H5 8353   2.935   0.181  10.770 -0.1053 -1.4981 -0.5075
  559MPD2    N1 8354   2.702   0.138  10.334  0.1101  0.5362 -0.4615
  559MPD2    H7 8355   2.691   0.151  10.233 -0.7500 -0.8947 -0.5497
  560TMC3    C1 8356   3.101   0.263  10.925  0.9395  0.1441 -0.0773
  560TMC3    C2 8357   2.993   0.211  10.994  0.1808 -0.0840 -0.3872
  560TMC3    C3 8358   3.024   0.156  11.116  0.6125 -0.2564  0.5951
  560TMC3    C4 8359   3.235   0.269  10.975 -0.2068 -0.2567  0.3071
  560TMC3    C5 8360   3.258   0.225  11.105 -0.4356  0.6861  0.5681
  560TMC3    C6 8361   3.152   0.171  11.171 -0.0286  0.3623  0.2040
  560TMC3     C 8362   3.085   0.315  10.788  0.1181 -0.0561 -0.1302
  560TMC3     O 8363   3.166   0.395  10.743 -0.4928 -0.4447  0.6217
  560TMC3     H 8364   2.893   0.208  10.952  0.2207  1.7910 -0.6346
  560TMC3    H1 8365   3.315   0.307  10.913  0.5457 -0.0465  1.4022
  560TMC3    H2 8366   3.165   0.138  11.273 -0.3289 -0.7373 -0.1174
  560TMC3    C7 8367   3.385   0.171  11.140  0.2165  0.8335 -0.2821
  560TMC3    C8 8368   2.933   0.057  11.165  0.4279 -0.0305  0.0297
  560TMC3    O1 8369   3.381   0.061  11.192  0.0523  0.2197  0.6675
  560TMC3    O2 8370   2.824   0.070  11.115  0.1911  0.1702  0.3403
  561TMC3    C1 8371   1.204   4.062  11.570 -0.0115 -0.2744 -0.5963
  561TMC3    C2 8372   1.120   3.962  11.596 -0.0457 -0.4244  0.0696
  561TMC3    C3 8373   0.988   3.990  11.588 -0.2452 -0.2852  0.0178
  561TMC3    C4 8374   1.162   4.177  11.517  0.1726 -0.0837 -0.0679
  561TMC3    C5 8375   1.031   4.198  11.495  0.1734 -0.3634  0.2029
  561TMC3    C6 8376   0.940   4.112  11.536  0.8080  0.3722  0.1641
  561TMC3     C 8377   1.321   4.072  11.661  0.2752  0.7324  0.2859
  561TMC3     O 8378   1.319   3.988  11.751  0.1766 -0.0580 -0.4184
  561TMC3     H 8379   1.155   3.866  11.632 -1.1594 -1.0822 -0.5973
  561TMC3    H1 8380   1.226   4.263  11.507 -0.5289  0.0835 -2.9968
  561TMC3    H2 8381   0.835   4.135  11.522  0.9687  1.1851  0.2650
  561TMC3    C7 8382   0.993   4.338  11.478 -0.0002 -0.0311  0.4541
  561TMC3    C8 8383   0.888   3.904  11.645 -0.9796 -0.5898  0.4500
  561TMC3    O1 8384   0.912   4.387  11.551 -0.6198 -0.0498 -0.6139
  561TMC3    O2 8385   0.900   3.787  11.653  0.1912 -0.1007  0.4974
  562TMC3    C1 8386   2.362   1.475  16.562 -0.5015 -0.4075 -0.0047
  562TMC3    C2 8387   2.315   1.590  16.497 -0.3364  0.4570  0.0735
  562TMC3    C3 8388   2.294   1.575  16.364 -0.2110  0.0549  0.5424
  562TMC3    C4 8389   2.398   1.366  16.491  0.0413  0.3080 -0.4947
  562TMC3    C5 8390   2.406   1.368  16.354  0.3449  1.0693  1.0370
  562TMC3    C6 8391   2.355   1.476  16.288 -0.7651  0.1423  0.1663
  562TMC3     C 8392   2.466   1.507  16.666  0.5514 -0.2557  0.0021
  562TMC3     O 8393   2.570   1.447  16.663  0.8275  0.1351 -0.0630
  562TMC3     H 8394   2.259   1.667  16.550 -0.8941  0.9668 -1.2412
  562TMC3    H1 8395   2.435   1.286  16.554 -0.8051 -0.3466 -0.8393
  562TMC3    H2 8396   2.356   1.471  16.180  0.0306 -1.1341  0.2294
  562TMC3    C7 8397   2.417   1.247  16.271 -0.1346  0.9261  0.2567
  562TMC3    C8 8398   2.182   1.647  16.304  0.2237 -0.3774 -0.5898
  562TMC3    O1 8399   2.420   1.258  16.150 -0.7440  0.2139  0.0555
  562TMC3    O2 8400   2.140   1.750  16.365 -0.1139  0.0205 -0.6920
  563MPD2     C 8401   4.261   1.416  15.651  0.3408 -0.5412  0.0761
  563MPD2    C1 8402   4.361   1.429  15.744 -0.4315  0.9803 -0.0225
  563MPD2    C2 8403   4.442   1.543  15.744 -0.0778 -0.2959  0.8468
  563MPD2    C3 8404   4.419   1.638  15.645 -0.4842  0.6396 -0.1095
  563MPD2    C4 8405   4.333   1.616  15.538  0.8737 -0.2543 -0.3381
  563MPD2    C5 8406   4.256   1.508  15.552 -0.6520  0.0204 -0.6285
  563MPD2     H 8407   4.519   1.558  15.818 -1.8145 -1.0504  2.8027
  563MPD2    H1 8408   4.302   1.694  15.470 -0.1066 -0.4364 -0.1026
  563MPD2    H2 8409   4.189   1.335  15.654  1.3692 -1.5066 -1.0661
  563MPD2    H3 8410   4.191   1.490  15.467  0.1866  4.2220 -2.1517
  563MPD2     N 8411   4.499   1.749  15.662 -0.0881 -0.4887 -0.7972
  563MPD2    H5 8412   4.562   1.754  15.742  2.0995  2.1040 -2.6745
  563MPD2    N1 8413   4.373   1.329  15.847 -0.1816 -0.7372  0.0182
  563MPD2    H7 8414   4.310   1.249  15.851  0.3668 -1.1476  0.4778
  564TMC3    C1 8415   4.448   1.219  16.048 -0.5786  0.0290  0.0797
  564TMC3    C2 8416   4.363   1.114  16.017 -0.3115  1.1946  0.0984
  564TMC3    C3 8417   4.357   1.007  16.104 -0.6836 -0.5231  0.2729
  564TMC3    C4 8418   4.530   1.218  16.162  0.2116 -0.4717 -0.0774
  564TMC3    C5 8419   4.517   1.112  16.248  0.2847  0.0847 -0.6931
  564TMC3    C6 8420   4.429   1.012  16.221 -0.1029 -0.0389 -0.5180
  564TMC3     C 8421   4.460   1.337  15.961  0.2408  0.3598 -0.0545
  564TMC3     O 8422   4.545   1.425  15.993 -0.5091  0.5423  0.3151
  564TMC3     H 8423   4.322   1.089  15.919  2.5159 -0.3868 -0.6664
  564TMC3    H1 8424   4.576   1.312  16.190  2.9992 -1.7409 -0.4194
  564TMC3    H2 8425   4.427   0.925  16.286  0.4532 -0.0743 -0.5541
  564TMC3    C7 8426   4.636   1.092  16.328 -0.0261  0.0778  0.1698
  564TMC3    C8 8427   4.279   0.883  16.070 -0.8112 -0.1884  0.2672
  564TMC3    O1 8428   4.712   1.186  16.333  0.1718 -1.0657  0.4248
  564TMC3    O2 8429   4.286   0.804  16.163 -0.5184  0.3019 -0.1791
  565TMC3    C1 8430   1.026   3.958  10.052 -0.4305 -0.1782  0.0118
  565TMC3    C2 8431   1.006   3.900  10.170  0.4218 -0.1536  0.1882
  565TMC3    C3 8432   0.886   3.845  10.201  0.0042 -0.1966  1.0810
  565TMC3    C4 8433   0.921   3.955   9.955 -0.0896  0.1879  0.8402
  565TMC3    C5 8434   0.797   3.911   9.996  0.6474  0.6261 -0.0526
  565TMC3    C6 8435   0.782   3.846  10.113 -0.3806  0.3562  0.8565
  565TMC3     C 8436   1.136   4.058  10.037  0.1045  0.9431  0.9916
  565TMC3     O 8437   1.205   4.083  10.138 -0.2716  0.3398 -0.0022
  565TMC3     H 8438   1.094   3.889  10.231  0.2108 -0.4718  0.4361
  565TMC3    H1 8439   0.934   3.989   9.853  1.8258  1.8247  1.6450
  565TMC3    H2 8440   0.688   3.808  10.152 -1.2294 -0.8716 -2.4194
  565TMC3    C7 8441   0.684   3.917   9.914  0.0730 -0.2065  0.5768
  565TMC3    C8 8442   0.857   3.784  10.328 -0.1662  0.0293 -0.2569
  565TMC3    O1 8443   0.583   3.854   9.945  0.1988 -0.2370  0.5505
  565TMC3    O2 8444   0.791   3.680  10.334  0.3742  0.5575 -0.1999
  566MPD2     C 8445   2.218   0.270  14.640  0.3782  0.5923  0.4748
  566MPD2    C1 8446   2.306   0.194  14.571  0.4357 -0.4212  0.8719
  566MPD2    C2 8447   2.271   0.069  14.522  0.6800 -0.2599 -0.1000
  566MPD2    C3 8448   2.136   0.030  14.532  0.0505  0.2067 -0.5835
  566MPD2    C4 8449   2.050   0.103  14.614  0.6172 -0.3376 -0.2277
  566MPD2    C5 8450   2.092   0.220  14.673  0.5698 -1.2475 -0.1463
  566MPD2     H 8451   2.345   0.011  14.469  0.7745 -1.0621  0.9133
  566MPD2    H1 8452   1.944   0.080  14.611  0.4828  0.0837  1.2323
  566MPD2    H2 8453   2.248   0.365  14.683  1.1243  1.1386 -1.2118
  566MPD2    H3 8454   2.028   0.276  14.739  0.9087 -1.4707  0.3725
  566MPD2     N 8455   2.083   4.659  14.461  0.9345 -0.1063 -0.1975
  566MPD2    H5 8456   1.982   4.657  14.456  0.8461  2.7743  0.8499
  566MPD2    N1 8457   2.436   0.246  14.529  0.0939 -0.4668 -0.5176
  566MPD2    H7 8458   2.505   0.180  14.496 -1.7422 -2.6320 -0.0377
  567TMC3    C1 8459   2.584   0.398  14.426 -0.2595  0.5713 -0.0852
  567TMC3    C2 8460   2.569   0.402  14.293  0.6244 -0.2596  0.5782
  567TMC3    C3 8461   2.665   0.357  14.206 -0.2122  0.0170  0.7888
  567TMC3    C4 8462   2.688   0.320  14.476 -0.1010  0.1143 -0.8074
  567TMC3    C5 8463   2.767   0.243  14.384  0.4514 -0.7332 -0.0764
  567TMC3    C6 8464   2.760   0.265  14.247  0.1734  0.5741 -0.0441
  567TMC3     C 8465   2.462   0.377  14.511  0.5681 -0.9357 -0.6639
  567TMC3     O 8466   2.385   0.476  14.530  0.1967  0.6683 -0.3998
  567TMC3     H 8467   2.483   0.453  14.250  0.9552 -1.1511 -1.1125
  567TMC3    H1 8468   2.710   0.318  14.582  0.3271  1.3593 -0.8730
  567TMC3    H2 8469   2.809   0.195  14.180  1.3924  1.8458 -0.4732
  567TMC3    C7 8470   2.789   0.103  14.426  0.3586  0.4478  0.0804
  567TMC3    C8 8471   2.634   0.373  14.066 -0.0530 -0.5211  0.8615
  567TMC3    O1 8472   2.814   0.016  14.344  0.2984  0.6509 -0.0598
  567TMC3    O2 8473   2.536   0.436  14.037 -0.3687 -0.0078 -0.2257
  568MPD2     C 8474   4.416   0.253  16.907 -0.4307  0.7056  0.3768
  568MPD2    C1 8475   4.327   0.359  16.918  0.4442  0.3404 -0.5044
  568MPD2    C2 8476   4.233   0.381  16.818 -0.4702  0.1431  0.4971
  568MPD2    C3 8477   4.208   0.297  16.709 -0.6339  0.1313 -1.5557
  568MPD2    C4 8478   4.300   0.191  16.702  0.6036  0.3182 -0.3901
  568MPD2    C5 8479   4.402   0.171  16.797 -0.4546  0.3657  0.3477
  568MPD2     H 8480   4.174   0.472  16.817  0.3514  0.6524 -1.2116
  568MPD2    H1 8481   4.310   0.115  16.626  0.2073 -0.8778  0.7501
  568MPD2    H2 8482   4.491   0.234  16.983 -1.2042 -0.3575  0.8775
  568MPD2    H3 8483   4.471   0.088  16.791  0.0440  0.8744 -0.8774
  568MPD2     N 8484   4.118   0.326  16.613 -0.3715 -0.3638  0.0034
  568MPD2    H5 8485   4.062   0.407  16.638 -1.3744 -1.2142  0.5314
  568MPD2    N1 8486   4.344   0.444  17.035  0.0106 -0.1621 -0.1421
  568MPD2    H7 8487   4.419   0.419  17.099  0.7953 -0.6051 -1.2429
  569TMC3    C1 8488   3.980   0.311  16.426 -0.0501 -0.4511 -0.0861
  569TMC3    C2 8489   3.919   0.432  16.464 -0.1580 -0.1026 -0.2501
  569TMC3    C3 8490   3.836   0.505  16.384 -0.5079  0.2941  0.2567
  569TMC3    C4 8491   3.959   0.263  16.299  0.3890  0.2573 -0.3090
  569TMC3    C5 8492   3.880   0.345  16.219  0.6157  0.6655 -0.1077
  569TMC3    C6 8493   3.829   0.461  16.258 -0.2408  0.0254  0.2417
  569TMC3     C 8494   4.088   0.255  16.497 -0.8400  0.2109 -0.4730
  569TMC3     O 8495   4.135   0.150  16.452 -0.2457  0.4364  0.2767
  569TMC3     H 8496   3.933   0.476  16.562  1.4703 -4.3106  1.4031
  569TMC3    H1 8497   3.989   0.167  16.259 -1.4736 -0.8137  0.8616
  569TMC3    H2 8498   3.757   0.514  16.197  0.9081  3.2490  1.6934
  569TMC3    C7 8499   3.922   0.364  16.079  0.1961 -0.7822 -0.0032
  569TMC3    C8 8500   3.810   0.641  16.413  0.4913 -0.0424 -0.1874
  569TMC3    O1 8501   3.914   0.278  15.993 -0.3416 -0.5730 -0.0774
  569TMC3    O2 8502   3.692   0.678  16.391 -0.2087 -0.4017  0.5958
  570TMC3    C1 8503   3.401   4.275  16.181 -0.8315  0.0792 -0.1313
  570TMC3    C2 8504   3.504   4.303  16.097  0.4602  0.4090  1.0449
  570TMC3    C3 8505   3.560   4.426  16.100 -0.5618  0.0259  0.4358
  570TMC3    C4 8506   3.357   4.366  16.269 -0.9727 -0.5983  0.2212
  570TMC3    C5 8507   3.414   4.491  16.273 -0.2847  0.4818  0.1835
  570TMC3    C6 8508   3.521   4.523  16.192  0.7626  0.0876 -0.8811
  570TMC3     C 8509   3.348   4.142  16.175 -0.3269 -0.1232 -0.5681
  570TMC3     O 8510   3.361   4.085  16.066  0.3195  0.8379 -0.3956
  570TMC3     H 8511   3.526   4.231  16.019  0.1429 -0.0118  1.3437
  570TMC3    H1 8512   3.270   4.346  16.331 -1.1473 -1.5771 -0.3294
  570TMC3    H2 8513   3.573   4.618  16.195  0.2925  0.3140  0.2639
  570TMC3    C7 8514   3.374   4.592  16.374 -0.6684  0.1904 -0.1537
  570TMC3    C8 8515   3.684   4.457  16.036  0.1060  0.9545 -0.6557
  570TMC3    O1 8516   3.314   4.551  16.471 -0.1053 -0.1109 -0.2135
  570TMC3    O2 8517   3.721   4.574  16.053  0.4223 -0.1228 -0.6045
  571MPD2     C 8518   1.218   1.909  17.197 -0.2934  0.3900  0.6923
  571MPD2    C1 8519   1.219   1.847  17.325 -0.1418 -0.2668  0.0837
  571MPD2    C2 8520   1.205   1.926  17.441  0.0246  0.5414 -0.0043
  571MPD2    C3 8521   1.217   2.067  17.429  0.1125 -0.6593  0.0661
  571MPD2    C4 8522   1.214   2.124  17.302 -0.3990 -0.1028 -0.0654
  571MPD2    C5 8523   1.207   2.043  17.195  0.1406  0.2761  0.4275
  571MPD2     H 8524   1.199   1.875  17.537 -0.7596 -0.4511 -0.5750
  571MPD2    H1 8525   1.220   2.232  17.295  3.7899 -0.1227  3.5251
  571MPD2    H2 8526   1.206   1.865  17.098  0.0982 -1.2511  1.3771
  571MPD2    H3 8527   1.206   2.101  17.103 -1.5870 -1.7109 -0.7824
  571MPD2     N 8528   1.229   2.151  17.537  0.0499  0.0832  0.4405
  571MPD2    H5 8529   1.237   2.251  17.519  1.4730 -0.4701 -2.1106
  571MPD2    N1 8530   1.235   1.702  17.329  0.1231  0.6686 -0.4951
  571MPD2    H7 8531   1.256   1.649  17.245 -1.3052 -1.2050  0.3431
  572TMC3    C1 8532   1.311   2.203   0.007 -0.2828 -0.5097  0.2506
  572TMC3    C2 8533   1.291   2.182   0.135  0.1184  0.2075 -0.6828
  572TMC3    C3 8534   1.347   2.281   0.219 -0.2021  0.2407 -0.0492
  572TMC3    C4 8535   1.384   2.301  17.709 -0.0518  0.3332  0.4296
  572TMC3    C5 8536   1.434   2.394   0.041  0.6637  0.2491 -0.1715
  572TMC3    C6 8537   1.410   2.392   0.175 -0.0401  0.2042 -0.8339
  572TMC3     C 8538   1.241   2.106  17.664 -0.3072  0.1503 -0.1386
  572TMC3     O 8539   1.225   1.998  17.717 -0.2616  0.2167 -0.3081
  572TMC3     H 8540   1.253   2.088   0.172  0.8607  0.7487  1.4942
  572TMC3    H1 8541   1.431   2.278  17.614 -0.8701  0.2271  0.0523
  572TMC3    H2 8542   1.456   2.467   0.239  1.5299  0.3199 -2.1030
  572TMC3    C7 8543   1.510   2.501  17.730  0.4336  0.2807  0.6889
  572TMC3    C8 8544   1.346   2.262   0.362 -0.4241 -0.5355  0.2677
  572TMC3    O1 8545   1.478   2.521  17.614  0.0464  0.0516  0.5571
  572TMC3    O2 8546   1.446   2.302   0.421  0.0930  0.2435 -0.1498
  573MPD2     C 8547   2.341   1.969   0.944 -0.0558 -0.1712 -0.3653
  573MPD2    C1 8548   2.458   2.033   0.911  0.3400 -0.1263  0.2335
  573MPD2    C2 8549   2.509   2.019   0.783 -0.6397  0.5598  0.4135
  573MPD2    C3 8550   2.455   1.927   0.695 -0.0889 -0.0930  0.1939
  573MPD2    C4 8551   2.346   1.854   0.740 -0.6269  0.2579 -0.3506
  573MPD2    C5 8552   2.277   1.884   0.858  0.0897 -0.4472  0.7812
  573MPD2     H 8553   2.588   2.086   0.753 -1.7715  1.7668  0.1533
  573MPD2    H1 8554   2.305   1.774   0.679  1.7042  0.2181 -1.8653
  573MPD2    H2 8555   2.285   1.985   1.035 -1.7468 -0.8478 -1.2994
  573MPD2    H3 8556   2.185   1.841   0.896 -1.3742  0.6142 -1.5996
  573MPD2     N 8557   2.499   1.914   0.560  0.6198  0.6783  0.1289
  573MPD2    H5 8558   2.452   1.847   0.500  1.6053  0.5536 -0.5204
  573MPD2    N1 8559   2.506   2.114   1.011 -0.7594 -0.3063  0.5962
  573MPD2    H7 8560   2.443   2.110   1.091  0.4888  2.5104  1.7246
  574TMC3    C1 8561   2.577   2.010   0.361  1.0653  0.2872  0.1756
  574TMC3    C2 8562   2.451   2.036   0.312 -0.3034  0.1503  0.5842
  574TMC3    C3 8563   2.436   2.107   0.198  0.1287 -0.0569  0.1258
  574TMC3    C4 8564   2.684   2.049   0.288  0.2085  0.6512 -0.3467
  574TMC3    C5 8565   2.664   2.107   0.166  0.3601 -0.3985  0.5916
  574TMC3    C6 8566   2.541   2.140   0.123  0.2678  0.0304 -0.6756
  574TMC3     C 8567   2.597   1.992   0.502  0.0873 -0.0929 -0.3124
  574TMC3     O 8568   2.685   2.058   0.559  0.1499 -0.0743 -0.2155
  574TMC3     H 8569   2.360   2.003   0.361 -0.6256  0.7198  0.3652
  574TMC3    H1 8570   2.781   2.034   0.333  0.2116  0.2579 -0.4886
  574TMC3    H2 8571   2.524   2.170   0.020 -1.5385  0.3729 -0.2801
  574TMC3    C7 8572   2.773   2.146   0.083 -0.6827  0.8336 -0.0153
  574TMC3    C8 8573   2.321   2.197   0.193  0.2709 -0.0086  0.8570
  574TMC3    O1 8574   2.754   2.169  17.716  0.3642  0.0977 -0.4318
  574TMC3    O2 8575   2.237   2.174   0.280  0.2695  0.2439  0.2425
  575TMC3    C1 8576   0.647   3.246  11.019  0.2571  0.2972 -0.5340
  575TMC3    C2 8577   0.519   3.200  10.998  0.2719 -0.4555 -0.0372
  575TMC3    C3 8578   0.446   3.273  10.902  0.6476 -0.1552  0.7888
  575TMC3    C4 8579   0.697   3.346  10.952  0.5015  0.4505 -0.3053
  575TMC3    C5 8580   0.621   3.422  10.872  0.5335  0.6686  0.2401
  575TMC3    C6 8581   0.490   3.388  10.841  0.0593  0.7221 -0.0020
  575TMC3     C 8582   0.745   3.168  11.094 -0.7758  0.3063 -0.4317
  575TMC3     O 8583   0.853   3.217  11.129 -0.1659  0.0825 -0.0777
  575TMC3     H 8584   0.474   3.114  11.047 -1.1111  0.7842  0.8896
  575TMC3    H1 8585   0.801   3.372  10.965  0.7179 -0.9314  0.7465
  575TMC3    H2 8586   0.429   3.456  10.782 -0.4114 -0.4307 -0.8344
  575TMC3    C7 8587   0.683   3.506  10.774 -0.3559  0.7543  0.4545
  575TMC3    C8 8588   0.303   3.261  10.924  0.3633  0.0407 -0.0658
  575TMC3    O1 8589   0.625   3.516  10.668 -0.5430 -0.0742  0.1569
  575TMC3    O2 8590   0.268   3.200  11.020  0.5143 -0.0585  0.1811
  576MPD2     C 8591   0.152   4.289  12.718  0.3228 -0.1176  0.1773
  576MPD2    C1 8592   0.154   4.398  12.628 -0.5489  0.9091  0.0623
  576MPD2    C2 8593   0.134   4.522  12.682  0.3528  0.0730  0.5941
  576MPD2    C3 8594   0.090   4.542  12.808 -0.3788 -0.2501 -0.5129
  576MPD2    C4 8595   0.089   4.434  12.893 -0.0430 -0.3375  0.0949
  576MPD2    C5 8596   0.122   4.310  12.848  0.2161  1.3696 -0.9254
  576MPD2     H 8597   0.141   4.609  12.618 -0.9879 -0.4152 -0.1919
  576MPD2    H1 8598   0.062   4.444  12.997  0.1996 -3.1709  0.4199
  576MPD2    H2 8599   0.186   4.189  12.693 -0.2875  0.1983 -1.9875
  576MPD2    H3 8600   0.133   4.224  12.914 -1.4421  1.3691 -0.6565
  576MPD2     N 8601   0.064   4.668  12.848 -0.2839  0.6773 -0.2703
  576MPD2    H5 8602   0.054   4.732  12.770  1.2106  0.7227 -0.4176
  576MPD2    N1 8603   0.201   4.381  12.495  0.0747  0.0320 -0.2318
  576MPD2    H7 8604   0.210   4.468  12.443 -2.0734 -0.9313 -2.1776
  577TMC3    C1 8605   0.248   4.299  12.286 -0.1971  0.0559 -0.0258
  577TMC3    C2 8606   0.227   4.194  12.198 -0.0032 -0.2983 -0.2742
  577TMC3    C3 8607   0.251   4.211  12.065 -0.1692 -0.4032  0.1065
  577TMC3    C4 8608   0.277   4.425  12.241 -0.3023  0.0620  0.4929
  577TMC3    C5 8609   0.304   4.439  12.108 -0.1143  0.2431 -0.2541
  577TMC3    C6 8610   0.281   4.336  12.018 -0.1491 -0.6723 -0.6303
  577TMC3     C 8611   0.206   4.267  12.423 -0.6685 -0.9656 -0.6286
  577TMC3     O 8612   0.173   4.154  12.456  0.1254 -0.2947 -0.0528
  577TMC3     H 8613   0.214   4.096  12.243  1.4061 -1.4252 -2.3445
  577TMC3    H1 8614   0.295   4.509  12.307 -0.5779  1.1292 -0.7900
  577TMC3    H2 8615   0.315   4.346  11.915 -0.4769  0.9539 -0.5876
  577TMC3    C7 8616   0.372   4.553  12.062 -0.6651  1.2675  0.3720
  577TMC3    C8 8617   0.281   4.085  11.994  0.7449  0.0107  0.1381
  577TMC3    O1 8618   0.441   4.609  12.147 -0.3323  0.7469  0.1224
  577TMC3    O2 8619   0.209   3.988  12.006  0.5753 -0.6395 -0.1485
  578MPD2     C 8620   3.174   4.580   1.299  0.4014  0.8102  0.5849
  578MPD2    C1 8621   3.209   4.588   1.170 -0.3935  1.2827  0.1783
  578MPD2    C2 8622   3.346   4.551   1.144 -0.0157 -0.0443  0.2741
  578MPD2    C3 8623   3.437   4.523   1.243 -0.7991  0.6091 -0.1964
  578MPD2    C4 8624   3.386   4.506   1.370 -0.2930  0.7761  0.2579
  578MPD2    C5 8625   3.257   4.541   1.399 -0.5878 -1.1479  0.2141
  578MPD2     H 8626   3.385   4.552   1.043  0.6977 -0.1767  0.5458
  578MPD2    H1 8627   3.458   4.496   1.451  1.1019 -2.0764 -1.3211
  578MPD2    H2 8628   3.072   4.602   1.331  0.5067  0.4536  1.1800
  578MPD2    H3 8629   3.231   4.540   1.504 -1.8247 -0.6096 -0.0863
  578MPD2     N 8630   3.568   4.476   1.211  0.1547  0.0320 -0.9724
  578MPD2    H5 8631   3.592   4.470   1.112 -1.6046 -2.8186 -1.1924
  578MPD2    N1 8632   3.124   4.641   1.075  0.5092  0.6562 -0.7685
  578MPD2    H7 8633   3.031   4.667   1.106  0.7149  1.6177 -0.9875
  579TMC3    C1 8634   3.792   4.402   1.233 -0.3549 -0.0640 -0.1221
  579TMC3    C2 8635   3.915   4.430   1.288 -0.2071 -0.1647 -0.2521
  579TMC3    C3 8636   4.027   4.356   1.253  0.0481 -0.1025  0.3837
  579TMC3    C4 8637   3.785   4.291   1.152  0.5164 -0.9448  0.0640
  579TMC3    C5 8638   3.892   4.216   1.124  0.2025  0.5956 -0.2709
  579TMC3    C6 8639   4.017   4.246   1.173  0.7787 -0.8227  0.5059
  579TMC3     C 8640   3.676   4.454   1.299 -0.1173 -0.5645  0.2885
  579TMC3     O 8641   3.701   4.514   1.402  0.3950  0.2795 -0.0334
  579TMC3     H 8642   3.921   4.508   1.363  1.0040  3.1745 -3.7968
  579TMC3    H1 8643   3.685   4.266   1.120  0.5946  1.0202 -1.7430
  579TMC3    H2 8644   4.097   4.175   1.157  0.4033 -0.8433 -1.2406
  579TMC3    C7 8645   3.878   4.083   1.072  0.4814 -0.2932  0.2943
  579TMC3    C8 8646   4.143   4.369   1.345 -0.1184  1.2200  0.4580
  579TMC3    O1 8647   3.980   4.013   1.061 -0.3482 -0.5267  0.2595
  579TMC3    O2 8648   4.136   4.428   1.451 -0.2002 -0.4680 -0.6535
  580TMC3    C1 8649   2.547   3.379  12.632 -0.5352  0.0108  0.6377
  580TMC3    C2 8650   2.616   3.488  12.685  0.7915  0.3279  1.0046
  580TMC3    C3 8651   2.724   3.466  12.763  0.4453  0.3372 -0.2878
  580TMC3    C4 8652   2.575   3.250  12.661 -0.0094  0.3143  0.3545
  580TMC3    C5 8653   2.680   3.236  12.744 -0.3124 -0.9553  0.2228
  580TMC3    C6 8654   2.762   3.341  12.793  0.4878 -0.1740  0.7333
  580TMC3     C 8655   2.463   3.417  12.523 -0.0413  0.0642 -0.3548
  580TMC3     O 8656   2.472   3.354  12.419 -0.0034  0.0702  0.0444
  580TMC3     H 8657   2.596   3.589  12.650  1.2410 -0.4344 -1.4953
  580TMC3    H1 8658   2.525   3.168  12.611 -0.8181  1.1282 -0.1576
  580TMC3    H2 8659   2.852   3.320  12.851 -0.0327  0.6834  1.8574
  580TMC3    C7 8660   2.755   3.110  12.741 -0.3791  0.8570  0.7115
  580TMC3    C8 8661   2.816   3.572  12.742  0.5103  0.4693  0.1559
  580TMC3    O1 8662   2.827   3.092  12.841  0.1506 -0.0691 -0.4727
  580TMC3    O2 8663   2.775   3.688  12.767  0.4237  0.3806  0.1071
  581MPD2     C 8664   0.615   3.031  14.738  0.3615 -0.6663 -0.1262
  581MPD2    C1 8665   0.525   3.114  14.807 -0.3153 -0.7973  0.2064
  581MPD2    C2 8666   0.444   3.197  14.730 -0.4443 -0.0654  0.0747
  581MPD2    C3 8667   0.447   3.196  14.595  0.5386 -0.0666 -0.5898
  581MPD2    C4 8668   0.541   3.119  14.532  0.4448 -0.8962  0.4937
  581MPD2    C5 8669   0.631   3.044  14.602  0.3986 -0.1337 -0.4990
  581MPD2     H 8670   0.374   3.260  14.784 -0.6780 -0.0275 -0.2709
  581MPD2    H1 8671   0.553   3.116  14.425 -1.5160  1.8331  0.2040
  581MPD2    H2 8672   0.691   2.971  14.786 -1.4332 -2.1689  0.8523
  581MPD2    H3 8673   0.712   3.001  14.545 -0.7954 -2.2094 -0.6531
  581MPD2     N 8674   0.360   3.283  14.529  0.0873  0.3268 -0.1648
  581MPD2    H5 8675   0.304   3.346  14.587  0.2828  0.6789 -0.3570
  581MPD2    N1 8676   0.512   3.114  14.948 -0.4122  0.3501 -0.2722
  581MPD2    H7 8677   0.434   3.164  14.990 -1.2454 -0.3525 -1.0022
  582TMC3    C1 8678   0.520   3.048  15.179  0.2291 -0.3478 -0.3775
  582TMC3    C2 8679   0.603   3.064  15.290  0.5509  0.5107 -1.1969
  582TMC3    C3 8680   0.539   3.097  15.408 -0.4344 -0.6080  0.4957
  582TMC3    C4 8681   0.385   3.055  15.183 -0.7035 -0.4613  0.3801
  582TMC3    C5 8682   0.334   3.091  15.299 -0.1004  0.6080  0.2666
  582TMC3    C6 8683   0.401   3.109  15.413  0.2760  0.1056 -0.1454
  582TMC3     C 8684   0.577   3.037  15.044 -0.3510 -0.3424 -0.3781
  582TMC3     O 8685   0.684   2.974  15.021  0.5284  0.3973 -0.2038
  582TMC3     H 8686   0.709   3.053  15.273  0.8303 -0.0401  0.8851
  582TMC3    H1 8687   0.312   3.057  15.103  0.3602  0.5315 -0.5461
  582TMC3    H2 8688   0.359   3.149  15.504  0.5786 -1.2250  0.5800
  582TMC3    C7 8689   0.196   3.145  15.291 -0.8494 -0.0996  0.1546
  582TMC3    C8 8690   0.601   3.065  15.528 -0.2227 -0.0374  0.0556
  582TMC3    O1 8691   0.109   3.074  15.242  0.2543 -0.4133  0.0692
  582TMC3    O2 8692   0.526   3.017  15.613 -0.0208 -0.1123  0.3144
  583MPD2     C 8693   1.051   0.393  16.844  0.2639  0.1774  0.0068
  583MPD2    C1 8694   1.008   0.478  16.747  0.0968  0.5707  0.7760
  583MPD2    C2 8695   0.936   0.588  16.779 -0.3496  0.2459  0.0264
  583MPD2    C3 8696   0.899   0.601  16.912  0.8577 -0.1338  0.2593
  583MPD2    C4 8697   0.940   0.517  17.010  1.0467  0.3716 -0.3434
  583MPD2    C5 8698   1.020   0.416  16.973  0.7932 -0.2577 -0.4121
  583MPD2     H 8699   0.906   0.652  16.697  3.0344  1.1622 -0.4935
  583MPD2    H1 8700   0.931   0.543  17.115 -1.1109  2.3641 -1.0139
  583MPD2    H2 8701   1.121   0.311  16.827 -0.0838 -0.4334  1.5022
  583MPD2    H3 8702   1.074   0.356  17.046 -0.5608  1.8934  2.3743
  583MPD2     N 8703   0.817   0.707  16.956 -0.4607  0.1127 -0.2684
  583MPD2    H5 8704   0.798   0.786  16.894 -1.2557  1.2203  1.3908
  583MPD2    N1 8705   1.060   0.466  16.617 -0.8399 -0.2817 -0.5006
  583MPD2    H7 8706   1.038   0.541  16.552 -0.8761 -0.0629 -0.2361
  584TMC3    C1 8707   0.720   0.856  17.118 -0.1916 -0.7271  0.6948
  584TMC3    C2 8708   0.730   0.953  17.026  0.1423 -0.1091 -0.6736
  584TMC3    C3 8709   0.717   1.088  17.078  0.4514 -0.5377 -0.1195
  584TMC3    C4 8710   0.681   0.875  17.246  0.3475  0.4698 -0.0646
  584TMC3    C5 8711   0.661   0.999  17.288  0.0920  0.0613  0.3325
  584TMC3    C6 8712   0.689   1.109  17.212  0.4163 -0.0315 -0.3809
  584TMC3     C 8713   0.754   0.715  17.085 -0.3074 -0.3016  0.7989
  584TMC3     O 8714   0.737   0.631  17.175 -0.0079  0.3530 -0.1303
  584TMC3     H 8715   0.757   0.947  16.921 -1.3571 -0.4784 -1.0439
  584TMC3    H1 8716   0.653   0.788  17.305  1.9859  0.9688  1.4362
  584TMC3    H2 8717   0.668   1.211  17.243 -1.8333 -1.0680  1.4932
  584TMC3    C7 8718   0.625   1.015  17.422  0.8962 -0.5012  0.6325
  584TMC3    C8 8719   0.655   1.176  16.975 -0.5387  0.2828 -0.3693
  584TMC3    O1 8720   0.645   0.914  17.489 -0.0208 -0.0678  0.0328
  584TMC3    O2 8721   0.579   1.134  16.891 -0.6665 -0.2483 -0.5777
  585MPD2     C 8722   0.025   4.060   0.058 -0.1632  0.4393 -0.0841
  585MPD2    C1 8723   4.711   4.135  17.711 -0.4720  0.0884 -0.2813
  585MPD2    C2 8724   4.647   4.071  17.610 -0.3386  0.7702 -0.0968
  585MPD2    C3 8725   4.631   3.934  17.609  0.6492  0.0680 -0.4241
  585MPD2    C4 8726   4.703   3.858  17.703  0.2101  0.8070  0.3872
  585MPD2    C5 8727   0.026   3.924   0.059  0.2188 -0.4673  0.7668
  585MPD2     H 8728   4.602   4.133  17.533 -0.4140 -1.0049 -1.4831
  585MPD2    H1 8729   4.684   3.752  17.706  0.2596  0.7937  0.2586
  585MPD2    H2 8730   0.067   4.105   0.147  0.0455  0.9615 -0.4458
  585MPD2    H3 8731   0.066   3.866   0.141 -0.1423 -0.6382  0.8242
  585MPD2     N 8732   4.555   3.865  17.508  0.0337 -0.1161 -0.4161
  585MPD2    H5 8733   4.564   3.764  17.506 -0.7278 -0.1418 -2.5115
  585MPD2    N1 8734   4.731   4.273  17.719 -0.3212 -0.0613  0.0224
  585MPD2    H7 8735   0.047   4.305   0.048 -0.1620 -0.1004 -0.0686
  586TMC3    C1 8736   4.415   3.821  17.330  1.0296 -0.0903 -0.2814
  586TMC3    C2 8737   4.495   3.726  17.278  0.4620  0.2411  0.5449
  586TMC3    C3 8738   4.445   3.629  17.196 -0.3792 -0.3133 -0.3763
  586TMC3    C4 8739   4.287   3.834  17.293 -0.1568 -0.6169  0.8030
  586TMC3    C5 8740   4.232   3.738  17.215 -0.0375  0.8449  0.1839
  586TMC3    C6 8741   4.309   3.630  17.171 -0.1919  0.2189 -0.5905
  586TMC3     C 8742   4.465   3.920  17.424  0.1964 -0.1806  0.2403
  586TMC3     O 8743   4.423   4.036  17.421 -0.0116  0.2426 -0.3853
  586TMC3     H 8744   4.603   3.732  17.283  0.3799  1.9958  0.3907
  586TMC3    H1 8745   4.230   3.913  17.340  0.8407  1.9684 -2.2798
  586TMC3    H2 8746   4.264   3.547  17.117 -0.4335  0.1951 -0.3471
  586TMC3    C7 8747   4.094   3.707  17.227 -0.8407 -0.4137 -0.2099
  586TMC3    C8 8748   4.525   3.542  17.108  0.5397  0.1352  0.7827
  586TMC3    O1 8749   4.054   3.610  17.167 -0.5722 -1.1363 -0.2774
  586TMC3    O2 8750   4.466   3.446  17.073  0.7554 -0.1663 -0.4887
  587TMC3    C1 8751   2.069   2.584  15.924 -0.0205 -0.0669 -0.0048
  587TMC3    C2 8752   2.103   2.677  16.029 -0.4502 -0.1884  0.1284
  587TMC3    C3 8753   2.231   2.679  16.069 -0.7258 -0.8600  0.3103
  587TMC3    C4 8754   2.153   2.484  15.875  0.5540 -0.3474 -0.1702
  587TMC3    C5 8755   2.279   2.475  15.932 -0.4141  0.2167 -0.1877
  587TMC3    C6 8756   2.319   2.575  16.019 -0.1733  0.1560  0.0714
  587TMC3     C 8757   1.951   2.608  15.847 -0.4691  0.8188  0.3275
  587TMC3     O 8758   1.964   2.592  15.726  0.1519 -0.0870 -0.0770
  587TMC3     H 8759   2.039   2.764  16.036  1.7325  1.3505  0.9825
  587TMC3    H1 8760   2.114   2.409  15.807  0.8628  0.3274 -1.0975
  587TMC3    H2 8761   2.416   2.568  16.067 -1.3775 -2.5784  2.0910
  587TMC3    C7 8762   2.383   2.382  15.882  0.1370  0.3138 -0.1444
  587TMC3    C8 8763   2.288   2.794  16.133  0.1012 -0.0942  0.7164
  587TMC3    O1 8764   2.503   2.417  15.900  0.5735 -0.4324  0.3699
  587TMC3    O2 8765   2.412   2.790  16.139 -0.3981  0.4229 -0.4415
  588TMC3    C1 8766   4.449   0.698  10.385 -0.3286 -0.0531  0.0241
  588TMC3    C2 8767   4.375   0.581  10.386 -0.6435 -0.0664 -0.7475
  588TMC3    C3 8768   4.429   0.475  10.320 -0.5607 -0.4147 -0.5839
  588TMC3    C4 8769   4.573   0.709  10.328 -1.2000  0.3590  0.4857
  588TMC3    C5 8770   4.621   0.601  10.266 -0.4893 -0.6993 -0.3636
  588TMC3    C6 8771   4.557   0.480  10.262  0.4131 -0.0920 -0.0422
  588TMC3     C 8772   4.384   0.822  10.437 -0.0344  0.0568  0.1753
  588TMC3     O 8773   4.309   0.818  10.533 -0.2587  0.0600  0.5599
  588TMC3     H 8774   4.275   0.580  10.427  0.4267  0.1587  1.8942
  588TMC3    H1 8775   4.635   0.793  10.358  0.1173 -0.6606  0.5986
  588TMC3    H2 8776   4.593   0.395  10.206 -0.4982  0.0747 -0.8929
  588TMC3    C7 8777   4.734   0.632  10.180  0.3921  0.8474 -0.2758
  588TMC3    C8 8778   4.367   0.346  10.304 -0.0213 -0.5789 -0.0850
  588TMC3    O1 8779   0.063   0.538  10.138 -1.1909 -0.5358  0.5676
  588TMC3    O2 8780   4.246   0.337  10.311 -0.0687  0.2344 -0.3605
  589TMC3    C1 8781   3.512   2.763   1.148  0.2781  0.1171  0.0245
  589TMC3    C2 8782   3.614   2.803   1.231  0.0054  0.2641 -0.3992
  589TMC3    C3 8783   3.727   2.724   1.245 -0.3255 -0.1215 -0.4866
  589TMC3    C4 8784   3.526   2.640   1.088  0.7523 -0.3240  0.1177
  589TMC3    C5 8785   3.639   2.563   1.097 -0.4773 -0.0948 -0.4067
  589TMC3    C6 8786   3.741   2.604   1.175 -0.2973 -0.0919  0.3038
  589TMC3     C 8787   3.402   2.839   1.106 -0.7700 -0.3907 -0.0591
  589TMC3     O 8788   3.328   2.799   1.018  0.8940  0.2881 -0.4771
  589TMC3     H 8789   3.618   2.903   1.273  2.1628 -0.5194  1.2986
  589TMC3    H1 8790   3.439   2.593   1.044  1.8332 -1.5745 -0.6676
  589TMC3    H2 8791   3.829   2.543   1.191 -1.2339 -1.8561 -1.3111
  589TMC3    C7 8792   3.654   2.443   1.015  0.3169  0.1488 -0.1497
  589TMC3    C8 8793   3.844   2.789   1.296 -0.6932  0.4159  0.2505
  589TMC3    O1 8794   3.547   2.391   0.994  0.0186 -0.1974  0.9581
  589TMC3    O2 8795   3.829   2.882   1.375  0.0057 -0.1965 -0.0752
  590MPD2     C 8796   3.210   1.480  16.560 -0.4525  0.1732  0.7372
  590MPD2    C1 8797   3.173   1.470  16.428 -0.8139  0.1154  0.1963
  590MPD2    C2 8798   3.244   1.543  16.330  0.3048 -0.2936  0.1127
  590MPD2    C3 8799   3.368   1.601  16.360 -0.6986  0.6862  0.7013
  590MPD2    C4 8800   3.405   1.605  16.495 -0.3970  0.1441 -0.2291
  590MPD2    C5 8801   3.328   1.545  16.588 -0.2835 -0.2373  0.2796
  590MPD2     H 8802   3.208   1.553  16.228 -3.6377 -1.9957  1.3532
  590MPD2    H1 8803   3.488   1.662  16.535  1.1636 -1.0521 -1.8027
  590MPD2    H2 8804   3.158   1.432  16.642 -1.6441  0.6990  0.2895
  590MPD2    H3 8805   3.363   1.550  16.690 -1.6093  2.5129  0.5834
  590MPD2     N 8806   3.437   1.677  16.261 -1.1130  0.5883  0.6554
  590MPD2    H5 8807   3.380   1.679  16.177 -0.0891 -1.7714 -0.0855
  590MPD2    N1 8808   3.051   1.407  16.396 -0.1710 -0.1147 -0.4029
  590MPD2    H7 8809   2.982   1.408  16.471  1.2478 -2.7279  0.9134
  591TMC3    C1 8810   3.582   1.826  16.179 -0.6582  0.2808  0.4115
  591TMC3    C2 8811   3.701   1.816  16.118 -0.7255  0.0832  0.6460
  591TMC3    C3 8812   3.719   1.873  15.992 -0.2704 -0.1285  0.3006
  591TMC3    C4 8813   3.482   1.892  16.122  0.2766  0.0996 -0.0916
  591TMC3    C5 8814   3.505   1.950  15.997 -0.2141  0.1055 -0.3912
  591TMC3    C6 8815   3.619   1.937  15.928 -0.1400  0.2447  0.2835
  591TMC3     C 8816   3.551   1.740  16.285 -0.3581  0.7296 -0.7369
  591TMC3     O 8817   3.629   1.755  16.377 -0.7119 -0.2082  0.2035
  591TMC3     H 8818   3.778   1.766  16.175  0.1803 -0.6117 -1.2083
  591TMC3    H1 8819   3.387   1.900  16.173  0.6458 -1.9004  0.9153
  591TMC3    H2 8820   3.631   1.957  15.823  0.4631 -0.0945  0.2860
  591TMC3    C7 8821   3.396   2.032  15.942  0.3076 -0.2211 -0.2062
  591TMC3    C8 8822   3.797   1.783  15.906  0.0845  0.5281 -0.2419
  591TMC3    O1 8823   3.280   1.996  15.972 -0.1316 -0.6848 -0.4411
  591TMC3    O2 8824   3.805   1.663  15.929  0.0794  0.2195  0.7652
  592MPD2     C 8825   3.794   3.211  11.564 -0.5247  0.8314 -0.6600
  592MPD2    C1 8826   3.787   3.210  11.702 -0.1159 -0.2453 -0.2072
  592MPD2    C2 8827   3.709   3.120  11.765 -0.3159  0.7339  0.6115
  592MPD2    C3 8828   3.638   3.017  11.703 -0.0999  0.0284 -0.4238
  592MPD2    C4 8829   3.657   3.009  11.565 -0.4852  0.3937 -0.6885
  592MPD2    C5 8830   3.728   3.108  11.500  0.0125 -0.2014  0.6788
  592MPD2     H 8831   3.700   3.121  11.873  0.7254 -2.3713  0.7411
  592MPD2    H1 8832   3.597   2.945  11.502 -2.3863  1.3978  0.0881
  592MPD2    H2 8833   3.846   3.285  11.504 -1.1173 -0.1492 -2.3975
  592MPD2    H3 8834   3.730   3.108  11.392  1.0339 -2.0086  0.7012
  592MPD2     N 8835   3.570   2.927  11.787 -0.0411  0.3934  0.2695
  592MPD2    H5 8836   3.558   2.961  11.882 -1.5036  1.2424 -0.2183
  592MPD2    N1 8837   3.871   3.303  11.770  0.3881 -0.4457  0.1988
  592MPD2    H7 8838   3.917   3.366  11.706 -0.2029 -0.8985 -0.6773
  593TMC3    C1 8839   3.956   3.427  11.951 -0.2491  0.1698  0.1787
  593TMC3    C2 8840   3.937   3.465  12.083  0.1565 -0.1524  0.1029
  593TMC3    C3 8841   4.026   3.546  12.144 -0.2368  0.1770  0.0678
  593TMC3    C4 8842   4.059   3.487  11.878 -0.7178  0.7168 -0.2519
  593TMC3    C5 8843   4.161   3.555  11.940  0.0575 -0.0802 -0.5228
  593TMC3    C6 8844   4.140   3.579  12.073 -0.4086  0.3368 -0.1353
  593TMC3     C 8845   3.872   3.322  11.904  0.3154  0.2172 -0.2090
  593TMC3     O 8846   3.798   3.285  11.997  0.0218 -0.5520 -0.2327
  593TMC3     H 8847   3.847   3.445  12.140 -0.2000  2.0141  0.3005
  593TMC3    H1 8848   4.056   3.467  11.772 -0.0083  1.4172 -0.3943
  593TMC3    H2 8849   4.224   3.637  12.110 -1.2998  1.8149 -0.4094
  593TMC3    C7 8850   4.227   3.665  11.870 -0.2794 -0.2737 -0.2168
  593TMC3    C8 8851   3.951   3.663  12.194  0.5552 -0.0422  0.2532
  593TMC3    O1 8852   4.271   3.757  11.937 -0.3599 -0.6293  0.2410
  593TMC3    O2 8853   3.833   3.680  12.159 -0.5192  0.7563 -0.2268
  594MPD2     C 8854   2.263   1.557  14.142 -0.1273  0.6743  0.1319
  594MPD2    C1 8855   2.270   1.557  14.283  0.1254 -0.9191 -0.1612
  594MPD2    C2 8856   2.358   1.638  14.350  0.9302  0.3018 -0.3034
  594MPD2    C3 8857   2.457   1.711  14.278 -0.2496  0.1483  0.2474
  594MPD2    C4 8858   2.457   1.699  14.136  0.1134  0.5673  0.2184
  594MPD2    C5 8859   2.364   1.625  14.074  0.4330  0.2996  0.4388
  594MPD2     H 8860   2.358   1.651  14.458  1.2229 -0.6041 -0.1910
  594MPD2    H1 8861   2.532   1.739  14.069  0.6612 -1.1198 -0.1657
  594MPD2    H2 8862   2.205   1.488  14.082 -0.6850  1.0212  0.2659
  594MPD2    H3 8863   2.370   1.621  13.966  1.6134  3.7811  0.3915
  594MPD2     N 8864   2.566   1.771  14.354 -0.5832  0.0211 -0.2431
  594MPD2    H5 8865   2.556   1.769  14.455  0.7564 -1.5259 -0.1365
  594MPD2    N1 8866   2.164   1.479  14.346  0.2639 -0.6318 -0.2528
  594MPD2    H7 8867   2.093   1.453  14.279 -3.8169  2.2314  2.9450
  595TMC3    C1 8868   3.002   1.903  14.464 -0.3534 -0.2426  0.2561
  595TMC3    C2 8869   2.911   1.853  14.377  0.1581  0.7206 -0.6603
  595TMC3    C3 8870   2.781   1.861  14.401 -1.0933  0.4859 -0.2902
  595TMC3    C4 8871   2.958   1.975  14.573 -0.0546 -0.1471  0.0691
  595TMC3    C5 8872   2.823   1.996  14.587  0.3851  0.1317 -0.6694
  595TMC3    C6 8873   2.732   1.934  14.508 -0.6504  0.1262  0.7099
  595TMC3     C 8874   3.134   1.931  14.409 -0.0010  0.2547  0.1629
  595TMC3     O 8875   3.176   2.039  14.441 -0.5500 -0.0050 -0.7662
  595TMC3     H 8876   2.943   1.810  14.283  2.1685  0.6148  0.0816
  595TMC3    H1 8877   3.025   2.026  14.642 -0.6383 -0.9907  1.2560
  595TMC3    H2 8878   2.624   1.948  14.516 -0.7245 -0.0210 -0.0948
  595TMC3    C7 8879   2.773   2.129  14.636  0.8013  0.1192 -0.3969
  595TMC3    C8 8880   2.690   1.806  14.305 -0.3926  0.2532 -0.1063
  595TMC3    O1 8881   2.653   2.147  14.639 -0.3024  0.5148  0.2384
  595TMC3    O2 8882   2.730   1.805  14.187  0.0700 -0.1686  0.3894
  596MPD2     C 8883   1.747   0.476  16.956 -0.3841 -0.3947  0.8812
  596MPD2    C1 8884   1.759   0.568  16.853 -0.0308 -0.0746  0.0003
  596MPD2    C2 8885   1.813   0.520  16.736 -0.5785 -0.0626 -0.1880
  596MPD2    C3 8886   1.856   0.392  16.717 -0.4704  0.0377  0.1478
  596MPD2    C4 8887   1.845   0.304  16.823 -0.0498  0.1100  0.0964
  596MPD2    C5 8888   1.790   0.347  16.942  0.2146  0.4411 -0.0086
  596MPD2     H 8889   1.821   0.588  16.651 -1.1188  0.1207 -0.0918
  596MPD2    H1 8890   1.881   0.201  16.816 -1.2516 -0.3288  0.4011
  596MPD2    H2 8891   1.695   0.500  17.048 -2.4134 -0.7074 -0.1959
  596MPD2    H3 8892   1.772   0.280  17.025 -0.8698  0.6319 -0.0828
  596MPD2     N 8893   1.917   0.345  16.593 -0.5231  1.0626  0.1510
  596MPD2    H5 8894   1.953   0.251  16.595  0.9414  1.6108 -0.1655
  596MPD2    N1 8895   1.700   0.698  16.851  0.2046  0.0972  0.2108
  596MPD2    H7 8896   1.701   0.756  16.767  1.1523  0.9035  0.7773
  597TMC3    C1 8897   1.580   0.891  16.933 -0.3492 -0.2416  0.1236
  597TMC3    C2 8898   1.635   0.970  16.831  0.0611 -0.1833  0.0370
  597TMC3    C3 8899   1.567   1.087  16.792  0.1263  0.5416 -0.0274
  597TMC3    C4 8900   1.471   0.925  17.002 -0.8798  0.6708  0.2480
  597TMC3    C5 8901   1.409   1.038  16.961  0.1230 -1.0626 -0.0169
  597TMC3    C6 8902   1.454   1.118  16.861  0.7019 -0.4994  0.1484
  597TMC3     C 8903   1.627   0.752  16.954 -0.2028 -0.6418 -0.5062
  597TMC3     O 8904   1.584   0.698  17.058 -0.3460 -0.1271 -0.1156
  597TMC3     H 8905   1.720   0.941  16.771 -1.0188 -0.9843 -1.0980
  597TMC3    H1 8906   1.426   0.857  17.073 -1.1034 -0.1372 -0.6645
  597TMC3    H2 8907   1.412   1.217  16.845 -1.3126 -1.3157  0.3717
  597TMC3    C7 8908   1.303   1.078  17.057  0.3334  0.1538  0.0859
  597TMC3    C8 8909   1.617   1.183  16.694 -0.4970 -0.0651 -0.0210
  597TMC3    O1 8910   1.273   1.002  17.149 -0.5286 -0.5092 -0.3990
  597TMC3    O2 8911   1.557   1.286  16.674  0.2023  0.1639 -0.3041
  598TMC3    C1 8912   0.073   1.644  15.425 -0.2907  0.6891  0.1375
  598TMC3    C2 8913   4.722   1.541  15.443 -0.4726  0.8135  0.8175
  598TMC3    C3 8914   4.637   1.514  15.345 -0.1318 -0.5401 -0.4775
  598TMC3    C4 8915   0.070   1.716  15.304 -0.2834  0.9186 -0.5445
  598TMC3    C5 8916   4.707   1.689  15.211 -0.3694 -0.8845 -0.5168
  598TMC3    C6 8917   4.626   1.578  15.227  0.0493  0.1636 -0.5284
  598TMC3     C 8918   0.173   1.672  15.527  0.2728  0.2812 -1.1705
  598TMC3     O 8919   0.153   1.642  15.643 -0.0395  0.1720 -0.4830
  598TMC3     H 8920   4.723   1.494  15.541 -1.1798 -2.0992 -0.5747
  598TMC3    H1 8921   0.139   1.796  15.280  1.8049 -0.5922  0.4398
  598TMC3    H2 8922   4.545   1.562  15.157  0.5030 -0.4390 -0.9266
  598TMC3    C7 8923   4.670   1.794  15.124  0.3111 -0.1809  0.0759
  598TMC3    C8 8924   4.557   1.390  15.364  0.7484  0.5813  0.0915
  598TMC3    O1 8925   4.713   1.904  15.159 -0.2432 -0.3769 -0.5437
  598TMC3    O2 8926   4.604   1.314  15.451  0.3350 -0.0225  0.0497
  599MPD2     C 8927   4.535   4.312  16.202  0.3800 -0.1862  0.6042
  599MPD2    C1 8928   4.487   4.189  16.160 -0.2778 -0.7345  0.5930
  599MPD2    C2 8929   4.360   4.155  16.190  0.1717 -0.4683  0.3985
  599MPD2    C3 8930   4.272   4.246  16.248  0.4326 -0.6224 -0.6874
  599MPD2    C4 8931   4.328   4.368  16.289  0.3155  0.1282  0.3254
  599MPD2    C5 8932   4.457   4.394  16.275 -0.5159 -0.0719  0.1555
  599MPD2     H 8933   4.321   4.057  16.163  0.2618 -0.3247 -0.2562
  599MPD2    H1 8934   4.270   4.455  16.321 -0.0400  0.0759 -0.1768
  599MPD2    H2 8935   4.635   4.347  16.179 -1.1164  2.4156 -1.8591
  599MPD2    H3 8936   4.497   4.488  16.313 -0.8912  0.2030 -0.1289
  599MPD2     N 8937   4.132   4.227  16.265 -0.4464  0.3910  0.6279
  599MPD2    H5 8938   4.083   4.310  16.297 -0.0177  1.1264 -0.6494
  599MPD2    N1 8939   4.567   4.099  16.086  0.4662 -0.2164 -0.0745
  599MPD2    H7 8940   4.664   4.128  16.081 -0.0713  1.0290 -3.3455
  600TMC3    C1 8941   3.925   4.127  16.308 -0.0984 -0.4675 -0.4599
  600TMC3    C2 8942   3.838   4.020  16.301  0.0449  0.0901  0.2127
  600TMC3    C3 8943   3.728   4.019  16.375  0.1545  0.6024  0.1121
  600TMC3    C4 8944   3.894   4.233  16.389 -0.4541  0.0252  0.0348
  600TMC3    C5 8945   3.767   4.234  16.442  0.0145 -0.7433 -0.6321
  600TMC3    C6 8946   3.684   4.125  16.447  0.1610  0.1526 -0.5247
  600TMC3     C 8947   4.059   4.111  16.254  0.0764 -0.0844  0.2501
  600TMC3     O 8948   4.101   4.001  16.220  0.0610  0.0250 -0.3106
  600TMC3     H 8949   3.863   3.937  16.235  0.1789 -1.3417  2.0715
  600TMC3    H1 8950   3.962   4.318  16.392 -1.2437  0.5874  2.4848
  600TMC3    H2 8951   3.578   4.129  16.468  0.4318  1.6035  0.6096
  600TMC3    C7 8952   3.722   4.344  16.523 -0.2549  0.2870  0.1975
  600TMC3    C8 8953   3.651   3.892  16.392 -0.2545  0.4242  0.5004
  600TMC3    O1 8954   3.604   4.346  16.562 -0.3211 -0.8941 -0.6204
  600TMC3    O2 8955   3.663   3.828  16.290  0.1351  0.8526  0.1204
  601MPD2     C 8956   1.810   2.924  17.704 -0.1958  0.4136 -0.3041
  601MPD2    C1 8957   1.713   2.873  17.611  0.3278  0.2742  0.4130
  601MPD2    C2 8958   1.655   2.750  17.645 -0.6375  0.4772  0.3113
  601MPD2    C3 8959   1.680   2.686   0.013 -0.1127  0.0458  0.7594
  601MPD2    C4 8960   1.779   2.739   0.097  0.3201  0.1884  0.0112
  601MPD2    C5 8961   1.837   2.858   0.066 -0.8984 -0.1311 -0.2958
  601MPD2     H 8962   1.582   2.715  17.573  0.3014 -0.2550 -0.2910
  601MPD2    H1 8963   1.815   2.699   0.191 -1.1260 -2.6608 -0.6311
  601MPD2    H2 8964   1.869   3.012  17.681 -0.5468  0.3356 -1.4862
  601MPD2    H3 8965   1.896   2.912   0.139  0.5951 -2.2521  0.0474
  601MPD2     N 8966   1.601   2.569   0.056  0.9559  0.0299 -0.0683
  601MPD2    H5 8967   1.629   2.512   0.136 -1.9193 -0.8229  0.3350
  601MPD2    N1 8968   1.682   2.934  17.488 -0.1626 -0.6060 -0.0942
  601MPD2    H7 8969   1.612   2.897  17.425  2.6016  0.4991 -3.8426
  602TMC3    C1 8970   1.654   3.116  17.340 -0.1761  0.8674  0.6111
  602TMC3    C2 8971   1.738   3.167  17.246 -0.2727  0.0472  0.4459
  602TMC3    C3 8972   1.721   3.128  17.116 -0.0846 -0.4151 -0.3695
  602TMC3    C4 8973   1.544   3.038  17.305 -0.1315 -0.5515 -0.4630
  602TMC3    C5 8974   1.532   3.002  17.169  0.5360 -1.0954 -0.1548
  602TMC3    C6 8975   1.625   3.034  17.078  0.5217  0.2935  0.1671
  602TMC3     C 8976   1.736   3.060  17.448  0.1643  0.0018  1.0763
  602TMC3     O 8977   1.812   3.133  17.509  0.0522  0.2775 -0.2397
  602TMC3     H 8978   1.834   3.210  17.273 -0.0601 -0.0423 -0.1546
  602TMC3    H1 8979   1.472   3.002  17.377  0.7598  0.9766  1.1721
  602TMC3    H2 8980   1.629   2.983  16.983 -0.3561  2.6863 -1.1286
  602TMC3    C7 8981   1.429   2.913  17.121  0.2250  0.2411 -0.0599
  602TMC3    C8 8982   1.794   3.195  17.008 -0.1402  0.3241  0.3489
  602TMC3    O1 8983   1.394   2.828  17.202 -0.3573 -0.1843 -0.2798
  602TMC3    O2 8984   1.910   3.235  17.028 -0.2043  0.2740  0.6663
  603TMC3    C1 8985   4.394   2.993  11.419 -0.5844  0.5879  0.2495
  603TMC3    C2 8986   4.419   2.961  11.550  0.5101  0.1398  0.2263
  603TMC3    C3 8987   4.386   2.833  11.589 -0.0015  0.2466  0.1059
  603TMC3    C4 8988   4.353   2.894  11.326 -0.2657 -0.0707  0.3484
  603TMC3    C5 8989   4.310   2.778  11.374 -0.0070  0.2111  0.0350
  603TMC3    C6 8990   4.322   2.749  11.502 -0.7681  0.3305  0.2994
  603TMC3     C 8991   4.475   3.090  11.355 -0.1646 -0.0786  0.4351
  603TMC3     O 8992   4.440   3.116  11.242  0.3267  0.1547  0.2086
  603TMC3     H 8993   4.451   3.041  11.614  0.1273  1.1311 -0.8161
  603TMC3    H1 8994   4.337   2.922  11.223  3.4675 -0.3067 -0.3180
  603TMC3    H2 8995   4.319   2.642  11.522 -1.4325  0.7634  2.4968
  603TMC3    C7 8996   4.236   2.678  11.296  0.1560  0.3155  0.0822
  603TMC3    C8 8997   4.396   2.792  11.728  0.5602 -0.0735 -0.3678
  603TMC3    O1 8998   4.237   2.562  11.337  0.2932  0.2073  0.0378
  603TMC3    O2 8999   4.346   2.682  11.746  0.5147  0.2550 -0.5414
  604MPD2     C 9000   0.780   0.771  16.161 -0.6806  0.1435 -0.0791
  604MPD2    C1 9001   0.756   0.903  16.147  0.0848  0.5568 -0.0838
  604MPD2    C2 9002   0.769   0.959  16.020 -0.2054 -0.2196 -0.0050
  604MPD2    C3 9003   0.820   0.883  15.916  0.1556 -0.4409 -0.4003
  604MPD2    C4 9004   0.843   0.753  15.938  0.2843 -0.0055  0.0370
  604MPD2    C5 9005   0.828   0.699  16.059  0.1688 -0.6326 -0.2426
  604MPD2     H 9006   0.750   1.064  16.003  0.3611  0.1018  1.3450
  604MPD2    H1 9007   0.877   0.686  15.860 -0.0140 -0.9370  0.7120
  604MPD2    H2 9008   0.760   0.716  16.252  1.1579  2.8513  1.9379
  604MPD2    H3 9009   0.842   0.592  16.062 -0.5462 -0.7232 -0.0363
  604MPD2     N 9010   0.851   0.946  15.787  0.1965  0.5419 -0.0901
  604MPD2    H5 9011   0.824   1.044  15.786 -0.6966  0.3086  0.2969
  604MPD2    N1 9012   0.721   0.978  16.264 -0.0517 -0.1350  0.1052
  604MPD2    H7 9013   0.721   0.932  16.354  1.0841 -2.2862 -0.9866
  605TMC3    C1 9014   0.677   1.166  16.398 -0.6557  0.3675 -0.2654
  605TMC3    C2 9015   0.707   1.292  16.424 -1.1054  0.3487 -0.1073
  605TMC3    C3 9016   0.632   1.365  16.511  0.2840  0.2974 -0.6216
  605TMC3    C4 9017   0.569   1.102  16.453 -0.6533  0.4514 -0.2636
  605TMC3    C5 9018   0.504   1.178  16.548  0.9404  0.7071  0.8774
  605TMC3    C6 9019   0.524   1.316  16.570  0.6000 -0.6458 -0.3820
  605TMC3     C 9020   0.702   1.116  16.270 -0.2485 -0.3135 -0.3927
  605TMC3     O 9021   0.716   1.201  16.179  0.3583  0.0608 -0.0596
  605TMC3     H 9022   0.785   1.340  16.366 -0.6025 -1.5199 -0.9686
  605TMC3    H1 9023   0.535   1.002  16.429 -0.9295 -0.1080  2.4967
  605TMC3    H2 9024   0.459   1.375  16.633  0.8325 -0.1824 -0.5754
  605TMC3    C7 9025   0.370   1.144  16.577  0.6100  0.3138 -0.5916
  605TMC3    C8 9026   0.645   1.513  16.497  0.4143 -0.0438 -0.4202
  605TMC3    O1 9027   0.275   1.228  16.592  0.2766  0.4314 -0.2733
  605TMC3    O2 9028   0.762   1.540  16.477 -0.2555  0.0163 -0.3342
  606TMC3    C1 9029   1.680   1.010   0.007  0.5339  0.4021 -0.9611
  606TMC3    C2 9030   1.680   0.977   0.140 -0.4242  0.0850  0.0233
  606TMC3    C3 9031   1.708   0.845   0.171  0.5529  0.2712  0.7428
  606TMC3    C4 9032   1.715   0.917  17.661  0.5177  0.8043  0.2789
  606TMC3    C5 9033   1.753   0.787  17.695  0.3613  0.0834  0.4460
  606TMC3    C6 9034   1.748   0.751   0.075 -0.1720 -0.1505  0.4593
  606TMC3     C 9035   1.630   1.134  17.714 -0.5557  0.4998 -0.3777
  606TMC3     O 9036   1.640   1.159  17.593 -0.0058  0.3957  0.4855
  606TMC3     H 9037   1.641   1.042   0.218 -0.1042 -0.3434  0.5419
  606TMC3    H1 9038   1.719   0.947  17.557 -0.2041 -2.5480 -0.7187
  606TMC3    H2 9039   1.777   0.652   0.110 -0.9368 -0.9399 -1.1460
  606TMC3    C7 9040   1.784   0.686  17.592  0.2663  0.3631  0.2307
  606TMC3    C8 9041   1.725   0.827   0.313  0.3613 -0.4632 -1.1434
  606TMC3    O1 9042   1.805   0.726  17.479 -0.4952 -0.3761 -0.5323
  606TMC3    O2 9043   1.666   0.895   0.395 -0.2015 -0.4955 -0.3861
  607MPD2     C 9044   3.896   2.532  11.416 -0.4239  0.4535  0.2103
  607MPD2    C1 9045   3.814   2.587  11.512 -0.0699 -0.8122 -0.2040
  607MPD2    C2 9046   3.729   2.509  11.583 -0.6929  0.0928 -0.6294
  607MPD2    C3 9047   3.724   2.369  11.560 -0.3366 -0.0655  0.1741
  607MPD2    C4 9048   3.813   2.313  11.471  0.3105  0.4869  0.2183
  607MPD2    C5 9049   3.899   2.393  11.394 -0.9433  0.1608 -0.0530
  607MPD2     H 9050   3.669   2.557  11.660  0.2953 -0.4587  0.4813
  607MPD2    H1 9051   3.820   2.205  11.458 -2.1612  0.8211 -3.6360
  607MPD2    H2 9052   3.956   2.589  11.347 -0.9954 -1.8923 -2.2436
  607MPD2    H3 9053   3.965   2.343  11.325 -0.9811  0.5098 -0.3436
  607MPD2     N 9054   3.655   2.292  11.650  0.3332  0.3416 -0.6906
  607MPD2    H5 9055   3.604   2.347  11.719 -2.7664 -0.3386 -2.4491
  607MPD2    N1 9056   3.825   2.721  11.549 -0.1710  0.1305 -0.7750
  607MPD2    H7 9057   3.762   2.756  11.620 -1.8273  1.1765 -2.7813
  608TMC3    C1 9058   3.966   2.878  11.641  1.2004  0.4433  0.1909
  608TMC3    C2 9059   3.898   2.865  11.761 -0.0055 -0.1248 -0.0147
  608TMC3    C3 9060   3.940   2.932  11.875  0.3742  0.4254  0.3666
  608TMC3    C4 9061   4.084   2.948  11.642 -0.1089 -0.0849 -1.2808
  608TMC3    C5 9062   4.117   3.024  11.755 -0.2239  0.4170 -0.0139
  608TMC3    C6 9063   4.046   3.010  11.875  0.6196 -0.0683 -0.3306
  608TMC3     C 9064   3.933   2.799  11.527 -0.4953  0.7342  0.7000
  608TMC3     O 9065   4.001   2.809  11.426  0.7522  0.0749  0.1194
  608TMC3     H 9066   3.802   2.815  11.764 -1.2164  2.0677 -1.6352
  608TMC3    H1 9067   4.156   2.953  11.561  1.3899 -1.6238 -0.0533
  608TMC3    H2 9068   4.068   3.067  11.965 -2.5897  0.5848  0.0243
  608TMC3    C7 9069   4.202   3.137  11.736 -0.0302  0.1767  0.4795
  608TMC3    C8 9070   3.871   2.902  11.993  0.0856 -0.6379  0.0478
  608TMC3    O1 9071   4.203   3.178  11.620  0.5137  0.0854  0.0611
  608TMC3    O2 9072   3.851   2.991  12.072 -0.1684  0.6789 -0.4544
  609TMC3    C1 9073   2.690   2.521   8.941  0.1963  0.3210 -0.0864
  609TMC3    C2 9074   2.662   2.584   8.821  0.1084  0.3446  0.1688
  609TMC3    C3 9075   2.733   2.542   8.704  0.0447 -0.4259 -0.7551
  609TMC3    C4 9076   2.787   2.429   8.948 -0.9589  0.0955 -0.4417
  609TMC3    C5 9077   2.859   2.395   8.837 -0.2194  0.3623 -0.3749
  609TMC3    C6 9078   2.842   2.450   8.707  0.0475 -0.3203 -0.2084
  609TMC3     C 9079   2.598   2.538   9.056 -0.2511  0.0898  0.5466
  609TMC3     O 9080   2.607   2.441   9.136  0.1432 -0.7924  0.0389
  609TMC3     H 9081   2.577   2.649   8.812  0.4688  1.0723  1.9079
  609TMC3    H1 9082   2.827   2.385   9.039  0.2036  1.0350 -0.5012
  609TMC3    H2 9083   2.912   2.424   8.628 -0.1783  0.4807 -0.6741
  609TMC3    C7 9084   2.961   2.298   8.859 -0.7266  0.6512  0.0877
  609TMC3    C8 9085   2.711   2.614   8.585  0.2099 -0.3544  0.0598
  609TMC3    O1 9086   3.033   2.308   8.958  0.3713 -0.0639 -0.4764
  609TMC3    O2 9087   2.637   2.706   8.582 -0.0910 -0.4566 -0.3726
  610TMC3    C1 9088   3.963   2.738  12.622 -0.4750 -0.2813 -0.4240
  610TMC3    C2 9089   4.026   2.760  12.500 -0.5465 -0.4320  0.5492
  610TMC3    C3 9090   4.115   2.664  12.458 -0.4185 -0.2661  0.2147
  610TMC3    C4 9091   3.978   2.621  12.692  0.4223 -0.0683 -0.6482
  610TMC3    C5 9092   4.067   2.532  12.637 -0.4114  0.2206 -0.1361
  610TMC3    C6 9093   4.135   2.550  12.526 -0.3352 -0.4306 -0.3186
  610TMC3     C 9094   3.823   2.793  12.620  0.4061 -0.2901  0.3728
  610TMC3     O 9095   3.800   2.901  12.564 -0.0200  0.4513  0.6154
  610TMC3     H 9096   4.000   2.836  12.428 -0.5665 -1.9986 -1.0767
  610TMC3    H1 9097   3.938   2.616  12.793  0.5080 -0.7925 -0.6527
  610TMC3    H2 9098   4.209   2.479  12.493 -1.3565 -1.7585  0.2644
  610TMC3    C7 9099   4.129   2.427  12.724 -0.1337  0.4290 -1.0643
  610TMC3    C8 9100   4.115   2.658  12.319  0.4489  0.0588 -0.3905
  610TMC3    O1 9101   4.244   2.400  12.693  0.3020  0.1517  0.2559
  610TMC3    O2 9102   4.167   2.755  12.259 -0.3559  0.0876 -0.4576
  611MPD2     C 9103   2.954   2.766  10.603 -0.4738 -0.7942 -0.4050
  611MPD2    C1 9104   3.033   2.717  10.500 -0.2995  0.0685  0.5250
  611MPD2    C2 9105   3.165   2.748  10.506  0.7101 -0.1299 -0.3890
  611MPD2    C3 9106   3.219   2.827  10.605  0.3484  0.9766 -0.6515
  611MPD2    C4 9107   3.140   2.874  10.702 -0.7139  0.1645 -0.5606
  611MPD2    C5 9108   3.006   2.849  10.701  0.0831 -0.2725 -0.2061
  611MPD2     H 9109   3.229   2.696  10.434 -1.5080 -2.0063 -1.0104
  611MPD2    H1 9110   3.184   2.936  10.779 -1.5494 -1.2659  1.0804
  611MPD2    H2 9111   2.849   2.739  10.606 -0.2243 -1.5063  2.0236
  611MPD2    H3 9112   2.950   2.873  10.790 -0.6613 -2.0338 -0.1955
  611MPD2     N 9113   3.352   2.883  10.599  0.8167  0.2387  0.1692
  611MPD2    H5 9114   3.388   2.919  10.686 -1.4972 -0.0463  1.2345
  611MPD2    N1 9115   2.968   2.635  10.403 -0.1141  0.6976 -0.6113
  611MPD2    H7 9116   2.871   2.610  10.422  0.4522 -2.2348 -1.6386
  612TMC3    C1 9117   3.578   2.901  10.534  0.4342  0.1785 -0.5805
  612TMC3    C2 9118   3.630   2.812  10.620 -0.1416  0.4183 -0.0300
  612TMC3    C3 9119   3.763   2.801  10.635  0.7507 -0.7432  0.0619
  612TMC3    C4 9120   3.665   2.967  10.451  0.0223 -0.6903 -0.5312
  612TMC3    C5 9121   3.801   2.966  10.473 -0.1694 -0.5799 -0.6790
  612TMC3    C6 9122   3.856   2.882  10.571 -0.9096 -0.9206  0.2798
  612TMC3     C 9123   3.439   2.879  10.493 -0.4607  0.2523  0.0376
  612TMC3     O 9124   3.413   2.855  10.376 -0.0327 -0.2683 -0.4633
  612TMC3     H 9125   3.565   2.744  10.675 -1.2666  1.3556 -0.1869
  612TMC3    H1 9126   3.620   3.020  10.367 -1.6411  0.5433  1.1418
  612TMC3    H2 9127   3.960   2.852  10.565 -1.0117 -1.0035 -1.0801
  612TMC3    C7 9128   3.882   3.046  10.378  0.4040 -0.4730 -0.4026
  612TMC3    C8 9129   3.809   2.692  10.712 -0.4088  0.8079 -0.2062
  612TMC3    O1 9130   3.824   3.127  10.311 -0.2232 -0.0057  0.4235
  612TMC3    O2 9131   3.737   2.597  10.719 -0.5314  0.3789 -0.2407
  613MPD2     C 9132   2.909   0.799  16.917 -0.1011 -0.7160  0.1771
  613MPD2    C1 9133   2.827   0.832  16.808 -0.0693  0.3645 -0.1862
  613MPD2    C2 9134   2.702   0.775  16.798  0.6802 -0.5269 -0.1048
  613MPD2    C3 9135   2.659   0.679  16.888  0.3069  0.2864 -0.0665
  613MPD2    C4 9136   2.745   0.644  16.993  0.9604  0.5362  0.5361
  613MPD2    C5 9137   2.863   0.715  17.020 -0.3785 -0.0307 -0.2829
  613MPD2     H 9138   2.636   0.800  16.716  1.0542  0.4709 -0.1017
  613MPD2    H1 9139   2.711   0.568  17.063 -2.2519  0.8687 -0.6668
  613MPD2    H2 9140   3.012   0.834  16.918 -0.1257 -0.5984 -1.6891
  613MPD2    H3 9141   2.934   0.683  17.096 -0.2488 -0.3387 -0.5386
  613MPD2     N 9142   2.533   0.616  16.869  0.3267 -0.2026  0.0164
  613MPD2    H5 9143   2.503   0.540  16.929  0.1544 -0.3204 -0.2187
  613MPD2    N1 9144   2.893   0.912  16.715  0.2861 -0.3952 -0.2870
  613MPD2    H7 9145   2.981   0.949  16.750  0.5093 -0.5014 -0.7346
  614TMC3    C1 9146   2.784   0.864  16.491 -0.6777 -0.1858 -0.3582
  614TMC3    C2 9147   2.796   0.733  16.507 -0.8989 -0.5806  0.0133
  614TMC3    C3 9148   2.766   0.649  16.402 -0.2130 -0.2070  0.4135
  614TMC3    C4 9149   2.738   0.920  16.374 -0.6891 -0.6414  0.2231
  614TMC3    C5 9150   2.691   0.835  16.279 -0.8795 -0.3530  0.9726
  614TMC3    C6 9151   2.699   0.698  16.297  0.4260  0.1779  0.2316
  614TMC3     C 9152   2.846   0.958  16.591 -0.4483 -0.1917  0.5186
  614TMC3     O 9153   2.868   1.070  16.547 -0.0640 -0.0933 -0.0388
  614TMC3     H 9154   2.856   0.681  16.580  1.6886  1.5091 -0.6109
  614TMC3    H1 9155   2.746   1.025  16.348 -1.6336 -1.0784 -1.8761
  614TMC3    H2 9156   2.637   0.634  16.234  0.9169  0.9673 -1.0443
  614TMC3    C7 9157   2.693   0.885  16.142  0.4560  0.0611  0.2624
  614TMC3    C8 9158   2.718   0.514  16.436  0.5950  0.1291  0.6217
  614TMC3    O1 9159   2.704   1.007  16.124  0.0274 -0.2403  0.8543
  614TMC3    O2 9160   2.676   0.518  16.551  0.4659 -0.1999  0.3624
  615MPD2     C 9161   2.340   1.449  15.637  0.0452  1.1792  0.2909
  615MPD2    C1 9162   2.230   1.533  15.635  0.1565 -0.4457  0.1117
  615MPD2    C2 9163   2.152   1.539  15.520  0.7988 -0.4943  0.9514
  615MPD2    C3 9164   2.166   1.441  15.427  0.5567  0.1894  0.5275
  615MPD2    C4 9165   2.262   1.345  15.436 -0.2440  0.5985  0.6009
  615MPD2    C5 9166   2.355   1.348  15.543 -0.4995  0.5952 -0.6252
  615MPD2     H 9167   2.079   1.619  15.511  0.2010 -1.2470 -0.7920
  615MPD2    H1 9168   2.274   1.270  15.358  2.0981  1.0379  0.5163
  615MPD2    H2 9169   2.414   1.456  15.716  2.4544  1.3740 -2.0057
  615MPD2    H3 9170   2.431   1.271  15.540 -1.0597 -0.1052  2.7980
  615MPD2     N 9171   2.063   1.434  15.325 -0.4710 -0.6874  0.2613
  615MPD2    H5 9172   2.075   1.357  15.260 -1.7738  1.4841 -2.5604
  615MPD2    N1 9173   2.214   1.646  15.726  0.3795  0.6253  0.4459
  615MPD2    H7 9174   2.136   1.706  15.700 -1.5717 -2.7463 -1.4456
  616TMC3    C1 9175   2.231   1.793  15.903 -0.0841  0.2899 -0.2368
  616TMC3    C2 9176   2.312   1.849  16.002  0.4892 -0.9363 -0.0479
  616TMC3    C3 9177   2.266   1.960  16.069 -0.4885 -0.3791 -0.7632
  616TMC3    C4 9178   2.105   1.850  15.874 -0.2407  0.6393  0.3971
  616TMC3    C5 9179   2.074   1.969  15.927  1.0013 -0.1757 -0.3015
  616TMC3    C6 9180   2.153   2.028  16.027 -0.8377 -0.3971 -0.2680
  616TMC3     C 9181   2.288   1.675  15.834  0.1948  0.3856  0.0688
  616TMC3     O 9182   2.382   1.615  15.883  0.3865  0.1945  0.0181
  616TMC3     H 9183   2.411   1.807  16.011  1.2215  0.8951  0.3702
  616TMC3    H1 9184   2.025   1.793  15.827  0.6781 -1.0885  0.9245
  616TMC3    H2 9185   2.122   2.120  16.075 -1.7181 -0.9599  0.2445
  616TMC3    C7 9186   2.033   2.072  15.831 -0.2687 -0.2211  0.9597
  616TMC3    C8 9187   2.358   2.050  16.138  0.3491 -0.2001 -0.0348
  616TMC3    O1 9188   2.066   2.185  15.855 -0.9735 -0.5748 -0.0534
  616TMC3    O2 9189   2.304   2.137  16.204 -0.1750  0.3364 -1.1535
  617MPD2     C 9190   0.465   4.591  13.153 -0.0301 -0.3194 -0.2400
  617MPD2    C1 9191   0.524   4.534  13.265  0.3197  0.0373  0.1509
  617MPD2    C2 9192   0.451   4.454  13.343 -0.0007  0.3086  0.5173
  617MPD2    C3 9193   0.320   4.431  13.311  0.4316 -0.2138 -0.5957
  617MPD2    C4 9194   0.258   4.490  13.202 -0.4288  0.8140  0.1775
  617MPD2    C5 9195   0.331   4.583  13.124  0.3305  0.0936 -0.0833
  617MPD2     H 9196   0.496   4.405  13.429  0.3325  0.9427  0.6974
  617MPD2    H1 9197   0.155   4.468  13.175 -0.5787 -0.3167  1.7103
  617MPD2    H2 9198   0.529   4.661  13.099  0.3039  0.4066  1.0866
  617MPD2    H3 9199   0.294   4.624  13.030  0.1358 -0.2164 -0.1384
  617MPD2     N 9200   0.234   4.347  13.387  0.3873 -0.0859 -0.0537
  617MPD2    H5 9201   0.138   4.340  13.355  0.6583 -1.6542 -0.5029
  617MPD2    N1 9202   0.659   4.560  13.277 -0.4097 -0.7410 -0.0744
  617MPD2    H7 9203   0.705   4.618  13.208 -1.0273 -0.9194 -0.6330
  618TMC3    C1 9204   0.876   4.554  13.341 -0.1255 -0.0316 -0.0493
  618TMC3    C2 9205   0.937   4.617  13.449  1.4244 -0.4244  0.0866
  618TMC3    C3 9206   1.073   4.630  13.439  0.2704 -0.5560  0.4519
  618TMC3    C4 9207   0.943   4.509  13.230 -0.1033  0.1692 -0.0398
  618TMC3    C5 9208   1.078   4.516  13.227 -0.2032 -0.2676 -0.1368
  618TMC3    C6 9209   1.135   4.576  13.328 -0.0777  0.1528  0.1497
  618TMC3     C 9210   0.744   4.515  13.373 -0.1691  0.8803 -0.4868
  618TMC3     O 9211   0.729   4.458  13.481  0.5525  0.1508 -0.2637
  618TMC3     H 9212   0.904   4.640  13.550  0.8909  2.0401 -0.6499
  618TMC3    H1 9213   0.895   4.443  13.158  0.9208  0.7030 -1.2351
  618TMC3    H2 9214   1.241   4.601  13.330 -0.0964  0.3026 -0.7432
  618TMC3    C7 9215   1.149   4.412  13.152  0.3848  1.2699 -0.7102
  618TMC3    C8 9216   1.144   4.581  13.551  0.1523 -0.3896  0.7626
  618TMC3    O1 9217   1.085   4.351  13.069  0.2039 -0.3169 -0.1524
  618TMC3    O2 9218   1.155   4.645  13.656  0.4966 -0.2188  0.7651
  619MPD2     C 9219   1.588   0.611  13.545 -0.3597 -0.9483  0.4678
  619MPD2    C1 9220   1.534   0.692  13.449 -0.0044  0.0848 -0.4971
  619MPD2    C2 9221   1.400   0.729  13.462  0.0152  0.6380  0.1949
  619MPD2    C3 9222   1.313   0.661  13.545 -0.4127 -0.5613  0.0202
  619MPD2    C4 9223   1.371   0.578  13.636  0.0546 -0.0446 -0.8383
  619MPD2    C5 9224   1.501   0.552  13.637  0.2216 -0.1734  0.5360
  619MPD2     H 9225   1.356   0.800  13.393 -0.8430  1.2203  1.3537
  619MPD2    H1 9226   1.301   0.520  13.694  1.0977 -1.3445 -0.8925
  619MPD2    H2 9227   1.693   0.585  13.539 -0.2094  0.0641 -1.2245
  619MPD2    H3 9228   1.535   0.481  13.712 -0.6037 -1.9609 -0.7753
  619MPD2     N 9229   1.180   0.687  13.550 -0.1989  0.1949 -0.3099
  619MPD2    H5 9230   1.136   0.642  13.630  0.9013 -0.2386  0.0536
  619MPD2    N1 9231   1.603   0.766  13.345  0.0223  0.2249  0.1459
  619MPD2    H7 9232   1.554   0.833  13.286 -0.1357  0.0605  0.0919
  620TMC3    C1 9233   1.789   0.890  13.272 -1.3087  0.8328  0.1357
  620TMC3    C2 9234   1.701   0.972  13.205 -0.0151 -0.2064  0.0251
  620TMC3    C3 9235   1.722   1.106  13.209 -0.0260 -0.1398  0.5365
  620TMC3    C4 9236   1.875   0.945  13.363  0.3877  0.1734  0.1534
  620TMC3    C5 9237   1.886   1.079  13.364  0.2833 -0.0396  0.4294
  620TMC3    C6 9238   1.817   1.160  13.284  0.0647 -0.0479 -0.7788
  620TMC3     C 9239   1.740   0.762  13.326  0.1326 -0.1127  0.3879
  620TMC3     O 9240   1.828   0.698  13.384  0.1503 -0.4126 -0.3986
  620TMC3     H 9241   1.620   0.927  13.149  0.5566 -0.8511 -0.2800
  620TMC3    H1 9242   1.941   0.903  13.439  0.6480  1.5431  0.6827
  620TMC3    H2 9243   1.834   1.267  13.291  0.4355 -0.2071  0.8256
  620TMC3    C7 9244   1.933   1.145  13.481  0.6043  0.3984 -0.4843
  620TMC3    C8 9245   1.678   1.191  13.102 -0.5274  0.7773 -0.0609
  620TMC3    O1 9246   2.014   1.235  13.468 -0.3473  0.0241 -0.1671
  620TMC3    O2 9247   1.766   1.257  13.051  0.0069  0.1512 -0.0540
  621MPD2     C 9248   2.403   1.552   9.149  0.0357  0.1687  0.2764
  621MPD2    C1 9249   2.442   1.508   9.271 -0.2828 -0.3702  0.2142
  621MPD2    C2 9250   2.515   1.596   9.352 -0.6353  0.1050 -0.1407
  621MPD2    C3 9251   2.548   1.725   9.314 -0.2964 -0.0280  0.2547
  621MPD2    C4 9252   2.500   1.764   9.194  0.2282 -0.8878 -0.1102
  621MPD2    C5 9253   2.432   1.683   9.113 -0.3011 -0.1220 -0.1933
  621MPD2     H 9254   2.535   1.569   9.455 -3.0041 -1.3152 -0.0473
  621MPD2    H1 9255   2.520   1.864   9.156 -2.1335 -0.0087  0.9000
  621MPD2    H2 9256   2.357   1.486   9.077 -2.1322  3.6259 -1.4822
  621MPD2    H3 9257   2.404   1.720   9.015  0.4365  2.4407  0.5833
  621MPD2     N 9258   2.626   1.803   9.405 -0.6762  0.6380  0.6531
  621MPD2    H5 9259   2.641   1.770   9.500 -1.5251 -2.3469 -0.2521
  621MPD2    N1 9260   2.413   1.379   9.317 -0.2221 -0.7350 -0.1208
  621MPD2    H7 9261   2.452   1.352   9.407  1.4167 -0.1697 -0.6791
  622TMC3    C1 9262   2.315   1.173   9.352  0.5309 -0.1730  0.2346
  622TMC3    C2 9263   2.378   1.187   9.473  0.2129 -0.3381 -0.4960
  622TMC3    C3 9264   2.311   1.163   9.586  0.5495 -0.3357 -0.6552
  622TMC3    C4 9265   2.180   1.142   9.339 -0.7562 -0.2869 -0.1202
  622TMC3    C5 9266   2.125   1.097   9.452  0.0042  0.4136 -0.2417
  622TMC3    C6 9267   2.181   1.107   9.580  0.2062 -0.4247  0.7565
  622TMC3     C 9268   2.338   1.282   9.255 -0.8458 -0.2019 -0.1480
  622TMC3     O 9269   2.277   1.292   9.151  0.4470  0.3410 -0.6482
  622TMC3     H 9270   2.479   1.227   9.475 -0.4656  1.3518 -0.7169
  622TMC3    H1 9271   2.124   1.138   9.247 -0.7337  1.3759 -0.2061
  622TMC3    H2 9272   2.118   1.076   9.663 -0.1149  1.0345  1.0517
  622TMC3    C7 9273   2.006   1.011   9.424 -0.3325 -0.1995 -0.3906
  622TMC3    C8 9274   2.343   1.267   9.684 -0.1827  0.2163  0.0010
  622TMC3    O1 9275   1.920   1.059   9.351  0.2859  0.6189 -0.6911
  622TMC3    O2 9276   2.412   1.353   9.635 -0.0051 -0.0213 -0.1854
  623MPD2     C 9277   0.451   2.241  15.523  0.1523 -0.4880  0.4681
  623MPD2    C1 9278   0.404   2.165  15.628 -0.3708  0.4414  1.3553
  623MPD2    C2 9279   0.494   2.148  15.733 -0.5920  0.5893  0.8468
  623MPD2    C3 9280   0.625   2.193  15.733 -0.3267  0.0913 -0.3667
  623MPD2    C4 9281   0.667   2.266  15.623  0.0147 -0.0137 -0.1263
  623MPD2    C5 9282   0.577   2.290  15.522 -0.2920 -0.3887 -0.2650
  623MPD2     H 9283   0.456   2.090  15.815 -0.1943  0.3909  0.8935
  623MPD2    H1 9284   0.756   2.329  15.620 -0.0539  0.1218  1.0323
  623MPD2    H2 9285   0.396   2.267  15.433  1.5694  0.2364 -0.1802
  623MPD2    H3 9286   0.623   2.339  15.437 -0.0733  0.7570  0.5138
  623MPD2     N 9287   0.707   2.155  15.844 -0.1662  0.1960  0.2139
  623MPD2    H5 9288   0.669   2.089  15.912 -0.5593  0.7005  0.4884
  623MPD2    N1 9289   0.269   2.116  15.639  0.2201 -0.4730 -0.0353
  623MPD2    H7 9290   0.246   2.074  15.729 -0.1555  0.3062  0.2426
  624TMC3    C1 9291   1.075   2.157  16.138 -0.0217  0.3910  0.0644
  624TMC3    C2 9292   1.009   2.098  16.236  0.3666  0.6306 -0.1106
  624TMC3    C3 9293   0.881   2.068  16.209 -0.2373  0.1914  0.0635
  624TMC3    C4 9294   1.025   2.180  16.012  0.3699 -0.0884  0.2900
  624TMC3    C5 9295   0.898   2.151  15.990 -0.6862 -0.5341  0.0562
  624TMC3    C6 9296   0.825   2.098  16.092 -0.3840 -0.7293  0.2446
  624TMC3     C 9297   1.220   2.162  16.165 -0.4051  0.0581 -0.3688
  624TMC3     O 9298   1.252   2.151  16.282  0.3751 -0.5191 -0.4521
  624TMC3     H 9299   1.060   2.066  16.327 -0.5700  0.9879  0.5409
  624TMC3    H1 9300   1.085   2.215  15.928 -0.1496 -0.1024 -0.0872
  624TMC3    H2 9301   0.725   2.062  16.072 -0.9059  0.6072  0.4290
  624TMC3    C7 9302   0.837   2.189  15.863 -0.0925  0.0094 -0.0774
  624TMC3    C8 9303   0.825   1.978  16.301 -0.7342 -0.1390 -0.0392
  624TMC3    O1 9304   0.903   2.243  15.778  0.5462 -0.4696  0.3934
  624TMC3    O2 9305   0.898   1.900  16.360 -0.6819 -0.1895  0.1721
  625MPD2     C 9306   1.272   3.269   0.200 -0.3505  0.4431 -0.1141
  625MPD2    C1 9307   1.351   3.366   0.258  0.1208  0.5816 -0.5254
  625MPD2    C2 9308   1.410   3.333   0.374  0.5702  0.1078  0.1809
  625MPD2    C3 9309   1.385   3.219   0.438  0.5155 -1.1055 -0.7767
  625MPD2    C4 9310   1.316   3.118   0.374 -0.4202 -0.4726  0.0186
  625MPD2    C5 9311   1.264   3.148   0.261 -0.0799 -0.9012 -0.0205
  625MPD2     H 9312   1.480   3.404   0.417 -0.0388  1.5743 -1.2555
  625MPD2    H1 9313   1.297   3.018   0.413 -1.8738  0.0364  0.5900
  625MPD2    H2 9314   1.219   3.287   0.108  0.9873 -0.4585 -1.0635
  625MPD2    H3 9315   1.209   3.069   0.211 -0.0359  0.0212 -1.5344
  625MPD2     N 9316   1.441   3.209   0.567  0.3769 -0.6830 -0.4960
  625MPD2    H5 9317   1.494   3.289   0.599  0.8923 -1.0435 -0.4504
  625MPD2    N1 9318   1.363   3.500   0.212 -0.4203  0.7056  0.1250
  625MPD2    H7 9319   1.413   3.566   0.271  1.5645 -0.9576  0.3043
  626TMC3    C1 9320   1.318   3.700   0.097  0.3266  0.0689 -0.6780
  626TMC3    C2 9321   1.286   3.770  17.736  0.3937 -0.8725 -0.6948
  626TMC3    C3 9322   1.248   3.902  17.748 -0.2631  0.1003  0.2646
  626TMC3    C4 9323   1.316   3.758   0.221 -0.3916  0.0044  0.1779
  626TMC3    C5 9324   1.281   3.885   0.226  0.1843  0.2935 -0.1919
  626TMC3    C6 9325   1.248   3.965   0.119 -0.1102  0.1637  0.2560
  626TMC3     C 9326   1.311   3.553   0.098  0.3020  0.3768  0.8782
  626TMC3     O 9327   1.237   3.513   0.011 -0.8309 -0.4739 -0.8421
  626TMC3     H 9328   1.290   3.719  17.641 -0.6968 -0.0925 -1.1502
  626TMC3    H1 9329   1.308   3.710   0.318  0.9013 -1.5893 -0.5169
  626TMC3    H2 9330   1.237   4.073   0.121  0.4964  0.2101  1.0560
  626TMC3    C7 9331   1.244   3.922   0.356  0.6038  0.2521  0.0316
  626TMC3    C8 9332   1.220   3.971  17.628 -0.5924 -0.4579  0.3014
  626TMC3    O1 9333   1.329   3.905   0.446  0.0236 -0.0567  1.0992
  626TMC3    O2 9334   1.252   3.918  17.523 -0.4698 -0.1800  0.0128
  627MPD2     C 9335   4.510   3.226  13.955  0.2124  0.2377 -0.3367
  627MPD2    C1 9336   4.539   3.189  14.081 -0.1307 -0.2504  0.1111
  627MPD2    C2 9337   4.468   3.085  14.134 -0.1385  0.4113  1.1589
  627MPD2    C3 9338   4.367   3.018  14.070 -0.8091 -0.4637 -0.4810
  627MPD2    C4 9339   4.331   3.059  13.945  0.1781  0.3018 -0.2023
  627MPD2    C5 9340   4.404   3.164  13.895 -0.3603  0.2673  0.2690
  627MPD2     H 9341   4.497   3.059  14.235 -1.5189 -2.8421  0.6948
  627MPD2    H1 9342   4.260   3.008  13.881  0.1943 -1.9952  1.6055
  627MPD2    H2 9343   4.552   3.310  13.901 -3.2825  0.2774 -3.0109
  627MPD2    H3 9344   4.360   3.212  13.809 -1.8407 -2.5850 -0.5756
  627MPD2     N 9345   4.306   2.916  14.142 -0.1168  0.0867 -0.1803
  627MPD2    H5 9346   4.327   2.905  14.241 -3.3883  1.6158  0.6572
  627MPD2    N1 9347   4.640   3.256  14.154 -0.0864  0.4626 -0.3296
  627MPD2    H7 9348   4.671   3.202  14.234 -1.3579  0.7000  0.3208
  628TMC3    C1 9349   0.074   3.399  14.194 -0.0152 -0.1589  0.6187
  628TMC3    C2 9350   0.143   3.308  14.265  0.2539  0.3804  0.0496
  628TMC3    C3 9351   0.219   3.353  14.366 -0.4560 -0.6957  0.6802
  628TMC3    C4 9352   0.089   3.532  14.216 -0.3072 -0.7955 -0.9289
  628TMC3    C5 9353   0.179   3.574  14.314  0.2102 -0.3389 -0.2581
  628TMC3    C6 9354   0.236   3.483  14.394 -0.2230 -0.3168  0.3643
  628TMC3     C 9355   4.711   3.362  14.105 -0.2919 -0.2779 -0.6883
  628TMC3     O 9356   4.676   3.443  14.023 -0.4899 -0.1609 -0.2230
  628TMC3     H 9357   0.129   3.203  14.244  1.4776  0.4467 -1.0990
  628TMC3    H1 9358   0.048   3.598  14.140  1.2144 -0.5832 -1.5513
  628TMC3    H2 9359   0.311   3.520  14.462 -0.6473 -0.8405  1.1131
  628TMC3    C7 9360   0.174   3.714  14.350 -0.2884 -0.1499 -0.2729
  628TMC3    C8 9361   0.325   3.268  14.398  0.6651 -0.9335  0.2905
  628TMC3    O1 9362   0.223   3.751  14.457  0.1092  0.1217  0.1656
  628TMC3    O2 9363   0.359   3.187  14.312 -0.6743 -0.4625  0.7489
  629MPD2     C 9364   2.794   2.313  16.227  0.4889  0.4716 -0.1922
  629MPD2    C1 9365   2.819   2.176  16.224 -0.0826  0.2836 -0.0027
  629MPD2    C2 9366   2.719   2.086  16.192  0.2009  0.5995  0.0964
  629MPD2    C3 9367   2.591   2.122  16.157 -0.0331  0.4379 -0.6167
  629MPD2    C4 9368   2.565   2.259  16.162 -0.6555 -0.1306 -0.5693
  629MPD2    C5 9369   2.664   2.350  16.204  0.2100  0.1146  0.4349
  629MPD2     H 9370   2.754   1.983  16.194  0.6405  0.8395  4.7436
  629MPD2    H1 9371   2.466   2.300  16.148 -1.2440 -1.7061 -1.0386
  629MPD2    H2 9372   2.866   2.386  16.263 -2.2517  2.1829  1.8103
  629MPD2    H3 9373   2.632   2.452  16.219 -1.7730 -0.1671 -1.9014
  629MPD2     N 9374   2.492   2.028  16.129  0.7753 -0.9330  0.5753
  629MPD2    H5 9375   2.518   1.932  16.110 -1.5925 -1.2710 -0.9840
  629MPD2    N1 9376   2.957   2.145  16.259  0.2303 -0.3576 -0.3835
  629MPD2    H7 9377   3.021   2.223  16.270 -0.2583  0.0250 -0.2670
  630TMC3    C1 9378   3.145   2.033  16.326  0.9345 -0.2125 -0.2487
  630TMC3    C2 9379   3.217   2.119  16.252 -0.5345 -0.5003  0.0332
  630TMC3    C3 9380   3.339   2.157  16.296  0.2105  0.1378 -0.5787
  630TMC3    C4 9381   3.187   1.969  16.445 -0.4138 -0.2909 -0.6775
  630TMC3    C5 9382   3.318   2.003  16.473  0.0919 -0.2358 -0.5059
  630TMC3    C6 9383   3.395   2.093  16.402 -0.8780 -0.2821 -0.5087
  630TMC3     C 9384   3.009   2.018  16.288  0.6056  0.2701  0.0829
  630TMC3     O 9385   2.952   1.920  16.328 -0.5783 -0.2528  0.1585
  630TMC3     H 9386   3.176   2.145  16.155 -0.5997  2.8776  0.9878
  630TMC3    H1 9387   3.124   1.912  16.513  0.7747  0.6615  1.2133
  630TMC3    H2 9388   3.500   2.101  16.428 -0.4868  0.6249 -2.4244
  630TMC3    C7 9389   3.372   1.936  16.589  0.0818  1.0098 -0.1004
  630TMC3    C8 9390   3.441   2.225  16.215 -0.0867  1.2134  0.6569
  630TMC3    O1 9391   3.289   1.899  16.670  0.3961 -0.2244  0.2596
  630TMC3    O2 9392   3.560   2.196  16.230  0.0521  0.0147  0.4785
  631MPD2     C 9393   1.063   1.780  15.207  0.1924 -0.0210 -1.0889
  631MPD2    C1 9394   1.157   1.870  15.169 -0.2665 -1.1371 -0.0413
  631MPD2    C2 9395   1.285   1.816  15.135  0.4957  0.1468  0.3796
  631MPD2    C3 9396   1.316   1.682  15.133 -0.3631 -0.1534  0.1175
  631MPD2    C4 9397   1.214   1.598  15.176  1.0348 -0.3998  0.9751
  631MPD2    C5 9398   1.085   1.648  15.202  0.0950  0.8618  0.0309
  631MPD2     H 9399   1.360   1.878  15.087 -0.2505 -0.3428 -1.4097
  631MPD2    H1 9400   1.237   1.492  15.184 -1.5619 -1.0321  0.2114
  631MPD2    H2 9401   0.959   1.810  15.221  0.1209  0.1286 -1.9437
  631MPD2    H3 9402   1.007   1.576  15.225  0.4446 -0.1156 -1.8488
  631MPD2     N 9403   1.448   1.645  15.106  0.4995  0.4946  0.0307
  631MPD2    H5 9404   1.517   1.713  15.077 -0.3014  0.7622 -1.2437
  631MPD2    N1 9405   1.119   2.004  15.174 -0.5601 -0.3873  0.6231
  631MPD2    H7 9406   1.022   2.028  15.189 -0.3474  0.7781  0.0827
  632TMC3    C1 9407   1.152   2.239  15.142  0.1625  0.4727 -1.0254
  632TMC3    C2 9408   1.022   2.270  15.126 -0.2361  0.1300  0.4505
  632TMC3    C3 9409   0.994   2.389  15.063  0.1628  0.3782 -0.6501
  632TMC3    C4 9410   1.244   2.330  15.112 -0.4748 -0.6206 -0.5931
  632TMC3    C5 9411   1.219   2.446  15.055  0.0214 -0.2961 -0.0894
  632TMC3    C6 9412   1.094   2.476  15.022  0.4555 -0.3000  0.2029
  632TMC3     C 9413   1.208   2.100  15.141 -0.3493 -0.6742 -0.0297
  632TMC3     O 9414   1.331   2.088  15.139 -0.1042 -0.4376 -0.7615
  632TMC3     H 9415   0.942   2.201  15.153  0.1338  0.7297  3.0795
  632TMC3    H1 9416   1.345   2.311  15.145 -1.5593 -2.4081  1.7170
  632TMC3    H2 9417   1.065   2.575  14.988 -2.6220 -0.9660  0.9248
  632TMC3    C7 9418   1.310   2.486  14.950  0.4433  0.4876  0.8175
  632TMC3    C8 9419   0.868   2.445  15.084 -0.6595 -0.4348  0.0186
  632TMC3    O1 9420   1.249   2.520  14.851 -0.4468 -0.1345 -0.1839
  632TMC3    O2 9421   0.819   2.408  15.189 -0.1245  0.3815  0.8320
  633MPD2     C 9422   1.345   0.532  17.437  0.4588 -0.0297  0.2463
  633MPD2    C1 9423   1.311   0.425  17.354 -0.0563  0.1514  0.0688
  633MPD2    C2 9424   1.316   0.298  17.407 -0.4378 -0.7265  0.6337
  633MPD2    C3 9425   1.332   0.278  17.542 -0.0789  0.0656  0.1657
  633MPD2    C4 9426   1.370   0.389  17.619 -0.4294  0.0552 -0.2840
  633MPD2    C5 9427   1.383   0.515  17.567  0.2874  0.0927 -0.2434
  633MPD2     H 9428   1.297   0.225  17.328  1.0603  0.0033 -0.3991
  633MPD2    H1 9429   1.405   0.375  17.720  0.2477 -1.6498 -0.7555
  633MPD2    H2 9430   1.348   0.631  17.394 -2.2533 -1.0579 -2.2748
  633MPD2    H3 9431   1.412   0.603  17.623  0.5330 -0.5802  0.7009
  633MPD2     N 9432   1.317   0.157  17.614  0.7726 -0.5176  0.4810
  633MPD2    H5 9433   1.339   0.151  17.712 -0.1135  1.6238  0.8068
  633MPD2    N1 9434   1.301   0.439  17.213 -0.0404 -0.5224  0.8270
  633MPD2    H7 9435   1.303   0.359  17.152 -2.0341  2.2272 -2.8710
  634TMC3    C1 9436   1.313   0.551  17.010  0.4859 -0.0977  0.4149
  634TMC3    C2 9437   1.389   0.454  16.957 -0.4497 -0.3683 -0.0066
  634TMC3    C3 9438   1.421   0.455  16.823 -0.2493  0.4657 -0.2650
  634TMC3    C4 9439   1.275   0.660  16.929 -0.6935  0.1162  0.6596
  634TMC3    C5 9440   1.304   0.659  16.797  0.0489 -0.3162  0.1434
  634TMC3    C6 9441   1.385   0.559  16.747 -0.1083 -0.2338 -0.1845
  634TMC3     C 9442   1.301   0.562  17.151 -0.0705  0.1489  0.6968
  634TMC3     O 9443   1.274   0.674  17.193  0.3950 -0.2991  0.0353
  634TMC3     H 9444   1.421   0.373  17.021  0.3785 -2.0125 -2.5378
  634TMC3    H1 9445   1.216   0.733  16.982 -0.9134  0.0868  0.4509
  634TMC3    H2 9446   1.397   0.554  16.639 -3.6713 -2.5716 -0.4546
  634TMC3    C7 9447   1.259   0.770  16.705  0.5023 -0.4195 -0.3983
  634TMC3    C8 9448   1.469   0.322  16.768  0.7234 -0.0843 -0.5413
  634TMC3    O1 9449   1.303   0.772  16.591 -0.0125 -0.2991 -0.5473
  634TMC3    O2 9450   1.468   0.225  16.841 -0.7627 -1.1719  0.1024
  635TMC3    C1 9451   1.256   1.489  17.425 -0.3482 -0.2033 -0.1849
  635TMC3    C2 9452   1.208   1.396  17.506 -0.8831  0.0732  0.4475
  635TMC3    C3 9453   1.271   1.272  17.507 -0.0977  1.0696 -0.5155
  635TMC3    C4 9454   1.353   1.461  17.332 -0.4623  0.6212  0.3231
  635TMC3    C5 9455   1.415   1.342  17.345 -0.1021  0.3047  0.0045
  635TMC3    C6 9456   1.374   1.239  17.425 -0.3759 -0.1427 -0.1231
  635TMC3     C 9457   1.221   1.624  17.446 -0.2601  0.1228  0.4245
  635TMC3     O 9458   1.168   1.658  17.554 -0.1189  1.1981 -0.4222
  635TMC3     H 9459   1.130   1.423  17.576 -0.1840  2.3732  0.3461
  635TMC3    H1 9460   1.393   1.532  17.261  1.3370 -0.0160  0.6995
  635TMC3    H2 9461   1.415   1.138  17.431 -0.8669 -0.1696  2.8230
  635TMC3    C7 9462   1.524   1.319  17.252  0.7424 -0.1716  0.0405
  635TMC3    C8 9463   1.242   1.195  17.623  0.2674 -0.2607  0.6328
  635TMC3    O1 9464   1.531   1.395  17.158 -0.1045 -0.9953 -0.1746
  635TMC3    O2 9465   1.181   1.251  17.707  0.6499  0.3548  0.0398
  636MPD2     C 9466   2.350   0.975  16.160  0.0061 -0.2671  0.1513
  636MPD2    C1 9467   2.377   1.001  16.296  0.2005 -0.0856  0.3086
  636MPD2    C2 9468   2.351   0.908  16.391 -0.0827 -0.1231 -0.4561
  636MPD2    C3 9469   2.312   0.786  16.353  0.1044  0.0198 -0.1625
  636MPD2    C4 9470   2.289   0.755  16.223  0.3150  0.2850  0.6937
  636MPD2    C5 9471   2.309   0.850  16.128  0.5592 -0.6788 -0.6664
  636MPD2     H 9472   2.357   0.932  16.497  0.3746 -2.0026 -0.0509
  636MPD2    H1 9473   2.253   0.657  16.194 -1.2507  1.0499  0.0110
  636MPD2    H2 9474   2.362   1.050  16.082  1.8677  0.6776  1.3431
  636MPD2    H3 9475   2.290   0.823  16.024  0.0240 -0.2382 -0.6820
  636MPD2     N 9476   2.287   0.688  16.458  0.3162 -0.4936  0.6602
  636MPD2    H5 9477   2.319   0.722  16.548  1.2148 -1.1541  0.5916
  636MPD2    N1 9478   2.401   1.131  16.348  0.2294  0.1882 -0.0446
  636MPD2    H7 9479   2.409   1.123  16.449  0.6488 -2.6583 -0.2953
  637TMC3    C1 9480   2.213   0.510  16.589  0.9428 -0.1277  0.0656
  637TMC3    C2 9481   2.242   0.593  16.692  0.2196 -0.4670 -0.1891
  637TMC3    C3 9482   2.334   0.558  16.777  0.2174 -0.1143  0.1220
  637TMC3    C4 9483   2.245   0.376  16.595 -0.1220 -0.5198 -0.6369
  637TMC3    C5 9484   2.347   0.340  16.685  0.2871 -0.0325 -0.4658
  637TMC3    C6 9485   2.391   0.431  16.782 -0.1625  0.7121  0.1747
  637TMC3     C 9486   2.222   0.567  16.455  0.1214 -1.0919  0.7172
  637TMC3     O 9487   2.192   0.499  16.359  0.5247  0.3178 -0.2209
  637TMC3     H 9488   2.194   0.691  16.695  0.1326 -0.5163  0.0629
  637TMC3    H1 9489   2.220   0.315  16.510  3.6678 -1.5485 -1.0120
  637TMC3    H2 9490   2.472   0.394  16.844  0.1555 -0.9597 -1.2470
  637TMC3    C7 9491   2.382   0.201  16.698 -0.3647 -0.0931  0.3538
  637TMC3    C8 9492   2.435   0.657  16.781 -0.3340  0.6579 -0.2868
  637TMC3    O1 9493   2.372   0.167  16.812 -0.1604 -0.2612  0.4732
  637TMC3    O2 9494   2.415   0.762  16.722  0.8653 -0.3159 -0.4245
  638MPD2     C 9495   2.230   3.854  15.058  0.3280 -0.2790  0.7723
  638MPD2    C1 9496   2.182   3.750  14.984 -0.2418  0.4528  0.3943
  638MPD2    C2 9497   2.131   3.636  15.039 -0.1136 -0.4372 -0.4336
  638MPD2    C3 9498   2.134   3.619  15.179 -0.0738  0.1708 -0.0346
  638MPD2    C4 9499   2.178   3.725  15.256  0.6867 -0.3904 -0.0136
  638MPD2    C5 9500   2.221   3.843  15.192 -0.7785  0.2064 -0.2713
  638MPD2     H 9501   2.103   3.555  14.973  1.0949 -0.9691 -0.3045
  638MPD2    H1 9502   2.173   3.724  15.364 -2.7703 -1.2566 -0.1790
  638MPD2    H2 9503   2.274   3.937  15.004  1.6218 -1.4026  0.0835
  638MPD2    H3 9504   2.244   3.921  15.263  0.4622  0.4998 -0.9906
  638MPD2     N 9505   2.087   3.496  15.226  0.3494  0.3671  0.4127
  638MPD2    H5 9506   2.059   3.428  15.157 -0.1164  1.3802 -0.3890
  638MPD2    N1 9507   2.198   3.760  14.840  0.2590 -0.3628  0.1337
  638MPD2    H7 9508   2.268   3.825  14.806  0.3585 -1.1040 -1.0777
  639TMC3    C1 9509   2.061   3.317  15.377 -0.1768  0.2970 -0.2484
  639TMC3    C2 9510   2.008   3.261  15.266  0.6987  0.3944 -0.4249
  639TMC3    C3 9511   2.071   3.161  15.188  0.1798 -0.2918  0.4598
  639TMC3    C4 9512   2.169   3.254  15.433  0.0116  0.0566  0.0719
  639TMC3    C5 9513   2.240   3.163  15.352 -1.2836 -0.1900  0.6127
  639TMC3    C6 9514   2.194   3.126  15.229  0.5475  0.3608  0.4449
  639TMC3     C 9515   2.071   3.461  15.367 -0.3776  0.8286 -0.0187
  639TMC3     O 9516   2.068   3.529  15.465 -0.5953  0.9876  0.5454
  639TMC3     H 9517   1.917   3.310  15.232  0.6574  1.1838  0.8452
  639TMC3    H1 9518   2.218   3.304  15.516  2.5245 -1.0425 -0.7412
  639TMC3    H2 9519   2.232   3.038  15.177 -0.5931 -0.6391  1.2948
  639TMC3    C7 9520   2.378   3.130  15.385 -0.8743 -0.1979  0.3953
  639TMC3    C8 9521   1.993   3.063  15.112  0.3853  0.6243  0.5899
  639TMC3    O1 9522   2.413   3.160  15.499  0.2173  0.7675 -0.0811
  639TMC3    O2 9523   2.055   2.990  15.037  0.0895  0.5404  0.3100
  640MPD2     C 9524   2.982   2.945  10.198  0.9259  0.1377  0.1359
  640MPD2    C1 9525   2.863   2.909  10.136 -0.6663 -0.5413 -0.0401
  640MPD2    C2 9526   2.740   2.926  10.199 -0.5616  0.2992 -1.0381
  640MPD2    C3 9527   2.735   2.966  10.331 -0.0847 -0.4487  0.0556
  640MPD2    C4 9528   2.852   3.008  10.387 -0.0388  0.4491  0.1629
  640MPD2    C5 9529   2.971   2.991  10.325  0.2600 -0.0570  0.2874
  640MPD2     H 9530   2.649   2.907  10.143 -1.1629 -0.5809  0.2450
  640MPD2    H1 9531   2.841   3.046  10.488 -0.2968  0.6060  0.0762
  640MPD2    H2 9532   3.078   2.956  10.151  1.6944 -2.2965  1.1353
  640MPD2    H3 9533   3.056   3.024  10.384  0.6904 -1.6898  0.5950
  640MPD2     N 9534   2.615   2.984  10.406  0.0728 -0.3723 -0.2819
  640MPD2    H5 9535   2.629   3.020  10.500  3.9296  0.4944 -1.2114
  640MPD2    N1 9536   2.874   2.858  10.002  0.1285 -0.2205 -0.1607
  640MPD2    H7 9537   2.964   2.832   9.963  0.8406  2.0019  0.0153
  641TMC3    C1 9538   2.809   2.789   9.787  0.1128  0.1489 -0.4384
  641TMC3    C2 9539   2.893   2.682   9.794 -0.6537  0.5334 -0.5171
  641TMC3    C3 9540   2.972   2.647   9.684 -0.2418  0.0646  0.0150
  641TMC3    C4 9541   2.769   2.836   9.667  0.2371  0.3932  0.3164
  641TMC3    C5 9542   2.833   2.794   9.554 -0.4853 -0.0242  0.0014
  641TMC3    C6 9543   2.932   2.696   9.554  0.0068 -0.3888 -0.3246
  641TMC3     C 9544   2.768   2.846   9.915  0.4043  0.0803 -0.2588
  641TMC3     O 9545   2.668   2.923   9.907 -0.1979  0.1190  0.5165
  641TMC3     H 9546   2.901   2.644   9.895 -0.7356  1.4475 -0.1693
  641TMC3    H1 9547   2.691   2.912   9.668 -0.5958 -0.4790  1.2177
  641TMC3    H2 9548   2.985   2.672   9.462 -0.6234 -1.6296 -0.3640
  641TMC3    C7 9549   2.795   2.844   9.431 -0.3745  0.6608  0.3633
  641TMC3    C8 9550   3.035   2.516   9.672 -0.4498 -0.4734 -0.4713
  641TMC3    O1 9551   2.748   2.955   9.446  0.1773 -0.0656  0.3068
  641TMC3    O2 9552   3.021   2.463   9.567 -1.0462 -0.0849  0.3498
  642TMC3    C1 9553   3.614   3.556  12.688  0.1606  0.0307  0.4581
  642TMC3    C2 9554   3.751   3.561  12.675 -0.1080 -0.6343 -0.0507
  642TMC3    C3 9555   3.811   3.499  12.568  0.2610  0.1613  0.3025
  642TMC3    C4 9556   3.542   3.460  12.620  0.2192 -0.0186 -0.8501
  642TMC3    C5 9557   3.611   3.395  12.517 -0.1239 -0.1783  0.0660
  642TMC3    C6 9558   3.746   3.422  12.482 -0.1642 -0.1945 -0.0290
  642TMC3     C 9559   3.549   3.622  12.804  0.0366 -0.3362 -0.2378
  642TMC3     O 9560   3.634   3.689  12.862  0.3968  0.1026 -0.1918
  642TMC3     H 9561   3.796   3.637  12.737 -0.7763  0.7208 -1.2356
  642TMC3    H1 9562   3.434   3.456  12.630  0.3862 -1.4948  0.3766
  642TMC3    H2 9563   3.792   3.370  12.399  0.0445 -1.5822  0.9535
  642TMC3    C7 9564   3.541   3.295  12.432  0.1248 -0.3580 -0.2501
  642TMC3    C8 9565   3.950   3.530  12.543 -0.6130  0.2532  0.5542
  642TMC3    O1 9566   3.596   3.256  12.327 -0.2975  0.3022 -0.3616
  642TMC3    O2 9567   3.990   3.638  12.584 -0.0704 -0.3007 -1.1142
  643TMC3    C1 9568   2.773   2.631   0.057 -0.3085 -0.1793 -0.5127
  643TMC3    C2 9569   2.648   2.614   0.006 -0.7221 -0.6315  0.4602
  643TMC3    C3 9570   2.619   2.535  17.645 -0.0051  0.6657  0.7582
  643TMC3    C4 9571   2.881   2.597  17.726 -0.5043  0.0083 -0.7236
  643TMC3    C5 9572   2.862   2.518  17.620  0.2467  0.2338  0.8419
  643TMC3    C6 9573   2.730   2.488  17.578 -0.2162  0.0558  0.0272
  643TMC3     C 9574   2.796   2.738   0.149  0.2278 -0.0642  0.8199
  643TMC3     O 9575   2.698   2.809   0.163  0.5885 -0.7079  0.1063
  643TMC3     H 9576   2.563   2.653   0.061 -0.6977  1.0436 -0.6921
  643TMC3    H1 9577   2.983   2.617   0.005 -1.8914  2.7211  2.1335
  643TMC3    H2 9578   2.704   2.421  17.497 -2.0424  0.3681  0.3672
  643TMC3    C7 9579   2.935   2.563  17.504 -0.3204  0.5711 -0.1005
  643TMC3    C8 9580   2.534   2.603  17.547  0.4306 -0.2012  0.4353
  643TMC3    O1 9581   3.012   2.662  17.514  0.2801  0.1509 -0.3717
  643TMC3    O2 9582   2.499   2.546  17.442  0.1419 -0.1315  0.1580
  644MPD2     C 9583   2.801   3.314   8.790  0.3201  0.5077  0.3799
  644MPD2    C1 9584   2.842   3.306   8.920 -0.1448 -0.4892  0.4410
  644MPD2    C2 9585   2.799   3.400   9.011 -0.1019 -0.2652  0.3637
  644MPD2    C3 9586   2.696   3.485   8.969 -0.1261 -0.1028 -0.2758
  644MPD2    C4 9587   2.652   3.490   8.838  0.3731  0.2484  0.2010
  644MPD2    C5 9588   2.697   3.392   8.751  0.4478 -0.1345 -0.0181
  644MPD2     H 9589   2.828   3.407   9.115 -0.2169 -0.8202  0.4326
  644MPD2    H1 9590   2.575   3.557   8.801 -1.7161 -0.9050  2.3988
  644MPD2    H2 9591   2.843   3.247   8.716 -1.4459 -0.3446  0.1435
  644MPD2    H3 9592   2.664   3.389   8.648  1.7537 -0.7128 -0.4356
  644MPD2     N 9593   2.634   3.559   9.072 -0.7080  0.7549  0.3899
  644MPD2    H5 9594   2.672   3.564   9.165  0.8032 -0.0836 -0.1850
  644MPD2    N1 9595   2.937   3.210   8.955  0.4429 -0.5264 -0.7590
  644MPD2    H7 9596   2.987   3.176   8.874  0.6089  1.0946 -1.3418
  645TMC3    C1 9597   2.457   3.657   9.181  0.0079 -0.2757 -0.3794
  645TMC3    C2 9598   2.329   3.609   9.217 -0.3193  0.2963  0.4010
  645TMC3    C3 9599   2.311   3.577   9.352  0.1117  0.9938 -0.1072
  645TMC3    C4 9600   2.541   3.710   9.276  0.4838  0.3210  0.0773
  645TMC3    C5 9601   2.514   3.684   9.404 -0.1286  0.8653  0.9864
  645TMC3    C6 9602   2.408   3.607   9.447  0.5295  0.2085  0.4269
  645TMC3     C 9603   2.505   3.611   9.053  0.4351  0.1783  0.1935
  645TMC3     O 9604   2.422   3.588   8.962 -0.0468 -0.2170  0.2622
  645TMC3     H 9605   2.260   3.581   9.138 -1.2299 -0.5323  1.4929
  645TMC3    H1 9606   2.618   3.782   9.251 -0.4972  0.5660 -2.2293
  645TMC3    H2 9607   2.382   3.595   9.552  0.1744  1.1024  0.4393
  645TMC3    C7 9608   2.612   3.737   9.504  0.3199 -0.4212  0.0677
  645TMC3    C8 9609   2.176   3.554   9.400  0.1197 -0.5021  0.1495
  645TMC3    O1 9610   2.673   3.835   9.471  0.7648 -0.0887 -0.5718
  645TMC3    O2 9611   2.174   3.512   9.512  0.8689 -0.6981 -0.1631
  646MPD2     C 9612   2.407   2.356  14.525 -0.3060 -0.2703 -0.3179
  646MPD2    C1 9613   2.327   2.361  14.634  0.0730 -0.5237  0.1441
  646MPD2    C2 9614   2.201   2.420  14.618  0.0882 -0.0208 -0.3028
  646MPD2    C3 9615   2.154   2.487  14.510  0.0165 -0.1411 -0.6555
  646MPD2    C4 9616   2.239   2.485  14.398 -0.1564  0.0448 -1.4745
  646MPD2    C5 9617   2.364   2.422  14.408  0.1417 -0.2316 -0.4382
  646MPD2     H 9618   2.138   2.408  14.705  0.6550  1.5682  0.3294
  646MPD2    H1 9619   2.207   2.531  14.305 -1.6832 -0.7432 -1.3393
  646MPD2    H2 9620   2.502   2.305  14.512  0.7812  1.5759  0.2990
  646MPD2    H3 9621   2.432   2.440  14.325  0.0693 -1.6783 -0.8043
  646MPD2     N 9622   2.022   2.537  14.502  0.4599  0.0355 -0.2137
  646MPD2    H5 9623   1.979   2.533  14.594  0.3477 -0.4468 -0.2849
  646MPD2    N1 9624   2.370   2.295  14.749  0.1457 -0.0176  0.1063
  646MPD2    H7 9625   2.451   2.237  14.729  1.9722  2.6923 -0.3940
  647TMC3    C1 9626   2.388   2.236  14.971  0.3118  0.7045 -0.0096
  647TMC3    C2 9627   2.378   2.298  15.091  0.0836  0.1311 -0.1033
  647TMC3    C3 9628   2.487   2.300  15.184 -0.0812  0.7253 -0.3465
  647TMC3    C4 9629   2.497   2.160  14.942 -0.1777 -0.4239  0.3807
  647TMC3    C5 9630   2.598   2.165  15.028 -0.0758 -0.1172 -0.1951
  647TMC3    C6 9631   2.603   2.247  15.138 -0.2492 -0.0404  0.0875
  647TMC3     C 9632   2.309   2.298  14.865 -0.1394  0.0488 -0.0364
  647TMC3     O 9633   2.212   2.359  14.902 -0.4863  0.0950  0.7151
  647TMC3     H 9634   2.290   2.355  15.115  0.1038  1.0234 -2.1287
  647TMC3    H1 9635   2.504   2.096  14.854 -1.8661 -0.7991  0.5292
  647TMC3    H2 9636   2.691   2.253  15.201  0.2412 -1.3797 -0.4609
  647TMC3    C7 9637   2.718   2.082  15.015  0.0341 -0.5836 -0.0670
  647TMC3    C8 9638   2.457   2.230  15.302  0.0075 -0.3928 -0.0723
  647TMC3    O1 9639   2.817   2.110  15.082 -0.1692  0.4454 -0.4213
  647TMC3    O2 9640   2.545   2.172  15.363 -0.2592  0.4706  0.1491
  648TMC3    C1 9641   1.953   0.354  16.349 -0.4901 -0.3981 -0.2985
  648TMC3    C2 9642   2.025   0.241  16.346  0.5151 -0.6288 -0.9484
  648TMC3    C3 9643   2.041   0.170  16.231 -0.9076 -0.4913 -0.6873
  648TMC3    C4 9644   1.900   0.411  16.235 -0.2825  0.2953 -0.4296
  648TMC3    C5 9645   1.932   0.342  16.115 -0.3720  0.1124 -0.4881
  648TMC3    C6 9646   2.003   0.224  16.113  0.3568  0.1677  0.1357
  648TMC3     C 9647   1.905   0.415  16.474  0.6767 -0.0922 -0.1249
  648TMC3     O 9648   1.855   0.527  16.451  0.0855 -0.1187  0.6331
  648TMC3     H 9649   2.040   0.191  16.441 -0.9272  0.6701 -0.0494
  648TMC3    H1 9650   1.868   0.515  16.232 -1.8137 -0.0840  3.3848
  648TMC3    H2 9651   1.996   0.162  16.024  1.7802  0.3958 -0.1457
  648TMC3    C7 9652   1.844   0.351  15.999 -0.0957  0.0055 -0.5225
  648TMC3    C8 9653   2.104   0.036  16.244 -0.0435 -0.0418 -0.2327
  648TMC3    O1 9654   1.874   0.282  15.900  0.0802 -0.3178  0.9381
  648TMC3    O2 9655   2.119   4.736  16.358 -0.3832 -0.3144  0.2495
  649TMC3    C1 9656   0.200   1.463  13.115  0.3016  0.3465  0.5378
  649TMC3    C2 9657   0.329   1.504  13.129 -0.3718  0.2548 -1.0731
  649TMC3    C3 9658   0.413   1.418  13.195 -0.0906  0.3006  0.9414
  649TMC3    C4 9659   0.151   1.349  13.174  0.0698  0.1020  0.2457
  649TMC3    C5 9660   0.248   1.259  13.225 -0.0694 -0.7892 -0.5068
  649TMC3    C6 9661   0.380   1.291  13.243 -0.1973 -0.0720 -0.1168
  649TMC3     C 9662   0.093   1.556  13.086 -0.2321 -0.1893  0.0494
  649TMC3     O 9663   4.718   1.546  13.141  0.3145 -0.2054  0.1573
  649TMC3     H 9664   0.360   1.601  13.092 -2.5197  1.2489 -0.2603
  649TMC3    H1 9665   0.046   1.325  13.170 -0.7696  3.6415  1.0054
  649TMC3    H2 9666   0.450   1.222  13.290 -0.7548  0.9718  2.2564
  649TMC3    C7 9667   0.194   1.135  13.279 -0.3344 -0.4712 -0.0609
  649TMC3    C8 9668   0.558   1.425  13.190  1.1272  0.2149 -0.0787
  649TMC3    O1 9669   0.070   1.138  13.278 -0.1872  0.3108 -0.3738
  649TMC3    O2 9670   0.615   1.320  13.171 -0.7803  0.6832 -0.9508
  650TMC3    C1 9671   3.092   2.369  13.083  0.0834  0.0340  0.4945
  650TMC3    C2 9672   3.053   2.475  13.163 -0.0223 -0.6218  0.1921
  650TMC3    C3 9673   3.096   2.597  13.121 -0.5475  0.8960 -0.6163
  650TMC3    C4 9674   3.122   2.382  12.950  0.7974  0.5851 -0.2776
  650TMC3    C5 9675   3.137   2.512  12.904 -0.1732  0.5456  0.2440
  650TMC3    C6 9676   3.137   2.621  12.994  0.1983 -0.6136  0.4691
  650TMC3     C 9677   3.087   2.237  13.147 -0.5385  0.2838  0.4252
  650TMC3     O 9678   3.042   2.227  13.262  0.2642  0.3600  0.1943
  650TMC3     H 9679   3.032   2.455  13.267 -0.6831  2.7151  0.6936
  650TMC3    H1 9680   3.128   2.302  12.878 -0.6519 -0.3719  0.6547
  650TMC3    H2 9681   3.169   2.718  12.957  0.6947  0.3439  3.4016
  650TMC3    C7 9682   3.074   2.531  12.776  0.0034  0.0868  0.0376
  650TMC3    C8 9683   3.006   2.710  13.153  0.3741  0.2379 -0.5624
  650TMC3    O1 9684   3.075   2.438  12.696  0.4771 -0.2486  0.2402
  650TMC3    O2 9685   3.047   2.821  13.120  0.2856  0.4010  0.2491
  651MPD2     C 9686   1.701   4.498  10.444  0.1813  0.4494 -0.2488
  651MPD2    C1 9687   1.747   4.615  10.497 -0.5550 -0.0373  0.3321
  651MPD2    C2 9688   1.873   4.655  10.465  0.2968 -0.0582  0.6763
  651MPD2    C3 9689   1.955   4.592  10.378  0.4419 -0.4385  0.2181
  651MPD2    C4 9690   1.903   4.476  10.322 -0.6489 -0.0107 -0.6516
  651MPD2    C5 9691   1.784   4.430  10.361 -0.2564  0.5932 -0.3329
  651MPD2     H 9692   1.903   0.009  10.513  3.3000 -0.9750  0.6049
  651MPD2    H1 9693   1.963   4.420  10.251  0.8748  2.9217 -1.7153
  651MPD2    H2 9694   1.600   4.459  10.446 -0.2694  1.5558 -1.3641
  651MPD2    H3 9695   1.736   4.350  10.307 -1.8223  1.2074  0.1333
  651MPD2     N 9696   2.082   4.640  10.348  0.0922 -0.1666 -0.8668
  651MPD2    H5 9697   2.120   4.719  10.400 -0.4370  0.9465 -2.1725
  651MPD2    N1 9698   1.673   4.702  10.584  0.2666  0.1147  0.4287
  651MPD2    H7 9699   1.726   0.038  10.629 -0.1837  0.0802  1.0129
  652TMC3    C1 9700   2.484   0.068  10.304  0.7786 -0.3071  0.0796
  652TMC3    C2 9701   2.387   4.711  10.321 -0.1500  0.1685  0.5485
  652TMC3    C3 9702   2.283   4.695  10.229  0.0715  0.2318  0.6231
  652TMC3    C4 9703   2.460   0.158  10.209  0.4913 -0.0407  0.5956
  652TMC3    C5 9704   2.352   0.153  10.121  0.1804  0.5265 -0.2601
  652TMC3    C6 9705   2.267   0.046  10.122  0.3820 -0.4162  0.2549
  652TMC3     C 9706   2.599   0.074  10.392  0.1534  0.3775  0.9412
  652TMC3     O 9707   2.593   4.732  10.484  0.1677 -0.0147  0.2600
  652TMC3     H 9708   2.383   4.650  10.410  5.1205 -0.3259  0.4626
  652TMC3    H1 9709   2.522   0.247  10.202 -0.6544  0.6016 -1.4295
  652TMC3    H2 9710   2.173   0.045  10.068 -0.6032  1.4486  1.9594
  652TMC3    C7 9711   2.309   0.264  10.038 -0.1375  0.5067  0.8054
  652TMC3    C8 9712   2.169   4.604  10.246 -0.3848 -0.2844  0.5279
  652TMC3    O1 9713   2.212   0.241   9.972 -0.5104  0.2766 -0.1046
  652TMC3    O2 9714   2.153   4.522  10.156  0.2613 -0.3067 -0.5831
  653MPD2     C 9715   0.994   0.587  17.710  0.7354 -0.1873  0.5440
  653MPD2    C1 9716   0.899   0.663  17.640 -0.7093  0.1453 -0.3825
  653MPD2    C2 9717   0.843   0.612  17.525  0.6314 -0.0036 -0.5269
  653MPD2    C3 9718   0.866   0.482  17.486  0.0253  0.5870 -0.3892
  653MPD2    C4 9719   0.962   0.409  17.551  0.1132 -0.0296 -0.4884
  653MPD2    C5 9720   1.019   0.457  17.666 -0.0537  0.4529  0.3326
  653MPD2     H 9721   0.764   0.663  17.470 -0.6678  0.8209  2.0729
  653MPD2    H1 9722   0.988   0.309  17.516 -3.3240 -1.0535 -0.1009
  653MPD2    H2 9723   1.038   0.610   0.055  0.7693 -0.4892  0.6008
  653MPD2    H3 9724   1.093   0.395  17.716  1.6606  1.9914 -0.2811
  653MPD2     N 9725   0.785   0.431  17.382 -0.1455 -0.1624 -0.5413
  653MPD2    H5 9726   0.737   0.505  17.332 -0.2454 -0.3858 -0.7756
  653MPD2    N1 9727   0.871   0.800  17.654  0.5218 -0.4756  0.5204
  653MPD2    H7 9728   0.816   0.844  17.582  1.8210  0.4545  0.0942
  654TMC3    C1 9729   0.695   0.309  17.208  0.4858  0.3331  0.4835
  654TMC3    C2 9730   0.584   0.387  17.210  0.7271  0.1202 -0.2667
  654TMC3    C3 9731   0.534   0.425  17.093 -0.2053 -0.0088 -0.1108
  654TMC3    C4 9732   0.748   0.265  17.088  0.2848  0.0623  0.3558
  654TMC3    C5 9733   0.689   0.303  16.972  0.4915  0.1114  0.5949
  654TMC3    C6 9734   0.584   0.384  16.975 -0.4158  1.0463  0.2840
  654TMC3     C 9735   0.798   0.314  17.316 -0.1057  0.2457 -0.0844
  654TMC3     O 9736   0.854   0.212  17.349 -0.5467  0.1759  0.2161
  654TMC3     H 9737   0.558   0.412  17.313 -4.3666  0.8455 -1.7180
  654TMC3    H1 9738   0.845   0.218  17.094  0.4679  0.0026 -2.8290
  654TMC3    H2 9739   0.523   0.410  16.889 -2.0890 -3.2795  0.1659
  654TMC3    C7 9740   0.716   0.230  16.849  0.0771 -0.0864 -0.2387
  654TMC3    C8 9741   0.420   0.520  17.103  0.4234  0.0904 -0.3647
  654TMC3    O1 9742   0.673   0.282  16.748  0.5970 -0.3070 -0.3855
  654TMC3    O2 9743   0.338   0.519  17.012  0.3928  0.7010 -0.3553
  655MPD2     C 9744   2.350   0.410  15.752  0.2391 -0.1913 -0.1556
  655MPD2    C1 9745   2.245   0.460  15.681  0.2540 -0.0997  1.1084
  655MPD2    C2 9746   2.221   0.405  15.556 -0.1825 -1.7941 -0.5985
  655MPD2    C3 9747   2.300   0.304  15.511  0.1632  0.3177  0.0674
  655MPD2    C4 9748   2.401   0.245  15.585  0.1744 -0.1931  0.0266
  655MPD2    C5 9749   2.432   0.315  15.697 -0.0901 -0.9799 -0.1680
  655MPD2     H 9750   2.138   0.442  15.496 -0.1615  1.1988  1.2767
  655MPD2    H1 9751   2.456   0.162  15.543  1.6493  0.8302 -0.0864
  655MPD2    H2 9752   2.371   0.450  15.850 -2.2389  1.9120 -0.4813
  655MPD2    H3 9753   2.519   0.286  15.755 -0.4033 -0.4384  0.5698
  655MPD2     N 9754   2.292   0.258  15.379  0.0628 -0.0990  0.2951
  655MPD2    H5 9755   2.357   0.186  15.349  0.4197  0.4064 -0.1498
  655MPD2    N1 9756   2.152   0.550  15.734  0.1835  0.2063  0.0506
  655MPD2    H7 9757   2.076   0.577  15.672 -0.9554 -1.0772  0.8920
  656TMC3    C1 9758   2.038   0.699  15.880 -0.2300  0.1926 -0.1177
  656TMC3    C2 9759   2.026   0.759  16.001 -0.4087 -0.0277  0.1193
  656TMC3    C3 9760   1.948   0.870  16.016  0.6164 -0.3994 -0.5930
  656TMC3    C4 9761   1.966   0.741  15.771 -0.0735 -0.2754 -0.0432
  656TMC3    C5 9762   1.897   0.858  15.786 -0.8116  0.3363 -0.0006
  656TMC3    C6 9763   1.879   0.923  15.906 -0.6732 -0.2675 -0.1881
  656TMC3     C 9764   2.134   0.593  15.865  0.4657  0.2956  0.5799
  656TMC3     O 9765   2.199   0.557  15.960 -0.3920  0.6243  0.4827
  656TMC3     H 9766   2.064   0.697  16.082 -0.5513  1.9280  1.6832
  656TMC3    H1 9767   1.978   0.700  15.672 -0.3415 -0.5156  0.0245
  656TMC3    H2 9768   1.821   1.015  15.907 -3.0401 -1.7876  0.0542
  656TMC3    C7 9769   1.797   0.893  15.684 -0.6682 -0.6379 -0.3289
  656TMC3    C8 9770   1.871   0.858  16.138 -0.2412  0.1558  0.1580
  656TMC3    O1 9771   1.715   0.969  15.723  0.4389  0.3970 -0.0841
  656TMC3    O2 9772   1.885   0.764  16.214 -0.6697  0.0989 -0.5593
  657TMC3    C1 9773   0.877   4.494  14.979 -0.0216 -0.2103  0.4064
  657TMC3    C2 9774   0.895   4.481  15.117 -0.1996 -0.0416 -0.0184
  657TMC3    C3 9775   0.918   4.601  15.194  0.1001 -0.3408 -0.3425
  657TMC3    C4 9776   0.857   4.620  14.927 -0.3054  0.2408 -0.6142
  657TMC3    C5 9777   0.857   4.729  15.011 -0.3649 -0.0140  0.1222
  657TMC3    C6 9778   0.889   4.723  15.140 -0.1103 -0.7355  0.1280
  657TMC3     C 9779   0.856   4.375  14.900  0.0695  0.3388 -0.4294
  657TMC3     O 9780   0.785   4.388  14.804  0.1028 -0.0504  0.9843
  657TMC3     H 9781   0.909   4.383  15.159 -1.8331 -0.6885 -1.0093
  657TMC3    H1 9782   0.822   4.634  14.826  0.1433  0.7217 -0.7056
  657TMC3    H2 9783   0.886   0.074  15.202 -0.0223 -0.6414 -0.0015
  657TMC3    C7 9784   0.779   0.110  14.977  0.4749 -0.0372 -0.1174
  657TMC3    C8 9785   0.959   4.598  15.335 -0.4978  0.8382  0.4984
  657TMC3    O1 9786   0.745   0.191  15.058 -0.3509 -0.6021 -0.1925
  657TMC3    O2 9787   0.962   4.710  15.387  0.2088 -0.2482  0.4622
  658MPD2     C 9788   2.506   4.515  14.707 -0.3800  0.0202 -0.1310
  658MPD2    C1 9789   2.496   4.648  14.757  0.0350  0.0718 -0.1907
  658MPD2    C2 9790   2.587   0.005  14.709  0.2945  0.8025 -0.4297
  658MPD2    C3 9791   2.661   4.715  14.596 -0.8224  0.4471 -0.2344
  658MPD2    C4 9792   2.650   4.593  14.534 -0.2738 -0.1248  0.3590
  658MPD2    C5 9793   2.590   4.489  14.599  0.4916  0.5926 -0.2183
  658MPD2     H 9794   2.595   0.105  14.752 -0.3360  1.9459 -2.9457
  658MPD2    H1 9795   2.708   4.570  14.446  1.7548  0.6974  1.4733
  658MPD2    H2 9796   2.452   4.432  14.752  0.6222 -0.7834 -0.3777
  658MPD2    H3 9797   2.586   4.399  14.540 -3.1356  0.4202  0.3265
  658MPD2     N 9798   2.723   0.088  14.542  0.0596 -0.6398 -0.0755
  658MPD2    H5 9799   2.699   0.172  14.595  3.0487  0.6176 -0.7050
  658MPD2    N1 9800   2.416   4.669  14.867 -0.5470 -0.7317  0.2364
  658MPD2    H7 9801   2.347   4.596  14.886 -2.4044  1.0524  0.3639
  659TMC3    C1 9802   2.291   0.060  15.014 -0.0287  0.3339  0.4391
  659TMC3    C2 9803   2.302   0.143  15.123  0.2002  0.5786  0.0742
  659TMC3    C3 9804   2.204   0.216  15.165 -0.4871 -0.1397  0.0620
  659TMC3    C4 9805   2.165   0.048  14.946  0.2756 -0.3842  0.2834
  659TMC3    C5 9806   2.060   0.121  15.004 -0.2646 -0.2296 -0.0269
  659TMC3    C6 9807   2.085   0.215  15.102  0.1909 -0.3462  0.7742
  659TMC3     C 9808   2.407   0.055  14.929  0.0019 -0.5667  0.1808
  659TMC3     O 9809   2.467   0.160  14.917  0.0051 -0.0068  0.1268
  659TMC3     H 9810   2.400   0.153  15.167  0.8666 -0.4614 -1.1550
  659TMC3    H1 9811   2.140   4.721  14.863 -1.4963  1.5791 -0.7296
  659TMC3    H2 9812   2.002   0.266  15.149 -0.0266 -0.3156  0.3550
  659TMC3    C7 9813   1.917   0.086  14.997  0.5229  0.8856 -0.7929
  659TMC3    C8 9814   2.204   0.298  15.287 -0.0250  0.0830 -0.3203
  659TMC3    O1 9815   1.847   0.138  15.080  0.0677  0.1909 -0.2009
  659TMC3    O2 9816   2.137   0.397  15.286  0.1130  0.3676 -0.0226
  660MPD2     C 9817   0.138   3.770  12.557 -0.0310 -0.0273 -0.4705
  660MPD2    C1 9818   0.005   3.807  12.555 -0.0482  0.2904  0.1090
  660MPD2    C2 9819   4.637   3.726  12.597 -0.0677 -0.1171 -0.6815
  660MPD2    C3 9820   4.669   3.610  12.665 -0.0843 -0.3067 -0.0073
  660MPD2    C4 9821   0.070   3.573  12.673  0.4675 -0.3660  0.0525
  660MPD2    C5 9822   0.165   3.652  12.617 -0.1370 -0.1140  0.3488
  660MPD2     H 9823   4.531   3.749  12.593 -0.2794 -0.8381  1.0315
  660MPD2    H1 9824   0.096   3.480  12.722 -1.4896 -1.1953 -0.5087
  660MPD2    H2 9825   0.217   3.839  12.529  1.3292 -1.6164 -0.5039
  660MPD2    H3 9826   0.269   3.624  12.630  0.0043 -0.1887 -0.9466
  660MPD2     N 9827   4.567   3.519  12.714  0.3396  0.6886  0.2844
  660MPD2    H5 9828   4.593   3.431  12.757  0.0144  0.3038 -0.3025
  660MPD2    N1 9829   4.722   3.934  12.497 -0.4163 -0.1674 -0.4778
  660MPD2    H7 9830   0.066   3.989  12.473  0.5443 -1.7422 -0.7958
  661TMC3    C1 9831   4.594   4.128  12.430  0.7807  0.1258 -0.2347
  661TMC3    C2 9832   4.639   4.146  12.303 -0.1005 -0.4658  0.2280
  661TMC3    C3 9833   4.566   4.223  12.216 -0.1626 -0.2948  0.4019
  661TMC3    C4 9834   4.478   4.195  12.465 -0.2692  0.6981 -0.2815
  661TMC3    C5 9835   4.407   4.279  12.382  0.1679  0.4906  0.2119
  661TMC3    C6 9836   4.449   4.293  12.249  0.1085  0.7382  0.3244
  661TMC3     C 9837   4.594   3.990  12.475 -0.4254  0.2569 -0.1642
  661TMC3     O 9838   4.481   3.947  12.492 -0.2355  0.2773  0.0760
  661TMC3     H 9839   4.720   4.081  12.273 -0.3896 -0.8672  0.3161
  661TMC3    H1 9840   4.447   4.180  12.568  1.7077  0.6524  0.3031
  661TMC3    H2 9841   4.389   4.354  12.182  1.6594  0.4495 -1.3239
  661TMC3    C7 9842   4.264   4.262  12.386  0.4498 -0.0863  0.4518
  661TMC3    C8 9843   4.619   4.230  12.083 -0.0432 -0.2071 -0.0653
  661TMC3    O1 9844   4.193   4.344  12.330 -0.2523  0.0380  0.4835
  661TMC3    O2 9845   4.690   4.135  12.051 -0.1893 -0.0862 -0.1523
  662MPD2     C 9846   0.258   3.323  16.994  0.3906 -0.2825  0.2022
  662MPD2    C1 9847   0.125   3.283  16.966  0.3189  0.1729  0.6131
  662MPD2    C2 9848   0.021   3.369  17.001  0.1987  1.0695 -0.0625
  662MPD2    C3 9849   0.037   3.494  17.058 -0.4087 -0.1354 -0.2134
  662MPD2    C4 9850   0.166   3.537  17.075  0.3670  0.1722 -0.7525
  662MPD2    C5 9851   0.273   3.450  17.047  0.5175  0.7743 -0.1549
  662MPD2     H 9852   4.659   3.331  16.988  0.7211  0.2842 -1.8481
  662MPD2    H1 9853   0.182   3.633  17.124  2.2681 -0.7373  0.4219
  662MPD2    H2 9854   0.354   3.273  16.986  0.2121 -0.5645 -0.1366
  662MPD2    H3 9855   0.369   3.484  17.085  0.8424 -0.5604  0.2192
  662MPD2     N 9856   4.663   3.567  17.106 -0.0143 -0.3325 -0.1984
  662MPD2    H5 9857   4.681   3.652  17.160 -0.5342 -0.8392  0.7721
  662MPD2    N1 9858   0.099   3.149  16.916 -0.1969 -0.5250 -0.1636
  662MPD2    H7 9859   0.002   3.127  16.900 -0.2213 -0.2251 -0.4171
  663TMC3    C1 9860   0.145   2.948  16.791  0.0512 -1.0543 -0.0993
  663TMC3    C2 9861   0.039   2.887  16.850  0.8818  1.0437  0.2696
  663TMC3    C3 9862   4.723   2.778  16.792 -0.4584 -1.0288  0.4258
  663TMC3    C4 9863   0.209   2.894  16.681 -0.2012 -0.0221 -0.1594
  663TMC3    C5 9864   0.162   2.782  16.630 -0.6542  0.4433  0.6002
  663TMC3    C6 9865   0.056   2.724  16.692 -0.3852 -0.6637  0.8597
  663TMC3     C 9866   0.196   3.070  16.852 -0.2409 -0.6637 -0.5897
  663TMC3     O 9867   0.314   3.099  16.832  0.2450 -0.0875  0.6881
  663TMC3     H 9868   0.000   2.943  16.934  0.7242 -0.1023  0.9524
  663TMC3    H1 9869   0.295   2.951  16.646  1.8868 -1.7750  2.1713
  663TMC3    H2 9870   0.010   2.640  16.641  1.8877 -0.7618 -1.0458
  663TMC3    C7 9871   0.253   2.689  16.576 -0.1047  0.9182  0.4790
  663TMC3    C8 9872   4.702   2.680  16.898 -0.6809  0.8038 -1.1438
  663TMC3    O1 9873   0.304   2.720  16.475  0.2851 -0.9442  0.0219
  663TMC3    O2 9874   0.008   2.570  16.873  0.7303 -0.6368 -0.2330
  664MPD2     C 9875   2.735   1.840  17.488  0.3516  0.0317 -1.0279
  664MPD2    C1 9876   2.870   1.806  17.512 -0.0461 -0.3560 -0.0760
  664MPD2    C2 9877   2.907   1.763  17.637 -0.2856  0.3461  0.3655
  664MPD2    C3 9878   2.809   1.746  17.735 -0.1158  0.4107  0.9776
  664MPD2    C4 9879   2.674   1.780  17.708 -0.6540 -0.2269 -0.2053
  664MPD2    C5 9880   2.632   1.819  17.583 -0.1333  0.1882  0.2394
  664MPD2     H 9881   3.013   1.760  17.661  0.2009  1.0793 -1.7618
  664MPD2    H1 9882   2.595   1.780   0.032 -1.1711  0.3603 -0.7542
  664MPD2    H2 9883   2.713   1.883  17.391 -3.3787 -0.5769 -0.4508
  664MPD2    H3 9884   2.527   1.840  17.567 -0.2237  0.6083  1.3677
  664MPD2     N 9885   2.858   1.717   0.114  0.3835 -0.1787 -0.1954
  664MPD2    H5 9886   2.956   1.729   0.134  0.0762 -0.1231  1.2535
  664MPD2    N1 9887   2.970   1.846  17.420  0.0370  0.1979 -0.0148
  664MPD2    H7 9888   3.063   1.832  17.459 -0.8374 -0.1318  1.9711
  665TMC3    C1 9889   2.839   1.698   0.345  0.3131 -0.5396 -0.1158
  665TMC3    C2 9890   2.773   1.655   0.455 -0.8765  0.6328  0.2864
  665TMC3    C3 9891   2.813   1.694   0.579 -0.2039 -0.1387 -0.1210
  665TMC3    C4 9892   2.937   1.793   0.361  0.3027  0.4665 -0.6501
  665TMC3    C5 9893   2.973   1.836   0.488 -0.2117  0.1188 -0.2952
  665TMC3    C6 9894   2.919   1.780   0.598 -0.1881 -0.5679 -0.1681
  665TMC3     C 9895   2.771   1.691   0.215  0.3877 -0.6476  0.0474
  665TMC3     O 9896   2.655   1.656   0.218  0.5186  0.2154  0.4257
  665TMC3     H 9897   2.697   1.577   0.451  2.1217 -2.3017  0.1448
  665TMC3    H1 9898   2.992   1.840   0.280  1.9425 -2.0829 -0.9945
  665TMC3    H2 9899   2.946   1.819   0.696 -1.7547  0.4192 -0.1267
  665TMC3    C7 9900   3.103   1.909   0.499 -0.1035 -0.7714 -0.3482
  665TMC3    C8 9901   2.734   1.646   0.689 -0.7573 -0.3580 -0.2934
  665TMC3    O1 9902   3.168   1.913   0.395  0.0771  0.0285 -0.4636
  665TMC3    O2 9903   2.650   1.559   0.670  0.2982  0.1272  0.2287
  666TMC3    C1 9904   2.753   1.974   9.493  0.5977  0.1926  0.3233
  666TMC3    C2 9905   2.807   1.876   9.583 -0.0571 -0.0384  0.0308
  666TMC3    C3 9906   2.869   1.930   9.692 -0.4108 -0.2285 -0.3651
  666TMC3    C4 9907   2.750   2.108   9.529 -0.2113 -0.1047  0.1948
  666TMC3    C5 9908   2.810   2.156   9.638 -0.1374  0.5080  0.3495
  666TMC3    C6 9909   2.866   2.064   9.723 -0.1116 -0.1258  0.7308
  666TMC3     C 9910   2.666   1.926   9.381 -0.2944  0.5614 -0.1628
  666TMC3     O 9911   2.635   1.999   9.283  0.7705  0.3968 -0.3226
  666TMC3     H 9912   2.825   1.773   9.555 -0.0545 -0.1753  0.5342
  666TMC3    H1 9913   2.704   2.171   9.454 -0.7495 -1.7494 -0.8495
  666TMC3    H2 9914   2.911   2.098   9.815  1.1225 -0.9312  0.4255
  666TMC3    C7 9915   2.722   2.233   9.731  0.0955 -0.8520 -0.9157
  666TMC3    C8 9916   2.848   1.842   9.807 -0.5093  0.4750  0.3659
  666TMC3    O1 9917   2.687   2.164   9.823  0.3229  0.1426 -0.3082
  666TMC3    O2 9918   2.866   1.721   9.789  0.3690 -1.0954 -0.0014
  667MPD2     C 9919   4.171   1.582  14.800  0.0206  0.1102 -0.2181
  667MPD2    C1 9920   4.041   1.622  14.832 -0.4770 -0.1638  0.0602
  667MPD2    C2 9921   3.937   1.533  14.811 -0.2252 -0.1614 -0.5858
  667MPD2    C3 9922   3.963   1.413  14.757 -0.0693  0.6359  0.0572
  667MPD2    C4 9923   4.090   1.377  14.722 -0.1141 -0.3599 -0.0847
  667MPD2    C5 9924   4.188   1.463  14.736 -0.2707  0.0031  0.5470
  667MPD2     H 9925   3.839   1.571  14.835  0.0666 -0.1051  0.5519
  667MPD2    H1 9926   4.104   1.287  14.664  2.3280  1.4713 -2.3376
  667MPD2    H2 9927   4.257   1.643  14.824 -0.4937 -0.2105  2.5069
  667MPD2    H3 9928   4.286   1.434  14.703  0.1154  1.1375  0.6884
  667MPD2     N 9929   3.859   1.318  14.732  0.0466  0.2310  0.5337
  667MPD2    H5 9930   3.884   1.221  14.715 -0.7334  0.0494  0.4526
  667MPD2    N1 9931   4.014   1.756  14.872 -0.3506 -0.3752 -0.3649
  667MPD2    H7 9932   3.919   1.779  14.901  0.0883  1.9451 -0.7102
  668TMC3    C1 9933   4.042   1.980  14.923  0.6732  0.8935  0.5549
  668TMC3    C2 9934   4.105   2.094  14.895 -0.3074 -1.0093 -0.4098
  668TMC3    C3 9935   4.115   2.187  15.000  0.0583  0.2766  0.6364
  668TMC3    C4 9936   3.988   1.954  15.045  0.5508 -0.0875 -0.5644
  668TMC3    C5 9937   3.983   2.054  15.139 -0.1769 -1.1604  0.2096
  668TMC3    C6 9938   4.047   2.176  15.117 -0.3815 -0.4304 -0.4688
  668TMC3     C 9939   4.101   1.863  14.868 -0.6107  0.5331  0.3856
  668TMC3     O 9940   4.208   1.883  14.816  0.1006 -0.2264 -0.1209
  668TMC3     H 9941   4.162   2.098  14.803 -1.7908  0.8095 -1.2525
  668TMC3    H1 9942   3.951   1.853  15.063 -0.9648  0.1862 -2.0984
  668TMC3    H2 9943   4.029   2.258  15.185 -0.5966 -1.3631  0.5925
  668TMC3    C7 9944   3.891   2.045  15.254  0.1216 -0.1028  0.4744
  668TMC3    C8 9945   4.150   2.328  14.959 -0.5020 -0.5356 -0.6078
  668TMC3    O1 9946   3.911   2.118  15.354  0.2186 -0.4137  0.1335
  668TMC3    O2 9947   4.158   2.408  15.051  0.0536 -0.5310 -0.2384
  669TMC3    C1 9948   1.899   1.302  14.695 -0.0806  0.0984 -0.5091
  669TMC3    C2 9949   1.789   1.281  14.615 -0.4549 -0.3066 -0.5500
  669TMC3    C3 9950   1.812   1.306  14.482  0.3333 -0.1720  0.1514
  669TMC3    C4 9951   2.021   1.356  14.658  0.0640 -0.4847 -0.4869
  669TMC3    C5 9952   2.028   1.383  14.523 -0.2614  0.2680  0.9239
  669TMC3    C6 9953   1.929   1.350  14.432  0.7050  0.2677  0.0771
  669TMC3     C 9954   1.892   1.244  14.824  0.3049  0.4903  0.0254
  669TMC3     O 9955   1.789   1.248  14.883  0.0098 -0.0853  0.1497
  669TMC3     H 9956   1.699   1.235  14.655 -1.8154  3.5658  0.8373
  669TMC3    H1 9957   2.109   1.365  14.720 -0.8081 -0.7204  0.7851
  669TMC3    H2 9958   1.934   1.356  14.324  1.4447  0.5325  0.1245
  669TMC3    C7 9959   2.163   1.432  14.473  0.2654 -0.2997  0.0669
  669TMC3    C8 9960   1.706   1.279  14.388  0.6682  0.4781 -0.4459
  669TMC3    O1 9961   2.254   1.417  14.555 -0.7492  0.1593 -0.2255
  669TMC3    O2 9962   1.735   1.236  14.278 -0.5596 -0.1122  0.3799
  670MPD2     C 9963   0.664   3.426  13.102  0.1863 -0.0548 -0.3957
  670MPD2    C1 9964   0.730   3.544  13.141  0.0165  0.3754  0.4827
  670MPD2    C2 9965   0.660   3.630  13.222  0.4117  0.1654 -0.2577
  670MPD2    C3 9966   0.524   3.616  13.261 -0.3311  0.3239  0.7584
  670MPD2    C4 9967   0.460   3.512  13.199  0.2105 -0.9661 -0.7243
  670MPD2    C5 9968   0.532   3.415  13.133 -0.1037  0.3175  0.7134
  670MPD2     H 9969   0.716   3.714  13.262  1.3045  0.1250 -1.4423
  670MPD2    H1 9970   0.352   3.506  13.206  0.1590 -1.9524 -2.3809
  670MPD2    H2 9971   0.712   3.339  13.059 -2.5819 -0.5287 -2.5461
  670MPD2    H3 9972   0.481   3.324  13.105  0.7772  0.0110  0.0855
  670MPD2     N 9973   0.478   3.706  13.355 -0.5812  0.0043 -0.0816
  670MPD2    H5 9974   0.538   3.783  13.379 -0.4568 -0.0036 -0.3628
  670MPD2    N1 9975   0.871   3.569  13.117  0.4716  0.3992  0.3719
  670MPD2    H7 9976   0.912   3.651  13.161 -1.4940  1.6825 -0.1542
  671TMC3    C1 9977   0.316   3.820  13.494  0.5219 -0.8034  0.9517
  671TMC3    C2 9978   0.401   3.825  13.601  0.2588  0.6501  0.5039
  671TMC3    C3 9979   0.352   3.819  13.731 -0.0266  0.0395  0.7007
  671TMC3    C4 9980   0.183   3.823  13.521  0.2373  0.5764 -0.0020
  671TMC3    C5 9981   0.129   3.826  13.652  0.5753  0.0912 -0.8236
  671TMC3    C6 9982   0.217   3.833  13.766 -0.5238 -0.3118  0.0012
  671TMC3     C 9983   0.348   3.712  13.398  0.3544  0.1854 -0.1126
  671TMC3     O 9984   0.248   3.642  13.369 -0.1592 -0.1270  0.1757
  671TMC3     H 9985   0.503   3.797  13.579  0.3610  0.8455  0.7385
  671TMC3    H1 9986   0.113   3.792  13.444 -0.5416  0.2857  0.8281
  671TMC3    H2 9987   0.179   3.826  13.867  0.8812  1.6694  0.6642
  671TMC3    C7 9988   0.042   3.713  13.677 -0.5562 -0.4367  0.3387
  671TMC3    C8 9989   0.435   3.734  13.817  0.7258  0.0681 -0.5619
  671TMC3    O1 9990   0.076   3.626  13.605 -0.0798  0.1294  0.5118
  671TMC3    O2 9991   0.498   3.652  13.757  0.3651 -0.0934  0.5586
  672MPD2     C 9992   0.702   0.250   1.080 -0.4337  0.2171  0.4083
  672MPD2    C1 9993   0.809   0.196   1.002 -0.1612 -0.4182 -0.3212
  672MPD2    C2 9994   0.927   0.262   0.994 -0.4733  0.0385  0.2640
  672MPD2    C3 9995   0.946   0.381   1.073 -0.3808 -0.2885  0.8295
  672MPD2    C4 9996   0.841   0.441   1.133 -0.1150 -0.5386  0.7459
  672MPD2    C5 9997   0.721   0.374   1.145  0.2540  0.0316  0.6712
  672MPD2     H 9998   1.013   0.219   0.945 -0.8974  1.0772 -1.3788
  672MPD2    H1 9999   0.853   0.542   1.172 -0.9830 -0.2227  0.1939
  672MPD2    H210000   0.605   0.202   1.091 -1.1700  1.2054 -1.7822
  672MPD2    H310001   0.631   0.421   1.182  0.3277 -2.0198  3.4510
  672MPD2     N10002   1.062   0.458   1.079  0.2233  0.0175 -0.3633
  672MPD2    H510003   1.059   0.553   1.116 -0.2920 -0.2819  0.3515
  672MPD2    N110004   0.800   0.075   0.926  0.2923 -0.3245 -0.0857
  672MPD2    H710005   0.876   0.050   0.863  0.4782  1.6293 -0.6336
  673TMC3    C110006   0.700   4.643   0.797  0.1435 -0.4735  0.0384
  673TMC3    C210007   0.822   4.600   0.768 -0.5663 -0.1903 -0.4423
  673TMC3    C310008   0.838   4.523   0.655  0.4693 -0.6885  0.3755
  673TMC3    C410009   0.589   4.620   0.713  0.2908  0.0416  0.5868
  673TMC3    C510010   0.616   4.551   0.600  0.5150  0.7872 -0.0403
  673TMC3    C610011   0.731   4.500   0.569 -0.0584  0.1819  0.3301
  673TMC3     C10012   0.688   0.016   0.887 -0.0310  0.1394  0.4788
  673TMC3     O10013   0.572   0.060   0.899  0.5514  0.1592 -0.0791
  673TMC3     H10014   0.894   4.602   0.849 -1.1867 -1.6288  0.1447
  673TMC3    H110015   0.488   4.641   0.746  0.5898  0.3275  1.3026
  673TMC3    H210016   0.747   4.448   0.475  1.1814 -0.0307  0.6502
  673TMC3    C710017   0.534   4.583   0.482 -0.0802  0.4570 -0.1387
  673TMC3    C810018   0.961   4.448   0.629  0.5176 -1.0152 -0.1250
  673TMC3    O110019   0.550   4.506   0.387  0.1631  0.5185  0.1106
  673TMC3    O210020   0.972   4.409   0.519 -0.6689 -0.1822 -0.5924
  674MPD2     C10021   0.345   0.134  17.025  0.0059  0.7097  0.0915
  674MPD2    C110022   0.382   0.014  17.066 -0.2102  0.1167  0.3304
  674MPD2    C210023   0.304   4.704  17.172  0.3799  0.3346 -0.1742
  674MPD2    C310024   0.220   0.040  17.243 -0.6085  0.2254  0.3145
  674MPD2    C410025   0.169   0.153  17.188 -0.2945 -0.3463 -0.5402
  674MPD2    C510026   0.240   0.200  17.083  1.0220  0.5853 -0.0299
  674MPD2     H10027   0.318   4.603  17.210  1.9793  1.3546  1.9620
  674MPD2    H110028   0.081   0.208  17.220 -0.2450 -0.6683  0.1495
  674MPD2    H210029   0.380   0.175  16.931 -0.0394  0.5083 -0.0158
  674MPD2    H310030   0.217   0.291  17.029  1.3383  0.9711  0.4787
  674MPD2     N10031   0.160   4.717  17.360  0.0474 -0.4186 -0.0413
  674MPD2    H510032   0.192   4.622  17.377 -1.3572 -1.0179 -0.7331
  674MPD2    N110033   0.487   4.681  17.003 -0.3728 -0.1414  0.3721
  674MPD2    H710034   0.505   4.711  16.908  2.1326  1.2379  1.2964
  675TMC3    C110035   0.534   4.530  17.185 -0.3646 -0.0194 -0.2178
  675TMC3    C210036   0.555   4.398  17.227  0.1163  0.3146 -0.0418
  675TMC3    C310037   0.601   4.372  17.353  0.1198 -0.7154  0.3910
  675TMC3    C410038   0.575   4.630  17.267  0.4431 -0.8166 -0.0171
  675TMC3    C510039   0.611   4.602  17.393 -0.3580 -0.4344  0.0224
  675TMC3    C610040   0.620   4.475  17.440 -0.3299 -0.6094 -0.0678
  675TMC3     C10041   0.541   4.560  17.042  0.1119 -0.5152  0.9708
  675TMC3     O10042   0.597   4.480  16.970  0.1393  0.4101 -0.1603
  675TMC3     H10043   0.545   4.320  17.153  2.7961  0.8426 -0.9692
  675TMC3    H110044   0.605   4.722  17.218 -1.4625  0.1068  0.5638
  675TMC3    H210045   0.653   4.464  17.542 -2.5716 -0.4751  0.6742
  675TMC3    C710046   0.606   4.712  17.496  0.1563  0.0938  0.1577
  675TMC3    C810047   0.560   4.245  17.400 -0.9170  0.5298  0.2449
  675TMC3    O110048   0.659   4.694  17.602  0.1756 -0.2622 -0.3501
  675TMC3    O210049   0.530   4.167  17.311  0.1463 -0.5970 -0.1779
  676MPD2     C10050   3.310   2.610  11.124 -0.5017 -0.5744  0.2094
  676MPD2    C110051   3.229   2.524  11.205  0.2785 -0.1385  0.1831
  676MPD2    C210052   3.214   2.395  11.168 -0.4836 -0.0944  0.0858
  676MPD2    C310053   3.254   2.345  11.046  0.5126 -0.1101 -0.2089
  676MPD2    C410054   3.322   2.435  10.965  0.3646 -0.8285 -0.2933
  676MPD2    C510055   3.357   2.553  11.005 -0.1288 -0.0867  0.2562
  676MPD2     H10056   3.189   2.328  11.249  1.8291 -1.2355 -0.1330
  676MPD2    H110057   3.348   2.410  10.862  3.3594 -1.7834  0.7012
  676MPD2    H210058   3.340   2.712  11.143  1.7345 -0.8723 -1.7259
  676MPD2    H310059   3.423   2.619  10.950  0.2516 -0.5573  0.1593
  676MPD2     N10060   3.241   2.214  10.997 -0.1874 -0.0183 -0.2409
  676MPD2    H510061   3.291   2.190  10.912  0.0542  1.0283 -0.3867
  676MPD2    N110062   3.160   2.560  11.320  0.2342  0.7904 -0.1594
  676MPD2    H710063   3.113   2.485  11.369  1.8108 -0.2845 -0.3096
  677TMC3    C110064   3.044   2.696  11.453  0.0770 -1.0622 -0.3531
  677TMC3    C210065   2.925   2.626  11.412  0.3262 -0.3999 -0.5958
  677TMC3    C310066   2.810   2.635  11.485  0.4515  0.0573 -0.8604
  677TMC3    C410067   3.047   2.771  11.568 -0.2099 -0.4613  0.3716
  677TMC3    C510068   2.924   2.775  11.630  0.0503 -0.2858  0.2835
  677TMC3    C610069   2.808   2.708  11.595 -0.0367 -0.5136  0.3626
  677TMC3     C10070   3.157   2.687  11.371 -0.2974  0.5139 -0.5419
  677TMC3     O10071   3.233   2.781  11.354 -0.2053 -0.0380 -0.1217
  677TMC3     H10072   2.929   2.577  11.316  2.0358  1.1658 -1.3404
  677TMC3    H110073   3.134   2.824  11.605 -0.7793  0.6596  0.0998
  677TMC3    H210074   2.710   2.719  11.640  0.2814 -0.5658  1.0587
  677TMC3    C710075   2.905   2.838  11.763 -0.5050  0.8393  0.4210
  677TMC3    C810076   2.714   2.524  11.468  0.1786 -0.4641 -0.6657
  677TMC3    O110077   2.812   2.799  11.836 -0.5159 -0.1438 -0.1305
  677TMC3    O210078   2.669   2.517  11.356 -0.2704 -0.4178 -0.3555
  678MPD2     C10079   4.333   2.924   1.295 -0.1250  0.0366 -0.4933
  678MPD2    C110080   4.305   2.840   1.191 -0.4534 -0.0217  0.0002
  678MPD2    C210081   4.179   2.799   1.166  0.7419  0.4446  0.2339
  678MPD2    C310082   4.084   2.817   1.255 -0.2836  0.2131 -0.5356
  678MPD2    C410083   4.117   2.889   1.371 -0.6023  0.0105  0.7578
  678MPD2    C510084   4.241   2.943   1.396  0.5372 -0.1728  0.1487
  678MPD2     H10085   4.156   2.735   1.082 -0.8475 -2.2318  2.6870
  678MPD2    H110086   4.043   2.909   1.448  0.0466 -1.9180  1.8789
  678MPD2    H210087   4.432   2.962   1.316  1.3896 -2.3578 -3.2836
  678MPD2    H310088   4.256   3.012   1.479 -0.0653  1.3015 -0.9703
  678MPD2     N10089   3.958   2.768   1.219  0.0910  0.0675  0.0505
  678MPD2    H510090   3.954   2.714   1.133 -0.8312 -0.7240  0.5894
  678MPD2    N110091   4.407   2.807   1.095 -0.3692 -0.1646 -0.6711
  678MPD2    H710092   4.376   2.763   1.009 -1.2064 -0.2952 -0.3104
  679TMC3    C110093   0.081   2.687   0.930  0.5045  0.1782 -0.6132
  679TMC3    C210094   4.729   2.704   1.030 -0.1837 -0.3554 -0.0795
  679TMC3    C310095   4.621   2.785   1.006 -0.0150 -0.3596 -0.0655
  679TMC3    C410096   0.059   2.724   0.803  0.0854  0.3465  0.5129
  679TMC3    C510097   4.688   2.804   0.784  0.4923  0.0942 -0.7546
  679TMC3    C610098   4.604   2.843   0.887  0.4632  0.4403 -0.3955
  679TMC3     C10099   0.177   2.576   0.937 -0.1251  0.4000  0.5878
  679TMC3     O10100   0.238   2.550   0.832 -0.7021  0.3778 -0.1293
  679TMC3     H10101   0.010   2.668   1.130 -0.8119 -0.3206  0.0515
  679TMC3    H110102   0.127   2.698   0.723 -0.6507 -0.3915  0.1319
  679TMC3    H210103   4.514   2.900   0.869  0.7374  1.7864  2.5266
  679TMC3    C710104   4.626   2.794   0.661  0.7281  0.2398 -0.0652
  679TMC3    C810105   4.544   2.826   1.120 -0.7822  0.3422 -0.9436
  679TMC3    O110106   4.619   2.896   0.595  0.0385 -0.1947  0.0229
  679TMC3    O210107   4.606   2.845   1.224 -0.2129  0.0422  0.1659
  680MPD2     C10108   4.171   0.954  13.877  0.0415 -0.2714 -0.4588
  680MPD2    C110109   4.302   0.954  13.828 -0.6466 -0.2201  0.0784
  680MPD2    C210110   4.391   1.055  13.846 -0.5490 -0.2984  0.5652
  680MPD2    C310111   4.352   1.163  13.919  0.4790  0.1975 -0.4409
  680MPD2    C410112   4.221   1.168  13.969 -0.2755  0.2846  0.4276
  680MPD2    C510113   4.138   1.062  13.955 -0.1272  0.5334  0.5631
  680MPD2     H10114   4.488   1.051  13.799 -0.7948  0.7117 -0.0401
  680MPD2    H110115   4.182   1.249  14.030  1.5897  0.6309  1.1762
  680MPD2    H210116   4.102   0.874  13.852  0.3444 -0.0978 -1.8308
  680MPD2    H310117   4.039   1.077  13.996 -1.2268 -2.0431 -1.1547
  680MPD2     N10118   4.427   1.281  13.931 -0.7089  0.2078  0.3702
  680MPD2    H510119   4.377   1.358  13.975  2.4669  1.8700  1.1031
  680MPD2    N110120   4.347   0.851  13.740  0.1986  0.3612  0.3364
  680MPD2    H710121   4.447   0.836  13.733  0.0328 -0.2602 -0.7338
  681TMC3    C110122   4.329   0.680  13.585 -0.0728  0.5657  0.7253
  681TMC3    C210123   4.268   0.558  13.578  0.1010 -0.0588  0.3570
  681TMC3    C310124   4.351   0.445  13.586  0.3002 -0.1141  0.1408
  681TMC3    C410125   4.466   0.684  13.580 -0.1304 -0.4989 -0.2030
  681TMC3    C510126   4.544   0.574  13.552  0.0279 -0.3652  0.7771
  681TMC3    C610127   4.486   0.449  13.556  0.3818  0.5045 -0.0977
  681TMC3     C10128   4.261   0.776  13.662 -0.4399 -0.6190 -0.4005
  681TMC3     O10129   4.141   0.772  13.664  0.2403 -0.0918  0.1099
  681TMC3     H10130   4.168   0.556  13.621  0.5812 -2.9489  1.3542
  681TMC3    H110131   4.523   0.776  13.596 -0.9881 -0.4433  2.4280
  681TMC3    H210132   4.549   0.361  13.566  0.1448  0.0682 -2.6592
  681TMC3    C710133   4.685   0.583  13.516 -0.3622  0.3304  0.0580
  681TMC3    C810134   4.316   0.359  13.695 -0.5026  0.2314  0.5525
  681TMC3    O110135   0.012   0.484  13.545  0.3114 -0.1910 -0.4954
  681TMC3    O210136   4.201   0.322  13.686  0.9600  0.0546 -0.0882
  682MPD2     C10137   2.175   2.777  10.828 -0.0822 -0.0137  0.1893
  682MPD2    C110138   2.123   2.649  10.809 -0.3174 -0.5523  0.4057
  682MPD2    C210139   2.067   2.581  10.909  0.1542 -1.0956 -0.1934
  682MPD2    C310140   2.069   2.630  11.043 -0.0391  0.3958  0.3118
  682MPD2    C410141   2.120   2.754  11.064 -0.5376 -0.1690 -0.1120
  682MPD2    C510142   2.164   2.834  10.957  0.5727 -0.0589  0.5347
  682MPD2     H10143   2.030   2.482  10.885 -0.0120 -1.3284  0.9927
  682MPD2    H110144   2.118   2.798  11.163  1.1970 -0.1179 -0.0975
  682MPD2    H210145   2.210   2.844  10.751 -1.0419  0.1521 -0.0904
  682MPD2    H310146   2.189   2.937  10.978  0.5584  0.0916 -0.1946
  682MPD2     N10147   2.014   2.562  11.155  0.4713 -0.2372  0.0660
  682MPD2    H510148   2.033   2.606  11.245  2.2808  2.9098 -1.8327
  682MPD2    N110149   2.114   2.581  10.685 -1.0561  0.0261  0.5511
  682MPD2    H710150   2.054   2.500  10.687 -2.0161  0.6841 -2.2209
  683TMC3    C110151   1.907   2.427  11.526  0.3580  0.2871 -0.5325
  683TMC3    C210152   1.844   2.308  11.542 -0.6209 -0.4607  0.1228
  683TMC3    C310153   1.822   2.237  11.428 -0.0513  0.4570  0.1335
  683TMC3    C410154   1.939   2.477  11.405  0.0501  0.0633  0.6547
  683TMC3    C510155   1.914   2.405  11.293  0.0814  0.3670 -0.1889
  683TMC3    C610156   1.866   2.281  11.302 -0.7374  0.1297 -0.7846
  683TMC3     C10157   1.907   2.519  11.648 -0.4095  0.2805  0.3985
  683TMC3     O10158   1.995   2.603  11.638  0.0096  0.1651 -0.3252
  683TMC3     H10159   1.796   2.283  11.636 -0.8147  0.6496  0.3169
  683TMC3    H110160   1.965   2.582  11.399  0.3789 -0.1484 -1.4167
  683TMC3    H210161   1.857   2.220  11.213 -0.4104 -3.4133  1.6283
  683TMC3    C710162   1.962   2.439  11.157  0.2937 -0.1789 -0.3522
  683TMC3    C810163   1.747   2.117  11.426  0.3609 -0.5616  0.9794
  683TMC3    O110164   1.958   2.358  11.065 -0.2718 -0.1025 -0.1214
  683TMC3    O210165   1.698   2.090  11.313  0.0784  0.3628 -0.1381
  684MPD2     C10166   4.717   2.271  16.206 -0.9192  0.5356  0.4576
  684MPD2    C110167   4.737   2.323  16.079  0.2804  0.2166  0.3170
  684MPD2    C210168   0.049   2.451  16.075  0.0011 -0.3382 -0.4862
  684MPD2    C310169   0.101   2.515  16.190  0.6325 -0.3525 -0.2766
  684MPD2    C410170   0.099   2.451  16.311  0.8072 -0.3868 -0.1933
  684MPD2    C510171   0.035   2.332  16.315  0.5120 -0.4774  0.6729
  684MPD2     H10172   0.061   2.494  15.976  0.2012  0.5105 -0.0965
  684MPD2    H110173   0.130   2.489  16.407 -0.4867 -0.1269  0.1199
  684MPD2    H210174   4.666   2.177  16.223  1.3963 -0.7826  0.0494
  684MPD2    H310175   0.032   2.287  16.414 -1.7076 -0.0839  0.7792
  684MPD2     N10176   0.157   2.646  16.184  0.0290 -0.0475  0.2194
  684MPD2    H510177   0.210   2.681  16.263 -1.2551 -0.0879  1.0898
  684MPD2    N110178   4.707   2.270  15.953 -0.5513 -0.0693  0.0935
  684MPD2    H710179   0.009   2.315  15.872  0.8568 -0.6359  0.4748
  685TMC3    C110180   4.666   2.097  15.798 -0.2050  0.4321  0.2691
  685TMC3    C210181   4.584   1.995  15.752 -0.0862  0.3716 -1.1530
  685TMC3    C310182   4.606   1.953  15.622  0.5246 -0.5425 -0.4491
  685TMC3    C410183   0.025   2.157  15.722 -0.0772  0.2892 -0.3457
  685TMC3    C510184   0.036   2.112  15.593 -0.4377  0.2465  0.7341
  685TMC3    C610185   4.698   2.010  15.540 -0.2108  0.1131 -0.2206
  685TMC3     C10186   4.641   2.155  15.929  0.4519  0.2801 -0.6866
  685TMC3     O10187   4.577   2.091  16.014  0.0763  0.1304 -0.3101
  685TMC3     H10188   4.508   1.943  15.808  0.5612  3.2583  2.3967
  685TMC3    H110189   0.094   2.224  15.771  0.2540 -0.6074  0.4275
  685TMC3    H210190   4.720   1.975  15.440 -0.2565  0.1132 -0.2304
  685TMC3    C710191   0.174   2.126  15.535  0.4866  0.2208 -0.7439
  685TMC3    C810192   4.512   1.851  15.571 -0.0139  0.2869  0.3517
  685TMC3    O110193   0.182   2.148  15.419 -0.2267 -0.3660 -0.4289
  685TMC3    O210194   4.485   1.854  15.454 -0.4676 -0.8113  0.4301
  686MPD2     C10195   1.594   2.010  14.934 -0.3058 -0.1170  0.1554
  686MPD2    C110196   1.664   1.938  15.032  0.0183  0.1861  0.4495
  686MPD2    C210197   1.767   1.848  14.999 -1.3416  0.3218 -0.0647
  686MPD2    C310198   1.777   1.808  14.864 -0.2576  0.3566 -0.0410
  686MPD2    C410199   1.709   1.882  14.770  0.8392 -0.6260 -0.5153
  686MPD2    C510200   1.624   1.990  14.803 -0.1202  0.4670 -0.0402
  686MPD2     H10201   1.819   1.801  15.082 -0.0933 -0.8096 -1.4922
  686MPD2    H110202   1.722   1.864  14.664  0.1688  0.7645 -0.8413
  686MPD2    H210203   1.511   2.075  14.958  1.9607  2.3622  1.3226
  686MPD2    H310204   1.572   2.051  14.730 -2.3299  1.3590  2.2694
  686MPD2     N10205   1.871   1.714  14.813  0.6043 -0.2483 -0.2042
  686MPD2    H510206   1.905   1.744  14.723  0.0321 -0.5293 -0.5125
  686MPD2    N110207   1.615   1.971  15.160  1.2626 -0.2320  0.1796
  686MPD2    H710208   1.534   2.032  15.164  1.4020 -0.1525  1.8438
  687TMC3    C110209   1.851   1.546  14.993  0.7089 -0.3134 -0.1074
  687TMC3    C210210   1.714   1.558  14.998 -0.2202  0.0972  0.4527
  687TMC3    C310211   1.653   1.531  15.117  0.7738  0.8324 -0.5517
  687TMC3    C410212   1.927   1.509  15.092 -0.1888 -0.1835 -0.0177
  687TMC3    C510213   1.864   1.485  15.209 -0.4614 -0.1141 -0.2000
  687TMC3    C610214   1.727   1.490  15.221 -0.7131  0.6581 -0.2035
  687TMC3     C10215   1.930   1.610  14.884  0.3051  0.7136 -0.1173
  687TMC3     O10216   2.037   1.553  14.856  0.2174  0.1397 -0.2260
  687TMC3     H10217   1.657   1.578  14.908  1.3514 -0.0314 -0.5528
  687TMC3    H110218   2.034   1.521  15.087 -0.0948 -0.2507  2.1210
  687TMC3    H210219   1.691   1.462  15.319  1.8880 -1.9315  0.0193
  687TMC3    C710220   1.938   1.487  15.336  0.1935 -0.2879  0.4653
  687TMC3    C810221   1.507   1.526  15.139 -0.2478  0.3642 -0.8283
  687TMC3    O110222   1.887   1.555  15.427  0.0401 -0.4333 -0.2717
  687TMC3    O210223   1.466   1.425  15.196  0.7066  0.2053 -0.1430
  688MPD2     C10224   0.943   1.397  17.249  0.2396  0.4866 -0.2215
  688MPD2    C110225   0.984   1.276  17.297  0.0095 -0.1569 -0.3246
  688MPD2    C210226   1.082   1.212  17.221 -0.5277  0.0272 -0.0224
  688MPD2    C310227   1.139   1.262  17.104  0.2742 -0.2850 -0.3996
  688MPD2    C410228   1.089   1.378  17.056 -0.5271  0.3409 -0.4534
  688MPD2    C510229   0.995   1.441  17.130 -0.5901 -0.6034 -0.2709
  688MPD2     H10230   1.108   1.113  17.258  0.6266  1.6123  3.3443
  688MPD2    H110231   1.116   1.423  16.961  0.6870  1.5968  0.4852
  688MPD2    H210232   0.875   1.457  17.308 -2.8803 -1.8789 -1.4186
  688MPD2    H310233   0.974   1.541  17.093  0.3989 -0.3464 -0.1529
  688MPD2     N10234   1.252   1.200  17.034  0.1965  0.1935 -0.1177
  688MPD2    H510235   1.284   1.253  16.955  1.3672 -0.7952 -0.3055
  688MPD2    N110236   0.935   1.215  17.416 -0.1825  0.2252  0.7751
  688MPD2    H710237   0.975   1.124  17.439 -1.9476 -0.2117  2.0903
  689TMC3    C110238   0.831   1.192  17.630 -0.4678  0.9621  0.1051
  689TMC3    C210239   0.806   1.265  17.748  0.5036 -0.1749 -0.1234
  689TMC3    C310240   0.832   1.207   0.122 -0.1861  0.0565  0.1932
  689TMC3    C410241   0.878   1.062  17.631  0.1614 -0.1812 -0.4664
  689TMC3    C510242   0.897   1.010   0.005 -1.2770 -0.4362 -0.7587
  689TMC3    C610243   0.873   1.076   0.124  0.2520  0.2901 -0.0240
  689TMC3     C10244   0.849   1.274  17.510  0.4240 -0.0025  0.3273
  689TMC3     O10245   0.792   1.382  17.507 -0.0510 -0.4346 -0.1824
  689TMC3     H10246   0.771   1.367  17.740  2.8086  0.5526 -1.2090
  689TMC3    H110247   0.885   1.003  17.540 -2.4921  0.7177 -1.2762
  689TMC3    H210248   0.870   1.021   0.217  1.5728 -1.0480 -0.7658
  689TMC3    C710249   0.914   0.872   0.018  0.1895  0.2430 -0.0747
  689TMC3    C810250   0.813   1.282   0.246  0.4689 -0.1046 -0.1176
  689TMC3    O110251   0.943   0.832   0.131  0.0070 -0.7237  0.1518
  689TMC3    O210252   0.835   1.219   0.350 -0.5047 -0.0420  1.1008
  690MPD2     C10253   3.411   2.861  15.529  0.3225 -0.0789  0.0270
  690MPD2    C110254   3.410   2.846  15.390 -0.6617 -1.0498 -0.0265
  690MPD2    C210255   3.525   2.880  15.331 -0.6010  0.0057 -0.1624
  690MPD2    C310256   3.643   2.918  15.393 -0.2366 -0.0966  0.3498
  690MPD2    C410257   3.645   2.921  15.528  0.1857  0.0118  0.1597
  690MPD2    C510258   3.531   2.889  15.598 -1.2096  0.2643 -0.7905
  690MPD2     H10259   3.529   2.883  15.223  0.9092  1.6201 -0.0676
  690MPD2    H110260   3.731   2.956  15.583  0.1453  2.8564 -1.5607
  690MPD2    H210261   3.330   2.837  15.597  1.8052 -1.7181  1.1995
  690MPD2    H310262   3.530   2.900  15.705 -0.7732  0.2871 -0.7899
  690MPD2     N10263   3.757   2.936  15.317  0.4657 -0.4028 -0.0176
  690MPD2    H510264   3.736   2.923  15.219  0.7255 -0.8092 -0.0200
  690MPD2    N110265   3.296   2.801  15.312  0.6240  0.6556  0.3566
  690MPD2    H710266   3.312   2.775  15.215  0.2387  0.4555  0.3427
  691TMC3    C110267   3.095   2.668  15.318  0.2851  0.0813 -0.2072
  691TMC3    C210268   2.964   2.663  15.355 -0.1303 -0.5600 -0.3506
  691TMC3    C310269   2.885   2.553  15.324 -0.3013  0.3400 -0.4123
  691TMC3    C410270   3.153   2.564  15.255 -0.1464  0.2017 -0.0805
  691TMC3    C510271   3.090   2.443  15.241 -0.2205 -0.4286  0.1199
  691TMC3    C610272   2.949   2.438  15.273  0.1382 -0.1430  0.3252
  691TMC3     C10273   3.170   2.785  15.366  0.3987 -0.2056 -0.1046
  691TMC3     O10274   3.124   2.848  15.460 -0.3354 -0.1689  0.0572
  691TMC3     H10275   2.923   2.747  15.409 -1.1839  0.2550 -2.4058
  691TMC3    H110276   3.261   2.568  15.241 -0.1233  0.4082  0.1515
  691TMC3    H210277   2.894   2.350  15.244 -1.4476  1.3620 -1.2388
  691TMC3    C710278   3.173   2.329  15.218  0.4995 -0.1123 -0.2473
  691TMC3    C810279   2.758   2.524  15.396  0.6192  0.5556  0.8990
  691TMC3    O110280   3.293   2.342  15.232  0.3897 -0.1893 -0.1187
  691TMC3    O210281   2.737   2.404  15.408  0.4435  0.6957  0.2579
  692TMC3    C110282   4.633   3.904  15.965  0.4777  0.0909  0.0446
  692TMC3    C210283   0.029   3.921  16.001 -0.0903 -0.2206  0.4950
  692TMC3    C310284   0.125   3.827  15.977 -0.0290  0.4121  0.4698
  692TMC3    C410285   4.604   3.792  15.896  0.3221  0.3601  0.2983
  692TMC3    C510286   4.707   3.708  15.866  0.5158  0.2372 -0.3879
  692TMC3    C610287   0.093   3.712  15.915 -0.0198  0.1170  0.4731
  692TMC3     C10288   4.524   3.991  16.008 -0.3357  0.0708  0.3439
  692TMC3     O10289   4.411   3.961  15.971 -0.6433  0.2391  0.4223
  692TMC3     H10290   0.059   3.996  16.073 -0.0008  1.1612 -0.9761
  692TMC3    H110291   4.508   3.783  15.847  0.1033  0.5382  0.6954
  692TMC3    H210292   0.180   3.682  15.858  0.2440 -0.7385  1.3362
  692TMC3    C710293   4.666   3.586  15.790 -0.2639  0.4936 -0.0996
  692TMC3    C810294   0.234   3.801  16.067  0.0925  0.6006  0.4678
  692TMC3    O110295   4.549   3.576  15.753 -0.3074 -0.5759  0.3022
  692TMC3    O210296   0.312   3.711  16.042  0.1706 -0.4736  0.1187
  693MPD2     C10297   4.370   1.812  11.268 -0.3904 -0.5835 -0.4811
  693MPD2    C110298   4.332   1.734  11.167  0.1013  0.5763 -0.6213
  693MPD2    C210299   4.423   1.637  11.112  0.1946 -0.3666 -1.1369
  693MPD2    C310300   4.555   1.621  11.157 -0.6390 -0.7451  0.1465
  693MPD2    C410301   4.591   1.706  11.257 -0.0515 -0.2003  0.8580
  693MPD2    C510302   4.499   1.796  11.314  0.3911  0.1808 -0.1932
  693MPD2     H10303   4.386   1.554  11.053 -0.6070 -1.1104  0.3905
  693MPD2    H110304   4.692   1.712  11.298 -0.4870  4.0107  1.3049
  693MPD2    H210305   4.298   1.874  11.321  0.9554  0.9022 -0.4155
  693MPD2    H310306   4.531   1.853  11.400 -1.4301  1.1029 -0.1281
  693MPD2     N10307   4.649   1.517  11.111  0.3151  0.2388 -0.6602
  693MPD2    H510308   4.736   1.506  11.163 -1.0922 -1.6664  1.2990
  693MPD2    N110309   4.196   1.744  11.128  0.2421 -0.0797 -0.0790
  693MPD2    H710310   4.132   1.795  11.188  2.3676 -0.0124  2.1175
  694TMC3    C110311   3.998   1.673  11.017  0.4511 -0.2853 -0.1360
  694TMC3    C210312   3.932   1.607  10.926  0.9426  0.5055  0.2632
  694TMC3    C310313   3.808   1.568  10.950  0.1659 -0.2008  0.0821
  694TMC3    C410314   3.929   1.711  11.128  0.3812 -0.0640 -0.6112
  694TMC3    C510315   3.802   1.666  11.149  0.0589  0.2057  0.2709
  694TMC3    C610316   3.741   1.584  11.062 -0.2832 -0.3797 -0.2675
  694TMC3     C10317   4.143   1.692  11.012  0.5433 -0.0315  0.5398
  694TMC3     O10318   4.199   1.646  10.910 -0.6870  0.2529 -0.0935
  694TMC3     H10319   3.987   1.550  10.852 -0.6326 -0.1731 -0.3903
  694TMC3    H110320   3.967   1.763  11.215 -0.8869  0.1082 -0.1636
  694TMC3    H210321   3.635   1.558  11.067 -0.0827 -0.7307  2.1214
  694TMC3    C710322   3.772   1.640  11.286 -0.5462 -0.1958  0.2049
  694TMC3    C810323   3.733   1.505  10.844  0.8171  0.1979  0.5600
  694TMC3    O110324   3.792   1.727  11.371 -0.8643 -0.1259 -0.0770
  694TMC3    O210325   3.649   1.425  10.878 -0.0055  0.4533  0.3192
  695MPD2     C10326   0.566   3.110  13.519  0.2654 -0.1428  0.2915
  695MPD2    C110327   0.466   3.102  13.620  0.8185  0.0852  0.5395
  695MPD2    C210328   0.333   3.125  13.584  0.4497 -0.4879  0.2768
  695MPD2    C310329   0.291   3.137  13.450 -0.6028  0.1208 -0.3739
  695MPD2    C410330   0.390   3.150  13.354 -0.1088 -0.8568  0.5077
  695MPD2    C510331   0.523   3.157  13.399  0.1659 -0.2106 -0.4840
  695MPD2     H10332   0.261   3.125  13.664  3.8037 -0.9178  3.2815
  695MPD2    H110333   0.374   3.179  13.250  1.3760 -1.0490  0.2284
  695MPD2    H210334   0.672   3.103  13.542  0.4748  0.7596 -0.3887
  695MPD2    H310335   0.591   3.169  13.317  1.2197 -0.0378  0.4151
  695MPD2     N10336   0.152   3.138  13.418 -0.2921 -0.1430  0.3552
  695MPD2    H510337   0.079   3.134  13.489  0.2602 -1.9856  0.8341
  695MPD2    N110338   0.503   3.070  13.756  0.4850  0.0664 -0.4950
  695MPD2    H710339   0.431   3.092  13.824  1.1243 -0.8552  0.4600
  696TMC3    C110340   4.694   3.133  13.292 -0.2627  0.0372  1.1555
  696TMC3    C210341   4.619   3.138  13.409 -0.0763  0.4835 -0.3835
  696TMC3    C310342   4.509   3.222  13.424  0.4429 -0.1900 -0.5749
  696TMC3    C410343   4.648   3.213  13.190 -0.0366  0.3797 -0.5736
  696TMC3    C510344   4.538   3.294  13.201 -0.8207  0.1776 -0.1929
  696TMC3    C610345   4.459   3.292  13.314  0.0029 -0.5992 -0.2850
  696TMC3     C10346   0.098   3.124  13.294 -0.4731 -0.3119 -0.3545
  696TMC3     O10347   0.156   3.127  13.181 -0.1564 -0.0499  0.3088
  696TMC3     H10348   4.652   3.081  13.495 -0.2730  1.5042  0.3678
  696TMC3    H110349   4.715   3.232  13.107 -0.5621  1.2940 -0.7893
  696TMC3    H210350   4.375   3.361  13.313  0.6498  0.1982  1.1645
  696TMC3    C710351   4.549   3.423  13.133 -0.2235 -0.0617 -0.0645
  696TMC3    C810352   4.511   3.294  13.545  0.4145 -0.3811  0.1930
  696TMC3    O110353   4.576   3.409  13.015  0.2960 -0.1466 -0.3817
  696TMC3    O210354   4.606   3.274  13.618  0.6876  0.1633 -0.2468
  697MPD2     C10355   4.479   0.651  15.888  0.8632  0.0350  0.2339
  697MPD2    C110356   4.461   0.597  15.764  0.1525 -0.2342  0.0916
  697MPD2    C210357   4.493   0.647  15.643 -0.2999  0.1603 -0.0016
  697MPD2    C310358   4.553   0.773  15.645  0.0500  0.2092 -0.7235
  697MPD2    C410359   4.588   0.823  15.774 -0.3171  0.1182  0.3939
  697MPD2    C510360   4.557   0.763  15.891  0.1763  0.5557 -0.1613
  697MPD2     H10361   4.477   0.587  15.554 -0.6307  0.7616 -0.3414
  697MPD2    H110362   4.644   0.916  15.768  1.8028 -1.2745 -1.4568
  697MPD2    H210363   4.437   0.604  15.976 -1.9576 -0.5386 -1.4373
  697MPD2    H310364   4.581   0.808  15.987  1.5532  1.3556 -0.8885
  697MPD2     N10365   4.583   0.842  15.525  0.3527 -0.2654  0.0594
  697MPD2    H510366   4.628   0.933  15.535 -1.2403  0.7015 -1.4184
  697MPD2    N110367   4.411   0.461  15.759 -0.9237 -0.1007 -0.2444
  697MPD2    H710368   4.406   0.422  15.665 -1.0851  0.6166 -0.5291
  698TMC3    C110369   4.616   0.885  15.294  0.0202  0.4025  0.0005
  698TMC3    C210370   0.004   0.928  15.318  0.3835 -0.3654 -0.0316
  698TMC3    C310371   0.081   0.941  15.202 -0.1337 -0.1022 -0.6788
  698TMC3    C410372   4.573   0.846  15.167  0.2194  0.1726  0.7889
  698TMC3    C510373   4.648   0.855  15.055 -0.8629  0.3078  0.5254
  698TMC3    C610374   0.034   0.915  15.077  0.6070 -0.5052 -1.3638
  698TMC3     C10375   4.537   0.813  15.396  1.6260  0.3891  0.4628
  698TMC3     O10376   4.463   0.725  15.356  0.0650 -0.1395 -0.1338
  698TMC3     H10377   0.046   0.957  15.414 -1.3497  1.3599  0.2180
  698TMC3    H110378   4.470   0.811  15.163  0.3733 -0.2733  0.7477
  698TMC3    H210379   0.102   0.913  14.993 -0.2807 -1.3962 -2.0608
  698TMC3    C710380   4.596   0.821  14.926 -0.0199  0.3164 -0.1832
  698TMC3    C810381   0.224   0.953  15.233  0.1597  0.2627 -0.5769
  698TMC3    O110382   4.476   0.802  14.924 -0.3647 -0.2855 -0.2758
  698TMC3    O210383   0.261   0.953  15.351 -0.2484 -0.0743 -0.0706
  699TMC3    C110384   4.357   3.427  12.754  0.1611  0.3857 -0.2317
  699TMC3    C210385   4.403   3.302  12.718 -0.5084  0.4850 -0.2942
  699TMC3    C310386   4.318   3.197  12.725 -0.2436  0.3932 -0.0504
  699TMC3    C410387   4.226   3.447  12.786  0.1564 -0.1007  0.6561
  699TMC3    C510388   4.141   3.344  12.773  0.3097 -0.8362  0.3190
  699TMC3    C610389   4.184   3.222  12.735 -0.1163  0.1830 -0.6019
  699TMC3     C10390   4.433   3.545  12.718  0.0231 -0.0007 -0.2651
  699TMC3     O10391   4.372   3.655  12.729  0.1925 -0.5331 -0.0122
  699TMC3     H10392   4.507   3.295  12.687 -0.1144  1.9124  0.7367
  699TMC3    H110393   4.187   3.545  12.815  0.9374  0.5077 -0.3476
  699TMC3    H210394   4.117   3.137  12.734 -0.4207  0.4307 -1.1443
  699TMC3    C710395   4.017   3.354  12.835 -0.2521  0.0236  0.0705
  699TMC3    C810396   4.366   3.070  12.775 -0.0635  0.0435 -0.5326
  699TMC3    O110397   4.003   3.433  12.929 -0.7425  0.3310 -0.2795
  699TMC3    O210398   4.283   2.985  12.803 -0.1103  0.4434 -0.6309
  700TMC3    C110399   3.237   0.947  16.996  0.2044  0.0673  0.1765
  700TMC3    C210400   3.342   0.880  17.048 -0.7965  0.4306  1.3259
  700TMC3    C310401   3.366   0.869  17.180 -0.3047 -0.4475 -1.0386
  700TMC3    C410402   3.150   1.005  17.084 -0.1818 -0.1936  0.3334
  700TMC3    C510403   3.173   0.992  17.221 -0.4936 -0.1779 -0.4841
  700TMC3    C610404   3.275   0.915  17.274 -0.1970  0.3724 -0.2960
  700TMC3     C10405   3.243   1.006  16.865  0.0735 -0.2542  0.2757
  700TMC3     O10406   3.132   1.031  16.818 -0.5369 -0.6572 -0.2855
  700TMC3     H10407   3.415   0.831  16.984 -0.3402  3.0267 -0.1387
  700TMC3    H110408   3.068   1.070  17.056 -0.8468 -1.5422 -0.8206
  700TMC3    H210409   3.283   0.907  17.382 -1.9394 -3.4611 -0.4603
  700TMC3    C710410   3.134   1.110  17.302  1.1184  1.0791  0.1417
  700TMC3    C810411   3.501   0.844  17.223  0.3263 -0.1430 -0.3822
  700TMC3    O110412   3.017   1.142  17.319 -0.1996  0.5667  0.5384
  700TMC3    O210413   3.572   0.779  17.149  0.5491  0.9350 -0.2068
  701TMC3    C110414   3.571   0.064  15.582  0.5417 -0.1182 -0.3180
  701TMC3    C210415   3.559   0.032  15.451  0.2145 -0.4112  0.4545
  701TMC3    C310416   3.626   0.107  15.357  0.0082 -0.0244 -0.0442
  701TMC3    C410417   3.649   0.170  15.616 -1.2134  0.1350  0.1804
  701TMC3    C510418   3.698   0.251  15.517 -0.4353  0.5400 -0.8477
  701TMC3    C610419   3.699   0.215  15.386 -0.3817  0.9124  0.5845
  701TMC3     C10420   3.489   0.004  15.684  0.1841  0.9464  0.3549
  701TMC3     O10421   3.466   0.069  15.784 -0.0686 -0.1174 -0.5266
  701TMC3     H10422   3.495   4.687  15.420  0.2896 -0.2481 -0.1363
  701TMC3    H110423   3.659   0.187  15.723  2.1189 -3.1840  0.3703
  701TMC3    H210424   3.752   0.274  15.313 -0.9128  0.0316 -0.5170
  701TMC3    C710425   3.753   0.380  15.549 -0.7241 -0.1998 -0.4128
  701TMC3    C810426   3.596   0.101  15.215 -0.3536 -0.2162 -0.4032
  701TMC3    O110427   3.830   0.419  15.467  0.1867  0.0126 -0.4747
  701TMC3    O210428   3.652   0.182  15.144  0.4056  0.0132 -0.2021
  702MPD2     C10429   3.266   1.802  10.416 -0.9360 -0.4693 -0.3368
  702MPD2    C110430   3.230   1.909  10.500 -0.0143  0.0567  0.7106
  702MPD2    C210431   3.177   2.022  10.435 -0.0578 -0.5065 -0.2454
  702MPD2    C310432   3.165   2.030  10.297 -0.0709  0.0006  0.5887
  702MPD2    C410433   3.210   1.928  10.222  0.2995  0.0619 -0.2503
  702MPD2    C510434   3.268   1.813  10.282 -0.4910  0.0211  0.6455
  702MPD2     H10435   3.143   2.099  10.503  0.4963  2.1960 -3.0439
  702MPD2    H110436   3.198   1.941  10.115 -0.8799 -0.6616 -0.2137
  702MPD2    H210437   3.307   1.708  10.453  1.0204  1.5877  2.7621
  702MPD2    H310438   3.286   1.721  10.228  1.8349  0.1536  1.2212
  702MPD2     N10439   3.099   2.145  10.239 -0.2401 -0.7176  0.0110
  702MPD2    H510440   3.069   2.223  10.298 -0.8767  0.2235 -1.5459
  702MPD2    N110441   3.227   1.902  10.643  0.7450 -0.0399  0.0116
  702MPD2    H710442   3.182   1.976  10.695 -0.6451 -0.2582 -0.8755
  703TMC3    C110443   2.984   2.288  10.091  0.4946  0.1468  0.1004
  703TMC3    C210444   2.842   2.268  10.086  0.0295 -0.0003  0.1904
  703TMC3    C310445   2.769   2.359  10.164  0.8782  0.1608  0.3302
  703TMC3    C410446   3.035   2.389  10.173  0.0079 -0.3606  1.0926
  703TMC3    C510447   2.960   2.476  10.230 -0.5777 -0.2784  0.6540
  703TMC3    C610448   2.825   2.464  10.227  0.0666 -0.2303  0.4473
  703TMC3     C10449   3.055   2.162  10.109 -0.4021 -0.0211  0.4884
  703TMC3     O10450   3.033   2.080  10.019  0.2602  0.5315  0.0722
  703TMC3     H10451   2.806   2.172  10.053  2.1739 -1.4566  2.0714
  703TMC3    H110452   3.143   2.401  10.174  0.2292 -2.3460  1.7247
  703TMC3    H210453   2.761   2.540  10.269  0.6277  1.8241 -2.3502
  703TMC3    C710454   3.033   2.576  10.307 -0.4316 -0.0048 -0.7501
  703TMC3    C810455   2.655   2.297  10.225 -0.0902 -0.1058 -0.1802
  703TMC3    O110456   3.155   2.586  10.282 -0.1891 -0.4918  0.2692
  703TMC3    O210457   2.600   2.209  10.162 -0.1512  0.1629 -0.2581
  704TMC3    C110458   1.104   0.663  12.510 -1.0332  0.6408 -0.4409
  704TMC3    C210459   1.133   0.664  12.373 -0.6067  0.0088 -0.0406
  704TMC3    C310460   1.181   0.542  12.323  0.9175  0.3490  0.0797
  704TMC3    C410461   1.155   0.565  12.589 -0.2196  0.2974 -0.3095
  704TMC3    C510462   1.212   0.456  12.537  0.0693 -0.1014 -0.2271
  704TMC3    C610463   1.213   0.436  12.404 -0.1432 -0.0849 -0.4377
  704TMC3     C10464   1.017   0.766  12.554 -0.4056 -0.5749 -0.9577
  704TMC3     O10465   0.997   0.773  12.673  0.0944 -0.1243 -0.1909
  704TMC3     H10466   1.117   0.743  12.300 -0.2811 -0.7257 -0.9012
  704TMC3    H110467   1.141   0.556  12.696  1.3331 -0.0149 -0.1410
  704TMC3    H210468   1.279   0.358  12.366  1.2788  0.5401  0.7138
  704TMC3    C710469   1.234   0.339  12.616  0.3933 -0.3888 -0.5910
  704TMC3    C810470   1.180   0.516  12.181 -0.1552  0.3181  0.1804
  704TMC3    O110471   1.190   0.241  12.558 -0.2716 -0.0574 -0.3593
  704TMC3    O210472   1.167   0.617  12.110  0.4857  0.3384  0.7549
  705MPD2     C10473   0.203   3.048  16.372  0.5747  0.2408 -0.1586
  705MPD2    C110474   0.254   3.168  16.413 -0.3172  0.4243  0.4125
  705MPD2    C210475   0.174   3.250  16.486 -0.5497 -0.0873 -0.7766
  705MPD2    C310476   0.046   3.203  16.533  0.8107 -0.3296  0.0622
  705MPD2    C410477   0.002   3.079  16.489 -0.0958  0.5886  0.0580
  705MPD2    C510478   0.079   3.005  16.408  0.9342  0.8429 -0.6065
  705MPD2     H10479   0.209   3.351  16.505 -0.4731  0.0717 -1.7476
  705MPD2    H110480   4.641   3.038  16.503  1.7199 -2.2429  4.8301
  705MPD2    H210481   0.262   2.980  16.312  2.5455  0.4227  1.5614
  705MPD2    H310482   0.044   2.906  16.383  1.0783  0.8374 -0.7851
  705MPD2     N10483   4.682   3.283  16.589  0.0388 -0.3571 -0.9673
  705MPD2    H510484   4.597   3.232  16.608 -0.1350  0.4707  0.4955
  705MPD2    N110485   0.384   3.208  16.377  0.5488  0.2829 -0.4711
  705MPD2    H710486   0.412   3.297  16.417 -0.4539  1.3104 -2.0546
  706TMC3    C110487   0.833   3.177  16.235 -0.1364 -0.0955  0.2923
  706TMC3    C210488   0.854   3.309  16.254 -0.2054 -0.2259  0.0608
  706TMC3    C310489   0.749   3.387  16.300 -0.5759  0.2886 -0.6494
  706TMC3    C410490   0.716   3.110  16.258  0.3969  0.0117 -1.1277
  706TMC3    C510491   0.614   3.191  16.309 -0.2208 -0.5057  0.5593
  706TMC3    C610492   0.628   3.326  16.320 -0.2242 -0.5297 -0.3110
  706TMC3     C10493   0.911   3.133  16.121 -0.4047 -0.6511  0.4970
  706TMC3     O10494   1.033   3.141  16.121  0.4485  0.5656 -0.3153
  706TMC3     H10495   0.947   3.354  16.219 -1.2830  3.0771  1.3979
  706TMC3    H110496   0.701   3.003  16.250 -0.5313  0.1446 -1.1497
  706TMC3    H210497   0.543   3.391  16.339 -0.1292 -0.5483  0.1594
  706TMC3    C710498   0.485   3.123  16.329 -0.1497 -1.1353  0.1513
  706TMC3    C810499   0.743   3.524  16.254 -0.0189  0.3484  0.2759
  706TMC3    O110500   0.491   3.001  16.329 -0.0337  0.3616 -0.1198
  706TMC3    O210501   0.642   3.569  16.205 -0.2494  0.6671  0.2992
  707TMC3    C110502   1.967   2.690   1.719 -0.2549  0.7827 -0.5788
  707TMC3    C210503   2.031   2.605   1.808  0.0050  0.5664 -0.7688
  707TMC3    C310504   1.952   2.521   1.879  0.2482 -0.4221 -0.2898
  707TMC3    C410505   1.829   2.702   1.710  0.4417  0.2148  0.3009
  707TMC3    C510506   1.760   2.628   1.807 -0.1852 -0.1800 -0.0913
  707TMC3    C610507   1.819   2.539   1.889  0.3185 -0.0287 -0.2658
  707TMC3     C10508   2.051   2.732   1.608  0.1692  0.1023 -0.7138
  707TMC3     O10509   2.167   2.744   1.634 -0.6132  0.2648 -0.0452
  707TMC3     H10510   2.139   2.594   1.807  0.1389  2.0004 -1.6372
  707TMC3    H110511   1.785   2.782   1.653  1.3036  1.1710  0.9783
  707TMC3    H210512   1.761   2.475   1.953  1.2909 -0.8392 -0.1901
  707TMC3    C710513   1.620   2.652   1.831 -0.1286 -0.7809  0.2807
  707TMC3    C810514   2.024   2.423   1.957  0.3778  0.0287 -0.0419
  707TMC3    O110515   1.577   2.622   1.939 -0.0555  0.1291  0.2954
  707TMC3    O210516   1.976   2.404   2.067 -0.0156  0.5528 -0.6230
  708MPD2     C10517   3.530   1.510  13.810  0.2527 -0.0343 -0.1300
  708MPD2    C110518   3.406   1.498  13.872  0.4450 -0.5091 -0.3188
  708MPD2    C210519   3.396   1.447  14.000  0.2161 -0.5072 -0.1810
  708MPD2    C310520   3.513   1.416  14.068  0.7690 -0.0810 -0.3865
  708MPD2    C410521   3.637   1.457  14.020  0.2847 -0.1650  0.0528
  708MPD2    C510522   3.640   1.494  13.893  0.7349  0.8963 -1.0132
  708MPD2     H10523   3.300   1.439  14.051  1.2255 -0.3311  1.7491
  708MPD2    H110524   3.722   1.453  14.088  1.9241  1.0513 -1.9144
  708MPD2    H210525   3.547   1.556  13.712 -2.2554 -0.5788 -0.8005
  708MPD2    H310526   3.742   1.512  13.862  0.9717 -2.0905 -2.0210
  708MPD2     N10527   3.515   1.364  14.197 -0.2170 -0.1666 -0.3355
  708MPD2    H510528   3.602   1.376  14.248 -0.9478  2.1661  0.3555
  708MPD2    N110529   3.291   1.558  13.824 -0.3363  0.4896 -0.1287
  708MPD2    H710530   3.207   1.544  13.880 -0.2607 -1.9666 -0.6137
  709TMC3    C110531   3.138   1.663  13.685 -0.2476  0.4915  0.6577
  709TMC3    C210532   3.100   1.571  13.597  0.5976  0.1507  0.1059
  709TMC3    C310533   2.984   1.497  13.636  0.0525  0.0871 -0.1858
  709TMC3    C410534   3.071   1.692  13.801 -0.7875 -0.2804 -1.0147
  709TMC3    C510535   2.952   1.629  13.830  0.4970 -0.1294  0.4615
  709TMC3    C610536   2.914   1.522  13.748  0.4826 -0.0128  0.2831
  709TMC3     C10537   3.276   1.638  13.715  0.2684  0.0695 -0.6506
  709TMC3     O10538   3.365   1.678  13.642 -0.0045 -0.1866 -0.4110
  709TMC3     H10539   3.177   1.541  13.526  2.1914  3.4097  0.4734
  709TMC3    H110540   3.103   1.777  13.860  0.3904  0.4316 -2.6914
  709TMC3    H210541   2.820   1.473  13.772 -0.2828  0.6461 -1.3745
  709TMC3    C710542   2.949   1.593  13.969 -0.0838  0.3411 -0.5876
  709TMC3    C810543   2.945   1.380  13.558  0.2932 -0.3188 -0.0126
  709TMC3    O110544   3.064   1.591  14.012  0.1005 -0.1262 -0.3739
  709TMC3    O210545   2.891   1.288  13.614  0.4684 -0.2726 -0.0081
  710TMC3    C110546   4.165   3.007  17.683 -0.5979  0.0738  0.9200
  710TMC3    C210547   4.198   2.939  17.568  0.1178  0.0460  0.0363
  710TMC3    C310548   4.309   2.865  17.564 -0.7331  0.7012  0.2520
  710TMC3    C410549   4.242   2.992   0.045  0.6650  0.2309  0.1887
  710TMC3    C510550   4.358   2.920   0.035 -0.0675 -0.3571 -0.3642
  710TMC3    C610551   4.394   2.852  17.673  0.0557 -0.2622  0.0165
  710TMC3     C10552   4.061   3.104  17.675  0.0596 -0.2822  1.0906
  710TMC3     O10553   3.991   3.107  17.578  0.5037 -0.0406  0.3008
  710TMC3     H10554   4.129   2.958  17.486  0.5285  0.0624 -0.3064
  710TMC3    H110555   4.203   3.028   0.139  1.0815 -1.0856  0.8525
  710TMC3    H210556   4.488   2.798  17.668 -0.3100 -0.8813 -0.2333
  710TMC3    C710557   4.426   2.867   0.159 -0.2060  0.3584 -0.1195
  710TMC3    C810558   4.361   2.813  17.438  0.1352 -0.1540  0.0972
  710TMC3    O110559   4.397   2.927   0.265 -0.1507  0.1820  1.1734
  710TMC3    O210560   4.320   2.879  17.347  0.3038  0.5455  0.0465
  711TMC3    C110561   4.173   4.224  15.432  0.4316 -0.3145  1.0295
  711TMC3    C210562   4.275   4.160  15.496  0.5365  0.3252 -0.2878
  711TMC3    C310563   4.352   4.230  15.588 -0.3557  0.4667  0.1343
  711TMC3    C410564   4.159   4.358  15.431 -0.4152 -0.5340  0.3672
  711TMC3    C510565   4.250   4.420  15.509  0.6218  0.9589 -0.1452
  711TMC3    C610566   4.339   4.361  15.596 -0.3141 -0.0450 -0.1407
  711TMC3     C10567   4.083   4.144  15.347  0.3282 -0.1404 -0.4478
  711TMC3     O10568   4.124   4.041  15.291  0.1135  0.4307 -0.1752
  711TMC3     H10569   4.271   4.052  15.504  0.9344  0.2825 -0.6768
  711TMC3    H110570   4.081   4.414  15.381  2.9367  2.9799 -1.0034
  711TMC3    H210571   4.419   4.415  15.645 -0.0441 -0.8061  0.2605
  711TMC3    C710572   4.254   4.569  15.497 -0.0079  0.4924 -0.3730
  711TMC3    C810573   4.474   4.179  15.645 -0.1790 -0.0704  0.9755
  711TMC3    O110574   4.206   4.633  15.590 -0.3666  0.6176  0.0133
  711TMC3    O210575   4.527   4.241  15.737  0.2787 -0.3301 -0.0321
  712MPD2     C10576   0.822   0.130  14.013  1.0818  0.9794 -0.8485
  712MPD2    C110577   0.751   0.150  13.892  0.0902 -0.2400 -0.1233
  712MPD2    C210578   0.756   0.268  13.814  0.1134  0.0152 -0.2292
  712MPD2    C310579   0.832   0.373  13.862  0.5626 -0.3932 -0.9229
  712MPD2    C410580   0.909   0.356  13.977  0.2041  0.1709 -0.4838
  712MPD2    C510581   0.896   0.240  14.056 -0.0259  0.1381 -0.2119
  712MPD2     H10582   0.729   0.282  13.710 -2.1158  2.7311  0.7389
  712MPD2    H110583   0.973   0.432  14.022  0.3855  2.5663 -4.8083
  712MPD2    H210584   0.816   0.034  14.063  3.3899  0.6285 -1.2464
  712MPD2    H310585   0.947   0.235  14.151 -0.8049 -0.8402  0.1554
  712MPD2     N10586   0.846   0.497  13.795  0.5074 -0.5127  0.6343
  712MPD2    H510587   0.928   0.551  13.820 -0.4868  1.1821  0.2825
  712MPD2    N110588   0.685   0.033  13.844 -0.0611 -0.5070  0.3160
  712MPD2    H710589   0.647   4.702  13.907  0.9713 -0.9715  0.4141
  713TMC3    C110590   0.807   0.658  13.633  0.7390  0.1796 -1.0563
  713TMC3    C210591   0.930   0.647  13.584 -0.1483  0.5223 -0.5587
  713TMC3    C310592   0.959   0.748  13.495 -0.1275  0.3314 -1.0095
  713TMC3    C410593   0.726   0.761  13.602  0.3975  0.1675  0.7282
  713TMC3    C510594   0.766   0.857  13.513  0.3391  0.1663  0.4098
  713TMC3    C610595   0.885   0.846  13.450  0.1566  0.1874  0.6471
  713TMC3     C10596   0.746   0.550  13.715  0.2604 -0.3831 -0.0633
  713TMC3     O10597   0.627   0.534  13.728 -0.1973  0.2838 -0.5225
  713TMC3     H10598   0.992   0.559  13.594  3.1649  3.0423  1.2960
  713TMC3    H110599   0.637   0.778  13.661 -0.0864 -0.3641  0.1614
  713TMC3    H210600   0.912   0.903  13.362  2.4048  0.4990  1.5634
  713TMC3    C710601   0.726   0.996  13.528 -0.0584 -0.1232  1.0166
  713TMC3    C810602   1.104   0.761  13.461  0.2539  0.3938  0.3230
  713TMC3    O110603   0.800   1.078  13.483 -0.3717  0.1980 -0.2073
  713TMC3    O210604   1.128   0.832  13.363 -0.3409 -0.4646 -0.1775
  714MPD2     C10605   3.074   4.164   1.232  0.2823  0.5482 -0.0632
  714MPD2    C110606   3.054   4.026   1.215  0.5805  0.1668 -0.5502
  714MPD2    C210607   2.920   3.983   1.211 -0.0810 -0.5127 -0.5327
  714MPD2    C310608   2.814   4.080   1.189 -0.6564 -0.0578  0.0616
  714MPD2    C410609   2.844   4.216   1.187  0.2011  0.1775 -0.1763
  714MPD2    C510610   2.979   4.258   1.203 -0.6165  0.2904 -0.1578
  714MPD2     H10611   2.890   3.879   1.204  0.7407 -0.9087  2.0338
  714MPD2    H110612   2.766   4.291   1.201  0.5462  0.7405 -1.3128
  714MPD2    H210613   3.173   4.202   1.258  0.9300 -1.5105  0.4209
  714MPD2    H310614   2.994   4.365   1.212  2.3903 -0.0603 -1.0458
  714MPD2     N10615   2.676   4.042   1.195 -0.3276 -0.2374  0.3974
  714MPD2    H510616   2.654   3.945   1.216 -1.5153 -0.0580 -0.0176
  714MPD2    N110617   3.167   3.944   1.198 -0.1468 -0.6255  0.0626
  714MPD2    H710618   3.254   3.996   1.191  0.4872 -2.1509 -2.9873
  715TMC3    C110619   3.298   3.747   1.199  0.4409  0.0594  0.5116
  715TMC3    C210620   3.310   3.619   1.147  0.5181  0.0672 -0.3743
  715TMC3    C310621   3.443   3.571   1.143  0.3323 -0.2885  0.4022
  715TMC3    C410622   3.401   3.825   1.248 -0.3428 -0.1490  0.7464
  715TMC3    C510623   3.526   3.765   1.246 -0.7122 -0.0462 -0.3220
  715TMC3    C610624   3.553   3.644   1.186 -0.7439 -0.2296  0.3191
  715TMC3     C10625   3.168   3.807   1.186  0.2668  0.9505 -0.1913
  715TMC3     O10626   3.069   3.738   1.161 -0.2847  0.3049  0.1586
  715TMC3     H10627   3.223   3.559   1.123 -0.6762  2.4585 -2.0176
  715TMC3    H110628   3.374   3.910   1.310  0.4347  1.8586 -1.6801
  715TMC3    H210629   3.656   3.615   1.169 -0.7745 -0.5788  0.7280
  715TMC3    C710630   3.646   3.839   1.294  0.6986  0.0857 -0.2358
  715TMC3    C810631   3.463   3.437   1.085  0.1919 -0.6151 -0.1639
  715TMC3    O110632   3.760   3.787   1.290  0.1637  0.2908  0.1813
  715TMC3    O210633   3.381   3.387   1.009 -0.5848 -0.1026  0.2649
  716MPD2     C10634   3.287   2.352   9.891 -0.2099  0.5245  0.1558
  716MPD2    C110635   3.196   2.367   9.787  0.2998  0.2148 -0.1782
  716MPD2    C210636   3.194   2.265   9.694  0.3613  0.5186 -0.1089
  716MPD2    C310637   3.285   2.158   9.699 -0.4937  0.2455  0.2744
  716MPD2    C410638   3.378   2.149   9.796  0.0575 -0.4051  0.5491
  716MPD2    C510639   3.369   2.243   9.893  0.2814 -0.7470  0.0466
  716MPD2     H10640   3.129   2.270   9.608  2.1012 -1.1331 -1.5247
  716MPD2    H110641   3.444   2.064   9.810  0.3314 -0.1604  0.7496
  716MPD2    H210642   3.283   2.417   9.977 -0.6986  2.1633 -1.1069
  716MPD2    H310643   3.425   2.221   9.982 -3.5186 -2.8441  1.9226
  716MPD2     N10644   3.285   2.062   9.598  0.5103 -0.6237  0.4204
  716MPD2    H510645   3.209   2.053   9.531 -0.1609 -0.9249  1.2242
  716MPD2    N110646   3.117   2.483   9.778 -0.0421  0.1096  0.1165
  716MPD2    H710647   3.115   2.555   9.849 -1.1669  1.2581 -1.0835
  717TMC3    C110648   3.369   1.877   9.463 -0.3328 -0.3437 -0.4720
  717TMC3    C210649   3.322   1.942   9.356 -0.4070  0.3986 -0.7184
  717TMC3    C310650   3.311   1.876   9.234  0.0424  0.0666 -0.8555
  717TMC3    C410651   3.404   1.746   9.455 -0.1784  0.3952  0.2299
  717TMC3    C510652   3.383   1.681   9.336 -0.0376  0.3218 -0.9799
  717TMC3    C610653   3.336   1.742   9.222 -0.0207 -0.6437  0.1130
  717TMC3     C10654   3.376   1.951   9.588 -0.0478  0.0948  0.4377
  717TMC3     O10655   3.463   1.914   9.665  0.1222 -0.1305 -0.0938
  717TMC3     H10656   3.301   2.047   9.344  0.2577  0.5418 -0.6581
  717TMC3    H110657   3.431   1.701   9.550  0.8810  1.4570  0.4402
  717TMC3    H210658   3.364   1.700   9.126  1.8833 -2.3627  1.4213
  717TMC3    C710659   3.419   1.543   9.337 -0.6697  0.5084  0.3487
  717TMC3    C810660   3.257   1.945   9.121 -0.5067 -0.2225  0.6237
  717TMC3    O110661   3.511   1.520   9.413  0.1120 -0.4573  0.1652
  717TMC3    O210662   3.274   2.066   9.119 -0.2190 -0.0215  0.0517
  718MPD2     C10663   2.557   0.454  12.890 -0.5953 -0.5771 -0.4558
  718MPD2    C110664   2.429   0.395  12.872  0.2526 -0.6738  0.6188
  718MPD2    C210665   2.387   0.297  12.967  0.0142  0.4254 -0.0991
  718MPD2    C310666   2.475   0.237  13.055  0.6804 -0.3233 -0.5842
  718MPD2    C410667   2.598   0.294  13.065 -0.1037 -0.1393  0.1092
  718MPD2    C510668   2.634   0.401  12.989  0.2801 -0.7389  0.1881
  718MPD2     H10669   2.283   0.267  12.966  0.2350 -0.3987  2.2573
  718MPD2    H110670   2.672   0.256  13.133  0.3140  0.7032  0.1276
  718MPD2    H210671   2.591   0.541  12.836 -0.5700 -0.4370 -0.2116
  718MPD2    H310672   2.735   0.440  12.988 -0.1418  0.4023  1.8318
  718MPD2     N10673   2.430   0.128  13.132  0.3450  0.2762  0.2995
  718MPD2    H510674   2.333   0.102  13.116  0.9062 -2.7476  1.6288
  718MPD2    N110675   2.366   0.439  12.758  0.4093 -0.7704  0.1841
  718MPD2    H710676   2.421   0.502  12.700 -1.6161  0.9096  0.0907
  719TMC3    C110677   2.248   0.414  12.557  0.2278 -0.1808  0.8134
  719TMC3    C210678   2.172   0.322  12.492 -0.6211  0.5005 -0.0125
  719TMC3    C310679   2.222   0.242  12.399  0.0055  1.0856 -0.0207
  719TMC3    C410680   2.370   0.453  12.505 -0.2050 -0.1794  0.2786
  719TMC3    C510681   2.425   0.366  12.414 -0.2854 -0.4970  0.3041
  719TMC3    C610682   2.355   0.264  12.362  0.2133 -0.3882 -0.4386
  719TMC3     C10683   2.250   0.389  12.703 -0.1571  0.2481  0.0171
  719TMC3     O10684   2.185   0.298  12.745  0.2369  0.0396 -0.0536
  719TMC3     H10685   2.077   0.299  12.537 -0.8135  2.3024  0.5064
  719TMC3    H110686   2.413   0.545  12.543  1.9555 -0.6691 -0.9506
  719TMC3    H210687   2.395   0.198  12.286  0.6704 -1.1108  0.4321
  719TMC3    C710688   2.560   0.394  12.363  0.0250  0.8679  0.3664
  719TMC3    C810689   2.176   0.104  12.420 -0.0474  0.7024 -0.2314
  719TMC3    O110690   2.598   0.506  12.349  0.6782 -0.4566 -0.0466
  719TMC3    O210691   2.214   0.031  12.335 -0.1484 -0.0737  0.7186
  720MPD2     C10692   0.840   2.110  13.983 -0.6455  0.2389 -0.3651
  720MPD2    C110693   0.938   2.171  13.906 -0.3591 -1.1379 -0.2604
  720MPD2    C210694   1.064   2.172  13.953  0.8323 -0.7669  0.3890
  720MPD2    C310695   1.096   2.117  14.072 -0.3042  0.2117 -0.0787
  720MPD2    C410696   1.002   2.052  14.152  0.0881 -0.7608  0.9323
  720MPD2    C510697   0.876   2.062  14.107  0.0072 -0.7177 -0.1514
  720MPD2     H10698   1.142   2.227  13.903 -1.9217  0.3163 -2.7019
  720MPD2    H110699   1.023   2.009  14.250  0.6788 -0.4635  0.9351
  720MPD2    H210700   0.736   2.104  13.953 -1.2351  1.8060  1.3458
  720MPD2    H310701   0.792   2.028  14.166  1.0308 -2.6034  0.1910
  720MPD2     N10702   1.235   2.133  14.107  0.5767 -0.0304 -0.3711
  720MPD2    H510703   1.291   2.168  14.030  1.4944 -0.9062 -0.0969
  720MPD2    N110704   0.914   2.243  13.785 -0.2283 -0.0826 -0.9555
  720MPD2    H710705   0.996   2.285  13.742  0.6894 -1.3908 -0.4650
  721TMC3    C110706   1.425   2.119  14.234 -0.3530 -0.4561 -0.0836
  721TMC3    C210707   1.451   2.225  14.313 -0.4784 -0.5489  0.4115
  721TMC3    C310708   1.569   2.291  14.284  0.0156 -0.4885 -0.6839
  721TMC3    C410709   1.493   2.099  14.118 -0.3529  0.3094 -1.2778
  721TMC3    C510710   1.599   2.175  14.083  0.9101  0.5465 -0.2249
  721TMC3    C610711   1.646   2.264  14.174  0.2318 -0.6239  0.4288
  721TMC3     C10712   1.285   2.086  14.221 -0.3688  0.0722  0.1570
  721TMC3     O10713   1.230   2.034  14.313  0.3826  0.4066 -0.3673
  721TMC3     H10714   1.384   2.250  14.395 -0.0782 -2.4606  1.3422
  721TMC3    H110715   1.457   2.021  14.051  0.9685 -0.7035 -0.8135
  721TMC3    H210716   1.744   2.308  14.162 -1.0391  2.0253 -0.3886
  721TMC3    C710717   1.712   2.094  14.042  0.0551  0.2129  0.3055
  721TMC3    C810718   1.648   2.316  14.402 -0.5315  0.0740 -0.4190
  721TMC3    O110719   1.782   2.140  13.950  0.1092  0.6476 -0.6183
  721TMC3    O210720   1.768   2.278  14.404 -0.0654  0.4001 -0.2511
  722MPD2     C10721   4.397   0.828  13.202  0.1619  1.2546 -0.4967
  722MPD2    C110722   4.331   0.950  13.235  0.0470 -0.0906 -0.3425
  722MPD2    C210723   4.210   0.974  13.168 -0.4509 -0.1133 -0.5748
  722MPD2    C310724   4.149   0.883  13.079  0.0782  0.8896  0.2467
  722MPD2    C410725   4.212   0.763  13.057  0.4444 -0.1508  0.4474
  722MPD2    C510726   4.334   0.743  13.120  0.5967  0.0636  0.0222
  722MPD2     H10727   4.165   1.072  13.181 -1.5793 -0.6020 -0.8772
  722MPD2    H110728   4.166   0.692  12.989  0.2128  0.7637 -0.3495
  722MPD2    H210729   4.494   0.803  13.245 -0.0515 -1.9957 -1.8764
  722MPD2    H310730   4.388   0.659  13.078 -2.5306 -1.1345 -1.6067
  722MPD2     N10731   4.037   0.919  12.998 -0.5249  0.3300  0.4968
  722MPD2    H510732   4.021   0.849  12.926  0.7921  0.2407  0.3047
  722MPD2    N110733   4.380   1.051  13.323  0.0104  0.0087  0.2342
  722MPD2    H710734   4.340   1.145  13.316  0.3270  0.0076 -1.7583
  723TMC3    C110735   3.883   1.056  12.876  0.1707  0.1236 -0.6615
  723TMC3    C210736   3.831   0.943  12.814 -0.0667 -0.3612  0.5259
  723TMC3    C310737   3.744   0.968  12.712 -0.3739  0.0140  0.4615
  723TMC3    C410738   3.853   1.180  12.830  0.0022 -0.2843 -0.4290
  723TMC3    C510739   3.766   1.197  12.727  0.1012  0.1990 -0.3505
  723TMC3    C610740   3.719   1.093  12.658  0.0011  0.2132  0.1777
  723TMC3     C10741   3.970   1.042  12.993 -0.4689 -0.5165  0.1242
  723TMC3     O10742   3.989   1.147  13.053 -0.0346 -0.5382 -0.0870
  723TMC3     H10743   3.844   0.841  12.847 -1.6405 -0.4036  0.9710
  723TMC3    H110744   3.890   1.264  12.888 -0.3128 -0.9398  0.7459
  723TMC3    H210745   3.672   1.102  12.561 -1.3989 -1.3925  0.7248
  723TMC3    C710746   3.754   1.328  12.661 -0.7003 -0.3533 -0.0180
  723TMC3    C810747   3.664   0.861  12.656 -0.0089  0.4958 -0.2325
  723TMC3    O110748   3.773   1.326  12.539 -0.0651 -0.1121  0.1737
  723TMC3    O210749   3.555   0.908  12.632  0.0310  0.5657  0.2081
  724TMC3    C110750   0.651   4.050  10.809  0.0403  0.9403 -0.5385
  724TMC3    C210751   0.642   4.019  10.677 -0.1775  0.8236  0.8409
  724TMC3    C310752   0.686   4.116  10.590  0.7662 -0.1929  0.2353
  724TMC3    C410753   0.696   4.170  10.855 -0.2279  0.1148  0.2170
  724TMC3    C510754   0.720   4.265  10.760 -0.2209 -0.6434 -0.3284
  724TMC3    C610755   0.732   4.241  10.632 -0.2640 -0.0721 -0.7923
  724TMC3     C10756   0.625   3.946  10.904 -0.2762 -0.3987  0.3003
  724TMC3     O10757   0.669   3.942  11.019 -0.8471 -0.0421  0.1060
  724TMC3     H10758   0.621   3.920  10.638 -0.8979  1.2949  0.0190
  724TMC3    H110759   0.710   4.190  10.960 -1.4394 -2.5298  0.8772
  724TMC3    H210760   0.766   4.318  10.563 -1.7231  2.0827  0.9010
  724TMC3    C710761   0.726   4.407  10.799  0.6534 -0.0993  0.3635
  724TMC3    C810762   0.648   4.101  10.449 -0.4506 -0.7101 -0.7290
  724TMC3    O110763   0.808   4.479  10.748  0.4970  0.0851  0.5951
  724TMC3    O210764   0.644   3.984  10.408 -0.2177 -0.2857  0.0396
  725TMC3    C110765   1.918   2.596  12.906  0.4536 -0.1843  0.6228
  725TMC3    C210766   1.804   2.649  12.857  0.0553  0.2520 -0.4485
  725TMC3    C310767   1.794   2.666  12.718 -0.8903 -0.5075 -0.7353
  725TMC3    C410768   2.016   2.568  12.822  0.6650  0.6645 -0.2798
  725TMC3    C510769   2.003   2.567  12.685 -0.1986  0.6930  0.6103
  725TMC3    C610770   1.892   2.619  12.626 -0.2320  0.4230  0.2680
  725TMC3     C10771   1.944   2.629  13.040 -0.0772 -0.8733 -0.2341
  725TMC3     O10772   2.036   2.707  13.057  0.1039 -0.5770 -0.0452
  725TMC3     H10773   1.730   2.682  12.930 -0.4872 -2.8615  0.4483
  725TMC3    H110774   2.106   2.534  12.873 -0.2471  1.4612  1.8756
  725TMC3    H210775   1.882   2.626  12.519 -0.9737 -0.8784  0.2589
  725TMC3    C710776   2.123   2.539  12.611  0.8182  0.1660 -0.6098
  725TMC3    C810777   1.669   2.716  12.665 -0.1174  0.4941 -0.1727
  725TMC3    O110778   2.221   2.508  12.677 -0.3425 -0.1524 -0.4285
  725TMC3    O210779   1.572   2.715  12.741  1.4490 -0.6282  0.1223
  726MPD2     C10780   4.352   4.292  11.021  0.5839 -0.2610 -0.4451
  726MPD2    C110781   4.247   4.329  10.940 -0.1663  0.0006  0.1146
  726MPD2    C210782   4.121   4.279  10.969 -0.0987  1.3628 -0.2483
  726MPD2    C310783   4.097   4.179  11.062 -0.4414  0.2732  0.8641
  726MPD2    C410784   4.205   4.130  11.131  0.2655  0.0227 -0.8025
  726MPD2    C510785   4.327   4.188  11.116 -0.8034 -0.3149 -0.6389
  726MPD2     H10786   4.035   4.311  10.911 -0.0359 -0.9326 -1.6210
  726MPD2    H110787   4.186   4.050  11.202  0.6507 -0.2157 -0.9662
  726MPD2    H210788   4.451   4.335  11.018 -0.5750  2.2671 -2.5651
  726MPD2    H310789   4.408   4.156  11.180 -2.5525 -0.8304  1.3514
  726MPD2     N10790   3.975   4.110  11.082 -0.0472  0.0764  0.1655
  726MPD2    H510791   3.978   4.049  11.163 -0.8511  0.6222  0.5997
  726MPD2    N110792   4.258   4.434  10.847  0.7602 -0.2472 -0.0237
  726MPD2    H710793   4.171   4.479  10.818  1.3333  1.4355  0.8472
  727TMC3    C110794   4.338   4.639  10.771  0.8170  0.9566  0.2637
  727TMC3    C210795   4.422   4.737  10.810 -0.2220  0.0694 -0.2778
  727TMC3    C310796   4.401   0.121  10.752  0.3395  0.7206  0.2454
  727TMC3    C410797   4.237   4.651  10.682 -0.1464 -0.0669 -0.0114
  727TMC3    C510798   4.224   0.038  10.624  0.6746 -0.6030 -0.1025
  727TMC3    C610799   4.299   0.145  10.661  0.4666  0.6369 -0.5263
  727TMC3     C10800   4.373   4.510  10.829  0.7257  0.1656  0.2682
  727TMC3     O10801   4.492   4.482  10.856  0.3911  0.2170 -0.1945
  727TMC3     H10802   4.502   4.718  10.880 -1.8080 -2.8066  0.7296
  727TMC3    H110803   4.197   4.561  10.638 -1.2028  0.9603 -1.1765
  727TMC3    H210804   4.287   0.244  10.618 -0.4021  0.3051 -1.0230
  727TMC3    C710805   4.098   0.059  10.552  0.5815  0.4362 -0.3094
  727TMC3    C810806   4.494   0.225  10.789 -0.9075 -0.0899  0.2827
  727TMC3    O110807   4.014   4.710  10.545 -0.0352  0.4745  0.2693
  727TMC3    O210808   4.602   0.191  10.829  0.1101 -0.0523  0.6725
  728TMC3    C110809   3.980   2.973  15.246  0.3498  0.3357 -0.0476
  728TMC3    C210810   4.078   3.067  15.265  0.2169 -0.5155 -0.1879
  728TMC3    C310811   4.157   3.084  15.156  0.2080 -0.1563 -0.4281
  728TMC3    C410812   3.977   2.892  15.134  0.4259 -0.0941  0.8834
  728TMC3    C510813   4.068   2.912  15.028  0.5053 -0.0264  0.1200
  728TMC3    C610814   4.161   3.011  15.038  0.3876  0.0544  0.6061
  728TMC3     C10815   3.878   2.984  15.352  0.4150  0.0396  0.6696
  728TMC3     O10816   3.912   3.024  15.464 -0.5930  0.0103 -0.1812
  728TMC3     H10817   4.075   3.123  15.358  1.4596 -0.7244 -0.0131
  728TMC3    H110818   3.898   2.820  15.122  0.5530 -0.0303 -0.3063
  728TMC3    H210819   4.238   3.030  14.965  0.2118  2.3632  1.0324
  728TMC3    C710820   3.989   2.924  14.902 -0.3897  0.2572  0.5327
  728TMC3    C810821   4.204   3.220  15.128 -0.3173  0.7726 -1.2210
  728TMC3    O110822   3.893   2.850  14.878  0.3031  0.8114 -0.4588
  728TMC3    O210823   4.184   3.264  15.016  0.3113  0.1744  0.2613
  729MPD2     C10824   1.185   4.545  16.915 -0.0345 -0.2586  0.1237
  729MPD2    C110825   1.272   4.446  16.948 -0.2038  0.3056 -0.2699
  729MPD2    C210826   1.317   4.443  17.081  0.3291  0.4326 -0.5235
  729MPD2    C310827   1.261   4.529  17.174  0.1815  0.5004  0.8731
  729MPD2    C410828   1.168   4.618  17.135  0.0335 -0.4899 -1.0464
  729MPD2    C510829   1.129   4.628  17.007 -0.0543 -0.2330 -0.4162
  729MPD2     H10830   1.390   4.367  17.105 -1.9249 -0.5786  3.0702
  729MPD2    H110831   1.127   4.696  17.197 -1.4818 -0.7355 -1.7318
  729MPD2    H210832   1.144   4.555  16.815  1.0257 -1.2544 -0.4114
  729MPD2    H310833   1.057   4.705  16.979  0.3120 -0.3557 -1.6605
  729MPD2     N10834   1.299   4.530  17.311  0.2197  0.0645  1.2703
  729MPD2    H510835   1.269   4.612  17.363 -1.0028 -0.4286  1.3314
  729MPD2    N110836   1.332   4.366  16.843  0.1261  0.2026  0.2207
  729MPD2    H710837   1.294   4.381  16.750  2.6758  0.5547 -0.7793
  730TMC3    C110838   1.392   4.474  17.514 -0.2545 -0.0517 -0.0028
  730TMC3    C210839   1.520   4.508  17.526 -0.4266  0.4469 -0.0122
  730TMC3    C310840   1.548   4.614  17.607 -0.9193 -0.2594 -0.1745
  730TMC3    C410841   1.292   4.549  17.561  0.0749 -1.2221 -0.1642
  730TMC3    C510842   1.320   4.664  17.633  0.2192 -0.1938  1.1543
  730TMC3    C610843   1.449   4.678  17.673 -0.3897  0.2737  0.3954
  730TMC3     C10844   1.382   4.443  17.377  0.0425  0.0055 -0.3518
  730TMC3     O10845   1.452   4.348  17.338 -0.1348 -0.1605 -0.8013
  730TMC3     H10846   1.600   4.453  17.478 -0.9133 -0.5858  0.3698
  730TMC3    H110847   1.193   4.516  17.532  0.1027  0.0949 -1.7457
  730TMC3    H210848   1.490   0.024  17.728 -0.0895  0.1695  0.3305
  730TMC3    C710849   1.274   0.043  17.560 -0.1255  0.3490 -0.2926
  730TMC3    C810850   1.634   4.702  17.520  0.6592  0.1561  0.4549
  730TMC3    O110851   1.228   0.021  17.448  0.2892 -0.3811 -0.1338
  730TMC3    O210852   1.641   4.663  17.403  0.0209 -0.2146 -0.5118
  731MPD2     C10853   1.553   2.398  12.577 -0.1166 -0.4496  0.1389
  731MPD2    C110854   1.667   2.353  12.516  0.9336  0.0111 -0.4962
  731MPD2    C210855   1.768   2.304  12.597 -0.1666  0.0459  0.1832
  731MPD2    C310856   1.750   2.292  12.734 -0.0570  0.3792  0.1627
  731MPD2    C410857   1.634   2.340  12.796 -0.0424  0.7399 -0.0141
  731MPD2    C510858   1.539   2.389  12.710  0.8212  0.7063  0.8455
  731MPD2     H10859   1.858   2.283  12.541  1.3101  2.5515  1.6606
  731MPD2    H110860   1.605   2.337  12.900  2.1819 -1.1968  0.5417
  731MPD2    H210861   1.472   2.437  12.516  0.1947  1.4184  0.9450
  731MPD2    H310862   1.444   2.430  12.739  0.7505  0.6869  0.6429
  731MPD2     N10863   1.856   2.231  12.805  0.0810  0.7968 -0.8968
  731MPD2    H510864   1.929   2.187  12.750  0.5067 -0.5147  0.7042
  731MPD2    N110865   1.669   2.359  12.376  1.0179  1.0099 -0.3470
  731MPD2    H710866   1.585   2.387  12.327  0.3724  1.6936  1.1388
  732TMC3    C110867   1.742   2.305  12.152  0.3940  0.3544 -0.4650
  732TMC3    C210868   1.611   2.261  12.125 -0.4931  0.0023 -0.9772
  732TMC3    C310869   1.598   2.202  12.000 -0.1541 -0.8885 -0.7313
  732TMC3    C410870   1.854   2.281  12.077 -0.1158 -0.0040 -0.4578
  732TMC3    C510871   1.824   2.215  11.955  0.4364  0.8830  0.1725
  732TMC3    C610872   1.695   2.176  11.924  0.5614  0.2807 -0.7236
  732TMC3     C10873   1.777   2.318  12.294 -0.5512  0.5278 -0.3807
  732TMC3     O10874   1.897   2.303  12.323 -0.0977 -0.0194 -0.4386
  732TMC3     H10875   1.524   2.275  12.188  0.4535 -0.4962  0.4238
  732TMC3    H110876   1.951   2.324  12.100 -0.4147  0.5399 -0.2117
  732TMC3    H210877   1.682   2.122  11.830  1.6202 -0.6719 -0.3246
  732TMC3    C710878   1.934   2.155  11.880  0.8640  0.5720 -0.2512
  732TMC3    C810879   1.494   2.099  11.986 -0.2376  0.1098 -0.3656
  732TMC3    O110880   1.918   2.126  11.763  0.1831 -0.1021 -0.5144
  732TMC3    O210881   1.548   1.997  11.951  1.1235  0.0129  0.8324
  733TMC3    C110882   2.201   4.652  13.303 -0.2981 -0.0991  0.0802
  733TMC3    C210883   2.314   4.721  13.320  0.3882 -0.0400 -0.7445
  733TMC3    C310884   2.429   4.678  13.259 -0.2836 -0.4666  0.5077
  733TMC3    C410885   2.203   4.531  13.233 -0.0383  0.5120  0.5854
  733TMC3    C510886   2.318   4.497  13.166  0.4323 -0.1767  0.6593
  733TMC3    C610887   2.438   4.563  13.185  0.2338 -0.1886 -0.5340
  733TMC3     C10888   2.087   4.673  13.385  0.3784  0.1055 -0.2146
  733TMC3     O10889   2.060   0.051  13.404  0.0487  0.6115 -0.7954
  733TMC3     H10890   2.312   0.086  13.354 -0.8996 -0.7570  1.3490
  733TMC3    H110891   2.112   4.481  13.203 -0.8820  1.3395  1.7678
  733TMC3    H210892   2.525   4.543  13.125 -0.2621 -0.2477 -1.2306
  733TMC3    C710893   2.301   4.466  13.027 -0.2412  0.0016  0.3035
  733TMC3    C810894   2.515   0.033  13.194 -0.9630  0.3987  0.5163
  733TMC3    O110895   2.385   4.389  12.976 -0.7454  0.1274 -0.4676
  733TMC3    O210896   2.633   0.013  13.165 -0.0006  0.6604 -0.4086
  734MPD2     C10897   3.547   2.610  12.260 -0.1194  0.1411  0.7119
  734MPD2    C110898   3.565   2.551  12.135 -0.2982  0.3499 -0.1540
  734MPD2    C210899   3.662   2.609  12.051  0.6105  0.5867 -0.3950
  734MPD2    C310900   3.732   2.723  12.088 -0.4637 -0.1359 -0.5353
  734MPD2    C410901   3.710   2.789  12.208 -1.4813  0.1071  0.0605
  734MPD2    C510902   3.612   2.729  12.286 -0.0939 -0.4473  0.4815
  734MPD2     H10903   3.702   2.573  11.957 -0.3991  1.3315 -1.1010
  734MPD2    H110904   3.765   2.875  12.245 -1.0847 -0.6875  1.3234
  734MPD2    H210905   3.480   2.565  12.333  0.7922  0.6497  1.8732
  734MPD2    H310906   3.582   2.772  12.381 -0.7386  1.7361 -0.7125
  734MPD2     N10907   3.822   2.774  11.989 -0.2532  0.1704 -0.0748
  734MPD2    H510908   3.858   2.718  11.912 -0.6323 -0.2831  0.0763
  734MPD2    N110909   3.492   2.435  12.101 -0.0755  0.3934  0.3672
  734MPD2    H710910   3.448   2.382  12.174 -0.6180 -1.5960 -1.3994
  735TMC3    C110911   3.470   2.242  11.959  0.6626  0.2188  0.3066
  735TMC3    C210912   3.484   2.221  11.825  0.6103 -0.3110 -0.8309
  735TMC3    C310913   3.571   2.122  11.781 -0.0643 -1.2565 -0.0939
  735TMC3    C410914   3.539   2.171  12.054  0.2368 -0.1168 -0.0281
  735TMC3    C510915   3.628   2.074  12.005  0.0992 -0.3062 -0.3712
  735TMC3    C610916   3.641   2.042  11.872  0.1575  0.2048 -0.2382
  735TMC3     C10917   3.496   2.386  11.969  0.2520 -0.0668  0.4004
  735TMC3     O10918   3.526   2.448  11.866  0.7336  0.1180 -0.6413
  735TMC3     H10919   3.428   2.278  11.752 -1.1885  0.4415  1.1683
  735TMC3    H110920   3.522   2.186  12.160 -2.5627 -3.8289  0.0531
  735TMC3    H210921   3.717   1.972  11.840  0.2513  0.1328  0.1438
  735TMC3    C710922   3.731   2.041  12.101  0.2235  0.1453  0.1981
  735TMC3    C810923   3.648   2.156  11.659 -0.5327  0.2351 -0.1399
  735TMC3    O110924   3.742   2.117  12.194 -0.1518  0.2384 -0.2476
  735TMC3    O210925   3.728   2.072  11.620 -0.7119  0.0735  0.5396
  736MPD2     C10926   3.953   1.748  12.114 -0.0697 -0.0756 -0.0611
  736MPD2    C110927   3.916   1.879  12.137  0.3207 -0.1107 -0.1479
  736MPD2    C210928   4.006   1.964  12.203 -1.1780 -0.2478  0.1637
  736MPD2    C310929   4.131   1.914  12.240 -0.2031 -0.0993 -0.3451
  736MPD2    C410930   4.154   1.784  12.228  0.4825  0.4673 -0.5709
  736MPD2    C510931   4.064   1.700  12.175  0.0401 -0.3371  0.5362
  736MPD2     H10932   3.994   2.072  12.203 -0.9244 -0.2163  1.7299
  736MPD2    H110933   4.250   1.742  12.256 -0.1958 -0.4393  0.3626
  736MPD2    H210934   3.879   1.686  12.063  0.3664  0.5423 -1.4139
  736MPD2    H310935   4.090   1.595  12.173 -1.7119 -0.7152 -2.0224
  736MPD2     N10936   4.244   1.987  12.283 -0.0828 -0.2708  0.7164
  736MPD2    H510937   4.336   1.945  12.289 -0.4224 -1.5023 -2.2674
  736MPD2    N110938   3.795   1.923  12.075  0.4208 -0.4635 -0.1258
  736MPD2    H710939   3.742   1.861  12.015  0.9447 -1.2731  0.2557
  737TMC3    C110940   4.367   2.178  12.335 -0.0428  0.4327 -0.0791
  737TMC3    C210941   4.367   2.320  12.318  0.1385  0.6025 -0.5841
  737TMC3    C310942   4.490   2.373  12.301 -0.2634  0.3574  0.7712
  737TMC3    C410943   4.481   2.101  12.334 -0.1887 -0.3363 -1.0688
  737TMC3    C510944   4.601   2.163  12.311 -0.6493 -0.6276 -0.2515
  737TMC3    C610945   4.604   2.295  12.297  0.4837  0.0527  0.5368
  737TMC3     C10946   4.238   2.121  12.314 -0.2914 -0.1709 -0.5416
  737TMC3     O10947   4.150   2.203  12.326  0.4490 -0.1964  0.1060
  737TMC3     H10948   4.279   2.381  12.311 -1.1196 -1.1497 -0.1394
  737TMC3    H110949   4.490   1.993  12.341 -1.8814 -0.4431 -0.3401
  737TMC3    H210950   4.698   2.350  12.294  0.2610  0.3204 -1.4040
  737TMC3    C710951   4.716   2.084  12.300  0.5608 -1.0042 -1.5567
  737TMC3    C810952   4.521   2.515  12.303 -0.2776 -0.0932  0.3098
  737TMC3    O110953   4.714   1.991  12.380 -0.2628 -0.1652 -0.3682
  737TMC3    O210954   4.613   2.554  12.370 -0.1432 -0.8064  0.0765
  738MPD2     C10955   0.523   0.957  15.225  0.2903 -0.3242  0.1884
  738MPD2    C110956   0.439   0.983  15.118 -0.6949  1.1515 -0.1212
  738MPD2    C210957   0.491   1.036  14.998  0.0366 -0.4572 -0.0962
  738MPD2    C310958   0.632   1.055  14.983  0.7629  0.0746  0.1809
  738MPD2    C410959   0.707   1.008  15.092  0.1385 -0.3675 -0.6687
  738MPD2    C510960   0.655   0.961  15.209 -0.0349  0.4199  0.1280
  738MPD2     H10961   0.419   1.055  14.919  0.1281  0.1470 -0.0352
  738MPD2    H110962   0.815   1.011  15.090  0.2274 -2.2008  1.8429
  738MPD2    H210963   0.492   0.922  15.323 -0.5568  1.1847  0.4551
  738MPD2    H310964   0.715   0.933  15.294  0.1850  1.8302  0.4372
  738MPD2     N10965   0.687   1.129  14.873  0.3386  0.3096 -0.5595
  738MPD2    H510966   0.787   1.148  14.870  0.3107  0.2573 -2.1363
  738MPD2    N110967   0.299   0.962  15.123 -0.5579  0.2274  0.3065
  738MPD2    H710968   0.256   0.975  15.032  2.5312  1.7073 -0.9241
  739TMC3    C110969   0.695   1.256  14.677 -0.3575  0.3716 -1.1853
  739TMC3    C210970   0.636   1.277  14.557 -0.2017 -0.1070  0.2564
  739TMC3    C310971   0.688   1.376  14.478 -0.0646 -0.4410  0.0460
  739TMC3    C410972   0.812   1.313  14.715  0.1724  0.2548 -0.9392
  739TMC3    C510973   0.866   1.402  14.623 -0.3642  0.1415 -0.3032
  739TMC3    C610974   0.800   1.444  14.514 -0.5536  0.5651  0.7771
  739TMC3     C10975   0.618   1.174  14.764 -0.2269 -0.1244 -0.3107
  739TMC3     O10976   0.499   1.172  14.742 -0.0070  0.1891  0.2088
  739TMC3     H10977   0.554   1.214  14.523  1.7712 -2.6077  0.1903
  739TMC3    H110978   0.866   1.284  14.805  1.0557  0.9405 -1.2441
  739TMC3    H210979   0.813   1.543  14.471  2.7690 -1.1312 -2.1276
  739TMC3    C710980   0.987   1.470  14.669 -0.4971 -0.4866 -0.2548
  739TMC3    C810981   0.604   1.434  14.371 -0.9396  0.1282  0.2765
  739TMC3    O110982   1.038   1.441  14.776 -0.2517  0.2078  0.0916
  739TMC3    O210983   0.493   1.386  14.369 -0.0709  0.4795  0.1519
  740TMC3    C110984   0.710   2.656  14.381 -1.2517 -0.1092 -0.6341
  740TMC3    C210985   0.775   2.607  14.490  0.2606 -0.2606 -0.1971
  740TMC3    C310986   0.880   2.520  14.479 -0.0300 -0.6892 -0.7047
  740TMC3    C410987   0.768   2.642  14.255  0.8822 -0.1107  0.2344
  740TMC3    C510988   0.878   2.562  14.246  1.0797  0.7668 -0.3587
  740TMC3    C610989   0.932   2.498  14.354  0.7041  0.7006 -0.8359
  740TMC3     C10990   0.590   2.739  14.395  0.3228 -0.8419 -0.3513
  740TMC3     O10991   0.576   2.818  14.302 -0.1988  0.0460  0.1853
  740TMC3     H10992   0.739   2.637  14.588 -0.1945  0.1868 -0.5049
  740TMC3    H110993   0.724   2.693  14.171  1.4102 -1.8779 -1.1210
  740TMC3    H210994   1.009   2.424  14.335 -0.4298 -0.7218  0.1080
  740TMC3    C710995   0.940   2.540  14.115  0.4809 -0.0776  0.5765
  740TMC3    C810996   0.913   2.444  14.600  0.7219 -0.9469  0.5090
  740TMC3    O110997   1.054   2.497  14.123 -0.1492 -0.2004 -0.1901
  740TMC3    O210998   0.821   2.444  14.681  0.1704  0.4604  0.2692
  741TMC3    C110999   0.374   1.942  14.207 -0.7338  0.3088 -0.3657
  741TMC3    C211000   0.245   1.891  14.221  0.5062  0.5699  0.0741
  741TMC3    C311001   0.231   1.813  14.332 -0.5176  0.0774  0.0949
  741TMC3    C411002   0.470   1.923  14.300 -0.0576 -0.3807 -0.2888
  741TMC3    C511003   0.450   1.841  14.404 -0.3788 -0.1656 -0.0972
  741TMC3    C611004   0.329   1.776  14.423 -0.3417 -0.9488 -0.6490
  741TMC3     C11005   0.399   2.057  14.128  0.4438 -0.8714  0.1336
  741TMC3     O11006   0.511   2.071  14.090 -0.8887 -0.3232 -0.0033
  741TMC3     H11007   0.153   1.914  14.169  1.0490  2.3644 -0.0738
  741TMC3    H111008   0.565   1.973  14.284  0.8457 -2.0509 -0.1154
  741TMC3    H211009   0.311   1.711  14.508  0.9919  2.0334  1.9033
  741TMC3    C711010   0.558   1.822  14.501 -0.3286 -0.5305 -0.1326
  741TMC3    C811011   0.110   1.736  14.339 -0.2920  0.4499  0.2298
  741TMC3    O111012   0.659   1.888  14.492  0.2934 -0.3175  0.1371
  741TMC3    O211013   0.006   1.784  14.292  0.2218 -0.2748 -0.0304
  742TMC3    C111014   0.531   0.698  15.623  0.0648 -0.1708 -0.9795
  742TMC3    C211015   0.455   0.716  15.516 -0.2307  0.3388  0.4325
  742TMC3    C311016   0.501   0.655  15.397  0.1264  0.2153  0.3849
  742TMC3    C411017   0.649   0.632  15.624  0.4681 -0.4790  0.3761
  742TMC3    C511018   0.688   0.572  15.511  0.5986  0.6364 -1.2673
  742TMC3    C611019   0.608   0.573  15.401 -0.7096 -0.3731  0.1662
  742TMC3     C11020   0.491   0.775  15.741  0.1678  0.9778  0.2044
  742TMC3     O11021   0.448   0.885  15.719 -0.3704 -0.0251  0.1377
  742TMC3     H11022   0.366   0.777  15.526 -1.7236 -1.7762  0.0070
  742TMC3    H111023   0.706   0.632  15.717  0.3800 -0.7395  0.4279
  742TMC3    H211024   0.634   0.508  15.319  1.3138  1.8869 -0.9598
  742TMC3    C711025   0.806   0.481  15.509 -0.0870  0.7825  0.4795
  742TMC3    C811026   0.405   0.621  15.290  0.2764 -0.2917 -0.4491
  742TMC3    O111027   0.815   0.398  15.413  0.2452  0.1176 -0.2103
  742TMC3    O211028   0.448   0.576  15.184  0.4038  0.5171 -0.3521
  743MPD2     C11029   3.147   2.073   2.028  0.2202 -0.2502  0.1143
  743MPD2    C111030   3.151   2.017   1.903  0.2149 -0.7404 -0.0187
  743MPD2    C211031   3.262   1.945   1.858 -0.2940  0.0448 -0.5247
  743MPD2    C311032   3.374   1.939   1.941  0.6043 -0.3421  0.2024
  743MPD2    C411033   3.368   1.991   2.066 -0.0425  0.5674  0.6157
  743MPD2    C511034   3.258   2.055   2.114  0.3429  0.2864  0.1647
  743MPD2     H11035   3.277   1.894   1.763 -2.0886 -0.7248 -0.3969
  743MPD2    H111036   3.452   1.984   2.135  1.0440 -0.6877 -0.8355
  743MPD2    H211037   3.061   2.132   2.058  1.8433  2.3158 -0.2507
  743MPD2    H311038   3.257   2.101   2.212  0.4834  1.3718 -0.3433
  743MPD2     N11039   3.486   1.872   1.884  0.6949  0.3292 -0.3825
  743MPD2    H511040   3.477   1.858   1.784 -0.6015  1.7813 -0.4742
  743MPD2    N111041   3.036   2.039   1.818 -0.0070  0.2793  0.0991
  743MPD2    H711042   2.958   2.088   1.861  2.0630  2.4988  1.2938
  744TMC3    C111043   2.900   2.030   1.614 -0.4168 -0.7833  0.6799
  744TMC3    C211044   2.792   2.069   1.692  0.2277 -0.0239  0.5114
  744TMC3    C311045   2.667   2.067   1.628  0.3774  0.3862 -0.6527
  744TMC3    C411046   2.893   1.999   1.481 -0.8046  0.0632  0.4502
  744TMC3    C511047   2.764   1.980   1.432 -0.1626  0.4140  0.6657
  744TMC3    C611048   2.654   2.017   1.498  0.0320  0.3881 -0.0991
  744TMC3     C11049   3.029   2.004   1.683  1.0302 -0.0441 -0.5146
  744TMC3     O11050   3.111   1.945   1.617  0.3949  0.0046 -0.5906
  744TMC3     H11051   2.801   2.096   1.797 -1.7340  0.6269  0.4992
  744TMC3    H111052   2.973   1.950   1.427 -1.3072 -0.0688 -0.1719
  744TMC3    H211053   2.555   2.004   1.457 -0.5140 -0.3116  1.4392
  744TMC3    C711054   2.748   1.937   1.298 -0.1221  0.1121  0.0635
  744TMC3    C811055   2.552   2.113   1.691  0.3757 -0.2965 -0.5576
  744TMC3    O111056   2.841   1.968   1.226  0.1026  0.4333  0.9885
  744TMC3    O211057   2.458   2.137   1.615  0.1162 -0.0174 -0.8756
  745TMC3    C111058   0.513   0.000  13.686  0.2626 -0.2389 -0.7268
  745TMC3    C211059   0.445   0.057  13.793  0.7079  0.2287 -0.0253
  745TMC3    C311060   0.369   0.163  13.772  0.3206 -0.7190 -0.5112
  745TMC3    C411061   0.506   0.068  13.558  1.0406  0.3399  0.1509
  745TMC3    C511062   0.440   0.185  13.554  0.0244 -0.5868  0.3050
  745TMC3    C611063   0.372   0.235  13.661 -0.4247 -1.0756  0.1500
  745TMC3     C11064   0.656   0.015  13.712 -0.7327 -0.6664  0.1440
  745TMC3     O11065   0.714   0.055  13.613 -0.0444 -0.2606  0.0112
  745TMC3     H11066   0.446   0.001  13.885  3.3405 -2.1655 -1.4844
  745TMC3    H111067   0.552   0.029  13.468 -0.2818 -0.0516 -0.3448
  745TMC3    H211068   0.322   0.331  13.660  0.9494 -0.3640  0.5513
  745TMC3    C711069   0.501   0.294  13.477  0.1625  0.4149  0.0340
  745TMC3    C811070   0.314   0.235  13.882  0.7693 -0.5597  0.0262
  745TMC3    O111071   0.425   0.388  13.447  0.5509  0.4546 -0.2721
  745TMC3    O211072   0.204   0.291  13.870  0.3325  0.4835 -0.5795
  746TMC3    C111073   3.148   1.996  10.986 -0.4259  0.1929  0.3243
  746TMC3    C211074   3.222   1.959  10.873  0.3087 -0.3945  0.8055
  746TMC3    C311075   3.243   1.824  10.852 -0.7074  0.7794  0.1725
  746TMC3    C411076   3.099   1.898  11.071  0.8127 -0.2466 -0.9011
  746TMC3    C511077   3.101   1.767  11.029 -0.5240 -0.3185 -0.0284
  746TMC3    C611078   3.177   1.727  10.920  0.5082 -0.0757  0.6756
  746TMC3     C11079   3.148   2.129  11.051  0.2327 -0.2254 -0.3948
  746TMC3     O11080   3.071   2.147  11.146  0.4059 -0.6254 -0.4277
  746TMC3     H11081   3.278   2.034  10.819  0.6035 -1.0971  0.1310
  746TMC3    H111082   3.047   1.921  11.163 -1.3376 -1.7543 -1.7330
  746TMC3    H211083   3.169   1.631  10.871 -0.6849  0.5538 -0.3768
  746TMC3    C711084   2.964   1.712  11.023  0.0260 -0.8838 -0.3249
  746TMC3    C811085   3.276   1.799  10.718 -0.4862  0.0841  0.6407
  746TMC3    O111086   2.934   1.675  10.911 -0.2152 -0.4481  0.6059
  746TMC3    O211087   3.333   1.694  10.683  0.4909 -0.0131  0.7999
  747TMC3    C111088   0.684   1.971  11.486  0.1679  0.8846 -0.2652
  747TMC3    C211089   0.575   1.946  11.570 -1.1382  0.0926  0.1066
  747TMC3    C311090   0.555   2.019  11.686  0.1383 -0.4365 -0.2011
  747TMC3    C411091   0.771   2.067  11.520 -0.7578  0.0911  0.0199
  747TMC3    C511092   0.751   2.137  11.642  0.0221 -0.0745 -0.1723
  747TMC3    C611093   0.640   2.120  11.722  0.5947 -0.2391 -0.5741
  747TMC3     C11094   0.707   1.901  11.354  0.1678  0.0950  0.5672
  747TMC3     O11095   0.610   1.862  11.289 -0.0379  0.2923  0.0373
  747TMC3     H11096   0.518   1.860  11.540 -1.3643  0.0950  0.5309
  747TMC3    H111097   0.864   2.081  11.467 -1.1701  1.5755 -0.3102
  747TMC3    H211098   0.629   2.164  11.820  0.8383  0.2081 -0.7427
  747TMC3    C711099   0.866   2.196  11.697  0.4537 -0.5869  0.1625
  747TMC3    C811100   0.483   1.951  11.784  0.5905  0.0026  0.0106
  747TMC3    O111101   0.859   2.299  11.768  0.4478  0.4264 -0.1642
  747TMC3    O211102   0.489   1.826  11.790 -0.1927  0.0116 -0.2179
  748MPD2     C11103   1.555   3.062   1.510  0.8831 -0.2698 -0.0556
  748MPD2    C111104   1.647   3.063   1.609  1.0115  0.5207 -0.0968
  748MPD2    C211105   1.782   3.082   1.566  0.4059 -0.4704  0.3767
  748MPD2    C311106   1.824   3.099   1.432  0.0001 -0.4350 -0.6080
  748MPD2    C411107   1.724   3.091   1.339 -0.4049 -0.0263  0.6534
  748MPD2    C511108   1.594   3.062   1.379  0.4421 -0.0718 -0.4201
  748MPD2     H11109   1.859   3.088   1.641  1.0453  0.6805 -0.3786
  748MPD2    H111110   1.751   3.083   1.235  0.7840 -0.4934  1.0017
  748MPD2    H211111   1.452   3.036   1.530  0.2734  1.8125 -0.4321
  748MPD2    H311112   1.519   3.044   1.303  1.8805 -2.0219 -1.3827
  748MPD2     N11113   1.968   3.105   1.406  1.1411  0.2533 -0.0328
  748MPD2    H511114   2.023   3.069   1.483  0.9091 -0.4742 -0.2086
  748MPD2    N111115   1.614   3.040   1.746 -0.0205 -0.1438 -0.0223
  748MPD2    H711116   1.516   3.055   1.771 -0.0251  0.2300 -0.2644
  749TMC3    C111117   2.157   3.102   1.261 -0.3888  0.2231 -0.1527
  749TMC3    C211118   2.227   3.028   1.362  0.5219 -0.0629 -0.1326
  749TMC3    C311119   2.363   3.008   1.343 -0.1046 -0.4936 -0.2691
  749TMC3    C411120   2.226   3.163   1.169 -0.0953 -0.2246 -0.3710
  749TMC3    C511121   2.357   3.150   1.168  0.6546 -0.3008 -0.4219
  749TMC3    C611122   2.436   3.078   1.252 -0.0914 -0.0235  0.2548
  749TMC3     C11123   2.019   3.144   1.285  0.1184  0.2284  0.0928
  749TMC3     O11124   1.960   3.201   1.198  0.6779 -0.0276  0.0837
  749TMC3     H11125   2.181   2.970   1.441  1.4241 -2.1352 -1.1150
  749TMC3    H111126   2.181   3.228   1.096 -0.4174  0.6378  0.5998
  749TMC3    H211127   2.544   3.087   1.260 -0.2244  0.7781  1.1943
  749TMC3    C711128   2.442   3.227   1.080  0.2410 -0.2275 -0.0028
  749TMC3    C811129   2.425   2.953   1.453  0.0762  0.0883  0.0001
  749TMC3    O111130   2.403   3.340   1.048 -0.0828 -0.5992  0.2975
  749TMC3    O211131   2.378   2.962   1.569  0.1291 -0.1284 -0.4419
  750MPD2     C11132   3.122   3.745  11.905  0.3559 -0.0529  0.1215
  750MPD2    C111133   3.006   3.703  11.840 -0.2218  0.2006  0.0973
  750MPD2    C211134   3.017   3.615  11.731 -0.0982 -0.7784  0.2263
  750MPD2    C311135   3.136   3.573  11.685 -0.6533 -0.1586 -0.3796
  750MPD2    C411136   3.252   3.614  11.748 -0.2047  0.4536 -0.0487
  750MPD2    C511137   3.243   3.704  11.860 -0.0867  0.7644 -0.3077
  750MPD2     H11138   2.927   3.585  11.678  0.5964  0.2478 -1.5026
  750MPD2    H111139   3.348   3.568  11.727 -0.1996  0.2985  0.2983
  750MPD2    H211140   3.124   3.819  11.984  1.5585  1.8543 -1.7038
  750MPD2    H311141   3.329   3.739  11.915  0.9460 -0.4032 -1.1612
  750MPD2     N11142   3.148   3.487  11.580 -0.0214  0.3591 -0.8344
  750MPD2    H511143   3.239   3.442  11.577 -0.5399 -0.8710  2.0151
  750MPD2    N111144   2.888   3.762  11.886 -0.1954  0.2766 -0.9806
  750MPD2    H711145   2.892   3.823  11.967  1.0682 -0.9397 -0.1229
  751TMC3    C111146   3.081   3.337  11.405  0.2220  0.6020 -0.5428
  751TMC3    C211147   2.973   3.266  11.367  0.5000  0.1636 -0.2369
  751TMC3    C311148   3.002   3.149  11.309 -0.8505 -0.4284 -0.3143
  751TMC3    C411149   3.211   3.302  11.389  0.0542 -0.1502 -0.4691
  751TMC3    C511150   3.237   3.175  11.341  0.6231  0.2115 -0.4317
  751TMC3    C611151   3.125   3.098  11.302 -0.2518  0.3920 -0.2080
  751TMC3     C11152   3.051   3.458  11.485 -0.6425  0.0077 -1.0627
  751TMC3     O11153   2.936   3.496  11.476  0.4988  0.6635 -0.0819
  751TMC3     H11154   2.876   3.299  11.402 -0.5696 -2.9485 -0.2684
  751TMC3    H111155   3.296   3.366  11.411  0.9704 -1.5483  0.0672
  751TMC3    H211156   3.137   3.005  11.246  0.3089 -0.1833  0.8702
  751TMC3    C711157   3.364   3.166  11.281  0.2082  0.5912 -0.0402
  751TMC3    C811158   2.899   3.044  11.334  0.3230 -1.2682 -0.9457
  751TMC3    O111159   3.420   3.271  11.258 -0.3892  0.1258  0.1916
  751TMC3    O211160   2.905   2.944  11.270  0.1094 -0.2541 -0.0724
  752TMC3    C111161   2.001   3.811  17.433 -0.2843  0.2846  0.1707
  752TMC3    C211162   1.998   3.700  17.516 -0.3290 -0.0018  0.2053
  752TMC3    C311163   1.982   3.714  17.652  1.0497  0.4904  0.0580
  752TMC3    C411164   2.017   3.939  17.482 -0.3020 -0.5750 -0.6673
  752TMC3    C511165   2.003   3.947  17.620  0.1191 -0.3875 -0.2505
  752TMC3    C611166   1.986   3.837  17.704 -0.1455  0.1773 -0.0218
  752TMC3     C11167   1.993   3.783  17.294  0.1246 -0.1047  0.2272
  752TMC3     O11168   1.989   3.667  17.258  0.6729 -0.0653  0.1993
  752TMC3     H11169   1.987   3.599  17.478  1.6179  0.0142 -0.3924
  752TMC3    H111170   2.039   4.029  17.425 -0.1376 -0.7002 -0.8019
  752TMC3    H211171   1.971   3.842   0.060  0.4527  0.7861  0.0284
  752TMC3    C711172   2.035   4.072  17.684  0.2692  0.1598 -0.7470
  752TMC3    C811173   1.981   3.584  17.728  0.3432 -0.3395  0.7098
  752TMC3    O111174   2.049   4.072   0.054  0.3428  0.0459  0.0720
  752TMC3    O211175   1.956   3.489  17.659  0.4086 -0.2101  0.3614
  753TMC3    C111176   3.843   4.685  13.448 -0.1571  0.2793 -0.7644
  753TMC3    C211177   3.956   4.663  13.520 -0.5720  0.1275  0.0008
  753TMC3    C311178   3.975   4.539  13.572  0.3077 -0.4858 -0.4050
  753TMC3    C411179   3.746   4.591  13.440 -0.5304  0.5342 -0.3890
  753TMC3    C511180   3.762   4.469  13.491 -0.2118 -0.3696 -0.1638
  753TMC3    C611181   3.880   4.442  13.564 -0.3694 -0.1724 -0.4815
  753TMC3     C11182   3.807   0.071  13.400  0.1774  0.1562  0.0723
  753TMC3     O11183   3.689   0.092  13.387 -0.1239  0.2088 -0.4414
  753TMC3     H11184   4.043   4.727  13.528 -0.1452 -0.5542  0.8105
  753TMC3    H111185   3.656   4.612  13.383 -1.0313  0.4113  0.3608
  753TMC3    H211186   3.891   4.341  13.602 -0.8968 -0.3265 -0.7287
  753TMC3    C711187   3.667   4.363  13.460 -0.5170 -0.3011 -0.0685
  753TMC3    C811188   4.061   4.514  13.682 -0.0018 -0.6795  0.2428
  753TMC3    O111189   3.580   4.396  13.382 -0.6444 -0.1239 -0.3674
  753TMC3    O211190   4.109   4.401  13.682  0.4044 -0.3959  0.0559
  754MPD2     C11191   2.865   3.393  13.456 -0.3595 -0.4582  0.2815
  754MPD2    C111192   2.875   3.259  13.471  0.6091  1.3060 -0.9778
  754MPD2    C211193   2.759   3.180  13.495  0.2578 -0.4529 -0.5201
  754MPD2    C311194   2.644   3.239  13.526  0.4912 -0.1188  0.4628
  754MPD2    C411195   2.634   3.375  13.511  0.2032 -0.2293 -0.4064
  754MPD2    C511196   2.743   3.452  13.479 -0.4843  0.3677 -0.3523
  754MPD2     H11197   2.769   3.072  13.495  0.3611 -0.4441  0.1134
  754MPD2    H111198   2.541   3.427  13.533  1.0327  1.3979 -0.7345
  754MPD2    H211199   2.946   3.457  13.423 -1.9543  1.3748 -0.0772
  754MPD2    H311200   2.734   3.560  13.474  3.2601  0.6864 -0.6286
  754MPD2     N11201   2.531   3.164  13.568 -0.3254  0.4140 -0.2337
  754MPD2    H511202   2.446   3.220  13.576 -0.5187  0.2625 -1.2543
  754MPD2    N111203   2.998   3.207  13.439 -0.2272 -0.0159 -0.1913
  754MPD2    H711204   3.062   3.276  13.400 -1.7969  1.9400  0.6599
  755MPD2     C11205   1.712   3.434  13.901 -0.2004 -0.0297 -0.1414
  755MPD2    C111206   1.697   3.391  13.768  0.4389  0.1980  0.8509
  755MPD2    C211207   1.788   3.295  13.723  0.4375 -0.4162  0.2614
  755MPD2    C311208   1.898   3.251  13.807 -0.1119 -0.3726 -0.4582
  755MPD2    C411209   1.898   3.296  13.932 -0.7786 -0.5429 -0.2075
  755MPD2    C511210   1.806   3.382  13.983  0.4177  0.9785 -0.2833
  755MPD2     H11211   1.776   3.265  13.619  1.9453 -1.8997  0.5210
  755MPD2    H111212   1.978   3.263  13.998 -0.2622  0.0107 -0.5580
  755MPD2    H211213   1.641   3.497  13.952 -0.4947 -1.3009  1.0180
  755MPD2    H311214   1.805   3.414  14.087  0.8730  2.4089 -0.7205
  755MPD2     N11215   1.984   3.145  13.768 -0.1288  0.1650  0.3315
  755MPD2    H511216   1.969   3.092  13.684 -0.9675  1.5713 -0.4147
  755MPD2    N111217   1.599   3.445  13.682 -0.7453 -0.4008 -0.2371
  755MPD2    H711218   1.589   3.393  13.595 -0.0832 -2.5589  0.9909
  756MPD2     C11219   2.897   4.206   9.843 -0.5594 -0.6523  0.3548
  756MPD2    C111220   2.772   4.168   9.872 -0.9058  0.4772 -0.4999
  756MPD2    C211221   2.675   4.138   9.773 -0.6142 -1.4161 -0.1622
  756MPD2    C311222   2.717   4.159   9.639 -0.4562 -0.0711  0.3676
  756MPD2    C411223   2.841   4.213   9.613  0.1261  0.0233 -0.3281
  756MPD2    C511224   2.934   4.226   9.711 -0.1411  0.1561 -0.1965
  756MPD2     H11225   2.578   4.102   9.803 -1.0973 -1.0286 -1.2802
  756MPD2    H111226   2.880   4.242   9.516 -0.4678 -2.9886 -1.4705
  756MPD2    H211227   2.975   4.232   9.913 -0.0038  1.9193 -1.1996
  756MPD2    H311228   3.025   4.276   9.680  0.9435 -2.5074 -1.2950
  756MPD2     N11229   2.614   4.146   9.543 -0.1318 -0.4573 -0.6876
  756MPD2    H511230   2.538   4.090   9.578 -0.5550  1.4120  1.4091
  756MPD2    N111231   2.727   4.155  10.010 -0.5705  0.1680  0.3990
  756MPD2    H711232   2.629   4.138  10.030 -1.0501 -0.4335 -2.4134
  757MPD2     C11233   1.909   3.707   9.644 -0.1751 -0.0149 -0.0185
  757MPD2    C111234   2.036   3.718   9.696 -0.2797  0.8827 -0.5426
  757MPD2    C211235   2.123   3.812   9.640  0.0569  0.1622  0.7919
  757MPD2    C311236   2.087   3.871   9.520 -0.2319  0.4257  0.2791
  757MPD2    C411237   1.953   3.862   9.478 -0.1890 -0.0934  0.7719
  757MPD2    C511238   1.862   3.789   9.550 -0.5248 -0.1662 -0.3919
  757MPD2     H11239   2.224   3.823   9.676  0.2740 -0.7240  0.4685
  757MPD2    H111240   1.921   3.902   9.383  0.9971  0.8212  0.7444
  757MPD2    H211241   1.841   3.635   9.688  1.4991 -1.0115  0.9028
  757MPD2    H311242   1.760   3.775   9.516 -0.4971  1.7800 -1.2953
  757MPD2     N11243   2.186   3.936   9.451  0.0650 -0.3470 -0.1138
  757MPD2    H511244   2.273   3.956   9.499 -0.5545  1.2028  0.3902
  757MPD2    N111245   2.067   3.628   9.807  0.4382 -0.4225 -0.4309
  757MPD2    H711246   1.993   3.560   9.823  2.1746 -1.8066  1.5950
  758MPD2     C11247   2.937   3.738  15.552  0.6535 -0.3285 -0.0492
  758MPD2    C111248   2.964   3.614  15.613 -0.0968  0.1853 -0.0456
  758MPD2    C211249   2.871   3.567  15.704 -0.0993  0.1395  0.1267
  758MPD2    C311250   2.759   3.643  15.743 -1.0071  0.2921  0.1440
  758MPD2    C411251   2.741   3.765  15.697  0.0769 -0.1796  0.3794
  758MPD2    C511252   2.826   3.816  15.598  0.4342  0.1857 -0.1176
  758MPD2     H11253   2.879   3.472  15.756 -3.0038 -1.3513 -2.0966
  758MPD2    H111254   2.662   3.829  15.734 -0.0434  0.9231 -1.8546
  758MPD2    H211255   2.990   3.789  15.472  0.5111  0.1044  0.1305
  758MPD2    H311256   2.800   3.910  15.551 -0.4163  1.1029  2.2310
  758MPD2     N11257   2.661   3.606  15.837 -0.3150 -0.0514  0.3789
  758MPD2    H511258   2.590   3.672  15.868 -0.5961 -1.1542  2.1301
  758MPD2    N111259   3.071   3.527  15.593  0.3323 -0.7618  0.2921
  758MPD2    H711260   3.053   3.431  15.620  2.1870 -0.9852  0.7403
  759MPD2     C11261   1.744   2.064  10.316 -0.5507  0.0486  0.2742
  759MPD2    C111262   1.821   1.967  10.246 -0.1271  0.4599  0.3897
  759MPD2    C211263   1.888   2.008  10.131  0.3091 -0.4123  0.8167
  759MPD2    C311264   1.892   2.142  10.102  0.1802 -0.0979  0.1364
  759MPD2    C411265   1.820   2.236  10.176  0.0452 -0.7661 -0.3467
  759MPD2    C511266   1.738   2.192  10.278 -0.7652 -0.2833 -0.6090
  759MPD2     H11267   1.937   1.933  10.071  0.5747  3.2114 -3.5851
  759MPD2    H111268   1.811   2.341  10.153  0.1070 -0.7343 -0.2253
  759MPD2    H211269   1.692   2.033  10.405  0.5121 -1.2534  0.4501
  759MPD2    H311270   1.674   2.259  10.334 -2.1327 -2.1833  0.0841
  759MPD2     N11271   1.982   2.172   9.996 -0.0692  0.1047  0.0461
  759MPD2    H511272   2.021   2.090   9.951 -1.5523 -0.3227 -0.4471
  759MPD2    N111273   1.821   1.828  10.272  0.1396 -0.2659 -0.1537
  759MPD2    H711274   1.864   1.768  10.201  2.3295 -0.7749  1.5893
  760MPD2     C11275   0.916   3.877  11.981  1.1013  0.1741 -0.3091
  760MPD2    C111276   1.047   3.912  11.969  0.4565 -0.4745 -0.4990
  760MPD2    C211277   1.142   3.811  11.964 -0.2517 -0.1160 -0.1457
  760MPD2    C311278   1.112   3.676  11.984 -0.4338  0.1396 -0.8729
  760MPD2    C411279   0.981   3.643  12.019  0.9549 -0.3389  0.4459
  760MPD2    C511280   0.890   3.744  12.011 -0.0720 -0.3143 -0.0151
  760MPD2     H11281   1.249   3.828  11.969 -0.4620  0.9178  1.0356
  760MPD2    H111282   0.956   3.541  12.047 -1.1467 -0.6066 -2.4671
  760MPD2    H211283   0.835   3.948  11.973  0.9242 -0.2296 -2.1366
  760MPD2    H311284   0.789   3.714  12.036 -0.0331 -0.3390  0.1104
  760MPD2     N11285   1.216   3.576  11.979 -0.7704 -0.4041  0.2272
  760MPD2    H511286   1.185   3.482  12.004 -1.3425 -0.4392 -0.6020
  760MPD2    N111287   1.097   4.045  11.970  0.0510  0.5800 -0.4722
  760MPD2    H711288   1.197   4.050  11.987 -0.3942  1.6697  1.9253
  761MPD2     C11289   2.468   2.877  11.544  0.1017  0.1373  0.1938
  761MPD2    C111290   2.515   2.858  11.412 -0.5069  0.0693  0.4703
  761MPD2    C211291   2.634   2.922  11.380 -0.2291 -0.1854  0.4069
  761MPD2    C311292   2.699   3.000  11.474 -0.8028 -0.3696  0.2282
  761MPD2    C411293   2.643   3.021  11.599  0.0886 -0.1247 -0.2034
  761MPD2    C511294   2.517   2.970  11.627  0.0289  0.2312 -1.0103
  761MPD2     H11295   2.674   2.920  11.279 -2.4128 -0.5791 -0.4452
  761MPD2    H111296   2.684   3.088  11.673 -0.4349  0.0628 -0.0853
  761MPD2    H211297   2.377   2.827  11.576 -0.3529  1.2244  0.5890
  761MPD2    H311298   2.470   2.977  11.725  0.2151  0.2909 -0.9259
  761MPD2     N11299   2.818   3.072  11.444  0.2856 -0.0423 -0.2840
  761MPD2    H511300   2.850   3.139  11.513  0.0740  0.8114 -1.0092
  761MPD2    N111301   2.451   2.757  11.342  0.3221 -0.0937  0.0755
  761MPD2    H711302   2.372   2.709  11.384  1.1580 -1.5553 -0.0048
  762MPD2     C11303   2.380   2.155  10.629  0.4029 -0.5623 -0.7142
  762MPD2    C111304   2.409   2.284  10.645  0.6562  0.1474  0.4693
  762MPD2    C211305   2.481   2.357  10.548  0.1283  0.0918  0.6558
  762MPD2    C311306   2.533   2.291  10.438  0.1966  0.0071 -0.1980
  762MPD2    C411307   2.494   2.154  10.419  0.5576 -0.5886  0.8128
  762MPD2    C511308   2.418   2.095  10.512 -0.0753  0.5472 -0.2989
  762MPD2     H11309   2.498   2.462  10.568  0.5046  0.0254  0.6788
  762MPD2    H111310   2.506   2.096  10.328 -1.3159 -0.7722  0.6842
  762MPD2    H211311   2.316   2.098  10.695 -0.4050  0.0529 -0.9749
  762MPD2    H311312   2.389   1.992  10.495  3.4566 -0.4106 -0.6303
  762MPD2     N11313   2.626   2.346  10.350  0.2116  0.2359 -0.1368
  762MPD2    H511314   2.672   2.434  10.373  1.5732 -0.3945 -0.4238
  762MPD2    N111315   2.364   2.349  10.766  0.4128  0.1759  1.3395
  762MPD2    H711316   2.296   2.295  10.819  0.0214  0.5993  1.2768
  763MPD2     C11317   0.023   3.310  16.081  0.0540  0.1150  0.2410
  763MPD2    C111318   4.642   3.375  16.072 -0.7105  1.0635 -0.2504
  763MPD2    C211319   4.612   3.479  16.157 -0.2853 -0.4501  0.1410
  763MPD2    C311320   4.696   3.528  16.247 -0.7243 -0.1459  0.3748
  763MPD2    C411321   0.082   3.471  16.251  0.6891 -0.1604  0.2737
  763MPD2    C511322   0.106   3.351  16.178  0.1365  0.6253  0.0114
  763MPD2     H11323   4.507   3.509  16.158 -0.2845 -0.4131 -0.5054
  763MPD2    H111324   0.156   3.518  16.315  0.7508  1.7647 -1.2149
  763MPD2    H211325   0.053   3.233  16.011  2.3636  0.4903  0.8265
  763MPD2    H311326   0.210   3.320  16.190 -0.8938 -1.8316  2.6794
  763MPD2     N11327   4.672   3.626  16.343 -0.3649 -0.3772  0.4733
  763MPD2    H511328   0.012   3.654  16.402  1.5647  0.2774 -2.3768
  763MPD2    N111329   4.537   3.324  15.987 -0.2803  0.4614 -0.1147
  763MPD2    H711330   4.472   3.397  15.960  0.8316  1.0448 -1.1971
  764MPD2     C11331   2.298   4.362   0.092  0.2567  0.8172 -0.1256
  764MPD2    C111332   2.347   4.483   0.049 -0.4998 -0.4499 -0.6881
  764MPD2    C211333   2.397   4.572   0.144 -0.1713  0.3513 -0.2544
  764MPD2    C311334   2.379   4.555   0.279  0.6181 -0.3413  0.1174
  764MPD2    C411335   2.327   4.436   0.319 -0.2867 -0.3605 -0.1892
  764MPD2    C511336   2.284   4.339   0.231  0.3094 -0.4827 -0.6918
  764MPD2     H11337   2.447   4.664   0.116 -1.2441  0.5933 -1.3342
  764MPD2    H111338   2.324   4.410   0.424  0.3134 -0.7188 -0.2613
  764MPD2    H211339   2.271   4.279   0.029  1.1242 -0.8429  1.6848
  764MPD2    H311340   2.256   4.242   0.270  0.3607 -0.4010 -0.4507
  764MPD2     N11341   2.407   4.644   0.382  0.0241 -0.1160  0.5786
  764MPD2    H511342   2.382   4.612   0.475 -2.4560 -2.6148 -0.9487
  764MPD2    N111343   2.349   4.513  17.662 -0.6153 -0.5921 -0.4837
  764MPD2    H711344   2.361   4.612  17.643  0.3471 -0.2460  1.9228
  765MPD2     C11345   2.321   2.648  15.631  0.0933  0.1997 -0.1957
  765MPD2    C111346   2.403   2.756  15.646 -0.8769 -0.1321  0.3119
  765MPD2    C211347   2.527   2.751  15.584 -0.2417 -0.1503  0.1438
  765MPD2    C311348   2.575   2.635  15.511  0.4833  0.5655  0.0746
  765MPD2    C411349   2.494   2.529  15.516  0.5482  0.4102 -0.4305
  765MPD2    C511350   2.365   2.541  15.566 -0.1214  0.3615 -0.2567
  765MPD2     H11351   2.603   2.827  15.596 -0.1771 -0.3880  1.2113
  765MPD2    H111352   2.516   2.428  15.483  5.4396  0.7754  1.5831
  765MPD2    H211353   2.220   2.642  15.672 -0.3751 -0.0126 -1.3806
  765MPD2    H311354   2.297   2.457  15.559  0.5924 -0.0452 -2.2492
  765MPD2     N11355   2.696   2.632  15.444  0.0951  0.0382 -0.4106
  765MPD2    H511356   2.731   2.726  15.424  1.1908 -0.2090  0.3756
  765MPD2    N111357   2.359   2.868  15.712  0.1085  0.1769  0.3222
  765MPD2    H711358   2.258   2.875  15.718  0.0586 -0.3160  0.0515
  766MPD2     C11359   1.874   2.933  15.653  0.5401  0.4514 -0.1813
  766MPD2    C111360   2.009   2.962  15.626  0.7335 -0.6819  0.7187
  766MPD2    C211361   2.075   2.906  15.522 -0.3952  0.2272 -0.7790
  766MPD2    C311362   2.007   2.830  15.428 -0.2004  0.3856 -0.1185
  766MPD2    C411363   1.870   2.812  15.447 -0.0479  0.3069 -0.2698
  766MPD2    C511364   1.811   2.859  15.560 -0.4541  0.0294 -0.9777
  766MPD2     H11365   2.181   2.923  15.508 -0.6642  1.3103 -1.4866
  766MPD2    H111366   1.810   2.756  15.378 -1.1849 -0.9673  1.7482
  766MPD2    H211367   1.820   2.975  15.738 -1.7320  2.5787 -2.7000
  766MPD2    H311368   1.709   2.826  15.579  0.2214 -1.7777 -0.5082
  766MPD2     N11369   2.072   2.779  15.313 -0.0801 -0.4705  0.0220
  766MPD2    H511370   2.010   2.732  15.247 -0.1597 -0.8714  0.3835
  766MPD2    N111371   2.087   3.047  15.708 -0.1795  0.0146 -0.0607
  766MPD2    H711372   2.182   3.068  15.680  0.6501 -0.0257  2.7278
  767MPD2     C11373   1.641   2.965  15.125  0.9028 -0.3360  0.1565
  767MPD2    C111374   1.759   2.984  15.060  1.1121  0.7666  0.8062
  767MPD2    C211375   1.777   2.912  14.945 -0.1704  0.2148 -0.5991
  767MPD2    C311376   1.671   2.838  14.883  0.2532 -0.4889  0.1733
  767MPD2    C411377   1.547   2.837  14.946  0.5858  0.2906  0.0225
  767MPD2    C511378   1.536   2.892  15.068 -0.0672 -0.2334 -0.2946
  767MPD2     H11379   1.866   2.934  14.887 -0.5352  0.6166 -1.0037
  767MPD2    H111380   1.459   2.784  14.912  0.3370  0.8304 -0.1754
  767MPD2    H211381   1.612   3.009  15.220  3.1795  1.2511  0.1066
  767MPD2    H311382   1.450   2.879  15.133  0.0950  2.6995  0.5336
  767MPD2     N11383   1.699   2.779  14.762  0.4984  0.2074 -0.1852
  767MPD2    H511384   1.795   2.755  14.738  0.5506  2.0462 -1.8307
  767MPD2    N111385   1.856   3.067  15.130  0.1038 -0.2074  0.0916
  767MPD2    H711386   1.835   3.106  15.221  1.9243  2.7504 -0.7788
  768MPD2     C11387   2.874   1.473  10.530  0.3312 -0.1540 -0.2524
  768MPD2    C111388   2.824   1.391  10.626 -0.9527  0.2208  0.2605
  768MPD2    C211389   2.902   1.342  10.727 -0.0962  0.1489  0.2899
  768MPD2    C311390   3.035   1.372  10.733  0.3065  0.1866 -0.2661
  768MPD2    C411391   3.094   1.449  10.635  0.5297 -0.2728  0.1414
  768MPD2    C511392   3.009   1.495  10.529 -0.3565 -0.2798  0.2394
  768MPD2     H11393   2.849   1.274  10.794 -1.1640  0.8436  0.1470
  768MPD2    H111394   3.192   1.494  10.641  0.5945 -0.5106  0.8359
  768MPD2    H211395   2.812   1.506  10.448  0.7955  0.0464 -0.5225
  768MPD2    H311396   3.047   1.568  10.458 -3.2210  0.2010 -0.7638
  768MPD2     N11397   3.115   1.344  10.846 -0.7996  0.1553 -0.1376
  768MPD2    H511398   3.211   1.375  10.840  0.5761 -4.1513 -0.8901
  768MPD2    N111399   2.686   1.355  10.631 -0.1253 -0.1849 -0.7206
  768MPD2    H711400   2.664   1.297  10.711  1.1292 -0.8041 -0.8205
  769MPD2     C11401   3.447   4.653  14.768 -0.2814  0.0608 -0.3427
  769MPD2    C111402   3.415   4.564  14.870 -0.3325  0.1203  0.4880
  769MPD2    C211403   3.415   4.602  15.004  0.3232 -0.1553 -1.0142
  769MPD2    C311404   3.473   4.719  15.038  0.0871 -0.1180  0.5356
  769MPD2    C411405   3.508   0.069  14.932 -0.8096  0.2840 -0.2086
  769MPD2    C511406   3.495   0.040  14.799  0.1598 -0.3417 -0.1135
  769MPD2     H11407   3.383   4.527  15.076  0.9764 -1.3447 -1.9608
  769MPD2    H111408   3.535   0.173  14.946  1.0446 -0.2617  0.1840
  769MPD2    H211409   3.443   4.621  14.665  1.9192  0.6223 -0.6094
  769MPD2    H311410   3.514   0.115  14.723  0.1346 -2.2061 -1.9761
  769MPD2     N11411   3.508   0.003  15.177 -0.3288  0.0871  0.0646
  769MPD2    H511412   3.460   4.681  15.243 -0.5565  0.2899  0.0875
  769MPD2    N111413   3.369   4.437  14.831  0.2831 -0.5238  0.6033
  769MPD2    H711414   3.350   4.423  14.732 -0.4190  1.3415  0.4772
  770MPD2     C11415   3.490   3.384  14.731 -0.7626  0.8613 -0.3318
  770MPD2    C111416   3.355   3.401  14.745  0.3321  0.2005 -0.0963
  770MPD2    C211417   3.305   3.522  14.761  0.1892 -0.4294 -0.8261
  770MPD2    C311418   3.395   3.627  14.777  0.3686  0.0754 -0.4399
  770MPD2    C411419   3.530   3.614  14.752 -0.9500  0.1272  0.6090
  770MPD2    C511420   3.578   3.492  14.718  0.0912 -0.2133  0.0256
  770MPD2     H11421   3.197   3.530  14.766  0.1542 -1.8342  0.5567
  770MPD2    H111422   3.603   3.693  14.757 -0.8265  0.1395 -1.2232
  770MPD2    H211423   3.542   3.290  14.720  0.4302  1.4853 -0.0596
  770MPD2    H311424   3.685   3.474  14.711 -0.2430 -1.8412 -0.9447
  770MPD2     N11425   3.339   3.751  14.796 -0.3319  0.0833  0.0434
  770MPD2    H511426   3.238   3.763  14.789 -0.4744 -2.2282 -1.8566
  770MPD2    N111427   3.267   3.289  14.728 -0.4068  0.5158 -0.1505
  770MPD2    H711428   3.313   3.200  14.709 -0.3569  0.4146  0.4496
  771MPD2     C11429   4.114   2.087  13.533 -0.3252  0.0524  0.5446
  771MPD2    C111430   4.056   2.210  13.504 -0.3784  0.4110  0.4197
  771MPD2    C211431   3.926   2.207  13.471  0.2125  0.8090  0.6471
  771MPD2    C311432   3.851   2.097  13.462 -0.7001 -0.4333  0.6248
  771MPD2    C411433   3.915   1.977  13.483  0.7158  0.3986  0.2932
  771MPD2    C511434   4.041   1.975  13.534  0.0495  0.2223 -0.1951
  771MPD2     H11435   3.876   2.300  13.444  0.9446  1.2559  0.8378
  771MPD2    H111436   3.868   1.879  13.484  3.8473 -1.1018  0.1632
  771MPD2    H211437   4.218   2.078  13.561  0.6477  2.8956 -2.0970
  771MPD2    H311438   4.083   1.878  13.560  2.8183  1.0691 -1.4339
  771MPD2     N11439   3.724   2.113  13.412  0.5167  0.0034  0.2296
  771MPD2    H511440   3.698   2.208  13.389  1.1921 -0.1176 -1.0087
  771MPD2    N111441   4.117   2.338  13.501  0.1146  0.0816  0.0178
  771MPD2    H711442   4.060   2.422  13.489  1.4727  1.1167  0.7920
  772MPD2     C11443   3.987   2.972  13.757  0.2712 -0.0490 -0.3229
  772MPD2    C111444   3.954   2.863  13.678  0.6191  0.5813 -0.1407
  772MPD2    C211445   3.823   2.823  13.684 -0.7413 -0.2894 -0.1926
  772MPD2    C311446   3.729   2.891  13.760 -0.5887  0.2377 -0.0932
  772MPD2    C411447   3.765   3.000  13.833  0.0919  0.0572  0.0698
  772MPD2    C511448   3.895   3.042  13.822 -0.1926 -0.2230  0.7983
  772MPD2     H11449   3.794   2.743  13.616  0.8841 -0.6729 -0.4311
  772MPD2    H111450   3.690   3.057  13.887  0.8344 -0.7704  1.9716
  772MPD2    H211451   4.090   3.006  13.757 -0.2868  1.6314 -0.7554
  772MPD2    H311452   3.935   3.126  13.877  2.5059 -1.7808  1.2200
  772MPD2     N11453   3.596   2.852  13.769 -0.3201 -0.2502 -0.0917
  772MPD2    H511454   3.562   2.893  13.855  0.9996  1.6747 -0.4887
  772MPD2    N111455   4.047   2.783  13.609  0.6557  0.8488  0.1815
  772MPD2    H711456   4.021   2.701  13.556  0.4869 -0.8770  2.9120
  773MPD2     C11457   2.942   3.442   0.358  0.7019 -0.6764 -0.3628
  773MPD2    C111458   2.947   3.375   0.238  0.9601  0.0877 -0.1474
  773MPD2    C211459   3.025   3.261   0.220  0.5553  0.5604  0.2484
  773MPD2    C311460   3.119   3.225   0.319  0.3062 -0.1124 -0.0109
  773MPD2    C411461   3.118   3.297   0.440 -0.8015 -0.3114  0.2110
  773MPD2    C511462   3.023   3.400   0.455  0.6966  0.2910 -0.4046
  773MPD2     H11463   3.027   3.204   0.128 -0.1377  1.8214 -0.5545
  773MPD2    H111464   3.176   3.268   0.527 -2.6685  0.4322  1.6867
  773MPD2    H211465   2.881   3.530   0.372 -0.4058 -1.1980 -1.9318
  773MPD2    H311466   3.009   3.443   0.553  2.7087  0.0229 -0.0074
  773MPD2     N11467   3.211   3.120   0.291 -0.0418  0.0557  0.1268
  773MPD2    H511468   3.209   3.072   0.202  0.8144  1.6798 -0.7631
  773MPD2    N111469   2.879   3.412   0.121 -0.3762 -0.3601  0.0141
  773MPD2    H711470   2.880   3.343   0.046 -1.8120  0.0014 -0.3449
  774MPD2     C11471   2.852   2.136  13.680  0.1381 -0.5329 -0.1517
  774MPD2    C111472   2.761   2.226  13.728  0.5607 -0.1466  1.1529
  774MPD2    C211473   2.774   2.359  13.704 -0.2508 -0.7595  0.0004
  774MPD2    C311474   2.887   2.409  13.642  0.2954 -0.2093 -0.1089
  774MPD2    C411475   2.985   2.317  13.599 -0.0727  0.7849  0.5777
  774MPD2    C511476   2.963   2.183  13.619  0.2706  0.2531  0.7748
  774MPD2     H11477   2.696   2.428  13.734  0.8948  0.2872  0.5578
  774MPD2    H111478   3.079   2.344  13.553 -0.2597 -0.5901 -0.6123
  774MPD2    H211479   2.847   2.033  13.714  1.8065 -0.1147  1.3459
  774MPD2    H311480   3.043   2.113  13.595 -0.8410 -1.1964  1.2622
  774MPD2     N11481   2.906   2.545  13.639  0.4626  0.3808 -0.2837
  774MPD2    H511482   2.827   2.595  13.678 -2.1691 -2.7553 -1.6191
  774MPD2    N111483   2.653   2.173  13.807  0.0033  0.3703 -0.0044
  774MPD2    H711484   2.663   2.074  13.827 -1.0250  0.1348 -0.6606
  775MPD2     C11485   3.944   4.215  15.934  0.4495  0.3386 -0.1275
  775MPD2    C111486   3.894   4.340  15.965 -0.4526 -0.2251 -0.7232
  775MPD2    C211487   3.986   4.445  15.968  0.1245 -0.3078  0.4740
  775MPD2    C311488   4.123   4.428  15.950  0.0521 -0.4401 -0.5506
  775MPD2    C411489   4.167   4.299  15.938  0.5062 -0.2952  0.2053
  775MPD2    C511490   4.077   4.194  15.930  0.0633  0.1482 -0.2606
  775MPD2     H11491   3.951   4.542  16.002  0.4865 -0.1941  0.5197
  775MPD2    H111492   4.271   4.272  15.924  1.2054  1.8604  1.1712
  775MPD2    H211493   3.885   4.124  15.925 -0.5581  1.2721 -2.9579
  775MPD2    H311494   4.111   4.091  15.926  0.3992  0.4034 -3.8392
  775MPD2     N11495   4.213   4.537  15.936  0.1409 -0.0534 -0.3747
  775MPD2    H511496   4.308   4.516  15.905  0.5895  0.3453  0.6934
  775MPD2    N111497   3.752   4.341  15.996 -0.0887 -0.1981  0.9116
  775MPD2    H711498   3.702   4.254  16.010  2.3096 -0.8288  5.4876
  776MPD2     C11499   2.234   4.345  11.730 -0.0660  0.6836  1.1991
  776MPD2    C111500   2.370   4.317  11.743 -0.1813  0.3113 -0.0517
  776MPD2    C211501   2.460   4.419  11.729  0.6858  0.8754 -0.7058
  776MPD2    C311502   2.422   4.550  11.694  0.0220  0.3062 -0.2238
  776MPD2    C411503   2.291   4.578  11.674 -0.0731  0.6316  1.2501
  776MPD2    C511504   2.197   4.481  11.700  0.2584 -0.3209  0.0906
  776MPD2     H11505   2.563   4.393  11.752  0.4684  0.3784 -0.2769
  776MPD2    H111506   2.253   4.678  11.654 -2.6634 -0.3133  1.4007
  776MPD2    H211507   2.165   4.265  11.755  0.1293 -0.9129 -3.2840
  776MPD2    H311508   2.096   4.514  11.677  0.9803  1.7997 -0.0051
  776MPD2     N11509   2.514   4.660  11.688  0.2641 -0.4164 -0.0985
  776MPD2    H511510   2.481   0.001  11.634  0.1914 -0.6260 -0.3679
  776MPD2    N111511   2.409   4.187  11.775 -0.6041  0.0753  0.6884
  776MPD2    H711512   2.330   4.126  11.791 -0.5733  0.6898  3.2482
  777MPD2     C11513   3.410   2.254   0.739  0.6767  0.3532  0.2420
  777MPD2    C111514   3.295   2.248   0.808 -0.1088  0.5040  0.4319
  777MPD2    C211515   3.197   2.161   0.760 -0.3196  0.0374 -0.0269
  777MPD2    C311516   3.216   2.087   0.645  0.1101  0.0595 -0.9418
  777MPD2    C411517   3.327   2.109   0.564  0.3221 -0.4161 -0.0934
  777MPD2    C511518   3.430   2.194   0.611  0.6942  0.8774  0.8539
  777MPD2     H11519   3.103   2.149   0.813 -0.6491  0.0128 -0.6154
  777MPD2    H111520   3.343   2.060   0.469  1.6114  0.0361 -0.1100
  777MPD2    H211521   3.485   2.324   0.773  2.2131 -1.3368  0.3732
  777MPD2    H311522   3.522   2.204   0.554 -0.3770  0.1949 -0.9987
  777MPD2     N11523   3.118   1.987   0.616 -0.0550  0.2532 -0.0410
  777MPD2    H511524   3.034   1.997   0.673 -0.5400 -0.9839 -0.5277
  777MPD2    N111525   3.286   2.319   0.932 -0.0832  0.5560  0.1348
  777MPD2    H711526   3.369   2.366   0.969  1.2806 -2.3615  0.7590
  778MPD2     C11527   4.192   2.586  14.832  0.3526  0.1989 -0.3567
  778MPD2    C111528   4.236   2.463  14.774 -0.0131  0.8182 -0.2429
  778MPD2    C211529   4.333   2.461  14.677  0.0268 -0.3374  0.0581
  778MPD2    C311530   4.379   2.577  14.625 -0.6067 -0.4229  0.1437
  778MPD2    C411531   4.328   2.701  14.666 -0.2764 -0.2774  0.1025
  778MPD2    C511532   4.247   2.704  14.774 -0.7684 -0.3531 -0.3060
  778MPD2     H11533   4.375   2.367  14.643 -0.9493  0.4970 -3.4683
  778MPD2    H111534   4.351   2.797  14.622  0.8488  0.1972  1.7253
  778MPD2    H211535   4.114   2.604  14.905  1.8142  1.2283  0.9416
  778MPD2    H311536   4.229   2.804  14.813  0.1336 -0.4694  0.4003
  778MPD2     N11537   4.482   2.574  14.525 -1.1562 -0.4892 -0.3437
  778MPD2    H511538   4.516   2.481  14.504  2.6068  0.4426  1.6944
  778MPD2    N111539   4.191   2.339  14.829  0.0225  0.0350  0.3070
  778MPD2    H711540   4.211   2.257  14.773 -0.5764  1.3020 -1.7448
  779MPD2     C11541   3.779   0.856  14.255 -0.4137 -0.1125 -0.5248
  779MPD2    C111542   3.906   0.861  14.318 -0.1326 -0.4788  0.4726
  779MPD2    C211543   3.971   0.983  14.328 -0.3677  0.0005 -0.1043
  779MPD2    C311544   3.895   1.101  14.301 -0.1154  0.6335 -0.2065
  779MPD2    C411545   3.758   1.090  14.269 -0.9619 -0.2128 -0.0539
  779MPD2    C511546   3.702   0.969  14.244 -0.0421 -0.0340  0.2515
  779MPD2     H11547   4.076   0.985  14.356  0.0045  0.2728 -1.5021
  779MPD2    H111548   3.693   1.177  14.264  0.8976  1.2476  0.9493
  779MPD2    H211549   3.729   0.762  14.237 -0.3878 -0.0346 -1.0029
  779MPD2    H311550   3.595   0.966  14.224 -0.3275 -0.7560  1.8435
  779MPD2     N11551   3.963   1.222  14.322  0.0715  0.6014  0.4853
  779MPD2    H511552   4.064   1.216  14.314  0.1889  0.5672  2.0556
  779MPD2    N111553   3.982   0.742  14.351  0.4937  0.4805  0.3292
  779MPD2    H711554   4.074   0.762  14.388 -0.3854  0.2052  2.7427
  780MPD2     C11555   3.772   1.402   0.889 -0.2589  0.1362  0.1369
  780MPD2    C111556   3.697   1.317   0.822 -0.0874 -0.4800  0.1610
  780MPD2    C211557   3.687   1.331   0.679  0.0455 -0.8392 -0.0548
  780MPD2    C311558   3.762   1.423   0.608  0.2484  0.3500 -0.5046
  780MPD2    C411559   3.846   1.503   0.688  0.1833  0.1478  0.2779
  780MPD2    C511560   3.845   1.497   0.821 -0.4751  0.0076  0.2217
  780MPD2     H11561   3.642   1.249   0.624 -1.0230 -0.0067 -0.4199
  780MPD2    H111562   3.921   1.571   0.649  1.8422 -1.8701 -0.0310
  780MPD2    H211563   3.776   1.406   0.997 -3.5472 -2.4111  0.3326
  780MPD2    H311564   3.898   1.573   0.878 -0.5828 -1.1140  1.8093
  780MPD2     N11565   3.748   1.414   0.470 -0.5608 -0.6246  0.2140
  780MPD2    H511566   3.682   1.344   0.437 -2.9917  2.0304 -0.6700
  780MPD2    N111567   3.621   1.224   0.893  0.6305 -0.1928 -0.4121
  780MPD2    H711568   3.650   1.211   0.989  1.8214  1.9313 -0.4940
  781MPD2     C11569   0.980   3.302  11.882 -0.0375 -0.0433 -0.2835
  781MPD2    C111570   0.981   3.195  11.973  0.6349  0.3018 -0.8492
  781MPD2    C211571   1.072   3.099  11.964 -0.7904  0.1644  0.2069
  781MPD2    C311572   1.169   3.104  11.864 -0.3688  0.2082 -0.7268
  781MPD2    C411573   1.175   3.217  11.787 -0.0199 -0.1273  0.0960
  781MPD2    C511574   1.085   3.319  11.802  0.0212  0.8631  0.2876
  781MPD2     H11575   1.061   3.012  12.028 -0.2857 -0.0486  0.0007
  781MPD2    H111576   1.241   3.219  11.701 -2.0555 -1.9793 -1.5262
  781MPD2    H211577   0.903   3.378  11.891 -0.8383 -0.8234 -0.5273
  781MPD2    H311578   1.086   3.406  11.737  0.5826  1.9287  1.7163
  781MPD2     N11579   1.270   3.010  11.849 -0.1162 -0.1160 -0.3133
  781MPD2    H511580   1.337   3.025  11.774 -1.2910  0.2586 -1.2848
  781MPD2    N111581   0.898   3.198  12.086  0.1739 -0.5767  0.4528
  781MPD2    H711582   0.909   3.124  12.154  0.4474  0.0221  1.0652
  782MPD2     C11583   3.367   3.532  10.733  0.4689 -0.1020  0.1206
  782MPD2    C111584   3.501   3.564  10.752  0.8914  0.1117 -0.5410
  782MPD2    C211585   3.541   3.674  10.824 -0.6880  0.2193 -0.2358
  782MPD2    C311586   3.448   3.764  10.879  0.5110 -0.4742  0.1251
  782MPD2    C411587   3.313   3.729  10.859 -0.5379 -0.2106  0.3916
  782MPD2    C511588   3.280   3.615  10.793 -0.4462  0.4039  0.0219
  782MPD2     H11589   3.644   3.710  10.830 -1.1200  0.8869  3.3717
  782MPD2    H111590   3.236   3.787  10.909 -2.6013 -2.5871 -0.0493
  782MPD2    H211591   3.327   3.444  10.686  2.3049 -1.0148  0.2430
  782MPD2    H311592   3.173   3.600  10.780 -0.3689 -0.0773 -0.0792
  782MPD2     N11593   3.494   3.877  10.952 -0.5452  0.2013  0.0637
  782MPD2    H511594   3.595   3.884  10.958 -0.6150  0.2862  1.1226
  782MPD2    N111595   3.594   3.474  10.693  0.6994  0.5961 -0.0728
  782MPD2    H711596   3.564   3.377  10.689  1.3431  0.4300 -0.9613
  783MPD2     C11597   3.586   2.887  11.240  0.5317 -0.3005  0.0863
  783MPD2    C111598   3.532   3.003  11.206 -0.6487 -0.8129 -0.0995
  783MPD2    C211599   3.587   3.077  11.108  0.0452  0.4224  0.4194
  783MPD2    C311600   3.703   3.042  11.043  0.1872  0.3850  0.7384
  783MPD2    C411601   3.765   2.923  11.087 -0.3158  0.1260 -0.0983
  783MPD2    C511602   3.700   2.846  11.184 -0.0695 -0.4457 -0.2059
  783MPD2     H11603   3.541   3.171  11.079 -0.1446  1.0613  2.8008
  783MPD2    H111604   3.859   2.887  11.047 -1.2343 -0.3111 -1.8483
  783MPD2    H211605   3.553   2.828  11.324  1.8504 -1.2492 -0.0730
  783MPD2    H311606   3.753   2.757  11.217  0.9390  0.0166 -0.5568
  783MPD2     N11607   3.750   3.120  10.935  0.0147 -0.1328 -0.3133
  783MPD2    H511608   3.690   3.202  10.932 -1.3494 -1.1878 -2.0211
  783MPD2    N111609   3.409   3.039  11.270  0.0570 -0.0589 -0.2138
  783MPD2    H711610   3.358   2.965  11.318 -0.3180 -0.2202 -0.8592
  784MPD2     C11611   1.428   4.253   0.728 -0.1136 -0.3718 -0.4149
  784MPD2    C111612   1.389   4.335   0.832  0.9489 -0.6314  0.8768
  784MPD2    C211613   1.265   4.405   0.827  0.4406  0.5496 -0.0474
  784MPD2    C311614   1.187   4.393   0.716  0.1747  0.0875  0.1615
  784MPD2    C411615   1.224   4.310   0.613  0.6357 -0.1629  0.1206
  784MPD2    C511616   1.342   4.243   0.618 -0.3467  0.0427 -0.6087
  784MPD2     H11617   1.225   4.463   0.910 -1.6169 -0.9070 -0.0177
  784MPD2    H111618   1.163   4.293   0.525 -0.2733  1.8489  0.3406
  784MPD2    H211619   1.525   4.208   0.712 -0.8910 -1.0822 -3.0341
  784MPD2    H311620   1.371   4.188   0.528 -2.4926  0.5757 -1.6187
  784MPD2     N11621   1.059   4.451   0.724 -0.5255  0.5476 -0.4334
  784MPD2    H511622   1.051   4.499   0.813  3.1802 -2.0379  1.2635
  784MPD2    N111623   1.482   4.371   0.932  0.0600  0.3756 -0.3548
  784MPD2    H711624   1.451   4.442   0.998 -2.4894 -1.0331 -0.0207
  785MPD2     C11625   1.439   1.980  10.798 -0.0091  0.5103  0.1491
  785MPD2    C111626   1.363   2.015  10.900  0.0301  0.7042  0.2450
  785MPD2    C211627   1.227   2.003  10.881  0.0938 -0.1137 -0.0090
  785MPD2    C311628   1.166   1.973  10.758  0.4968 -0.2429  0.0781
  785MPD2    C411629   1.252   1.938  10.652 -1.0015 -0.4631 -0.0958
  785MPD2    C511630   1.387   1.940  10.681 -0.3264  0.9636 -0.1677
  785MPD2     H11631   1.170   2.022  10.972  0.5144  1.4252 -0.0585
  785MPD2    H111632   1.223   1.889  10.560 -3.4483  1.9333 -0.6051
  785MPD2    H211633   1.546   1.994  10.804 -0.1259  0.1328  3.0828
  785MPD2    H311634   1.455   1.890  10.614 -2.4307  0.0434 -1.6347
  785MPD2     N11635   1.024   1.973  10.747 -0.2014 -0.5695 -0.1138
  785MPD2    H511636   0.977   1.981  10.837  0.7785 -3.9506  0.7076
  785MPD2    N111637   1.420   2.062  11.022 -0.0790  0.4176 -0.3647
  785MPD2    H711638   1.521   2.071  11.023 -0.0910  0.6405 -1.0970
  786MPD2     C11639   4.683   0.478  15.091 -0.4026 -0.0878 -0.2099
  786MPD2    C111640   0.068   0.497  15.032 -1.0534 -0.4989  0.0924
  786MPD2    C211641   0.176   0.560  15.099  0.6023 -0.2620  0.1305
  786MPD2    C311642   0.167   0.577  15.237 -0.6975 -0.2229  0.4112
  786MPD2    C411643   0.045   0.546  15.294 -0.0787 -0.3351  0.0484
  786MPD2    C511644   4.668   0.510  15.225  0.2497 -0.2093 -0.2547
  786MPD2     H11645   0.268   0.569  15.042  1.7476 -1.8453  1.7326
  786MPD2    H111646   0.015   0.565  15.397 -1.5073 -2.3759  0.0042
  786MPD2    H211647   4.593   0.435  15.048 -0.2600 -1.0934  0.5014
  786MPD2    H311648   4.579   0.484  15.282  1.1959  0.2917  1.4653
  786MPD2     N11649   0.274   0.619  15.331 -0.7170 -0.1220  0.3671
  786MPD2    H511650   0.258   0.652  15.425 -0.8324 -0.5152  0.4836
  786MPD2    N111651   0.099   0.436  14.909 -0.0915  0.1503 -0.8130
  786MPD2    H711652   0.197   0.437  14.884 -0.1838  1.6325 -1.0601
  787MPD2     C11653   0.473   4.735  15.147 -0.5375  0.1941 -0.2308
  787MPD2    C111654   0.446   4.687  15.026 -0.7736  0.3478 -0.3672
  787MPD2    C211655   0.483   4.556  15.002  0.1663  0.1874 -0.2589
  787MPD2    C311656   0.529   4.476  15.105 -0.1524 -0.3815  0.7863
  787MPD2    C411657   0.549   4.525  15.233 -0.0602 -0.4011 -0.1997
  787MPD2    C511658   0.537   4.658  15.239  0.0245 -0.5362 -0.3682
  787MPD2     H11659   0.465   4.510  14.906 -0.8170 -0.5464  0.2881
  787MPD2    H111660   0.607   4.476  15.310  1.1341 -0.7353 -1.3075
  787MPD2    H211661   0.459   0.102  15.165  1.3188  0.2084  1.0610
  787MPD2    H311662   0.591   4.705  15.320 -1.2324  2.7439 -1.4479
  787MPD2     N11663   0.563   4.346  15.084  0.2395 -0.9833  0.2761
  787MPD2    H511664   0.529   4.314  14.994  1.2735 -1.3353  0.0164
  787MPD2    N111665   0.378   0.030  14.933  0.4262  0.2156  0.2666
  787MPD2    H711666   0.368   0.125  14.965  0.5816  0.5561 -0.6953
  788MPD2     C11667   1.549   3.675   1.060  0.5078 -0.2300 -0.8379
  788MPD2    C111668   1.573   3.634   0.929  0.0376 -0.3011 -0.0436
  788MPD2    C211669   1.585   3.722   0.825 -0.2655  0.0025  0.4731
  788MPD2    C311670   1.587   3.859   0.863  0.2811 -0.1091 -0.0260
  788MPD2    C411671   1.573   3.899   0.994  0.2153  0.0708  0.0494
  788MPD2    C511672   1.555   3.806   1.092  0.3934 -0.3264  0.1677
  788MPD2     H11673   1.580   3.695   0.721  1.1153 -1.0033  0.6683
  788MPD2    H111674   1.590   4.001   1.027  0.7478  0.0565 -0.1712
  788MPD2    H211675   1.526   3.600   1.135 -1.9258 -0.2006 -1.5598
  788MPD2    H311676   1.551   3.837   1.196  0.6132  0.6077 -0.1019
  788MPD2     N11677   1.616   3.960   0.775  0.0852  0.4370 -0.0959
  788MPD2    H511678   1.619   4.055   0.811  0.8099 -0.8154  3.1683
  788MPD2    N111679   1.587   3.502   0.895  0.8530  0.1189  0.1912
  788MPD2    H711680   1.587   3.476   0.797 -2.9252  1.6301 -0.2391
  789MPD2     C11681   2.367   3.048  16.260 -0.1500 -0.1109  0.4896
  789MPD2    C111682   2.240   3.016  16.212  0.3613  0.0995  0.1762
  789MPD2    C211683   2.140   3.113  16.221 -0.3473  0.3661  0.4965
  789MPD2    C311684   2.170   3.238  16.268  0.9056  0.0268  0.5055
  789MPD2    C411685   2.300   3.263  16.310  0.4480 -0.3235  0.3012
  789MPD2    C511686   2.395   3.169  16.304 -0.0852 -0.3480  0.2820
  789MPD2     H11687   2.036   3.088  16.206 -0.5353  0.6658  1.3376
  789MPD2    H111688   2.327   3.360  16.351 -0.0452 -1.3870  3.1442
  789MPD2    H211689   2.440   2.968  16.263  0.6208  0.6305  1.3105
  789MPD2    H311690   2.481   3.191  16.366 -0.4032 -0.5722  0.8031
  789MPD2     N11691   2.062   3.328  16.276 -0.1203  0.1979  0.3107
  789MPD2    H511692   1.993   3.311  16.204  1.0392  0.7739 -0.9145
  789MPD2    N111693   2.206   2.895  16.154  0.2860 -0.7272  0.0147
  789MPD2    H711694   2.108   2.884  16.128  0.1984  1.2044 -0.4768
  790MPD2     C11695   3.545   4.311  14.120 -0.0958  0.3966 -1.1314
  790MPD2    C111696   3.586   4.256  14.002 -0.3084  0.3149 -0.3606
  790MPD2    C211697   3.507   4.252  13.889  0.1675  0.3747  0.5420
  790MPD2    C311698   3.389   4.320  13.890  0.1633 -0.3360  0.0905
  790MPD2    C411699   3.352   4.382  14.007  0.2481 -0.7281 -0.0833
  790MPD2    C511700   3.425   4.380  14.120 -0.0181  0.2464 -0.0440
  790MPD2     H11701   3.528   4.185  13.806  1.2320 -2.0730  2.7923
  790MPD2    H111702   3.260   4.439  14.013  1.1992  0.5483  2.1722
  790MPD2    H211703   3.599   4.304  14.213 -0.9436 -1.8279 -0.8148
  790MPD2    H311704   3.392   4.426  14.213  2.0097  1.1662  0.2241
  790MPD2     N11705   3.315   4.323  13.766 -0.2374  0.2765  0.4788
  790MPD2    H511706   3.346   4.253  13.699 -1.7246 -0.1149  0.2090
  790MPD2    N111707   3.713   4.196  14.014 -0.3510 -0.7909 -0.2750
  790MPD2    H711708   3.758   4.178  14.103 -0.9444 -1.7634 -0.1710
  791MPD2     C11709   2.549   4.585  13.617 -0.4019  0.4316 -0.1273
  791MPD2    C111710   2.611   4.477  13.564 -0.4766  0.3833 -0.2358
  791MPD2    C211711   2.540   4.361  13.539 -0.2456 -0.0515 -0.2164
  791MPD2    C311712   2.406   4.356  13.547  0.1467 -0.5182  1.7029
  791MPD2    C411713   2.340   4.467  13.592 -0.2504  0.3883 -0.6792
  791MPD2    C511714   2.408   4.580  13.632 -0.1338  0.3516  0.0532
  791MPD2     H11715   2.594   4.279  13.494  0.0606 -0.1485  0.3261
  791MPD2    H111716   2.232   4.471  13.594 -0.3001 -0.9400 -0.3501
  791MPD2    H211717   2.602   4.679  13.630  3.0546 -1.3560 -1.1164
  791MPD2    H311718   2.347   4.667  13.649 -2.7916 -1.0540 -2.3072
  791MPD2     N11719   2.341   4.232  13.526  0.1033 -0.0560 -0.9199
  791MPD2    H511720   2.408   4.156  13.521  1.1806  0.8407 -0.1699
  791MPD2    N111721   2.757   4.484  13.538  0.0482 -0.0788  0.2871
  791MPD2    H711722   2.796   4.565  13.585 -3.6619  0.1966  2.8608
  792MPD2     C11723   2.992   4.538  11.423 -0.0261 -0.6182  0.5760
  792MPD2    C111724   2.927   4.606  11.329  0.4224 -0.2722  0.7486
  792MPD2    C211725   2.794   4.579  11.321 -0.2033  0.3571 -0.3817
  792MPD2    C311726   2.725   4.490  11.396 -0.1813 -0.2499 -0.4552
  792MPD2    C411727   2.794   4.427  11.493  0.1699 -0.2115  0.4981
  792MPD2    C511728   2.924   4.452  11.504  0.2344 -0.4075 -0.8939
  792MPD2     H11729   2.736   4.622  11.240 -3.2792 -0.6291  1.2718
  792MPD2    H111730   2.761   4.342  11.551  0.1470 -0.1099  0.6338
  792MPD2    H211731   3.099   4.554  11.435 -0.1360  2.5178 -2.5158
  792MPD2    H311732   2.982   4.400  11.580 -1.5087  0.6853  1.1751
  792MPD2     N11733   2.590   4.453  11.376 -0.3065 -0.1649  0.7323
  792MPD2    H511734   2.566   4.361  11.414  1.9656 -0.8679  0.4722
  792MPD2    N111735   2.992   4.697  11.237 -0.2219  0.3607 -0.1324
  792MPD2    H711736   3.093   4.704  11.236 -0.2801  1.1767 -0.2200
  793MPD2     C11737   2.192   4.340  10.536  0.3825 -0.4902 -0.2675
  793MPD2    C111738   2.312   4.359  10.599 -0.0270  0.0145 -1.1795
  793MPD2    C211739   2.319   4.400  10.729 -1.2957  0.5028 -0.7162
  793MPD2    C311740   2.199   4.412  10.803 -0.8141  0.4568 -0.0531
  793MPD2    C411741   2.077   4.380  10.746 -0.1973 -0.0551  0.0215
  793MPD2    C511742   2.074   4.349  10.613 -0.1463 -0.3841  0.2729
  793MPD2     H11743   2.413   4.417  10.781 -1.3074  0.2791 -0.6244
  793MPD2    H111744   1.980   4.408  10.784  0.5403  0.4147  1.5362
  793MPD2    H211745   2.182   4.303  10.435  0.1640 -0.7356 -0.1584
  793MPD2    H311746   1.974   4.326  10.579  0.4764  0.2484 -1.9615
  793MPD2     N11747   2.205   4.462  10.938 -0.3517  0.0087 -0.1613
  793MPD2    H511748   2.291   4.508  10.964 -0.6634  1.4261 -1.5885
  793MPD2    N111749   2.435   4.332  10.542  0.2025 -0.2054 -0.5415
  793MPD2    H711750   2.507   4.331  10.614 -0.5817  0.6265  0.2609
  794MPD2     C11751   2.628   4.036  17.314  0.2184  0.1650  0.0767
  794MPD2    C111752   2.695   3.927  17.259  0.6762 -0.6201  0.3023
  794MPD2    C211753   2.758   3.937  17.130 -0.7180  0.5715 -0.1748
  794MPD2    C311754   2.756   4.058  17.068  0.6269 -0.5484 -0.3918
  794MPD2    C411755   2.685   4.158  17.124  0.6286 -0.4700  0.0339
  794MPD2    C511756   2.617   4.150  17.242 -0.3444 -0.8964 -0.1701
  794MPD2     H11757   2.810   3.848  17.098 -2.0800  0.1613 -1.2505
  794MPD2    H111758   2.684   4.257  17.079  0.1732 -0.1063  0.8412
  794MPD2    H211759   2.567   4.039  17.403  1.6743 -2.8311  1.1583
  794MPD2    H311760   2.578   4.233  17.298  0.1217 -0.5266 -0.3973
  794MPD2     N11761   2.818   4.086  16.942 -0.5407  0.1471 -0.3103
  794MPD2    H511762   2.803   4.184  16.920 -2.7570 -0.3555 -0.9842
  794MPD2    N111763   2.712   3.809  17.335 -0.7957  0.1792  0.2039
  794MPD2    H711764   2.752   3.730  17.286 -3.4505 -0.1727 -1.4212
  795MPD2     C11765   0.368   1.363  13.573 -0.3990 -1.2504  0.3910
  795MPD2    C111766   0.302   1.243  13.575 -0.3555 -0.6049  0.5843
  795MPD2    C211767   0.386   1.131  13.569 -0.2802 -0.0365 -0.1825
  795MPD2    C311768   0.523   1.135  13.567 -0.4369  0.1277  0.6844
  795MPD2    C411769   0.585   1.252  13.550 -0.6767  0.2774 -0.7273
  795MPD2    C511770   0.502   1.363  13.554 -0.3422  0.2229 -0.1815
  795MPD2     H11771   0.339   1.033  13.571  0.7641 -0.5188  0.6674
  795MPD2    H111772   0.692   1.269  13.547 -0.9046  2.1223  1.9579
  795MPD2    H211773   0.320   1.460  13.582  0.7358 -0.4446 -2.3314
  795MPD2    H311774   0.555   1.458  13.550 -2.1123  1.2524  0.8193
  795MPD2     N11775   0.597   1.015  13.572 -0.3617  1.0840 -0.1318
  795MPD2    H511776   0.540   0.934  13.593 -0.1679  1.4358  1.7401
  795MPD2    N111777   0.162   1.224  13.584  0.1901  0.0420  0.9349
  795MPD2    H711778   0.131   1.127  13.589  0.4439 -0.0274  1.1197
  796MPD2     C11779   0.011   3.119  15.602  0.4465 -0.1837 -0.9939
  796MPD2    C111780   0.114   3.154  15.687 -0.5543  0.6226  0.7791
  796MPD2    C211781   0.129   3.278  15.739 -1.0151  0.2873 -0.2566
  796MPD2    C311782   0.039   3.379  15.710  0.1019 -0.0169  0.6706
  796MPD2    C411783   4.677   3.349  15.617  0.7051 -0.1027 -0.9254
  796MPD2    C511784   4.667   3.219  15.565 -0.3034  0.1644  0.5268
  796MPD2     H11785   0.207   3.290  15.814 -0.7720 -0.3163 -0.4172
  796MPD2    H111786   4.602   3.415  15.575 -1.0346 -0.8182  1.0105
  796MPD2    H211787   0.003   3.023  15.553  1.4610 -1.5200  1.4807
  796MPD2    H311788   4.607   3.203  15.476 -1.0682 -0.2887  1.1238
  796MPD2     N11789   0.040   3.498  15.783 -0.6797  0.4310 -0.1322
  796MPD2    H511790   0.115   3.518  15.848 -1.4976 -2.0641  1.5698
  796MPD2    N111791   0.199   3.054  15.730 -0.1207  0.6087 -0.6513
  796MPD2    H711792   0.169   2.958  15.716  0.2805  0.1849  1.4485
  797MPD2     C11793   1.239   2.755  16.944  0.5335 -0.3183 -0.4503
  797MPD2    C111794   1.298   2.880  16.916 -0.0071 -0.4152  0.0433
  797MPD2    C211795   1.281   2.943  16.799  0.9578 -0.5449  0.6431
  797MPD2    C311796   1.201   2.891  16.696 -0.0330 -0.3395 -0.3204
  797MPD2    C411797   1.140   2.772  16.721 -0.3110 -0.2101  0.6309
  797MPD2    C511798   1.166   2.705  16.837  0.1254  0.4444 -0.1332
  797MPD2     H11799   1.332   3.037  16.781 -1.5928  0.9449  1.1052
  797MPD2    H111800   1.080   2.721  16.647  2.3768 -1.1332 -0.9051
  797MPD2    H211801   1.257   2.709  17.041  0.5974 -0.1808 -0.3958
  797MPD2    H311802   1.116   2.609  16.847 -0.9055  0.8689 -1.2653
  797MPD2     N11803   1.179   2.949  16.564  0.4239 -0.1381 -0.3080
  797MPD2    H511804   1.113   2.907  16.499  0.4808 -1.2529  0.3500
  797MPD2    N111805   1.383   2.949  16.998 -0.2854 -0.4391 -0.2014
  797MPD2    H711806   1.413   3.037  16.958  2.8284 -0.3827  2.1840
  798MPD2     C11807   1.812   3.204  16.487  0.4560  0.1336 -0.1608
  798MPD2    C111808   1.684   3.209  16.530 -0.6833 -1.0099 -0.0157
  798MPD2    C211809   1.659   3.205  16.667  0.4780  0.2195 -0.5519
  798MPD2    C311810   1.767   3.200  16.757  0.5388  0.0824 -0.2405
  798MPD2    C411811   1.896   3.215  16.715 -0.5620  0.6394  0.4081
  798MPD2    C511812   1.921   3.211  16.578  0.4170 -0.2011  0.0451
  798MPD2     H11813   1.559   3.195  16.707  1.0460 -0.8528  0.5884
  798MPD2    H111814   1.984   3.218  16.779 -1.9496 -0.2128  2.3549
  798MPD2    H211815   1.844   3.212  16.384  1.2487  1.2811  0.1751
  798MPD2    H311816   2.021   3.216  16.538  0.6330  1.4469  0.7994
  798MPD2     N11817   1.727   3.173  16.891 -0.1268 -0.5242 -0.1186
  798MPD2    H511818   1.628   3.154  16.903 -0.1795 -0.2554 -0.1256
  798MPD2    N111819   1.570   3.200  16.449 -0.5079 -0.0390 -0.0810
  798MPD2    H711820   1.483   3.200  16.501 -0.7401 -0.4272 -0.4670
  799MPD2     C11821   0.183   4.006  14.335  0.7011 -0.1500  0.4159
  799MPD2    C111822   0.111   3.924  14.249  0.4297 -0.7945  0.3678
  799MPD2    C211823   0.061   3.979  14.133 -0.8316 -0.3028 -0.0366
  799MPD2    C311824   0.094   4.115  14.096  0.0082 -0.1096 -0.3758
  799MPD2    C411825   0.170   4.189  14.189 -0.2880  0.3896 -0.2809
  799MPD2    C511826   0.206   4.132  14.311 -0.1873  0.1958 -0.5748
  799MPD2     H11827   4.732   3.918  14.074  0.6599 -0.6646 -1.3600
  799MPD2    H111828   0.204   4.291  14.174 -0.8887  0.6215 -0.0916
  799MPD2    H211829   0.220   3.976  14.432 -1.1536 -1.1147  0.8232
  799MPD2    H311830   0.259   4.193  14.382 -2.4806  0.7815  0.6335
  799MPD2     N11831   0.053   4.184  13.969  0.2826  0.0658  0.1797
  799MPD2    H511832   0.076   4.282  13.959 -1.0341  0.3334 -0.2132
  799MPD2    N111833   0.104   3.785  14.258 -0.2346  0.6214  0.5141
  799MPD2    H711834   0.055   3.730  14.189 -0.8660 -1.2184  2.4471
  800MPD2     C11835   0.355   0.483  14.305  0.4628  0.6099 -1.0217
  800MPD2    C111836   0.483   0.425  14.283  0.3233 -0.0186  0.2798
  800MPD2    C211837   0.498   0.348  14.171  0.5045 -0.2584 -0.3691
  800MPD2    C311838   0.389   0.312  14.099 -0.0504 -0.9179 -0.5785
  800MPD2    C411839   0.260   0.353  14.132 -0.5961  0.0205  0.2663
  800MPD2    C511840   0.245   0.435  14.237 -0.1249 -0.1025  0.0919
  800MPD2     H11841   0.596   0.315  14.140  0.2593 -0.2015 -1.2048
  800MPD2    H111842   0.165   0.335  14.082 -0.9614 -0.0293  0.9767
  800MPD2    H211843   0.337   0.559  14.379 -0.6013 -0.8779  0.2301
  800MPD2    H311844   0.150   0.477  14.268 -0.1398 -1.0097  1.2567
  800MPD2     N11845   0.412   0.250  13.973  0.3313  0.3009  0.3062
  800MPD2    H511846   0.508   0.243  13.941 -0.2768 -0.1857 -1.4147
  800MPD2    N111847   0.589   0.467  14.371 -0.4732  0.3155 -0.3242
  800MPD2    H711848   0.575   0.546  14.434  2.3623  0.2253  0.4461
  801MPD2     C11849   0.607   0.872  14.007  0.0752  0.5466 -0.1177
  801MPD2    C111850   0.583   0.791  14.117  0.2744 -0.2958  0.1968
  801MPD2    C211851   0.459   0.786  14.175 -0.2187 -0.6480  0.7638
  801MPD2    C311852   0.355   0.853  14.114 -0.1596 -0.2289  0.4051
  801MPD2    C411853   0.373   0.920  13.993  0.2800 -0.8375 -0.8863
  801MPD2    C511854   0.499   0.928  13.945  0.5847  0.2508  0.3726
  801MPD2     H11855   0.447   0.727  14.265  0.8079  0.3843  1.5825
  801MPD2    H111856   0.289   0.971  13.947  0.8112  1.0457  0.2365
  801MPD2    H211857   0.707   0.876  13.965 -0.0658  0.4161 -0.4642
  801MPD2    H311858   0.508   0.990  13.857  1.0902  0.1555  0.3599
  801MPD2     N11859   0.220   0.849  14.161 -0.6537 -0.7472  0.0800
  801MPD2    H511860   0.147   0.876  14.095 -0.2453  1.6358  0.6087
  801MPD2    N111861   0.684   0.717  14.182  0.2087  0.7705  0.1610
  801MPD2    H711862   0.653   0.638  14.238 -1.1625 -0.0891 -1.8269
  802MPD2     C11863   4.562   2.070  17.217  0.0153 -0.3364  0.1126
  802MPD2    C111864   4.465   2.038  17.314 -0.2549  0.1907  0.2923
  802MPD2    C211865   4.470   1.908  17.364 -0.8794 -0.4673  0.1592
  802MPD2    C311866   4.563   1.812  17.327  0.1843 -0.0796  0.0572
  802MPD2    C411867   4.662   1.847  17.242  0.0073  0.0150 -0.5730
  802MPD2    C511868   4.652   1.971  17.181 -0.1371  0.5987  0.2327
  802MPD2     H11869   4.395   1.880  17.438 -0.0204 -0.9025  0.8671
  802MPD2    H111870   4.737   1.771  17.223 -0.1166 -0.0118 -0.9610
  802MPD2    H211871   4.584   2.168  17.177 -1.0939 -0.1627 -0.0634
  802MPD2    H311872   4.736   2.000  17.120 -0.7778  1.3120 -0.3028
  802MPD2     N11873   4.541   1.687  17.384  0.5931 -0.7987 -0.9248
  802MPD2    H511874   4.461   1.683  17.445  2.7886 -0.8409  1.9460
  802MPD2    N111875   4.380   2.128  17.376  0.3817 -0.4299 -0.6814
  802MPD2    H711876   4.322   2.108  17.457 -0.2101 -1.4698 -1.3813
  803MPD2     C11877   0.754   4.191  12.280 -0.6366 -0.1064 -0.5129
  803MPD2    C111878   0.844   4.280  12.232 -0.5053 -0.4316 -0.4822
  803MPD2    C211879   0.969   4.276  12.293  0.4905 -0.1201  0.0792
  803MPD2    C311880   0.999   4.196  12.405  0.3970  0.2998  0.1563
  803MPD2    C411881   0.901   4.111  12.453 -0.2785  0.6328  0.8530
  803MPD2    C511882   0.778   4.102  12.385  1.2785  0.0755 -0.4114
  803MPD2     H11883   1.040   4.347  12.251 -1.9669  2.0565 -0.3959
  803MPD2    H111884   0.910   4.060  12.549  1.2668 -2.4117 -0.9177
  803MPD2    H211885   0.659   4.170  12.233 -0.8748 -0.1237 -0.0243
  803MPD2    H311886   0.698   4.042  12.426  0.9691 -0.0333 -1.1738
  803MPD2     N11887   1.123   4.214  12.467 -0.3628 -0.4937  1.0417
  803MPD2    H511888   1.155   4.141  12.530 -0.3278 -2.6051 -1.4285
  803MPD2    N111889   0.798   4.373  12.140  0.0962 -0.0495  0.0189
  803MPD2    H711890   0.867   4.444  12.113  0.0592  0.0701  0.2351
  804MPD2     C11891   0.501   1.425  16.890  0.8499 -1.3586 -1.0153
  804MPD2    C111892   0.636   1.418  16.911 -0.0711  0.8356  0.4352
  804MPD2    C211893   0.701   1.539  16.886 -0.0149 -0.5556  0.1917
  804MPD2    C311894   0.640   1.653  16.843 -0.2963  0.6027 -0.0203
  804MPD2    C411895   0.508   1.647  16.813  0.5165  0.4906  0.1787
  804MPD2    C511896   0.437   1.534  16.838 -0.3494  0.7624  0.3733
  804MPD2     H11897   0.807   1.533  16.910  0.4210 -1.5652 -1.9850
  804MPD2    H111898   0.465   1.739  16.776 -1.3846 -0.7446 -0.6590
  804MPD2    H211899   0.436   1.343  16.917  0.4734 -0.8628 -0.4094
  804MPD2    H311900   0.330   1.532  16.821 -0.3284 -0.0613  0.3401
  804MPD2     N11901   0.718   1.768  16.823 -0.3874  0.5306 -0.1185
  804MPD2    H511902   0.818   1.758  16.835 -0.3703 -0.3700 -0.9791
  804MPD2    N111903   0.699   1.309  16.985  0.2133  0.3906  0.0890
  804MPD2    H711904   0.784   1.340  17.030  1.6782 -1.1549 -1.5852
  805MPD2     C11905   4.677   3.888  15.518 -0.2548 -0.3215 -0.3042
  805MPD2    C111906   4.651   4.005  15.586  0.4573  0.3534 -0.2849
  805MPD2    C211907   0.009   4.058  15.674  0.1366  0.3041  0.0211
  805MPD2    C311908   0.127   3.991  15.692  0.1145 -0.4117 -0.1883
  805MPD2    C411909   0.152   3.870  15.619  0.3971  0.3888 -0.2424
  805MPD2    C511910   0.057   3.819  15.533  0.2625  0.3905  0.4673
  805MPD2     H11911   4.726   4.146  15.733 -1.0771 -1.7152  2.5966
  805MPD2    H111912   0.247   3.818  15.621  0.5205  0.6320  0.4356
  805MPD2    H211913   4.601   3.848  15.451  0.8644 -1.8170 -0.6789
  805MPD2    H311914   0.081   3.734  15.470 -1.2983  0.8874 -0.8049
  805MPD2     N11915   0.217   4.053  15.775 -0.4819 -0.5262 -0.8403
  805MPD2    H511916   0.191   4.142  15.818  0.3000 -0.4749 -0.4735
  805MPD2    N111917   4.524   4.069  15.571  0.2005  0.1397 -0.5606
  805MPD2    H711918   4.467   4.034  15.494  0.2164 -1.3690  0.1194
  806MPD2     C11919   0.398   3.909  17.749  0.8994  0.5067  0.1523
  806MPD2    C111920   0.407   4.031   0.058  0.5391  0.2734  0.3468
  806MPD2    C211921   0.455   4.134  17.738  0.7631  0.4106  0.2026
  806MPD2    C311922   0.483   4.132  17.601  0.7617 -0.1279 -0.3669
  806MPD2    C411923   0.473   4.011  17.539  0.9030  0.5174  0.3391
  806MPD2    C511924   0.432   3.902  17.616 -0.4466 -0.3804  0.5834
  806MPD2     H11925   0.453   4.233   0.031 -2.3900  1.6152 -2.6325
  806MPD2    H111926   0.495   3.992  17.434  2.1480  2.1385  0.3038
  806MPD2    H211927   0.377   3.816   0.050 -0.3712  1.2133  0.8987
  806MPD2    H311928   0.416   3.804  17.571  2.1387 -1.1132  1.2588
  806MPD2     N11929   0.532   4.243  17.536 -0.3215  0.4988 -0.5877
  806MPD2    H511930   0.555   4.323  17.594  0.5438 -0.1953  0.0278
  806MPD2    N111931   0.363   4.051   0.192 -0.1683  0.3764  0.6920
  806MPD2    H711932   0.317   3.969   0.231 -0.7677  0.3551 -0.0520
  807MPD2     C11933   0.089   3.592   0.725 -0.6726 -0.3304 -0.2035
  807MPD2    C111934   0.177   3.669   0.789  0.6211  0.0883  0.0454
  807MPD2    C211935   0.220   3.627   0.913  0.0511 -0.1662 -0.4828
  807MPD2    C311936   0.164   3.519   0.983 -0.3363 -0.8916  0.3277
  807MPD2    C411937   0.067   3.450   0.921 -0.1969 -0.3944  0.1746
  807MPD2    C511938   0.029   3.489   0.797  1.0925  1.2126 -0.2854
  807MPD2     H11939   0.288   3.688   0.972 -3.1525  0.9866  2.0808
  807MPD2    H111940   0.026   3.357   0.960  0.6709 -0.4923  0.8462
  807MPD2    H211941   0.044   3.630   0.634 -0.9143  1.9816  0.8956
  807MPD2    H311942   4.681   3.444   0.750  2.1428  0.2573 -1.2875
  807MPD2     N11943   0.200   3.494   1.117 -0.3977  0.0700  0.7302
  807MPD2    H511944   0.279   3.547   1.152 -0.4600  2.4269 -2.7512
  807MPD2    N111945   0.234   3.789   0.734 -0.5507 -0.0172 -0.2666
  807MPD2    H711946   0.297   3.845   0.791  1.4779  0.2933 -2.7946
  808MPD2     C11947   0.387   0.585  10.400  0.2451  0.1733  0.4926
  808MPD2    C111948   0.461   0.494  10.325 -0.1134 -0.2642 -0.8117
  808MPD2    C211949   0.599   0.504  10.321  0.1023  0.6970  0.1466
  808MPD2    C311950   0.667   0.612  10.381  0.0076  0.3819  0.6091
  808MPD2    C411951   0.589   0.695  10.469 -0.0853 -0.3729 -0.7754
  808MPD2    C511952   0.451   0.690  10.465 -0.5624  0.5830 -0.2937
  808MPD2     H11953   0.653   0.418  10.283 -2.6674 -1.4343  0.9922
  808MPD2    H111954   0.626   0.764  10.543 -0.0150 -1.5139  0.2576
  808MPD2    H211955   0.281   0.575  10.421  0.2964 -1.3234  0.0818
  808MPD2    H311956   0.384   0.740  10.534 -0.6929  0.0854 -0.0561
  808MPD2     N11957   0.809   0.632  10.373  0.8385 -0.4182 -0.3773
  808MPD2    H511958   0.851   0.696  10.439  2.1531  0.8667 -2.4340
  808MPD2    N111959   0.404   0.376  10.267  0.4097  0.5464  0.0091
  808MPD2    H711960   0.471   0.321  10.214 -1.4086 -0.2667 -1.4237
  809MPD2     C11961   1.343   0.028   9.854  0.7872 -0.0356  0.1460
  809MPD2    C111962   1.436   0.121   9.897 -0.2788  0.3539  0.0360
  809MPD2    C211963   1.401   0.221   9.989  0.3628 -0.4102  0.0163
  809MPD2    C311964   1.270   0.224  10.038  0.1496 -0.6124 -0.8774
  809MPD2    C411965   1.182   0.118  10.005  0.6381 -0.4799 -0.9799
  809MPD2    C511966   1.227   0.020   9.920  0.1795  0.3403 -0.5502
  809MPD2     H11967   1.464   0.309   9.993  0.3181 -0.3769 -0.0170
  809MPD2    H111968   1.093   0.095  10.063  1.5191 -0.7545  0.2829
  809MPD2    H211969   1.363   4.690   9.779  0.6160 -0.3800  0.4510
  809MPD2    H311970   1.163   4.671   9.913  1.0746 -0.2974 -0.6859
  809MPD2     N11971   1.237   0.314  10.144 -0.1945  0.7027  0.3153
  809MPD2    H511972   1.144   0.296  10.182  0.5481  0.0926  1.8549
  809MPD2    N111973   1.553   0.138   9.823  0.1610 -0.0640  1.1500
  809MPD2    H711974   1.593   0.231   9.821  2.3720 -1.0099  1.2833
  810MPD2     C11975   0.559   0.129  10.529 -0.7343  0.2724  1.1593
  810MPD2    C111976   0.457   0.120  10.615  0.4012  0.0431  0.2002
  810MPD2    C211977   0.434   0.228  10.695  0.1895  0.1886 -0.0138
  810MPD2    C311978   0.510   0.344  10.694 -0.1393 -0.5210 -0.5634
  810MPD2    C411979   0.619   0.353  10.607  0.4525  0.7503  0.0521
  810MPD2    C511980   0.633   0.246  10.512  0.6599 -0.3039  0.4392
  810MPD2     H11981   0.349   0.222  10.763 -0.5555  1.2935 -0.8460
  810MPD2    H111982   0.679   0.443  10.601 -0.8089  1.4917 -1.2678
  810MPD2    H211983   0.585   0.048  10.461 -0.0390  1.7222 -0.2867
  810MPD2    H311984   0.708   0.262  10.435 -1.2687  0.1783 -1.3601
  810MPD2     N11985   0.481   0.445  10.786 -0.2204 -0.9045 -0.8778
  810MPD2    H511986   0.400   0.427  10.845  1.0567  0.0343  1.1442
  810MPD2    N111987   0.381   0.004  10.615  0.0614  0.1567  0.2109
  810MPD2    H711988   0.410   4.682  10.539 -4.8190 -1.4487 -0.3355
  811MPD2     C11989   4.380   4.564  10.335  0.2821  0.0330 -0.3476
  811MPD2    C111990   4.509   4.616  10.368 -0.3417  0.3011 -0.1034
  811MPD2    C211991   4.535   0.014  10.364 -0.4710  0.1140 -0.3380
  811MPD2    C311992   4.430   0.103  10.326 -0.0004  0.5214 -0.1011
  811MPD2    C411993   4.310   0.052  10.285 -0.1445 -0.3978  0.4473
  811MPD2    C511994   4.287   4.656  10.291 -0.0959 -0.6612  0.2451
  811MPD2     H11995   4.631   0.052  10.396 -0.2289  1.9624 -3.3551
  811MPD2    H111996   4.227   0.111  10.250 -1.0439 -2.0622 -0.2242
  811MPD2    H211997   4.352   4.460  10.341  3.0249 -0.6990 -0.4494
  811MPD2    H311998   4.187   4.625  10.263 -0.5506  1.6650 -0.7074
  811MPD2     N11999   4.457   0.240  10.326  0.1625  0.3857  0.3468
  811MPD2    H512000   4.555   0.262  10.342  0.8313 -1.7310 -0.7832
  811MPD2    N112001   4.611   4.535  10.412 -0.3357 -0.2430 -0.6938
  811MPD2    H712002   4.590   4.445  10.456  2.4042 -0.4206  0.2255
  812MPD2     C12003   3.490   4.151  12.515  1.2564 -0.4341 -0.2045
  812MPD2    C112004   3.598   4.233  12.503  0.2077 -0.5634  0.1201
  812MPD2    C212005   3.694   4.225  12.605 -0.8733 -0.1504  0.0193
  812MPD2    C312006   3.686   4.128  12.709  0.5402  0.2534  0.1436
  812MPD2    C412007   3.578   4.042  12.703 -0.1380  0.3748 -0.3740
  812MPD2    C512008   3.483   4.056  12.610 -0.0752  0.8208  0.5991
  812MPD2     H12009   3.788   4.280  12.600 -0.3901 -1.1092 -1.4497
  812MPD2    H112010   3.559   3.971  12.783  0.5668  0.4336 -0.1454
  812MPD2    H212011   3.403   4.157  12.449 -0.1859  0.2316  1.7531
  812MPD2    H312012   3.389   4.004  12.622 -1.3041  2.1931 -3.2937
  812MPD2     N12013   3.769   4.133  12.814 -0.0416  0.0631 -0.3612
  812MPD2    H512014   3.840   4.206  12.813 -0.1912  0.2123 -0.1910
  812MPD2    N112015   3.602   4.317  12.389 -0.1698  0.0963  0.0625
  812MPD2    H712016   3.539   4.288  12.314  1.6059  1.5950 -2.0148
  813MPD2     C12017   2.880   1.027  12.729 -0.5686 -0.1466  0.4605
  813MPD2    C112018   2.909   1.152  12.781  0.4190 -0.0945 -0.2784
  813MPD2    C212019   2.864   1.182  12.909 -0.4687 -0.7081  0.1582
  813MPD2    C312020   2.771   1.106  12.970 -0.3226 -0.4051 -0.5833
  813MPD2    C412021   2.745   0.983  12.919  0.1013 -0.0012  0.0473
  813MPD2    C512022   2.803   0.939  12.800  0.8147  0.2958  0.2781
  813MPD2     H12023   2.905   1.272  12.955 -1.7415 -0.4093  0.7068
  813MPD2    H112024   2.673   0.918  12.966  1.3562 -0.4848  1.3077
  813MPD2    H212025   2.915   0.991  12.633 -0.4184 -0.0294  0.4720
  813MPD2    H312026   2.774   0.840  12.769  0.1756  0.7828 -0.6879
  813MPD2     N12027   2.708   1.148  13.092 -0.0524 -0.9424 -0.0097
  813MPD2    H512028   2.733   1.243  13.117  0.7438 -0.6150 -2.0262
  813MPD2    N112029   2.999   1.229  12.714  0.1595  0.3761  0.0629
  813MPD2    H712030   3.046   1.181  12.638 -2.3677 -1.6386 -0.2191
  814MPD2     C12031   3.156   2.967  12.377  0.5135  0.2369  0.2777
  814MPD2    C112032   3.275   2.970  12.314 -0.2388 -0.5933  0.1309
  814MPD2    C212033   3.368   3.071  12.352 -0.1385  0.0395  0.0433
  814MPD2    C312034   3.341   3.163  12.458  0.0680  0.1891 -0.5596
  814MPD2    C412035   3.225   3.137  12.525 -0.1179 -0.3462  0.0338
  814MPD2    C512036   3.138   3.041  12.483  0.1114  0.4267 -0.2294
  814MPD2     H12037   3.457   3.079  12.290 -0.5655 -1.2757 -0.7403
  814MPD2    H112038   3.202   3.199  12.611 -0.6970  1.7955 -1.6851
  814MPD2    H212039   3.072   2.907  12.343  0.3519  0.8045 -0.3192
  814MPD2    H312040   3.041   3.030  12.530  1.0634  1.0368  1.8886
  814MPD2     N12041   3.432   3.255  12.505  0.5315 -0.2035  0.1345
  814MPD2    H512042   3.413   3.292  12.597 -0.3834 -1.1474  0.3163
  814MPD2    N112043   3.309   2.890  12.199 -0.5877  0.9733 -0.3334
  814MPD2    H712044   3.394   2.916  12.149 -2.1158 -1.9966 -4.4918
  815MPD2     C12045   3.951   0.990  12.111 -0.4170  0.0585  0.5642
  815MPD2    C112046   3.880   1.001  11.994  0.5170  0.3548 -0.2920
  815MPD2    C212047   3.743   0.975  12.008  0.1924  0.6157  0.1974
  815MPD2    C312048   3.684   0.944  12.121 -0.1165  0.0777 -0.5567
  815MPD2    C412049   3.760   0.938  12.239 -0.9087 -0.2036  0.0292
  815MPD2    C512050   3.889   0.965  12.231  0.2646  0.2446 -0.5611
  815MPD2     H12051   3.691   0.979  11.912 -0.5406 -0.8934  0.5293
  815MPD2    H112052   3.720   0.911  12.336 -1.0431 -0.4942 -0.1071
  815MPD2    H212053   4.055   1.019  12.120 -0.7284  2.3545 -3.3135
  815MPD2    H312054   3.942   0.973  12.325  0.3723  0.1413 -0.6129
  815MPD2     N12055   3.549   0.918  12.114 -0.1024  0.4973  0.0734
  815MPD2    H512056   3.502   0.930  12.025  2.0393 -2.8898 -1.4905
  815MPD2    N112057   3.948   1.043  11.876 -0.0930  0.2865 -0.7520
  815MPD2    H712058   4.050   1.049  11.880 -0.3543  2.5062  2.9396
  816MPD2     C12059   3.672   1.052  17.481  0.2368  0.4242  0.0826
  816MPD2    C112060   3.663   0.950  17.390  0.7493 -0.1108 -0.5501
  816MPD2    C212061   3.772   0.886  17.344 -0.7355 -0.5309  0.0711
  816MPD2    C312062   3.894   0.912  17.403  0.7154  0.3501 -0.4662
  816MPD2    C412063   3.905   1.014  17.492  0.1727 -0.5429  0.1300
  816MPD2    C512064   3.796   1.090  17.524 -0.2472 -0.2613 -1.2539
  816MPD2     H12065   3.759   0.805  17.273 -1.9611 -0.6856  0.4652
  816MPD2    H112066   3.993   1.060  17.535  0.5569 -1.4401  0.2935
  816MPD2    H212067   3.586   1.111  17.510  0.0489 -0.2644  0.9355
  816MPD2    H312068   3.806   1.177  17.588  0.7247 -0.7557 -0.7297
  816MPD2     N12069   4.007   0.845  17.356 -0.2126  0.0833 -0.2143
  816MPD2    H512070   3.994   0.794  17.269 -2.4783  1.1009 -0.4563
  816MPD2    N112071   3.535   0.923  17.340  0.6854 -0.8886  0.0410
  816MPD2    H712072   3.459   0.983  17.373  0.7638  0.7660 -2.7999
  817MPD2     C12073   3.477   2.629   9.746  0.3004  0.0795  0.2263
  817MPD2    C112074   3.483   2.561   9.631 -0.4884  0.2127  0.1789
  817MPD2    C212075   3.424   2.614   9.517 -0.2073 -0.0366  0.0415
  817MPD2    C312076   3.374   2.741   9.518  0.2186  0.4238 -0.1795
  817MPD2    C412077   3.374   2.806   9.641 -0.9094 -0.1428 -0.1415
  817MPD2    C512078   3.427   2.754   9.752 -0.2382 -0.7376 -0.1861
  817MPD2     H12079   3.437   2.557   9.426 -0.5819  1.1749 -0.7743
  817MPD2    H112080   3.322   2.901   9.652 -2.1680 -0.9467  0.8377
  817MPD2    H212081   3.503   2.596   9.846 -1.1911 -0.9538  0.2772
  817MPD2    H312082   3.413   2.806   9.846  0.6666 -0.3029 -0.2865
  817MPD2     N12083   3.313   2.793   9.396 -0.1042  0.1664  0.0534
  817MPD2    H512084   3.318   2.731   9.315 -2.8648 -1.4189  1.0808
  817MPD2    N112085   3.556   2.447   9.618 -0.5700  0.2808  0.1764
  817MPD2    H712086   3.558   2.398   9.529  0.1341 -1.6846  1.2815
  818MPD2     C12087   2.406   2.611   9.875 -0.0571 -0.5436  0.1906
  818MPD2    C112088   2.431   2.487   9.940  0.0306 -0.2852 -0.3284
  818MPD2    C212089   2.519   2.397   9.883 -0.6586 -0.1477 -0.2135
  818MPD2    C312090   2.588   2.436   9.767 -0.1822 -0.4248 -0.3164
  818MPD2    C412091   2.568   2.559   9.709 -0.0113 -0.0266  0.3297
  818MPD2    C512092   2.475   2.639   9.763 -0.5550 -0.2483 -0.4642
  818MPD2     H12093   2.516   2.296   9.922 -0.0732 -0.3939 -0.7924
  818MPD2    H112094   2.617   2.594   9.619  1.4651  1.4513  1.7167
  818MPD2    H212095   2.331   2.683   9.908  2.6525  2.7130 -0.6923
  818MPD2    H312096   2.459   2.731   9.708  0.4577  2.0116  3.0299
  818MPD2     N12097   2.671   2.353   9.690 -0.1642  0.1190 -0.0955
  818MPD2    H512098   2.712   2.368   9.598  1.3745  0.4685  0.6473
  818MPD2    N112099   2.378   2.451  10.059  0.1753 -0.0485  0.3111
  818MPD2    H712100   2.411   2.372  10.114 -0.3017 -0.2792  0.2598
  819MPD2     C12101   0.580   4.282  15.571  0.1284  0.3041 -0.1897
  819MPD2    C112102   0.541   4.163  15.513  0.4049  0.0300  0.0109
  819MPD2    C212103   0.614   4.048  15.550  0.7536  0.2510 -0.2266
  819MPD2    C312104   0.713   4.047  15.650 -0.3970  0.4103  0.4442
  819MPD2    C412105   0.751   4.177  15.707 -0.4810 -0.2988 -0.1202
  819MPD2    C512106   0.684   4.294  15.663  0.0152 -0.7557 -0.4423
  819MPD2     H12107   0.589   3.953  15.503  0.8250 -0.6635  1.5695
  819MPD2    H112108   0.825   4.183  15.786 -1.0981 -2.9734  0.6575
  819MPD2    H212109   0.523   4.372  15.549 -1.0952 -0.7058 -1.1915
  819MPD2    H312110   0.701   4.391  15.707  0.4063 -0.1569 -1.9060
  819MPD2     N12111   0.764   3.920  15.704 -0.2084 -0.0443  0.3335
  819MPD2    H512112   0.724   3.837  15.661  1.9775 -0.3242 -1.1809
  819MPD2    N112113   0.408   4.163  15.449  0.1574 -0.4802  0.9129
  819MPD2    H712114   0.361   4.253  15.441 -1.0242 -1.1988 -0.2178
  820MPD2     C12115   4.290   4.578  15.135  0.3533 -0.1711 -0.6766
  820MPD2    C112116   4.334   4.550  15.263 -0.0850  0.2558 -0.5435
  820MPD2    C212117   4.446   4.469  15.291  0.0781  0.3905  0.1005
  820MPD2    C312118   4.501   4.401  15.177  0.3638 -0.7573 -0.4728
  820MPD2    C412119   4.451   4.428  15.049  0.4062 -0.1864 -0.1765
  820MPD2    C512120   4.347   4.514  15.026  0.4246  0.0012 -0.2746
  820MPD2     H12121   4.491   4.454  15.388 -2.1453  0.0563  1.1014
  820MPD2    H112122   4.492   4.371  14.966 -2.6000 -1.1224 -1.0476
  820MPD2    H212123   4.206   4.640  15.108  0.9353  0.9273  0.0386
  820MPD2    H312124   4.314   4.532  14.924 -0.1288 -1.5452 -0.3751
  820MPD2     N12125   4.601   4.310  15.190  0.1966  0.5175  0.3095
  820MPD2    H512126   4.633   4.256  15.110 -3.5777 -2.7196  0.9676
  820MPD2    N112127   4.261   4.617  15.371  0.0329  0.5603  0.5504
  820MPD2    H712128   4.205   4.700  15.353  0.6155  0.9661  0.5981
  821MPD2     C12129   0.687   0.471  13.336  0.3519 -0.6214  0.0139
  821MPD2    C112130   0.729   0.356  13.400 -0.6857  0.3924  0.3277
  821MPD2    C212131   0.862   0.323  13.401  0.2011  0.1805  0.5765
  821MPD2    C312132   0.955   0.413  13.338 -0.1735 -0.4056  0.3223
  821MPD2    C412133   0.906   0.527  13.278 -0.4622  0.2335 -0.1471
  821MPD2    C512134   0.776   0.559  13.280 -0.3286  0.0477 -0.5097
  821MPD2     H12135   0.897   0.227  13.436  0.5814  0.4779  1.0167
  821MPD2    H112136   0.976   0.597  13.234  1.0917 -2.3591 -1.7811
  821MPD2    H212137   0.581   0.490  13.328  0.4674  0.2080  0.4662
  821MPD2    H312138   0.735   0.641  13.222 -0.1256 -0.5435 -1.4843
  821MPD2     N12139   1.100   0.399  13.346 -0.4458 -1.1896  0.1385
  821MPD2    H512140   1.153   0.473  13.301 -0.9413  0.2588  1.9556
  821MPD2    N112141   0.637   0.268  13.459  0.3320  0.2810  0.4450
  821MPD2    H712142   0.663   0.179  13.501  0.4707  0.9856  1.8492
  822MPD2     C12143   1.684   0.474  15.777 -0.0595 -0.6000 -0.3609
  822MPD2    C112144   1.675   0.513  15.909 -0.3314  0.1682  0.3817
  822MPD2    C212145   1.598   0.621  15.946 -0.1023  0.1891 -0.4268
  822MPD2    C312146   1.517   0.680  15.857 -1.1766 -0.0798  0.1152
  822MPD2    C412147   1.514   0.624  15.732 -0.1662  0.2510  0.3399
  822MPD2    C512148   1.607   0.536  15.687  0.6505 -0.4088  0.3166
  822MPD2     H12149   1.600   0.654  16.049 -0.0945 -0.2502 -0.2863
  822MPD2    H112150   1.436   0.650  15.662  1.2337  0.9825 -0.9677
  822MPD2    H212151   1.743   0.389  15.747 -0.9082 -1.0510 -0.7645
  822MPD2    H312152   1.597   0.496  15.587 -2.0866  0.5664  0.2084
  822MPD2     N12153   1.418   0.770  15.902  1.2462  0.8986 -0.6067
  822MPD2    H512154   1.411   0.792  16.000 -0.2830  1.0713 -0.7625
  822MPD2    N112155   1.742   0.446  16.016  0.2383  0.3277  0.0453
  822MPD2    H712156   1.729   0.500  16.101  0.7717 -1.5828  1.3453
  823MPD2     C12157   1.026   1.180  16.525 -0.4383 -0.1451 -0.9237
  823MPD2    C112158   1.070   1.066  16.460  0.5359 -0.5535  0.3050
  823MPD2    C212159   1.103   0.961  16.544  0.0904 -0.0435  0.5374
  823MPD2    C312160   1.108   0.967  16.687 -0.9273  0.5484  0.4445
  823MPD2    C412161   1.055   1.084  16.748  0.3274 -0.3554  0.1832
  823MPD2    C512162   1.007   1.185  16.664  0.2588 -0.0174 -0.2916
  823MPD2     H12163   1.134   0.871  16.492  0.2400 -0.6072  1.5975
  823MPD2    H112164   1.062   1.105  16.854  0.8882 -0.8780  0.2530
  823MPD2    H212165   0.998   1.272  16.475  0.9795  0.6389 -0.2857
  823MPD2    H312166   0.970   1.278  16.706  1.8774  0.9685 -1.0107
  823MPD2     N12167   1.166   0.859  16.761  0.5279 -0.0607 -0.7175
  823MPD2    H512168   1.150   0.853  16.861  0.6365  0.4465 -0.6656
  823MPD2    N112169   1.082   1.068  16.321  0.3607  0.0475 -0.0529
  823MPD2    H712170   1.073   1.158  16.274 -1.8975 -0.3507 -0.3744
  824MPD2     C12171   2.222   4.515  16.203 -0.1264 -0.5249  0.2771
  824MPD2    C112172   2.222   4.606  16.104 -0.2510  0.3992 -0.3895
  824MPD2    C212173   2.287   4.576  15.985  0.1095 -0.1566  0.5482
  824MPD2    C312174   2.321   4.444  15.956 -0.7394 -0.1188  0.5138
  824MPD2    C412175   2.309   4.348  16.060 -0.8955  0.9725  0.8866
  824MPD2    C512176   2.269   4.387  16.184  0.0634  0.3520 -0.4163
  824MPD2     H12177   2.303   4.647  15.904 -0.2818  0.5255  1.0656
  824MPD2    H112178   2.345   4.246  16.056 -0.6824  1.1700 -2.3285
  824MPD2    H212179   2.177   4.526  16.301 -1.8178 -1.3377 -0.4120
  824MPD2    H312180   2.256   4.307  16.256 -1.1694  2.3091  1.5110
  824MPD2     N12181   2.366   4.407  15.831 -0.1399  0.2455 -0.4218
  824MPD2    H512182   2.365   4.478  15.759  1.0688  0.5414 -0.1493
  824MPD2    N112183   2.161   4.730  16.122 -0.0162  0.0138  0.6007
  824MPD2    H712184   2.147   0.044  16.036 -1.3483 -0.8157  0.3244
  825MPD2     C12185   2.707   4.537  15.068 -0.8495  0.2263  1.1109
  825MPD2    C112186   2.666   4.568  15.195  0.3684 -0.2689  0.4276
  825MPD2    C212187   2.661   4.703  15.238 -0.1184 -0.2097  0.1203
  825MPD2    C312188   2.705   0.063  15.150  0.3497 -0.1137  0.1058
  825MPD2    C412189   2.742   0.031  15.020 -0.1786  0.1066 -0.6695
  825MPD2    C512190   2.745   4.638  14.978  0.1069 -0.6513  0.1724
  825MPD2     H12191   2.620   4.731  15.334  0.4016 -1.4959  0.7050
  825MPD2    H112192   2.764   0.107  14.947  0.9130  2.6799  2.3167
  825MPD2    H212193   2.729   4.439  15.028  1.9279  0.8614  1.1198
  825MPD2    H312194   2.784   4.604  14.883  1.7210  0.0073  0.6033
  825MPD2     N12195   2.694   0.200  15.181  0.0348 -0.1433 -0.1621
  825MPD2    H512196   2.717   0.265  15.106  0.8124  0.8929  0.9857
  825MPD2    N112197   2.644   4.462  15.285  0.1065  0.3256 -0.2014
  825MPD2    H712198   2.647   4.371  15.241  0.9417  0.1906  0.1335
  826MPD2     C12199   1.966   3.730  13.971 -0.5374 -0.1266  0.3029
  826MPD2    C112200   2.068   3.816  13.987 -0.4602  0.1615  0.3223
  826MPD2    C212201   2.058   3.934  14.065 -0.1628 -0.0573 -0.2818
  826MPD2    C312202   1.937   3.962  14.126  0.4398 -0.4444  0.1736
  826MPD2    C412203   1.826   3.877  14.103  0.4133  0.4189  0.5553
  826MPD2    C512204   1.843   3.767  14.020  0.0943  0.5346 -0.3861
  826MPD2     H12205   2.140   4.004  14.075 -0.2024 -0.0769  0.1646
  826MPD2    H112206   1.730   3.904  14.146  0.9797  1.0169  1.4151
  826MPD2    H212207   1.977   3.641  13.910 -2.0635 -0.0805 -0.0430
  826MPD2    H312208   1.755   3.711  13.989  0.7038 -2.3866  3.1412
  826MPD2     N12209   1.915   4.080  14.201 -0.5799  0.1120 -0.5354
  826MPD2    H512210   1.822   4.110  14.229 -0.8346  0.3117 -1.5660
  826MPD2    N112211   2.184   3.784  13.929  0.0185 -0.4546  0.1390
  826MPD2    H712212   2.196   3.689  13.894 -0.2518 -1.1556  1.9543
  827MPD2     C12213   3.013   1.305   9.986 -0.2162  0.4674 -0.5401
  827MPD2    C112214   2.968   1.201  10.064 -0.8560 -0.6047  0.6242
  827MPD2    C212215   2.896   1.100  10.014 -0.0211  0.3911  0.2117
  827MPD2    C312216   2.853   1.115   9.880  0.1321  0.0331 -0.4800
  827MPD2    C412217   2.873   1.231   9.810  0.5603  0.0648 -0.3200
  827MPD2    C512218   2.955   1.330   9.865  0.0022 -0.1462  0.7873
  827MPD2     H12219   2.894   1.003  10.062 -2.9574  0.4500  0.2184
  827MPD2    H112220   2.855   1.250   9.705 -1.6490  2.5774  0.4908
  827MPD2    H212221   3.083   1.374  10.032  1.3077 -0.5149 -1.3995
  827MPD2    H312222   2.994   1.408   9.800 -1.8974  1.7730  1.9406
  827MPD2     N12223   2.787   1.005   9.825 -0.4834  0.4879  0.0267
  827MPD2    H512224   2.778   0.923   9.885 -0.5976 -1.6969 -3.0016
  827MPD2    N112225   3.026   1.179  10.191  0.4059 -0.2912  0.1154
  827MPD2    H712226   3.097   1.246  10.220  2.1721 -2.7840  1.5942
  828MPD2     C12227   1.424   0.802  12.629 -0.3858 -0.0628  0.1711
  828MPD2    C112228   1.375   0.890  12.536  0.2125  0.1603  0.5865
  828MPD2    C212229   1.419   0.886  12.410  0.5225  0.2946  0.7183
  828MPD2    C312230   1.496   0.780  12.351  0.3669 -0.6468  0.9769
  828MPD2    C412231   1.554   0.689  12.440  0.3852  0.0496  0.6201
  828MPD2    C512232   1.510   0.695  12.580 -0.1603  0.1610  0.1398
  828MPD2     H12233   1.402   0.972  12.346 -0.6590 -1.1044 -0.8406
  828MPD2    H112234   1.617   0.606  12.409 -1.5340 -1.0417 -0.3743
  828MPD2    H212235   1.387   0.789  12.730 -0.7404  0.6006  0.1234
  828MPD2    H312236   1.556   0.625  12.650  0.3883  0.5866  0.2044
  828MPD2     N12237   1.507   0.763  12.212  0.2351 -0.0730  0.0961
  828MPD2    H512238   1.567   0.690  12.176 -1.5130 -3.1098  3.2957
  828MPD2    N112239   1.281   0.988  12.562  0.3255  0.1884 -0.4207
  828MPD2    H712240   1.245   1.032  12.478  0.9665 -2.1608 -1.9147
  829MPD2     C12241   0.990   1.495  11.968 -0.3082 -0.5885  0.2373
  829MPD2    C112242   0.898   1.502  12.064  0.3415 -0.5907 -0.2510
  829MPD2    C212243   0.927   1.449  12.189  0.2148  0.1641 -0.3909
  829MPD2    C312244   1.061   1.410  12.221  0.2207 -0.0140  0.3180
  829MPD2    C412245   1.154   1.410  12.122  0.7346 -0.4565  0.4816
  829MPD2    C512246   1.118   1.457  11.999 -0.1997  0.8860  0.7969
  829MPD2     H12247   0.849   1.445  12.264  1.1884  2.3465  0.7430
  829MPD2    H112248   1.255   1.372  12.133  1.7300  1.0716 -3.0672
  829MPD2    H212249   0.972   1.532  11.868  0.8338 -2.6810 -0.7473
  829MPD2    H312250   1.195   1.465  11.923 -1.5915  2.9315 -0.4017
  829MPD2     N12251   1.095   1.371  12.359  0.5160  0.2890  0.0046
  829MPD2    H512252   1.174   1.308  12.368 -1.0517 -1.7398 -0.4143
  829MPD2    N112253   0.768   1.528  12.020  0.5276  0.5856 -1.0023
  829MPD2    H712254   0.747   1.539  11.922 -2.5451  1.1111 -0.2899
  830MPD2     C12255   0.685   3.426  15.335 -0.8883  0.4772  0.0899
  830MPD2    C112256   0.796   3.441  15.421  0.0039 -0.5022 -0.1854
  830MPD2    C212257   0.927   3.437  15.372  0.0087  0.5140 -0.2306
  830MPD2    C312258   0.945   3.434  15.237  0.0360 -0.0471 -0.3801
  830MPD2    C412259   0.835   3.415  15.152  0.2686  0.5184 -0.0717
  830MPD2    C512260   0.712   3.402  15.201 -0.1051  0.2263 -0.6740
  830MPD2     H12261   1.012   3.437  15.439 -0.8716 -0.8351  0.8979
  830MPD2    H112262   0.838   3.420  15.044 -1.8299 -1.2144 -0.1958
  830MPD2    H212263   0.585   3.415  15.376 -0.3709 -0.9375  0.9553
  830MPD2    H312264   0.628   3.395  15.133  0.0903 -0.3950 -0.8580
  830MPD2     N12265   1.071   3.450  15.180 -0.2926  0.1855 -0.4984
  830MPD2    H512266   1.071   3.444  15.078 -0.3491 -0.5914 -0.4534
  830MPD2    N112267   0.768   3.456  15.564 -0.4276  0.0301  0.0299
  830MPD2    H712268   0.671   3.445  15.594  0.5131 -1.1272  2.6273
  831MPD2     C12269   1.603   1.066  16.279  0.3481  0.3810  0.0529
  831MPD2    C112270   1.665   0.951  16.243  0.5276 -0.6161 -0.2154
  831MPD2    C212271   1.605   0.830  16.256  0.1687 -0.0222  0.4156
  831MPD2    C312272   1.477   0.817  16.312 -0.4572 -0.4771  0.1983
  831MPD2    C412273   1.418   0.936  16.346  0.4807 -0.0954  0.3760
  831MPD2    C512274   1.480   1.057  16.341 -0.1054  0.3704  0.0160
  831MPD2     H12275   1.665   0.744  16.229 -0.3197  0.2954 -1.6920
  831MPD2    H112276   1.314   0.938  16.378  0.4247  1.1729  0.1172
  831MPD2    H212277   1.646   1.163  16.257  0.9792 -0.0795 -0.7497
  831MPD2    H312278   1.432   1.149  16.371 -0.1509  0.4041 -0.1627
  831MPD2     N12279   1.394   0.701  16.329  0.5126 -0.1306  0.6029
  831MPD2    H512280   1.307   0.731  16.373  1.1908  1.7505  0.6736
  831MPD2    N112281   1.781   0.965  16.157 -0.0522  0.4438  0.4090
  831MPD2    H712282   1.806   1.050  16.107  0.4925  0.5763  0.9016
  832MPD2     C12283   4.568   1.373  16.979  0.5205 -0.2034 -0.3573
  832MPD2    C112284   4.557   1.493  16.915 -0.1146  0.0950  0.1004
  832MPD2    C212285   4.432   1.530  16.867 -0.0519 -0.4424 -0.0206
  832MPD2    C312286   4.318   1.451  16.858  0.3093 -0.2062 -0.0004
  832MPD2    C412287   4.336   1.329  16.905 -0.0748 -0.7240 -0.1889
  832MPD2    C512288   4.450   1.297  16.980  0.6859  0.2116 -0.6574
  832MPD2     H12289   4.410   1.633  16.843 -0.6207 -0.4084  0.6408
  832MPD2    H112290   4.255   1.258  16.891 -0.9561  0.4469 -1.0560
  832MPD2    H212291   4.654   1.340  17.036  1.0847  1.9374  0.0072
  832MPD2    H312292   4.452   1.202  17.031 -1.6000  0.5056 -0.0566
  832MPD2     N12293   4.200   1.481  16.794  1.4248  0.3009  0.2448
  832MPD2    H512294   4.117   1.423  16.803  0.5399  1.2890 -1.4497
  832MPD2    N112295   4.674   1.569  16.921  0.7332  0.2787 -0.7129
  832MPD2    H712296   0.025   1.526  16.942  0.1328 -1.2078 -1.2232
  833MPD2     C12297   1.659   3.137  12.758  0.2228  0.8956 -0.0211
  833MPD2    C112298   1.709   3.227  12.662 -0.8523  0.5217  0.2056
  833MPD2    C212299   1.830   3.207  12.604  0.0786  0.2005  0.5375
  833MPD2    C312300   1.903   3.092  12.632  0.4317  0.3080 -0.1162
  833MPD2    C412301   1.856   3.009  12.724  0.1579 -0.3975 -0.1829
  833MPD2    C512302   1.736   3.029  12.788  0.4294  0.6980 -0.9875
  833MPD2     H12303   1.864   3.266  12.520 -3.3647 -0.7971 -1.5763
  833MPD2    H112304   1.909   2.922  12.761  1.9750  0.4852 -0.6825
  833MPD2    H212305   1.562   3.169  12.794  0.1705  0.1642  0.5050
  833MPD2    H312306   1.708   2.959  12.867 -0.1266  2.4397  0.3502
  833MPD2     N12307   2.031   3.070  12.570 -0.5687  0.2994 -0.0772
  833MPD2    H512308   2.080   2.987  12.605 -0.3096  0.9130  1.0206
  833MPD2    N112309   1.628   3.342  12.649  0.0677  0.6195 -0.0083
  833MPD2    H712310   1.542   3.352  12.702 -1.5447 -1.5736 -2.2093
  834MPD2     C12311   1.678   2.535  11.943 -0.8713 -0.4674 -0.0605
  834MPD2    C112312   1.793   2.563  11.870  0.9422 -0.4370 -0.8577
  834MPD2    C212313   1.894   2.638  11.926 -0.5218 -0.0687  0.0898
  834MPD2    C312314   1.885   2.688  12.055  0.7526 -0.2751 -0.2361
  834MPD2    C412315   1.775   2.665  12.128  0.5403  1.3127 -0.5530
  834MPD2    C512316   1.676   2.590  12.072  0.4301 -0.1965 -0.9273
  834MPD2     H12317   1.984   2.657  11.869 -0.1057 -1.5954  0.2342
  834MPD2    H112318   1.744   2.715  12.219 -2.1106 -0.8008 -0.3031
  834MPD2    H212319   1.601   2.470  11.905 -1.7807  0.3445  0.3662
  834MPD2    H312320   1.587   2.568  12.130  0.4902  0.9725 -0.3980
  834MPD2     N12321   1.995   2.770  12.099  0.4835  0.2791  1.0256
  834MPD2    H512322   2.061   2.797  12.026  0.1666 -0.6409  0.3919
  834MPD2    N112323   1.797   2.505  11.739 -0.1230 -0.0655  0.2011
  834MPD2    H712324   1.718   2.453  11.702 -0.1067 -0.5100  0.7927
  835MPD2     C12325   2.425   1.004  11.080 -0.7121  0.4342  0.1517
  835MPD2    C112326   2.297   0.955  11.092 -0.6737 -0.2294 -0.6456
  835MPD2    C212327   2.264   0.889  11.209  0.4635 -0.1542  0.5364
  835MPD2    C312328   2.366   0.874  11.304  0.9167 -0.4911 -0.4095
  835MPD2    C412329   2.494   0.922  11.287  0.4599  0.5633  0.2811
  835MPD2    C512330   2.524   0.982  11.174 -0.5543 -0.1649 -0.5227
  835MPD2     H12331   2.165   0.847  11.221  0.2400  0.1111 -0.3610
  835MPD2    H112332   2.558   0.926  11.375  0.2721  1.7619  0.3618
  835MPD2    H212333   2.445   1.068  10.994  3.2519  1.6292  1.9894
  835MPD2    H312334   2.624   1.020  11.158 -0.9052  0.6535 -0.7729
  835MPD2     N12335   2.335   0.814  11.431 -0.1437  0.1912 -0.0823
  835MPD2    H512336   2.412   0.809  11.497  1.5558 -0.5081 -2.0950
  835MPD2    N112337   2.197   0.978  10.989 -0.2208 -0.6172 -0.0968
  835MPD2    H712338   2.109   0.932  11.009 -0.2635 -0.6669 -0.3997
  836MPD2     C12339   1.784   1.021  11.861  0.4096 -0.5636  0.5890
  836MPD2    C112340   1.865   0.956  11.945  0.6965  0.0873  0.0321
  836MPD2    C212341   1.864   0.978  12.081 -0.0882  0.0743 -0.2909
  836MPD2    C312342   1.759   1.047  12.135  0.5793 -0.2806  0.0460
  836MPD2    C412343   1.667   1.114  12.045  0.2762 -0.4905 -0.5276
  836MPD2    C512344   1.680   1.091  11.913 -0.1246 -0.0898  0.1965
  836MPD2     H12345   1.920   0.913  12.148 -0.3333 -0.6206 -0.7704
  836MPD2    H112346   1.581   1.171  12.078  1.5584  1.7335 -1.0373
  836MPD2    H212347   1.791   0.993  11.756 -1.7555 -1.3330  0.6467
  836MPD2    H312348   1.596   1.132  11.858  1.6487  1.3544 -1.4109
  836MPD2     N12349   1.740   1.064  12.275  0.2352 -0.5420 -0.3752
  836MPD2    H512350   1.658   1.119  12.302 -0.1892 -1.2285 -0.2666
  836MPD2    N112351   1.964   0.882  11.884 -0.3305 -0.5170  0.2440
  836MPD2    H712352   1.973   0.896  11.784 -2.2203 -0.1612  0.1309
  837MPD2     C12353   0.264   0.759  10.093  0.3460 -0.2077  0.6646
  837MPD2    C112354   0.136   0.828  10.118  0.3464  0.3880  0.3737
  837MPD2    C212355   0.129   0.966  10.106  0.6711 -0.3483  0.3694
  837MPD2    C312356   0.241   1.038  10.067  0.1624 -0.3460  0.1189
  837MPD2    C412357   0.360   0.976  10.031 -0.3211  0.2786  0.8897
  837MPD2    C512358   0.370   0.840  10.056 -0.7101  0.5349 -0.1926
  837MPD2     H12359   0.039   1.021  10.132  0.4485 -1.1397  1.2419
  837MPD2    H112360   0.453   1.029  10.016 -0.2480 -0.1184 -0.0596
  837MPD2    H212361   0.279   0.653  10.110 -0.3265  0.1213  3.3279
  837MPD2    H312362   0.466   0.792  10.039 -1.9335 -1.9710  0.1018
  837MPD2     N12363   0.221   1.185  10.081  0.1634 -0.2983  0.4175
  837MPD2    H512364   0.132   1.227  10.104  0.0309 -0.3577  0.0184
  837MPD2    N112365   0.017   0.767  10.155  0.1262  0.2600  0.6643
  837MPD2    H712366   4.686   0.837  10.179  0.5894  0.5842  1.0506
  838MPD2     C12367   3.259   3.753  12.531 -0.0675  0.5026  0.1452
  838MPD2    C112368   3.233   3.622  12.497 -1.7141  0.3458  0.1205
  838MPD2    C212369   3.122   3.555  12.546  0.4698 -0.2144  0.1122
  838MPD2    C312370   3.039   3.613  12.637 -0.2377 -0.3815 -0.4088
  838MPD2    C412371   3.070   3.737  12.681 -0.7688 -0.0589 -0.5589
  838MPD2    C512372   3.178   3.807  12.627 -0.1500 -0.6239 -0.6755
  838MPD2     H12373   3.097   3.457  12.509 -1.4075  0.0871  0.5840
  838MPD2    H112374   3.015   3.785  12.761 -1.0807 -1.3449  0.0015
  838MPD2    H212375   3.345   3.811  12.500 -0.4694  0.0889 -1.7738
  838MPD2    H312376   3.205   3.905  12.666  0.6783 -1.2714  0.3914
  838MPD2     N12377   2.926   3.533  12.674 -0.3158 -0.6555  0.1735
  838MPD2    H512378   2.922   3.449  12.618  2.2789 -1.2052  0.8002
  838MPD2    N112379   3.313   3.566  12.392  0.6571 -0.3257 -0.2309
  838MPD2    H712380   3.274   3.488  12.340 -0.8787  0.8315 -0.8186
  839MPD2     C12381   2.910   3.016  11.999 -0.7212 -0.3221  0.0716
  839MPD2    C112382   3.006   3.009  11.904 -0.3032 -0.1148  0.1803
  839MPD2    C212383   3.115   3.098  11.915  0.2449 -0.1455  0.2313
  839MPD2    C312384   3.131   3.164  12.034  0.7705  0.2696  0.2081
  839MPD2    C412385   3.030   3.163  12.127 -0.0528 -0.5402 -0.8901
  839MPD2    C512386   2.922   3.089  12.112  0.1195 -0.1125 -0.4853
  839MPD2     H12387   3.196   3.114  11.845  0.4830 -3.5418 -0.2919
  839MPD2    H112388   3.036   3.208  12.225  1.9036 -1.2309 -0.6947
  839MPD2    H212389   2.820   2.957  12.009 -1.6903  1.5934  2.5327
  839MPD2    H312390   2.836   3.096  12.178 -1.0172  2.0279 -2.2137
  839MPD2     N12391   3.239   3.250  12.057 -0.6132 -0.5945  0.4752
  839MPD2    H512392   3.213   3.309  12.135 -0.4803 -0.5010  0.4479
  839MPD2    N112393   2.997   2.934  11.787  0.4767 -0.1194  0.1964
  839MPD2    H712394   3.069   2.958  11.719 -0.9997 -2.7858 -2.3542
  840MPD2     C12395   3.505   1.482  10.386 -0.4785  0.1314  0.1719
  840MPD2    C112396   3.472   1.419  10.505 -0.3422 -0.5890 -0.5376
  840MPD2    C212397   3.555   1.441  10.612 -0.6698  0.2346 -0.2205
  840MPD2    C312398   3.654   1.534  10.613  0.1642 -0.2287 -0.3905
  840MPD2    C412399   3.675   1.593  10.493 -0.1486  0.8520 -0.4424
  840MPD2    C512400   3.603   1.572  10.379  0.3241 -0.4265 -0.1536
  840MPD2     H12401   3.542   1.374  10.697 -1.4796 -0.0052 -0.5399
  840MPD2    H112402   3.745   1.676  10.498  0.1380  0.7029 -1.7277
  840MPD2    H212403   3.449   1.470  10.294  1.1288 -0.8136 -0.6750
  840MPD2    H312404   3.634   1.625  10.290 -1.7168  1.8630  0.5227
  840MPD2     N12405   3.747   1.559  10.716  0.0207  0.0691  0.6552
  840MPD2    H512406   3.820   1.629  10.706  0.0096  0.0261  0.2890
  840MPD2    N112407   3.366   1.318  10.497 -0.2910  0.2499  0.2052
  840MPD2    H712408   3.306   1.320  10.415 -0.1586 -0.2211  0.0982
  841MPD2     C12409   3.137   0.831  15.179 -0.1236 -0.6576  0.8884
  841MPD2    C112410   3.192   0.750  15.082 -0.2331 -0.1502 -0.6678
  841MPD2    C212411   3.252   0.808  14.969 -0.4490 -0.1959 -0.1970
  841MPD2    C312412   3.258   0.946  14.956  0.0505 -0.0337 -0.0078
  841MPD2    C412413   3.195   1.020  15.053  0.3733 -0.2507 -0.1023
  841MPD2    C512414   3.133   0.965  15.156 -0.5958 -0.6529  0.3075
  841MPD2     H12415   3.303   0.746  14.897  1.3109  0.3289  0.5961
  841MPD2    H112416   3.205   1.128  15.055  1.0131 -0.3060 -0.2913
  841MPD2    H212417   3.116   0.793  15.278  3.0285 -1.1640  1.3551
  841MPD2    H312418   3.105   1.041  15.228 -1.6888  1.6252 -2.5283
  841MPD2     N12419   3.323   0.998  14.842  0.2275  0.1097 -0.2535
  841MPD2    H512420   3.386   0.934  14.795  1.3477  2.5866 -2.0764
  841MPD2    N112421   3.196   0.608  15.089 -0.1155  0.3473 -0.0202
  841MPD2    H712422   3.234   0.562  15.006  2.4581  2.4711 -0.0059
  842MPD2     C12423   3.706   1.872  16.710  0.6509  0.3724  0.2180
  842MPD2    C112424   3.568   1.896  16.721  0.1184 -0.6108  0.0500
  842MPD2    C212425   3.508   1.879  16.843  0.0090  0.6168 -0.9356
  842MPD2    C312426   3.581   1.867  16.958  0.2896 -0.4634  0.0605
  842MPD2    C412427   3.721   1.868  16.952 -0.2381 -0.3847  0.5380
  842MPD2    C512428   3.779   1.855  16.827  0.6340 -0.1311 -0.2197
  842MPD2     H12429   3.401   1.892  16.855 -0.2602 -1.5808 -0.8468
  842MPD2    H112430   3.787   1.862  17.038 -0.2442 -1.2502  0.4881
  842MPD2    H212431   3.751   1.882  16.612 -1.8676 -0.1009 -0.9891
  842MPD2    H312432   3.885   1.830  16.820  0.3734 -1.1737 -0.3916
  842MPD2     N12433   3.515   1.871  17.087 -0.3144  0.7720  0.0794
  842MPD2    H512434   3.576   1.907  17.160  1.1558 -2.5878  0.5446
  842MPD2    N112435   3.506   1.945  16.601  0.1753  0.1177  0.1982
  842MPD2    H712436   3.561   1.981  16.524  0.3994 -0.5163  0.0683
  843MPD2     C12437   1.006   2.964  17.126  0.4839 -0.1015  0.0807
  843MPD2    C112438   1.046   2.917  17.246 -0.2905  0.1063 -0.7637
  843MPD2    C212439   1.130   2.992  17.325  0.7411 -0.1114  0.4918
  843MPD2    C312440   1.165   3.120  17.282  0.0580 -0.6359  0.3911
  843MPD2    C412441   1.126   3.171  17.161  0.2657 -0.3584  0.6079
  843MPD2    C512442   1.046   3.088  17.090  0.2393 -0.4707  0.6061
  843MPD2     H12443   1.155   2.963  17.426  1.4190  1.1990  0.7014
  843MPD2    H112444   1.152   3.265  17.113 -1.0506 -0.3917 -0.1776
  843MPD2    H212445   0.932   2.914  17.064  1.9367 -0.1999 -1.5768
  843MPD2    H312446   1.006   3.119  16.994  1.3414 -2.1977 -0.3985
  843MPD2     N12447   1.243   3.196  17.371  0.3484 -0.5231 -0.2322
  843MPD2    H512448   1.263   3.155  17.461  1.8001  1.3222  0.2769
  843MPD2    N112449   0.998   2.786  17.274 -0.2883 -0.4441  0.3378
  843MPD2    H712450   0.936   2.732  17.215 -1.0963  0.5247  0.2960
  844MPD2     C12451   3.814   0.922  16.483 -0.5649  0.2712  0.4381
  844MPD2    C112452   3.924   0.843  16.485 -0.1572 -0.2430 -0.1268
  844MPD2    C212453   4.054   0.894  16.510  0.6410 -0.2135 -0.2052
  844MPD2    C312454   4.075   1.026  16.535 -0.6018  0.1085 -0.5129
  844MPD2    C412455   3.967   1.106  16.537 -0.4211  0.0892  0.1054
  844MPD2    C512456   3.842   1.057  16.502 -0.0175  0.0612 -0.2694
  844MPD2     H12457   4.138   0.828  16.496  0.3500 -0.5738 -0.2631
  844MPD2    H112458   3.980   1.212  16.558  1.5514  0.0296 -0.7274
  844MPD2    H212459   3.714   0.894  16.453 -0.6274  1.8769 -0.9306
  844MPD2    H312460   3.758   1.125  16.498  0.6438  0.9213  0.4184
  844MPD2     N12461   4.209   1.070  16.555  0.2449  0.4332  0.7089
  844MPD2    H512462   4.275   0.993  16.562  2.1723  1.9856 -0.5518
  844MPD2    N112463   3.923   0.704  16.449 -0.3678 -0.6218 -0.7740
  844MPD2    H712464   4.011   0.653  16.455 -0.4681 -0.6152  0.7660
  845MPD2     C12465   4.712   1.993  16.452  0.3803  0.6151  0.0569
  845MPD2    C112466   4.628   1.972  16.560  0.2213  0.2964 -0.4234
  845MPD2    C212467   4.562   1.848  16.577  0.3015  0.0980 -0.1951
  845MPD2    C312468   4.610   1.739  16.501  0.0864 -0.2608  0.2429
  845MPD2    C412469   4.701   1.763  16.401  0.0157 -0.1516  0.4200
  845MPD2    C512470   0.013   1.886  16.377 -0.2438 -0.1017  0.8357
  845MPD2     H12471   4.498   1.828  16.662 -0.4436 -1.5173 -1.1554
  845MPD2    H112472   4.737   1.678  16.344  1.0209  0.8193 -0.3985
  845MPD2    H212473   0.024   2.088  16.438  0.2359  1.1701  3.1265
  845MPD2    H312474   0.085   1.901  16.298 -2.1779  3.5445 -0.2231
  845MPD2     N12475   4.561   1.609  16.534  0.9036  0.3995 -0.5347
  845MPD2    H512476   4.476   1.594  16.587  1.1574 -2.5072 -0.9475
  845MPD2    N112477   4.608   2.080  16.640 -0.1812 -0.0505  0.3414
  845MPD2    H712478   4.682   2.149  16.631 -1.2834  1.1952  0.7174
  846MPD2     C12479   1.035   2.641  13.632  0.0577  0.3283  0.0331
  846MPD2    C112480   0.921   2.705  13.662 -0.6476 -0.1549 -0.5545
  846MPD2    C212481   0.864   2.668  13.782 -0.2745 -0.1039 -0.3535
  846MPD2    C312482   0.926   2.589  13.874  0.1957  0.6583 -0.3063
  846MPD2    C412483   1.056   2.544  13.845 -0.0431 -0.4398  0.0571
  846MPD2    C512484   1.105   2.568  13.720  0.4717 -0.4454  0.6020
  846MPD2     H12485   0.775   2.720  13.816 -1.0968 -1.9011  0.1934
  846MPD2    H112486   1.121   2.490  13.914 -0.5327 -0.5063  0.4623
  846MPD2    H212487   1.085   2.651  13.537 -1.4935 -1.9582 -1.0152
  846MPD2    H312488   1.202   2.531  13.687  1.1242  0.3422  1.6124
  846MPD2     N12489   0.868   2.561  13.999 -0.6229  0.7004  0.0242
  846MPD2    H512490   0.770   2.585  14.010 -0.6777  0.2077  0.6575
  846MPD2    N112491   0.870   2.807  13.582 -0.1142 -0.5963  0.3369
  846MPD2    H712492   0.799   2.869  13.619 -0.0563 -2.0280  2.7764
  847MPD2     C12493   1.084   3.314  14.122  0.1303 -0.1341  0.1693
  847MPD2    C112494   1.088   3.406  14.228 -0.3912 -0.0460 -0.2964
  847MPD2    C212495   1.143   3.369  14.351  0.0803 -0.5099  0.0218
  847MPD2    C312496   1.201   3.248  14.367  0.0141  1.4210  0.7336
  847MPD2    C412497   1.203   3.154  14.268 -0.3804  0.2870 -0.0581
  847MPD2    C512498   1.149   3.190  14.141  0.6592 -0.0176  0.4049
  847MPD2     H12499   1.141   3.438  14.434  1.8470  0.2800 -0.5791
  847MPD2    H112500   1.250   3.057  14.262 -2.2412 -0.6047 -0.0398
  847MPD2    H212501   1.039   3.339  14.026 -0.9105  2.3869  1.3178
  847MPD2    H312502   1.157   3.123  14.056  0.5962  0.5223 -0.0291
  847MPD2     N12503   1.275   3.222  14.490  0.4560 -0.4975 -0.5756
  847MPD2    H512504   1.291   3.301  14.550  0.8214  0.2742 -1.6826
  847MPD2    N112505   1.048   3.534  14.222  0.2473 -0.2310  0.9848
  847MPD2    H712506   1.039   3.583  14.310  2.3973  0.8214  0.6060
  848MPD2     C12507   4.111   1.635  16.034  0.4435  0.2368 -0.2315
  848MPD2    C112508   4.083   1.742  16.119 -0.0666  0.4825 -0.1800
  848MPD2    C212509   4.105   1.870  16.073 -0.4060 -0.8310  0.4385
  848MPD2    C312510   4.150   1.893  15.940  0.6190  0.1751 -0.0691
  848MPD2    C412511   4.184   1.785  15.864 -0.2268 -0.0639 -0.1084
  848MPD2    C512512   4.159   1.657  15.911  0.9188  0.2706 -0.1663
  848MPD2     H12513   4.098   1.950  16.146  0.9059  0.5189 -0.9130
  848MPD2    H112514   4.207   1.800  15.760  1.0622 -0.5899  0.1038
  848MPD2    H212515   4.088   1.535  16.070 -1.6045  0.7323 -0.2048
  848MPD2    H312516   4.178   1.565  15.856 -0.1617 -0.6819  1.0761
  848MPD2     N12517   4.164   2.021  15.883 -0.8150  0.0174  0.8475
  848MPD2    H512518   4.203   2.027  15.790 -3.0165  3.1062  0.1467
  848MPD2    N112519   4.021   1.730  16.246  0.0395  0.1874  0.0950
  848MPD2    H712520   4.022   1.813  16.304 -0.2060 -1.2366  2.1491
  849MPD2     C12521   2.697   1.433  14.178  0.0975 -0.3798 -0.0018
  849MPD2    C112522   2.815   1.500  14.155  0.2329  0.2171  0.4604
  849MPD2    C212523   2.922   1.485  14.244 -0.3026  0.0329  0.0450
  849MPD2    C312524   2.912   1.392  14.348 -0.2399  0.3094  0.8098
  849MPD2    C412525   2.794   1.320  14.367  0.3806  0.5804  0.9966
  849MPD2    C512526   2.689   1.338  14.284  0.0688  0.3386  0.3377
  849MPD2     H12527   3.013   1.544  14.236 -0.4006  0.2607  0.6686
  849MPD2    H112528   2.778   1.251  14.449 -0.5730  0.6574  0.8674
  849MPD2    H212529   2.612   1.436  14.110  0.8654 -1.2020 -0.9930
  849MPD2    H312530   2.593   1.289  14.296  0.1918  0.0258  0.0654
  849MPD2     N12531   3.019   1.376  14.438  0.1837  0.2140 -0.0837
  849MPD2    H512532   3.018   1.293  14.496  3.1395  1.8235  2.2514
  849MPD2    N112533   2.826   1.565  14.031 -0.5079  0.2161  0.0746
  849MPD2    H712534   2.744   1.571  13.971 -0.9546  0.4249  0.6995
  850MPD2     C12535   1.484   4.634  14.781  0.7552 -0.5882 -0.1601
  850MPD2    C112536   1.509   4.683  14.908  0.7881 -0.3647 -0.3874
  850MPD2    C212537   1.637   4.732  14.939  0.2181  0.7868 -0.1307
  850MPD2    C312538   1.747   4.721  14.853  0.4096 -0.3738 -0.3342
  850MPD2    C412539   1.716   4.665  14.725 -0.6398  0.5124 -0.4101
  850MPD2    C512540   1.591   4.634  14.693 -0.1730 -0.0322  0.3104
  850MPD2     H12541   1.658   0.023  15.041  2.5529  0.2314 -0.4352
  850MPD2    H112542   1.792   4.637  14.652 -1.8701 -1.8520 -0.7824
  850MPD2    H212543   1.384   4.613  14.743  0.4623  0.3557  0.0800
  850MPD2    H312544   1.577   4.608  14.589  0.1904 -0.1189  0.2851
  850MPD2     N12545   1.881   0.011  14.887 -0.2573  0.3012  0.5776
  850MPD2    H512546   1.953   4.713  14.825 -0.4782 -0.7221  0.9124
  850MPD2    N112547   1.403   4.685  14.997  0.4342 -0.2642  0.3733
  850MPD2    H712548   1.339   4.612  14.966  0.0973 -0.6023  1.8729
  851MPD2     C12549   1.549   4.152  15.636 -0.1948 -0.6649 -0.2571
  851MPD2    C112550   1.478   4.182  15.523 -1.0151  0.2917  0.0742
  851MPD2    C212551   1.463   4.085  15.428  0.2110  1.0538 -0.3484
  851MPD2    C312552   1.504   3.961  15.442  0.7751  0.8989  0.8443
  851MPD2    C412553   1.569   3.930  15.557  0.3149  0.2136 -0.2142
  851MPD2    C512554   1.588   4.022  15.654 -0.6014 -0.5783 -0.2687
  851MPD2     H12555   1.404   4.101  15.338 -1.4726  2.1194  0.9323
  851MPD2    H112556   1.601   3.829  15.579 -0.6524 -0.5687 -2.3872
  851MPD2    H212557   1.573   4.227  15.711  2.0274 -0.3037 -1.3390
  851MPD2    H312558   1.636   3.996  15.747  2.3549 -0.2998 -1.7320
  851MPD2     N12559   1.479   3.871  15.338  0.3930  0.3960  0.3211
  851MPD2    H512560   1.430   3.901  15.254 -0.8134 -1.4778  0.3502
  851MPD2    N112561   1.430   4.309  15.506 -0.0213 -0.5897  0.4821
  851MPD2    H712562   1.470   4.387  15.557  0.1857 -0.1424 -0.3697
  852MPD2     C12563   0.593   2.578  10.528  0.9799  0.8179  0.1033
  852MPD2    C112564   0.708   2.503  10.523 -0.4018  0.7207  0.2409
  852MPD2    C212565   0.824   2.563  10.485 -0.3423 -0.6308  0.5671
  852MPD2    C312566   0.833   2.699  10.464  0.3361 -0.3615 -0.9211
  852MPD2    C412567   0.710   2.768  10.470 -0.3395 -0.1880  0.2213
  852MPD2    C512568   0.595   2.710  10.510  0.9530 -0.2846  0.9560
  852MPD2     H12569   0.913   2.503  10.468 -0.6246 -0.5861 -1.1466
  852MPD2    H112570   0.695   2.867  10.428 -0.0242 -0.2020  0.0778
  852MPD2    H212571   0.496   2.531  10.538  1.1168  0.5195  0.0502
  852MPD2    H312572   0.499   2.759  10.520  1.4147  0.7411  0.2721
  852MPD2     N12573   0.959   2.754  10.433 -0.1423 -0.2128  0.6836
  852MPD2    H512574   1.039   2.692  10.424  0.0694 -0.1450  2.1615
  852MPD2    N112575   0.717   2.366  10.563 -0.0306  0.5912  0.1770
  852MPD2    H712576   0.806   2.319  10.575  1.2206  2.9107 -0.0246
  853MPD2     C12577   3.176   1.761  12.421  0.3965  0.4340  0.1232
  853MPD2    C112578   3.112   1.884  12.403 -0.0204 -0.5651 -0.1703
  853MPD2    C212579   3.128   1.945  12.281 -0.0417 -0.5347  0.4483
  853MPD2    C312580   3.191   1.876  12.177  0.2425 -0.4714  0.3026
  853MPD2    C412581   3.262   1.760  12.201  0.3706  0.1153 -0.1190
  853MPD2    C512582   3.254   1.701  12.322  0.3869 -0.1206 -0.5262
  853MPD2     H12583   3.075   2.038  12.259  0.3731 -0.2578  0.6301
  853MPD2    H112584   3.330   1.713  12.130 -0.7425  1.8124 -2.3146
  853MPD2    H212585   3.146   1.718  12.516  1.5291 -1.5476 -0.4212
  853MPD2    H312586   3.292   1.602  12.343  1.3566  0.1267 -1.0781
  853MPD2     N12587   3.206   1.929  12.046  0.4804  0.1592 -0.0968
  853MPD2    H512588   3.282   1.886  11.993  0.4412  0.6659 -0.5675
  853MPD2    N112589   3.040   1.948  12.508 -0.3786 -0.2006  0.5480
  853MPD2    H712590   3.044   1.903  12.599  1.9961  1.7591  1.4012
  854MPD2     C12591   3.995   2.280  13.029 -0.5941  0.0183  0.2863
  854MPD2    C112592   4.095   2.325  12.949 -0.2800  0.0622 -0.3839
  854MPD2    C212593   4.220   2.284  12.981  0.3072  0.5756  1.0383
  854MPD2    C312594   4.255   2.212  13.097 -0.3579  0.1086  0.0448
  854MPD2    C412595   4.154   2.166  13.176 -0.2526 -0.7681 -0.4566
  854MPD2    C512596   4.032   2.198  13.137  0.4503  0.2089 -0.2406
  854MPD2     H12597   4.297   2.319  12.913  0.5347 -0.1551  0.9139
  854MPD2    H112598   4.170   2.108  13.266  0.5097 -0.7840 -0.6066
  854MPD2    H212599   3.895   2.321  13.023 -0.4118  0.8747  3.0232
  854MPD2    H312600   3.953   2.158  13.200 -0.1230  0.0636 -1.0560
  854MPD2     N12601   4.381   2.162  13.133  0.0016  0.2354  0.6531
  854MPD2    H512602   4.393   2.106  13.216 -1.5254 -3.7472 -1.7804
  854MPD2    N112603   4.062   2.406  12.840  0.2322 -0.6266 -1.2884
  854MPD2    H712604   3.967   2.439  12.833 -0.9526 -3.2252  2.4939
  855MPD2     C12605   4.462   2.040  13.932  0.2591 -1.2937  1.0332
  855MPD2    C112606   4.570   1.974  13.874 -0.2089  0.0677 -0.0983
  855MPD2    C212607   4.607   2.016  13.741 -0.1766 -0.2523 -0.0161
  855MPD2    C312608   4.550   2.126  13.683  0.0338  0.0556  0.7291
  855MPD2    C412609   4.451   2.200  13.753 -0.2553  0.1595  0.1623
  855MPD2    C512610   4.409   2.153  13.871  0.1061  0.5689  0.2020
  855MPD2     H12611   4.682   1.954  13.694  0.0015 -1.5597  2.0029
  855MPD2    H112612   4.408   2.289  13.709  1.1633 -0.5904 -2.8156
  855MPD2    H212613   4.424   2.026  14.032 -0.7652 -0.9309  0.6983
  855MPD2    H312614   4.341   2.217  13.927 -0.2935  1.0085 -0.7883
  855MPD2     N12615   4.585   2.160  13.547  0.0519 -0.0346  0.2771
  855MPD2    H512616   4.519   2.218  13.497  0.3066  0.9941  1.1227
  855MPD2    N112617   4.618   1.847  13.913  0.0493 -0.0151  0.1625
  855MPD2    H712618   4.707   1.815  13.876 -1.3253 -3.7346  0.0817
  856MPD2     C12619   2.475   2.649  14.079  0.5248  0.3585 -0.7238
  856MPD2    C112620   2.448   2.754  14.166 -0.8454  0.1328  0.5722
  856MPD2    C212621   2.323   2.803  14.171  0.2035 -0.6348 -0.1665
  856MPD2    C312622   2.222   2.754  14.087  0.4676  0.2491  0.2791
  856MPD2    C412623   2.253   2.661  13.989 -0.0902  0.0947  0.2214
  856MPD2    C512624   2.376   2.603  13.997  0.2713  0.1757 -0.4997
  856MPD2     H12625   2.301   2.888  14.235 -0.2066 -0.8181 -0.0653
  856MPD2    H112626   2.184   2.614  13.920  0.7325 -1.6376  0.5809
  856MPD2    H212627   2.566   2.591  14.068 -1.5533 -2.4864 -3.0748
  856MPD2    H312628   2.387   2.520  13.929  2.0159 -0.7290  0.9023
  856MPD2     N12629   2.089   2.794  14.101 -0.3317 -0.2539 -0.0730
  856MPD2    H512630   2.019   2.733  14.060 -0.1429  0.9928 -2.2666
  856MPD2    N112631   2.548   2.826  14.240 -0.3406  0.1445 -0.4933
  856MPD2    H712632   2.512   2.908  14.288  1.2671  0.4557  0.1959
  857MPD2     C12633   3.532   0.396  12.504  0.1788  0.1461 -0.5468
  857MPD2    C112634   3.659   0.385  12.544  1.0449 -0.5882 -0.1619
  857MPD2    C212635   3.718   0.503  12.595  0.0169 -0.4322 -0.0792
  857MPD2    C312636   3.650   0.624  12.601 -0.3330  0.5228  0.2638
  857MPD2    C412637   3.519   0.627  12.569  0.3392 -0.2053  0.4026
  857MPD2    C512638   3.461   0.512  12.525  0.9184 -0.4682  0.2525
  857MPD2     H12639   3.819   0.495  12.633 -0.0495  0.0011  0.1876
  857MPD2    H112640   3.463   0.711  12.609 -0.8911 -0.2480 -1.2388
  857MPD2    H212641   3.474   0.312  12.469  1.3488 -0.0110 -2.1179
  857MPD2    H312642   3.357   0.525  12.498  0.6535  2.8093  2.8132
  857MPD2     N12643   3.716   0.736  12.658  0.0376 -0.4094  0.8042
  857MPD2    H512644   3.816   0.736  12.679  0.4813  0.1876 -1.3467
  857MPD2    N112645   3.712   0.256  12.551 -0.3126 -0.0962 -0.3532
  857MPD2    H712646   3.646   0.182  12.527 -0.3124 -0.3401  0.3872
  858MPD2     C12647   4.060   4.039  16.639 -0.0018  0.0650  0.3564
  858MPD2    C112648   4.173   4.116  16.633  0.1775  0.2935  0.7778
  858MPD2    C212649   4.170   4.240  16.696 -0.6572 -0.4491 -0.7919
  858MPD2    C312650   4.068   4.271  16.783  0.9258 -0.5701  0.2335
  858MPD2    C412651   3.959   4.196  16.793 -0.8067 -0.6143  0.0876
  858MPD2    C512652   3.956   4.078  16.718 -0.5578  0.5803 -0.0273
  858MPD2     H12653   4.250   4.313  16.701  0.2013 -1.4417 -0.1508
  858MPD2    H112654   3.880   4.214  16.866 -0.9482 -1.6186  0.1854
  858MPD2    H212655   4.041   3.943  16.593  0.6198  1.0038 -1.8605
  858MPD2    H312656   3.870   4.011  16.720 -1.5058  1.8110  0.4643
  858MPD2     N12657   4.073   4.375  16.880 -0.1418  0.1480  0.4411
  858MPD2    H512658   3.993   4.387  16.941  0.9666 -1.7836  2.2726
  858MPD2    N112659   4.289   4.059  16.577 -0.2126  0.4591 -0.0859
  858MPD2    H712660   4.276   3.970  16.530  2.6064 -0.0411  0.0938
  859MPD2     C12661   3.247   1.293  15.395 -0.4272  0.2972  0.0872
  859MPD2    C112662   3.353   1.271  15.312 -0.8223  0.8676 -0.9509
  859MPD2    C212663   3.419   1.145  15.302 -0.1372 -0.4117 -0.0675
  859MPD2    C312664   3.386   1.036  15.388 -0.7453  0.1641  0.1820
  859MPD2    C412665   3.267   1.061  15.463  0.4142  0.5845 -0.0491
  859MPD2    C512666   3.205   1.179  15.464  0.4451  0.5177  0.0009
  859MPD2     H12667   3.494   1.127  15.225  0.6944  1.4318  0.3103
  859MPD2    H112668   3.224   0.980  15.521  1.3304  1.5618  1.9841
  859MPD2    H212669   3.197   1.389  15.396 -3.3290 -1.1942 -1.1570
  859MPD2    H312670   3.116   1.190  15.525  1.6812  0.5324  1.8154
  859MPD2     N12671   3.440   0.904  15.380 -0.1630 -0.0805 -0.0048
  859MPD2    H512672   3.392   0.836  15.437 -3.2090  1.6205 -0.5598
  859MPD2    N112673   3.388   1.382  15.227  0.3811 -0.1276 -0.1298
  859MPD2    H712674   3.321   1.458  15.220  0.6079  0.0881  0.0087
  860MPD2     C12675   1.274   1.909  11.972  0.1910  1.8289  0.7785
  860MPD2    C112676   1.258   2.036  12.028  0.2452 -0.2585 -0.0075
  860MPD2    C212677   1.131   2.073  12.074 -0.0120  0.0736  0.7710
  860MPD2    C312678   1.019   1.993  12.039  0.1410  0.1669 -0.3471
  860MPD2    C412679   1.037   1.868  11.983 -0.6611  0.5011  0.1711
  860MPD2    C512680   1.165   1.828  11.960 -0.4630  0.0125  0.1200
  860MPD2     H12681   1.116   2.166  12.126  0.6534  0.3965  0.3945
  860MPD2    H112682   0.955   1.802  11.958  1.2753 -2.3670  1.3218
  860MPD2    H212683   1.365   1.861  11.937 -0.1335  0.4651  1.7883
  860MPD2    H312684   1.174   1.726  11.924 -0.6753  0.5776 -1.5484
  860MPD2     N12685   0.895   2.040  12.080 -0.1466  0.4711  0.0013
  860MPD2    H512686   0.900   2.133  12.120  0.6251 -0.2957  1.6783
  860MPD2    N112687   1.367   2.128  12.035  0.7775  0.4372 -0.0247
  860MPD2    H712688   1.353   2.219  12.077 -1.6692 -0.2450  0.6522
  861MPD2     C12689   4.234   4.642  11.195 -0.4428 -0.4014  0.3282
  861MPD2    C112690   4.284   0.034  11.170 -1.2513  0.7195  0.3297
  861MPD2    C212691   4.212   0.111  11.075 -0.3324 -0.0985 -0.2844
  861MPD2    C312692   4.096   0.065  11.012  0.3333 -0.0437 -0.3126
  861MPD2    C412693   4.058   4.670  11.041  0.3122 -0.5953  0.1134
  861MPD2    C512694   4.122   4.592  11.131  0.6359 -0.6214 -1.1204
  861MPD2     H12695   4.257   0.209  11.064  0.2428 -0.2060  1.0789
  861MPD2    H112696   3.979   4.619  10.987 -1.7462  2.1017  0.5524
  861MPD2    H212697   4.280   4.574  11.266 -0.0152  0.2182  0.6467
  861MPD2    H312698   4.083   4.493  11.151  0.3042 -0.9336 -3.2883
  861MPD2     N12699   4.020   0.129  10.920 -0.2389 -0.1851 -0.3493
  861MPD2    H512700   3.926   0.097  10.903 -1.2426  1.5669  1.7807
  861MPD2    N112701   4.398   0.085  11.246 -0.0490  0.5308 -0.2462
  861MPD2    H712702   4.430   0.181  11.235 -0.6804  0.8725  0.8574
  862MPD2     C12703   3.355   0.127  10.671 -0.1705  0.1602  0.3337
  862MPD2    C112704   3.457   0.091  10.756 -0.0882 -0.2179  1.1677
  862MPD2    C212705   3.434   4.736  10.858  0.2475 -0.2854  0.3129
  862MPD2    C312706   3.315   4.665  10.860 -0.3530  0.2153 -0.6311
  862MPD2    C412707   3.222   4.698  10.770 -0.0972 -0.1337 -0.5407
  862MPD2    C512708   3.242   0.057  10.675 -0.2763  0.2580 -0.0909
  862MPD2     H12709   3.508   4.720  10.936 -0.9585 -3.0208  0.9178
  862MPD2    H112710   3.127   4.647  10.771  0.2848 -0.7839  1.9267
  862MPD2    H212711   3.356   0.216  10.610 -2.2911  0.0810  0.1705
  862MPD2    H312712   3.160   0.083  10.609  1.1000 -2.1040 -2.7648
  862MPD2     N12713   3.289   4.569  10.961 -0.8678  0.1525  0.1257
  862MPD2    H512714   3.192   4.537  10.964  0.0520 -2.6013  0.6050
  862MPD2    N112715   3.578   0.165  10.762 -0.4099 -0.8115 -0.0861
  862MPD2    H712716   3.652   0.138  10.827  0.0609  1.3351  0.2567
  863MPD2     C12717   2.922   3.042  16.219  0.2397  0.5784  0.0583
  863MPD2    C112718   2.884   3.140  16.310 -0.5411  0.2587  0.2048
  863MPD2    C212719   2.924   3.140  16.444  0.5514  0.0032 -0.2115
  863MPD2    C312720   3.007   3.035  16.497 -0.2148  0.4852 -0.2111
  863MPD2    C412721   3.034   2.931  16.411 -0.2302  0.4171  0.2565
  863MPD2    C512722   2.986   2.937  16.276 -0.6592  0.2306  0.0252
  863MPD2     H12723   2.885   3.211  16.516  2.9140  0.3311  0.7433
  863MPD2    H112724   3.089   2.841  16.436  0.3774  1.0051  1.0480
  863MPD2    H212725   2.899   3.046  16.113 -1.0312 -0.3971  0.2895
  863MPD2    H312726   3.017   2.858  16.208 -0.1655 -0.4635  1.0644
  863MPD2     N12727   3.069   3.039  16.620  0.7971  0.0109 -0.7359
  863MPD2    H512728   3.110   2.951  16.649  0.7735 -0.3209 -1.7259
  863MPD2    N112729   2.787   3.231  16.262 -0.1487 -0.6384  0.5394
  863MPD2    H712730   2.751   3.197  16.173  1.1202  0.5988 -0.4319
  864MPD2     C12731   2.978   4.144  17.323 -0.2587 -0.9977 -0.1162
  864MPD2    C112732   3.072   4.121  17.228  0.2037  0.7134 -0.4351
  864MPD2    C212733   3.120   4.235  17.163  0.7903  0.3247  0.0335
  864MPD2    C312734   3.078   4.357  17.197 -0.5446  0.9802 -0.0627
  864MPD2    C412735   2.984   4.379  17.296  0.8723  0.4088 -0.0624
  864MPD2    C512736   2.936   4.270  17.363  0.1077  0.0834  0.0765
  864MPD2     H12737   3.171   4.229  17.067 -2.0048 -2.3228 -1.3023
  864MPD2    H112738   2.958   4.481  17.321 -1.2429 -0.5089  1.4681
  864MPD2    H212739   2.935   4.050  17.356 -2.7070  0.2726  0.3341
  864MPD2    H312740   2.867   4.278  17.446  0.7135  0.2026  0.5717
  864MPD2     N12741   3.127   4.477  17.141 -0.4904 -0.7432  0.2340
  864MPD2    H512742   3.077   4.565  17.152 -0.5588 -0.9076  1.2022
  864MPD2    N112743   3.098   3.993  17.190 -0.4314 -0.5100  0.2748
  864MPD2    H712744   3.040   3.920  17.229 -1.4613 -0.7648 -1.7002
  865MPD2     C12745   3.464   0.219  16.381 -0.1151 -0.1642 -0.2789
  865MPD2    C112746   3.398   0.103  16.418  0.0323 -0.3304  0.5456
  865MPD2    C212747   3.331   0.100  16.542 -0.0024 -0.3341 -0.1284
  865MPD2    C312748   3.333   0.209  16.633 -0.9147 -0.6909  1.3002
  865MPD2    C412749   3.393   0.325  16.585 -0.2447  0.2627 -0.5380
  865MPD2    C512750   3.458   0.324  16.467  0.3828 -0.1325 -0.0783
  865MPD2     H12751   3.297   0.002  16.575  2.4186 -2.1424 -2.9298
  865MPD2    H112752   3.407   0.418  16.639 -0.0601 -0.3071  0.3788
  865MPD2    H212753   3.508   0.237  16.284 -0.2471 -2.1132 -0.7001
  865MPD2    H312754   3.513   0.414  16.440  1.5294 -1.4680 -2.1629
  865MPD2     N12755   3.280   0.204  16.763 -0.3930 -0.2240 -0.6148
  865MPD2    H512756   3.290   0.291  16.813 -0.8800 -0.7597  0.4359
  865MPD2    N112757   3.416   4.721  16.342  0.2425  0.0329 -0.2040
  865MPD2    H712758   3.458   0.003  16.251  0.2176  2.6001  0.3515
  866MPD2     C12759   0.248   0.676  11.443  0.0957 -0.3058  0.3300
  866MPD2    C112760   0.229   0.563  11.361 -0.5452  0.2609  0.2970
  866MPD2    C212761   0.101   0.539  11.302  0.4036 -0.2327  0.2252
  866MPD2    C312762   0.003   0.640  11.302 -0.3933 -0.5296 -0.5297
  866MPD2    C412763   0.030   0.751  11.371  0.6739 -0.3110  0.6056
  866MPD2    C512764   0.148   0.772  11.436  0.1367  0.1435 -0.3481
  866MPD2     H12765   0.080   0.439  11.266 -0.5346 -0.7355  2.2186
  866MPD2    H112766   4.698   0.833  11.380  1.8055  0.6052  1.0256
  866MPD2    H212767   0.339   0.699  11.497  0.9278  1.6859 -1.8679
  866MPD2    H312768   0.163   0.870  11.480  0.3933 -0.4247  0.8145
  866MPD2     N12769   4.609   0.639  11.255 -0.0900 -0.0908  0.2697
  866MPD2    H512770   4.553   0.724  11.259 -0.4398 -0.3471  0.7833
  866MPD2    N112771   0.333   0.469  11.361  0.2584  0.4472  0.3500
  866MPD2    H712772   0.414   0.506  11.409  0.8203 -2.1811  1.4279
  867MPD2     C12773   2.451   4.498  16.591  0.7280  1.2872  0.1488
  867MPD2    C112774   2.532   4.438  16.680  0.8580  0.1037 -0.4354
  867MPD2    C212775   2.497   4.446  16.815  0.3408  1.2531 -0.0841
  867MPD2    C312776   2.377   4.513  16.841 -0.4138  0.6145  0.0609
  867MPD2    C412777   2.296   4.564  16.742 -0.3846 -0.3053  0.7829
  867MPD2    C512778   2.337   4.557  16.616  0.3141 -1.0440  0.2402
  867MPD2     H12779   2.549   4.402  16.900 -1.0447 -0.8485 -0.3315
  867MPD2    H112780   2.203   4.616  16.765  0.5375  1.5309  0.4026
  867MPD2    H212781   2.486   4.508  16.488 -1.4585 -0.2509 -0.7403
  867MPD2    H312782   2.279   4.600  16.535 -2.0554  2.5394  3.8168
  867MPD2     N12783   2.345   4.543  16.984 -0.1950 -0.3098 -0.1553
  867MPD2    H512784   2.274   4.613  17.004 -0.0169  0.2868 -1.6588
  867MPD2    N112785   2.650   4.374  16.638  0.5982  0.1160  0.0395
  867MPD2    H712786   2.659   4.374  16.537 -1.8963 -0.3005 -0.1756
  868MPD2     C12787   3.698   3.183  12.762  0.4142 -0.4454  0.0367
  868MPD2    C112788   3.796   3.242  12.839 -0.4594  0.3276  0.1178
  868MPD2    C212789   3.765   3.270  12.972 -0.5970  0.5091  0.2589
  868MPD2    C312790   3.641   3.259  13.022  0.3033 -0.1356  0.2874
  868MPD2    C412791   3.538   3.194  12.946 -0.0259 -0.4377  0.0439
  868MPD2    C512792   3.571   3.152  12.814  0.3628  0.3835 -0.4684
  868MPD2     H12793   3.842   3.308  13.038  0.0305 -3.1933  1.6663
  868MPD2    H112794   3.439   3.173  12.983 -0.7473  0.4501 -1.3916
  868MPD2    H212795   3.711   3.146  12.661 -0.8533 -0.9844  0.0756
  868MPD2    H312796   3.504   3.098  12.748  0.8225 -3.0593  1.8515
  868MPD2     N12797   3.621   3.304  13.157 -0.3707 -0.1451 -0.8224
  868MPD2    H512798   3.703   3.346  13.200  0.2939 -0.5197 -1.7383
  868MPD2    N112799   3.922   3.266  12.782 -0.1039 -0.6006 -0.2269
  868MPD2    H712800   3.956   3.225  12.695 -0.5347  1.4314 -1.3557
  869MPD2     C12801   0.032   1.533   0.100  0.3709  0.0905  1.0155
  869MPD2    C112802   4.713   1.604   0.206  0.8431  0.3757 -0.1555
  869MPD2    C212803   0.058   1.684   0.280  0.2684  1.1687 -0.2026
  869MPD2    C312804   0.180   1.728   0.228  0.7405  0.2352  0.8573
  869MPD2    C412805   0.218   1.676   0.109  0.5172 -0.4920  0.2521
  869MPD2    C512806   0.151   1.571   0.048 -0.0378  0.0868 -0.4058
  869MPD2     H12807   0.021   1.746   0.361  1.6588 -0.0819  1.3864
  869MPD2    H112808   0.311   1.708   0.064  1.3399 -0.9011  1.6476
  869MPD2    H212809   4.720   1.458   0.040  2.9681 -2.2133  1.7591
  869MPD2    H312810   0.181   1.535  17.702  1.7257  0.9640 -0.1927
  869MPD2     N12811   0.271   1.821   0.292  0.1260 -0.7681  0.4215
  869MPD2    H512812   0.345   1.864   0.236 -1.5871 -1.9511 -2.7489
  869MPD2    N112813   4.575   1.584   0.236  0.2126 -0.1002  0.1427
  869MPD2    H712814   4.525   1.501   0.207  0.9354 -1.1494  1.8548
  870MPD2     C12815   0.820   0.582   1.732 -0.4381 -0.0599 -0.1778
  870MPD2    C112816   0.775   0.511   1.621  0.5712  0.6720 -0.1538
  870MPD2    C212817   0.660   0.550   1.547 -0.2373  0.7933 -0.5370
  870MPD2    C312818   0.592   0.659   1.589 -0.7898  0.8946  0.2897
  870MPD2    C412819   0.635   0.731   1.702 -0.0157  0.2593 -0.5574
  870MPD2    C512820   0.745   0.693   1.771  0.3685 -0.0517 -0.3635
  870MPD2     H12821   0.640   0.508   1.449  0.5568 -0.6455 -0.0795
  870MPD2    H112822   0.581   0.810   1.752  1.3074  1.5409 -1.1882
  870MPD2    H212823   0.921   0.564   1.767 -0.6840 -0.8244  0.1337
  870MPD2    H312824   0.776   0.754   1.854 -1.9024  2.1269 -1.1385
  870MPD2     N12825   0.471   0.697   1.528 -0.3398 -0.1183  0.6200
  870MPD2    H512826   0.467   0.677   1.428  0.9503  2.8307 -0.0434
  870MPD2    N112827   0.867   0.417   1.564 -0.0125  0.1639 -0.4222
  870MPD2    H712828   0.962   0.428   1.599 -0.6800 -0.5973  1.6302
  871MPD2     C12829   1.624   0.249  16.446  0.0647  0.1483 -1.2717
  871MPD2    C112830   1.558   0.222  16.561  0.1373  0.0940  0.8364
  871MPD2    C212831   1.528   0.089  16.581  0.3918 -0.8597  0.9308
  871MPD2    C312832   1.579   4.726  16.501 -0.3395 -0.1822 -0.2803
  871MPD2    C412833   1.645   0.022  16.386 -0.4421 -0.5463 -0.7830
  871MPD2    C512834   1.666   0.154  16.357  0.0560 -0.1810 -0.4898
  871MPD2     H12835   1.459   0.064  16.661 -2.0757  1.3990 -0.4705
  871MPD2    H112836   1.680   4.691  16.310 -0.2584  1.4446 -2.5374
  871MPD2    H212837   1.652   0.350  16.417  0.1472 -0.5354 -3.5550
  871MPD2    H312838   1.721   0.186  16.269 -1.0714  1.2947 -0.6559
  871MPD2     N12839   1.564   4.594  16.550  0.6134 -0.2744  0.8834
  871MPD2    H512840   1.509   4.575  16.633 -0.7397 -0.0837  0.0323
  871MPD2    N112841   1.513   0.329  16.641 -0.1558 -0.7836  0.5315
  871MPD2    H712842   1.527   0.422  16.603 -0.5607 -1.2194 -0.6634
  872MPD2     C12843   2.121   1.922  14.295  1.0498  0.2356  0.1023
  872MPD2    C112844   2.099   2.038  14.222 -0.2652 -0.3876 -0.1877
  872MPD2    C212845   1.978   2.060  14.161  0.0571  0.5227 -0.0295
  872MPD2    C312846   1.870   1.977  14.193 -0.0819  0.5053  0.0558
  872MPD2    C412847   1.887   1.869  14.276 -0.2442  0.6493  0.3750
  872MPD2    C512848   2.012   1.839  14.320  0.8996 -0.4769 -0.5203
  872MPD2     H12849   1.965   2.152  14.106  1.3638  1.2180  0.8029
  872MPD2    H112850   1.815   1.794  14.309 -2.0190  1.9099 -0.6489
  872MPD2    H212851   2.221   1.896  14.327  0.9105 -2.4083 -1.5984
  872MPD2    H312852   2.022   1.759  14.394 -2.8106 -0.9312 -0.5319
  872MPD2     N12853   1.740   1.997  14.133  0.1351 -0.1073  0.1072
  872MPD2    H512854   1.658   1.951  14.171 -0.2750  1.3524  0.9663
  872MPD2    N112855   2.197   2.134  14.195  0.3203 -0.3618 -0.8150
  872MPD2    H712856   2.177   2.213  14.134 -0.1893 -0.1386 -0.3577
  873MPD2     C12857   3.919   2.357   0.777  0.1534 -0.0692 -0.3135
  873MPD2    C112858   3.816   2.326   0.870 -0.3004 -0.0110 -0.0418
  873MPD2    C212859   3.750   2.212   0.846  0.1147  0.2880 -0.2742
  873MPD2    C312860   3.779   2.120   0.744  0.3025 -0.1870 -0.0714
  873MPD2    C412861   3.892   2.142   0.668 -0.2227 -0.6233 -0.2592
  873MPD2    C512862   3.949   2.264   0.679  0.0296  0.3229  0.0906
  873MPD2     H12863   3.661   2.191   0.906  0.1425 -0.8147 -0.6135
  873MPD2    H112864   3.928   2.078   0.588 -1.2015 -0.7051 -0.6379
  873MPD2    H212865   3.983   2.444   0.786  1.7527 -1.0950 -1.7712
  873MPD2    H312866   4.045   2.271   0.629 -1.2274 -0.2290 -2.4147
  873MPD2     N12867   3.709   2.000   0.723 -0.0362 -0.0901  0.0481
  873MPD2    H512868   3.740   1.942   0.646 -2.2451  0.7954 -1.5009
  873MPD2    N112869   3.782   2.421   0.968  0.2151  0.1044 -0.8731
  873MPD2    H712870   3.851   2.490   0.995  1.2515 -1.1740 -0.2914
  874MPD2     C12871   3.393   2.500  15.972  0.0314 -0.0127  0.1218
  874MPD2    C112872   3.458   2.417  16.057 -0.2564 -0.5364 -0.1234
  874MPD2    C212873   3.592   2.412  16.045  0.8495  0.4027 -0.4371
  874MPD2    C312874   3.657   2.485  15.950  0.1825  1.2596 -0.1700
  874MPD2    C412875   3.585   2.573  15.870  0.0379 -0.4082  0.4779
  874MPD2    C512876   3.453   2.580  15.879  0.9099 -0.4132  0.2932
  874MPD2     H12877   3.655   2.344  16.102  0.6803  0.7584  0.1676
  874MPD2    H112878   3.630   2.644  15.802  0.2210  0.0277  1.0461
  874MPD2    H212879   3.285   2.493  15.967 -0.2675  3.2510  2.6078
  874MPD2    H312880   3.393   2.656  15.831  1.0333  0.6223  1.7676
  874MPD2     N12881   3.798   2.465  15.938 -0.1273  0.3292  0.2932
  874MPD2    H512882   3.822   2.383  15.993  0.2771 -0.4868 -1.1111
  874MPD2    N112883   3.382   2.319  16.130 -0.4288 -0.2568  0.0367
  874MPD2    H712884   3.281   2.330  16.129 -0.0997  3.0086  0.8523
  875MPD2     C12885   4.682   0.551  14.498  0.1741 -0.2164 -0.2777
  875MPD2    C112886   4.564   0.599  14.560  0.1419  0.1914  0.1900
  875MPD2    C212887   4.573   0.676  14.675  0.0001  0.8578 -0.6504
  875MPD2    C312888   4.691   0.711  14.728 -0.0573 -0.4976  0.3429
  875MPD2    C412889   0.072   0.679  14.662  0.5066  0.3404 -0.9058
  875MPD2    C512890   0.064   0.587  14.560  0.7563  0.1477  0.1197
  875MPD2     H12891   4.478   0.711  14.714 -0.6025 -0.2036 -1.1821
  875MPD2    H112892   0.173   0.694  14.697  0.6317  0.0362 -1.1329
  875MPD2    H212893   4.673   0.507  14.399 -5.5237  0.2752 -0.0180
  875MPD2    H312894   0.156   0.556  14.513 -0.0862 -0.6202 -1.0302
  875MPD2     N12895   4.701   0.791  14.844 -0.1325  0.5624 -0.4651
  875MPD2    H512896   0.058   0.803  14.877 -0.2893  2.6673 -0.7824
  875MPD2    N112897   4.437   0.565  14.512  0.4380  0.5079  0.6671
  875MPD2    H712898   4.359   0.606  14.561 -0.1704  1.5562 -1.1686
  876MPD2     C12899   3.253   2.376  15.577 -0.1071 -0.7591 -0.4882
  876MPD2    C112900   3.386   2.358  15.579 -0.5717 -0.8709 -0.4670
  876MPD2    C212901   3.443   2.269  15.666  0.8395 -0.3014 -0.3660
  876MPD2    C312902   3.371   2.205  15.763 -0.4931  0.4814 -0.2681
  876MPD2    C412903   3.233   2.220  15.762 -0.8933 -0.3488 -0.0123
  876MPD2    C512904   3.180   2.305  15.668 -0.0070  0.3973 -0.3077
  876MPD2     H12905   3.550   2.252  15.674  1.0233  1.3930  0.7400
  876MPD2    H112906   3.161   2.160  15.817 -0.4667 -2.4128 -1.7370
  876MPD2    H212907   3.200   2.443  15.509  0.4644 -0.1236 -0.3170
  876MPD2    H312908   3.072   2.310  15.670 -0.0741 -1.3421  0.2537
  876MPD2     N12909   3.437   2.117  15.845  0.1503 -0.2925 -0.3935
  876MPD2    H512910   3.538   2.129  15.842  0.0099  1.0672  0.0972
  876MPD2    N112911   3.456   2.418  15.468  0.0686 -0.7943 -0.1877
  876MPD2    H712912   3.405   2.447  15.385  0.9673  1.1225 -0.0762
  877MPD2     C12913   3.326   2.588  14.809 -0.2101 -0.1422  0.1727
  877MPD2    C112914   3.464   2.588  14.799  0.0496  0.2454  0.4166
  877MPD2    C212915   3.516   2.581  14.665 -0.5810 -0.0807  0.1599
  877MPD2    C312916   3.438   2.578  14.550  0.1012 -0.2671  0.2967
  877MPD2    C412917   3.306   2.567  14.563 -0.5753 -0.3426  0.3698
  877MPD2    C512918   3.255   2.574  14.692 -0.0554  0.0967 -0.2751
  877MPD2     H12919   3.623   2.582  14.651 -0.7563  0.5463 -1.1438
  877MPD2    H112920   3.235   2.556  14.482  0.3337  1.1701 -0.6389
  877MPD2    H212921   3.267   2.590  14.900 -1.5497  0.7072 -0.7297
  877MPD2    H312922   3.148   2.557  14.694 -0.2109  1.1245  0.2271
  877MPD2     N12923   3.484   2.550  14.422  0.4323  0.1425  0.0364
  877MPD2    H512924   3.427   2.510  14.348 -1.9718 -0.2394  2.0732
  877MPD2    N112925   3.553   2.585  14.908 -0.0496 -0.1601 -0.2360
  877MPD2    H712926   3.654   2.576  14.898 -0.0195  0.0156 -0.0971
  878MPD2     C12927   3.061   1.082  13.143 -0.1947  0.5202  0.1509
  878MPD2    C112928   3.125   1.205  13.131 -0.0192  0.7043  0.1629
  878MPD2    C212929   3.094   1.303  13.227 -0.1070  0.4447 -0.4244
  878MPD2    C312930   3.010   1.282  13.336 -0.2857  0.0271 -0.1030
  878MPD2    C412931   2.951   1.160  13.353  0.1096  0.7592  0.2437
  878MPD2    C512932   2.980   1.064  13.253  0.7428  0.4982  0.7728
  878MPD2     H12933   3.130   1.405  13.218 -1.3121  0.9864  0.7694
  878MPD2    H112934   2.892   1.135  13.441  0.6456  1.9037  0.9184
  878MPD2    H212935   3.066   1.009  13.062 -0.3226 -1.3112  1.7926
  878MPD2    H312936   2.936   0.966  13.267 -1.4454  1.4461  0.6313
  878MPD2     N12937   2.999   1.387  13.429 -0.0452  0.1234  0.1937
  878MPD2    H512938   3.034   1.480  13.409 -0.6852 -0.3517 -3.1522
  878MPD2    N112939   3.219   1.221  13.020  0.2342  0.3027 -0.6343
  878MPD2    H712940   3.231   1.142  12.959 -2.5099 -0.5507 -0.0540
  879MPD2     C12941   3.716   3.260  16.855  0.3474 -0.0809 -0.3724
  879MPD2    C112942   3.644   3.158  16.915  0.1716 -0.3117  0.1260
  879MPD2    C212943   3.584   3.060  16.837 -0.6467  0.1482  0.0879
  879MPD2    C312944   3.616   3.052  16.701 -0.5467 -0.2492 -0.2064
  879MPD2    C412945   3.692   3.151  16.643 -0.0781 -0.2676 -0.5915
  879MPD2    C512946   3.740   3.254  16.721  0.1120 -0.0789 -0.6351
  879MPD2     H12947   3.520   2.983  16.879 -1.1718  0.8506  0.5650
  879MPD2    H112948   3.719   3.148  16.538 -0.4475  1.2261 -0.7235
  879MPD2    H212949   3.751   3.351  16.902 -0.3517 -0.4034  0.7779
  879MPD2    H312950   3.789   3.332  16.663 -1.2762 -1.7817 -4.1410
  879MPD2     N12951   3.574   2.954  16.607  0.6231 -0.7383  0.1463
  879MPD2    H512952   3.594   2.974  16.509 -1.0996 -0.1484 -0.0794
  879MPD2    N112953   3.629   3.167  17.057 -0.6410 -0.1027  0.0524
  879MPD2    H712954   3.663   3.253  17.099  0.0106 -1.0828  1.5256
  880MPD2     C12955   0.401   0.222   0.161  0.0355  0.5850  0.5440
  880MPD2    C112956   0.410   0.273   0.290  0.8223  0.0168  1.1736
  880MPD2    C212957   0.455   0.190   0.389  0.1975  0.6235 -0.1696
  880MPD2    C312958   0.479   0.055   0.366  0.0814 -0.2121 -0.7159
  880MPD2    C412959   0.460   0.003   0.243 -0.7932  0.5001 -0.5299
  880MPD2    C512960   0.425   0.088   0.144  0.1936 -0.5535 -0.5833
  880MPD2     H12961   0.467   0.230   0.490 -0.7719 -0.3791  0.3438
  880MPD2    H112962   0.473   4.639   0.208 -2.0300 -0.0018  0.4942
  880MPD2    H212963   0.367   0.284   0.079  0.5134 -0.9477 -0.8075
  880MPD2    H312964   0.403   0.048   0.045 -0.0962  0.0215 -0.7474
  880MPD2     N12965   0.509   4.712   0.479  0.0845  0.2204 -0.0231
  880MPD2    H512966   0.518   0.030   0.563 -0.0464  1.9655 -1.1768
  880MPD2    N112967   0.375   0.409   0.299 -0.2795 -0.1215  0.1134
  880MPD2    H712968   0.323   0.454   0.224  1.6981  1.3376 -0.3735
  881MPD2     C12969   0.470   1.289  17.600  0.6199  1.1692 -0.3222
  881MPD2    C112970   0.489   1.154  17.574  0.1647 -0.3881  0.0919
  881MPD2    C212971   0.493   1.073  17.685  0.7404  0.8691 -0.4973
  881MPD2    C312972   0.448   1.113   0.061 -0.0950 -0.1392 -0.1317
  881MPD2    C412973   0.429   1.247   0.086  0.4487 -0.2138 -0.8650
  881MPD2    C512974   0.443   1.333  17.732  0.7174 -0.4150 -0.0936
  881MPD2     H12975   0.501   0.966  17.670 -2.3974  0.9148 -2.4514
  881MPD2    H112976   0.399   1.295   0.179 -0.1051  0.1405 -1.2327
  881MPD2    H212977   0.489   1.355  17.517  1.1240 -0.1306 -1.2390
  881MPD2    H312978   0.426   1.439  17.748 -1.6262 -0.8619  0.3347
  881MPD2     N12979   0.430   1.027   0.177 -0.2663  0.2027  0.7382
  881MPD2    H512980   0.387   1.071   0.258  2.2374  1.8077  1.1788
  881MPD2    N112981   0.539   1.121  17.451  0.0446 -0.0778 -0.7795
  881MPD2    H712982   0.539   1.194  17.379 -0.9147  0.6317 -0.0589
  882MPD2     C12983   3.545   1.871  14.114 -0.6587  0.8035 -0.0572
  882MPD2    C112984   3.481   1.992  14.145  0.3327 -0.7196  0.4860
  882MPD2    C212985   3.360   1.983  14.214  0.1424 -0.4238 -0.5254
  882MPD2    C312986   3.306   1.861  14.251 -0.2553  0.2607  0.8167
  882MPD2    C412987   3.368   1.747  14.207  0.4046  0.0262 -0.0459
  882MPD2    C512988   3.491   1.748  14.145 -0.1815  0.5849 -0.1285
  882MPD2     H12989   3.307   2.072  14.245 -0.4058 -0.5174 -1.2015
  882MPD2    H112990   3.322   1.655  14.240  2.3648 -0.7010  0.7025
  882MPD2    H212991   3.645   1.864  14.073 -1.0235 -1.3346 -0.6002
  882MPD2    H312992   3.534   1.656  14.107  1.6158  1.4506 -0.1864
  882MPD2     N12993   3.182   1.849  14.313  0.0178 -0.4030 -0.0087
  882MPD2    H512994   3.149   1.753  14.320  1.0049 -0.7645 -0.3632
  882MPD2    N112995   3.542   2.114  14.105  0.2803  0.1178 -0.2099
  882MPD2    H712996   3.629   2.109  14.052  0.5878  1.0268  0.1964
  883MPD2     C12997   0.370   2.338  15.942 -0.0939 -0.6654  0.2247
  883MPD2    C112998   0.435   2.447  15.883  0.1655  0.3439 -0.1037
  883MPD2    C212999   0.561   2.486  15.932  0.7302 -0.5826  1.4589
  883MPD2    C313000   0.620   2.422  16.039 -0.6096 -0.2888  0.0271
  883MPD2    C413001   0.540   2.325  16.107  0.0151  0.5519  0.1814
  883MPD2    C513002   0.413   2.284  16.062 -0.3405 -0.0100 -0.1667
  883MPD2     H13003   0.610   2.563  15.874 -0.4765 -1.0260 -0.1887
  883MPD2    H113004   0.581   2.288  16.200 -2.6103 -0.6875  0.8303
  883MPD2    H213005   0.273   2.303  15.911 -0.1435 -1.9895  1.8596
  883MPD2    H313006   0.365   2.203  16.114 -1.4316  0.9853  0.3752
  883MPD2     N13007   0.747   2.466  16.087  0.2920 -0.0936  0.1619
  883MPD2    H513008   0.800   2.521  16.020  1.1004 -1.4781 -0.3180
  883MPD2    N113009   0.380   2.523  15.778 -0.3107  0.3280  0.3512
  883MPD2    H713010   0.445   2.589  15.735  1.6531 -1.4380  0.6089
  884MPD2     C13011   2.863   2.971  15.271  0.1323 -0.3322  0.0267
  884MPD2    C113012   2.790   2.993  15.155  0.4875  0.2538 -0.1193
  884MPD2    C213013   2.660   3.042  15.166  0.4904  0.5190 -0.5920
  884MPD2    C313014   2.589   3.050  15.285  0.0706 -0.2667 -0.9604
  884MPD2    C413015   2.661   3.007  15.395 -0.3543 -0.2725 -0.1726
  884MPD2    C513016   2.795   2.972  15.394 -0.3975 -0.4571  0.2395
  884MPD2     H13017   2.609   3.082  15.079  0.2216  2.5174  0.4689
  884MPD2    H113018   2.605   3.013  15.488 -1.3795  1.4719 -0.8957
  884MPD2    H213019   2.968   2.946  15.272  0.8462  2.8497  3.1279
  884MPD2    H313020   2.845   2.950  15.488 -0.7871 -1.2491  0.2580
  884MPD2     N13021   2.458   3.092  15.277  0.1919  0.2249 -0.0872
  884MPD2    H513022   2.417   3.097  15.185  0.6272  1.2076 -0.2293
  884MPD2    N113023   2.861   2.988  15.034  0.1878 -0.1292 -0.5247
  884MPD2    H713024   2.811   3.018  14.951 -1.3997  0.1980  0.5524
  885MPD2     C13025   1.009   4.274  17.622  0.2178  0.0726 -0.5971
  885MPD2    C113026   1.082   4.169  17.564 -0.2158 -0.0632 -0.9410
  885MPD2    C213027   1.087   4.152  17.425  0.3336 -0.0399  0.2936
  885MPD2    C313028   1.024   4.237  17.342  0.0894 -0.2111 -0.2588
  885MPD2    C413029   0.956   4.343  17.389  0.8601 -0.4382  0.1834
  885MPD2    C513030   0.942   4.353  17.529  0.1521 -0.3414 -0.0714
  885MPD2     H13031   1.133   4.062  17.385  0.1271 -0.9863  2.1735
  885MPD2    H113032   0.917   4.420  17.324 -0.2565  0.0281  1.3907
  885MPD2    H213033   0.993   4.289  17.728 -2.0746 -2.3665 -0.6047
  885MPD2    H313034   0.899   4.447  17.563  1.5271 -0.3479  1.7352
  885MPD2     N13035   1.036   4.211  17.201 -0.1669  0.0982 -0.2074
  885MPD2    H513036   1.097   4.133  17.182  2.3244  2.0042  0.0394
  885MPD2    N113037   1.144   4.080  17.656  0.0486  0.0282  0.3085
  885MPD2    H713038   1.115   4.093   0.001  1.5621 -0.9147  0.8856
  886MPD2     C13039   2.262   1.760  15.222  0.3896  0.3717  0.0825
  886MPD2    C113040   2.395   1.802  15.233  0.0753  0.1002  0.3668
  886MPD2    C213041   2.425   1.933  15.251 -0.3365  0.4023 -0.1037
  886MPD2    C313042   2.324   2.028  15.261 -0.5080 -0.5955 -0.3327
  886MPD2    C413043   2.198   1.994  15.235  0.0344  0.1300 -0.4972
  886MPD2    C513044   2.161   1.861  15.225 -0.2957 -0.0655  0.3599
  886MPD2     H13045   2.528   1.964  15.268 -0.3941  0.9078 -0.6790
  886MPD2    H113046   2.127   2.073  15.218  1.9551  1.5575 -1.8705
  886MPD2    H213047   2.233   1.660  15.190 -1.4218 -0.0191  2.9077
  886MPD2    H313048   2.059   1.837  15.197 -0.3555  1.4190 -0.7053
  886MPD2     N13049   2.344   2.168  15.277 -0.0659 -0.0054 -0.1141
  886MPD2    H513050   2.268   2.234  15.265 -0.6989 -1.0781 -1.8498
  886MPD2    N113051   2.511   1.717  15.222 -0.7638 -0.0184 -0.3202
  886MPD2    H713052   2.602   1.752  15.252 -0.8658  0.6250 -0.7743
  887MPD2     C13053   3.245   1.821  15.184 -0.7352 -0.4214 -0.3231
  887MPD2    C113054   3.109   1.845  15.207  0.1517  0.4251  0.1138
  887MPD2    C213055   3.069   1.977  15.214  0.4472 -0.4678  0.3229
  887MPD2    C313056   3.159   2.080  15.215 -0.0010 -0.3496  0.4013
  887MPD2    C413057   3.289   2.048  15.209 -1.0047 -0.5533  0.0403
  887MPD2    C513058   3.343   1.922  15.200  0.3848  0.8506 -0.6712
  887MPD2     H13059   2.963   1.996  15.227  0.9685  2.2124  0.5178
  887MPD2    H113060   3.368   2.121  15.205 -2.9317  1.4530 -1.5736
  887MPD2    H213061   3.284   1.723  15.161 -0.0885 -0.1397 -0.4294
  887MPD2    H313062   3.450   1.906  15.212  0.5600  2.9335  0.5173
  887MPD2     N13063   3.102   2.213  15.205  0.0476  0.1852  0.2618
  887MPD2    H513064   3.002   2.221  15.193 -0.4240 -1.0419  3.3118
  887MPD2    N113065   3.001   1.756  15.214  0.2504 -0.0681 -0.1126
  887MPD2    H713066   2.911   1.802  15.219  0.1192 -0.3750  0.3098
  888MPD2     C13067   4.596   1.791  14.761 -0.0264 -0.4655 -0.2087
  888MPD2    C113068   4.607   1.845  14.889  0.3813  0.3126 -0.0713
  888MPD2    C213069   4.603   1.983  14.898 -0.1571  0.7345 -0.1139
  888MPD2    C313070   4.611   2.072  14.796  0.8275 -1.4925 -0.1726
  888MPD2    C413071   4.630   2.015  14.673  0.3655 -0.0760  0.3964
  888MPD2    C513072   4.622   1.881  14.653  0.1202  0.1865  0.4970
  888MPD2     H13073   4.608   2.018  15.001 -0.1443 -0.6967  0.3715
  888MPD2    H113074   4.636   2.078  14.586  1.7412  1.2946  1.5043
  888MPD2    H213075   4.611   1.685  14.745 -1.5630 -0.4053 -2.0501
  888MPD2    H313076   4.625   1.849  14.550  0.4977 -1.4305  1.0171
  888MPD2     N13077   4.611   2.214  14.816  0.0808 -0.1985  0.4833
  888MPD2    H513078   4.634   2.279  14.742 -0.0124 -0.6177  0.0909
  888MPD2    N113079   4.613   1.758  15.004  0.0249  0.1884  0.2724
  888MPD2    H713080   4.600   1.665  14.965  2.3051 -0.1774  0.3649
  889MPD2     C13081   3.697   1.605  12.592 -0.0031  0.2303 -0.8495
  889MPD2    C113082   3.686   1.562  12.724  0.3760 -0.3961 -0.2142
  889MPD2    C213083   3.676   1.644  12.832  0.4799  0.1524 -0.2134
  889MPD2    C313084   3.632   1.775  12.799 -0.3041  0.8573  0.8647
  889MPD2    C413085   3.621   1.816  12.666  0.3287 -0.2232  0.1414
  889MPD2    C513086   3.655   1.736  12.566 -0.6610  0.4082  0.2961
  889MPD2     H13087   3.677   1.612  12.936 -0.7327 -0.4952 -0.4005
  889MPD2    H113088   3.563   1.900  12.631 -0.1769 -1.4854 -2.0275
  889MPD2    H213089   3.689   1.537  12.507 -0.5524 -0.0020 -0.6141
  889MPD2    H313090   3.628   1.776  12.470  1.9087 -4.7008 -2.5506
  889MPD2     N13091   3.590   1.855  12.911  0.3495  0.8296  0.1928
  889MPD2    H513092   3.623   1.827  13.003  1.9027 -1.2388 -0.9941
  889MPD2    N113093   3.715   1.425  12.752  0.2960 -0.4922 -0.0490
  889MPD2    H713094   3.703   1.390  12.846  1.1567  0.0196  0.2527
  890MPD2     C13095   3.810   3.235  14.547 -0.4773 -0.5148 -0.4238
  890MPD2    C113096   3.903   3.304  14.620 -0.0717  0.1722 -0.4140
  890MPD2    C213097   3.965   3.241  14.728  0.3874 -0.0628  0.1943
  890MPD2    C313098   3.933   3.111  14.752  0.7402  0.2995 -0.3742
  890MPD2    C413099   3.836   3.042  14.676  0.3062 -0.5245 -0.2347
  890MPD2    C513100   3.783   3.105  14.572  0.7288 -0.6338  1.0066
  890MPD2     H13101   4.033   3.288  14.799  1.3185  0.9350 -1.3545
  890MPD2    H113102   3.811   2.938  14.697  4.0055 -1.3131  0.2387
  890MPD2    H213103   3.772   3.286  14.459 -0.1771  0.2131 -0.1376
  890MPD2    H313104   3.722   3.053  14.498  1.7148  0.7307 -0.7644
  890MPD2     N13105   4.002   3.053  14.857  0.4266  0.7684 -0.1945
  890MPD2    H513106   4.069   3.112  14.903 -1.5110  1.3367  1.9135
  890MPD2    N113107   3.913   3.442  14.602  0.0761  0.4984 -0.7034
  890MPD2    H713108   3.845   3.494  14.548  0.0013  0.5848 -0.5277
  891MPD2     C13109   1.517   2.179  15.949  0.7625 -0.4325 -0.1269
  891MPD2    C113110   1.449   2.161  16.064 -0.0465 -0.1708 -0.4913
  891MPD2    C213111   1.512   2.128  16.183  0.3990  0.3358 -0.7399
  891MPD2    C313112   1.647   2.106  16.177 -0.3649 -1.1063 -0.2613
  891MPD2    C413113   1.723   2.117  16.059 -0.3936  0.8855 -0.1197
  891MPD2    C513114   1.658   2.158  15.941 -0.9135 -0.1309  0.3137
  891MPD2     H13115   1.458   2.114  16.275 -1.7629  0.8397 -1.9292
  891MPD2    H113116   1.831   2.108  16.062 -0.6237 -2.7798 -1.6575
  891MPD2    H213117   1.468   2.206  15.856  0.7977 -1.2393 -0.3861
  891MPD2    H313118   1.717   2.173  15.851 -1.2546 -1.7493 -0.1728
  891MPD2     N13119   1.715   2.089  16.305  0.4520  0.1939  0.4159
  891MPD2    H513120   1.658   2.075  16.388  0.6828 -1.3326  0.3156
  891MPD2    N113121   1.306   2.177  16.058 -0.4390 -0.4010 -0.0066
  891MPD2    H713122   1.259   2.189  15.969 -1.4873  0.8001  0.7046
  892MPD2     C13123   2.826   2.527  14.965 -0.4855  0.3851 -0.2521
  892MPD2    C113124   2.711   2.476  14.898  0.1791  0.0974  0.0628
  892MPD2    C213125   2.723   2.373  14.802 -0.3305  0.7226  0.1527
  892MPD2    C313126   2.850   2.314  14.781  0.9111 -0.3626 -0.5665
  892MPD2    C413127   2.960   2.366  14.857  1.1382  1.0009  0.0729
  892MPD2    C513128   2.947   2.476  14.941  0.4495 -0.6738  0.4603
  892MPD2     H13129   2.633   2.337  14.753 -1.1039  1.2415  1.1841
  892MPD2    H113130   3.060   2.324  14.851  0.0473 -1.6430  0.1880
  892MPD2    H213131   2.826   2.605  15.041 -0.7890 -0.3271  0.4794
  892MPD2    H313132   3.038   2.513  14.987  0.2730 -0.8166  0.9265
  892MPD2     N13133   2.873   2.201  14.691 -0.2893 -0.0895 -0.4865
  892MPD2    H513134   2.970   2.170  14.684  0.5245  2.0080  1.3094
  892MPD2    N113135   2.583   2.540  14.911 -0.6745  0.1190  0.0071
  892MPD2    H713136   2.508   2.503  14.853 -1.2997  1.1769  0.1388
  893MPD2     C13137   4.052   1.309   1.750  0.1911  0.9663  0.0713
  893MPD2    C113138   4.019   1.282   1.616 -0.2946 -0.0278 -0.4899
  893MPD2    C213139   3.890   1.232   1.592 -0.1378 -0.1936 -0.5419
  893MPD2    C313140   3.802   1.208   1.695 -0.0647 -0.1421 -0.7560
  893MPD2    C413141   3.837   1.235   1.822  0.5370 -0.0391  0.4936
  893MPD2    C513142   3.959   1.277   1.848  0.6676  0.1537  0.4743
  893MPD2     H13143   3.867   1.190   1.494 -3.0948  0.3130 -0.0582
  893MPD2    H113144   3.768   1.234   1.906 -2.1806 -1.5017 -1.7422
  893MPD2    H213145   4.147   1.357   1.766  0.7659  0.1774 -0.9837
  893MPD2    H313146   3.977   1.301   1.952 -0.0830 -1.5660  0.9945
  893MPD2     N13147   3.669   1.165   1.681  0.3993  0.1175  0.6973
  893MPD2    H513148   3.615   1.157   1.766  0.5170 -0.4040  0.7192
  893MPD2    N113149   4.118   1.309   1.518  0.0496 -0.0230 -0.1633
  893MPD2    H713150   4.206   1.348   1.548  0.3593 -0.0695 -1.0218
  894MPD2     C13151   2.123   3.394   1.509  0.0983  0.4732  0.2895
  894MPD2    C113152   2.043   3.504   1.515 -0.7867  0.4295 -0.0276
  894MPD2    C213153   2.066   3.611   1.427 -0.0572 -0.2833 -0.7114
  894MPD2    C313154   2.163   3.602   1.324  0.6808  0.0562  0.1190
  894MPD2    C413155   2.245   3.496   1.321  0.4931  0.0140  0.2417
  894MPD2    C513156   2.228   3.400   1.419  0.7374  0.3204 -0.2979
  894MPD2     H13157   2.000   3.696   1.436  1.2485  0.7431 -0.8997
  894MPD2    H113158   2.334   3.486   1.260  0.0710 -2.2307  0.0068
  894MPD2    H213159   2.113   3.313   1.581  1.3619  0.0497 -0.0274
  894MPD2    H313160   2.304   3.322   1.415 -0.6027 -1.0108  0.3754
  894MPD2     N13161   2.181   3.716   1.248  0.0011 -0.1953  0.2048
  894MPD2    H513162   2.119   3.793   1.269  1.4172  0.5184  1.7770
  894MPD2    N113163   1.928   3.512   1.605  0.1661  0.0393 -0.6743
  894MPD2    H713164   1.867   3.593   1.603  0.0450 -0.0389 -0.0818
  895MPD2     C13165   1.969   1.220  13.972  0.1341 -0.6631  0.4669
  895MPD2    C113166   1.947   1.307  13.870 -0.4556 -0.3317 -0.1348
  895MPD2    C213167   1.920   1.259  13.744 -0.0387  0.4705  0.1706
  895MPD2    C313168   1.923   1.125  13.726 -0.0839 -0.8951  0.9614
  895MPD2    C413169   1.930   1.039  13.829  0.4744  0.1944  0.4594
  895MPD2    C513170   1.955   1.084  13.957 -0.5424  0.0706  0.5929
  895MPD2     H13171   1.905   1.333  13.666 -0.0757 -0.0459 -0.3148
  895MPD2    H113172   1.917   0.933  13.809  0.6811 -0.0490  1.6300
  895MPD2    H213173   1.999   1.244  14.074  0.6303 -1.4917  0.5224
  895MPD2    H313174   1.970   1.015  14.039  0.2517  0.3631  0.6956
  895MPD2     N13175   1.906   1.072  13.597  0.2936  0.4435  0.1288
  895MPD2    H513176   1.866   0.979  13.593  0.6239  0.3296 -0.6178
  895MPD2    N113177   1.944   1.443  13.890 -0.0374 -0.2239  0.9894
  895MPD2    H713178   1.926   1.499  13.808  2.4996  0.7062  1.0558
  896MPD2     C13179   4.628   4.248   1.439 -0.3652 -0.8459 -0.4125
  896MPD2    C113180   4.613   4.253   1.300 -0.2850 -0.6328 -0.6817
  896MPD2    C213181   4.482   4.285   1.259  0.1826  0.5229 -0.0693
  896MPD2    C313182   4.380   4.318   1.347  0.0123  0.2203 -0.1623
  896MPD2    C413183   4.407   4.333   1.478 -0.2814 -0.0778 -0.3945
  896MPD2    C513184   4.527   4.287   1.517  0.0044  0.3840 -0.0868
  896MPD2     H13185   4.465   4.284   1.152  0.4733 -1.1211 -0.0936
  896MPD2    H113186   4.336   4.344   1.559 -0.2124 -1.3725 -0.1530
  896MPD2    H213187   4.719   4.206   1.480  1.6959  2.0067 -2.0712
  896MPD2    H313188   4.540   4.288   1.625  0.7287 -2.3994 -0.1519
  896MPD2     N13189   4.257   4.326   1.285 -1.0432  0.3427  0.0793
  896MPD2    H513190   4.244   4.296   1.189  1.3296  1.2828 -0.5375
  896MPD2    N113191   4.726   4.229   1.220 -0.2220 -0.4405 -0.9252
  896MPD2    H713192   0.072   4.203   1.269 -1.4623  0.8207  1.8397
  897MPD2     C13193   0.441   1.169  10.388  0.5078 -0.5076  0.7797
  897MPD2    C113194   0.441   1.280  10.467 -0.6899  1.0090  0.4688
  897MPD2    C213195   0.343   1.293  10.569 -0.8870 -0.5879  0.0621
  897MPD2    C313196   0.243   1.202  10.576  0.2246 -0.4737 -0.7292
  897MPD2    C413197   0.239   1.102  10.486 -0.2287 -0.0896  0.7562
  897MPD2    C513198   0.338   1.084  10.393 -0.7350 -0.1531 -0.0143
  897MPD2     H13199   0.349   1.361  10.654  1.7398 -0.2692 -0.3852
  897MPD2    H113200   0.161   1.026  10.490 -0.3432 -0.0855 -1.9654
  897MPD2    H213201   0.520   1.142  10.319 -0.7560  0.9518 -1.2723
  897MPD2    H313202   0.326   1.004  10.321 -1.3981  2.6520 -3.0326
  897MPD2     N13203   0.152   1.207  10.686 -0.0436 -0.1487 -0.1326
  897MPD2    H513204   0.141   1.294  10.738  0.5641  1.4515 -2.6916
  897MPD2    N113205   0.559   1.353  10.464 -0.2005  0.7208  0.5757
  897MPD2    H713206   0.631   1.319  10.402  0.7541  0.1462  2.0116
  898MPD2     C13207   2.214   2.453   0.247  0.0324 -0.2801  0.6117
  898MPD2    C113208   2.272   2.428   0.127  0.7762  0.2061  1.4431
  898MPD2    C213209   2.282   2.524   0.026  0.1623  0.0669 -0.4531
  898MPD2    C313210   2.221   2.646   0.055 -0.0333  0.3699  0.2736
  898MPD2    C413211   2.165   2.672   0.177 -0.1537  0.2943 -0.8339
  898MPD2    C513212   2.161   2.578   0.273  0.3490 -0.2099  0.4697
  898MPD2     H13213   2.320   2.506  17.677 -4.2410 -0.7438 -1.9539
  898MPD2    H113214   2.114   2.765   0.204 -1.2518 -0.4027 -0.4852
  898MPD2    H213215   2.216   2.382   0.329  2.0383 -0.4051  0.4683
  898MPD2    H313216   2.133   2.594   0.376 -0.0531 -0.9730  0.4751
  898MPD2     N13217   2.214   2.744  17.699  0.4009 -0.3798 -0.3704
  898MPD2    H513218   2.227   2.713  17.603  0.1695  2.5998 -1.3682
  898MPD2    N113219   2.334   2.303   0.107  0.5576  0.3120  0.0442
  898MPD2    H713220   2.399   2.286   0.031  1.6220  0.2521  0.9747
  899MPD2     C13221   3.018   2.545  16.998 -0.3020  0.0776 -0.0748
  899MPD2    C113222   3.046   2.653  17.086  0.4449 -0.1784 -0.2602
  899MPD2    C213223   3.004   2.637  17.220 -0.2639  0.0919 -0.5634
  899MPD2    C313224   2.952   2.516  17.264  1.0880 -0.0129  0.4475
  899MPD2    C413225   2.920   2.413  17.172 -0.8577  0.7583 -0.5539
  899MPD2    C513226   2.947   2.434  17.042 -0.9474 -0.7354 -0.7933
  899MPD2     H13227   3.000   2.721  17.288 -0.4098 -0.3645 -0.0080
  899MPD2    H113228   2.869   2.322  17.200  0.1016 -0.0207 -1.3479
  899MPD2    H213229   3.040   2.552  16.892  1.4673 -0.6197  0.2462
  899MPD2    H313230   2.923   2.357  16.969 -0.8498 -1.7215  0.2134
  899MPD2     N13231   2.905   2.488  17.391 -0.4789 -0.1574  0.2945
  899MPD2    H513232   2.851   2.404  17.410 -0.1373 -0.3765  0.2914
  899MPD2    N113233   3.104   2.768  17.032  0.0772  0.3141  0.0971
  899MPD2    H713234   3.115   2.768  16.931 -0.0630  0.0165  0.0833
  900MPD2     C13235   2.533   4.021  13.219  0.5874  0.7594  0.0230
  900MPD2    C113236   2.490   3.919  13.140 -0.0948  0.4462 -0.4366
  900MPD2    C213237   2.367   3.928  13.078  0.5438 -0.8761 -0.0440
  900MPD2    C313238   2.285   4.042  13.092  0.0768  0.5707 -1.1454
  900MPD2    C413239   2.334   4.147  13.166  0.1415 -0.2648 -0.0565
  900MPD2    C513240   2.450   4.127  13.236  0.4074 -0.3876 -0.0260
  900MPD2     H13241   2.333   3.847  13.015  1.6270  0.0481 -1.8132
  900MPD2    H113242   2.293   4.248  13.169 -0.8532 -0.7075  1.3703
  900MPD2    H213243   2.619   4.008  13.283  1.3792 -0.9128 -1.3738
  900MPD2    H313244   2.478   4.213  13.295  1.8452  0.4872 -1.9848
  900MPD2     N13245   2.170   4.064  13.009 -0.5457  0.7514 -0.8555
  900MPD2    H513246   2.148   3.991  12.942 -1.9052 -1.2450  1.7681
  900MPD2    N113247   2.568   3.799  13.138  0.7566 -0.1108  0.2913
  900MPD2    H713248   2.658   3.808  13.186  0.1867  2.3530  0.9290
  901MPD2     C13249   2.638   2.708  13.242 -0.2204 -0.4244  0.7270
  901MPD2    C113250   2.763   2.759  13.214  0.6804  0.5600  0.0687
  901MPD2    C213251   2.779   2.897  13.204 -0.0276  0.0750 -0.2302
  901MPD2    C313252   2.668   2.976  13.201  0.0019  0.0799 -0.0934
  901MPD2    C413253   2.541   2.928  13.228 -0.7810 -0.5219 -0.2796
  901MPD2    C513254   2.532   2.796  13.247  0.1957 -0.5156  0.3137
  901MPD2     H13255   2.876   2.937  13.178 -0.2027  0.7052  0.0968
  901MPD2    H113256   2.458   2.995  13.249 -1.8146 -1.9053  0.0586
  901MPD2    H213257   2.605   2.607  13.263  2.5647 -1.6550 -0.9350
  901MPD2    H313258   2.433   2.753  13.253 -0.2792  0.8699  2.8062
  901MPD2     N13259   2.682   3.111  13.169  0.5163  0.4659  0.0406
  901MPD2    H513260   2.778   3.143  13.158  0.6387  0.3171  0.7042
  901MPD2    N113261   2.878   2.667  13.203 -0.9000 -0.0165 -0.9825
  901MPD2    H713262   2.865   2.567  13.216 -0.4228  0.2365  1.3996
  902MPD2     C13263   2.145   2.486  12.256 -0.0227 -0.3093 -0.2572
  902MPD2    C113264   2.188   2.479  12.387  0.4816 -0.0618  0.7466
  902MPD2    C213265   2.301   2.403  12.418  1.3659 -0.7211 -0.2646
  902MPD2    C313266   2.361   2.339  12.312 -0.3126 -0.3006  0.2945
  902MPD2    C413267   2.318   2.346  12.181 -0.4032  0.0867 -0.2260
  902MPD2    C513268   2.210   2.426  12.159 -0.2225 -0.1478  0.0173
  902MPD2     H13269   2.325   2.381  12.521 -1.9092 -2.1801  0.1818
  902MPD2    H113270   2.352   2.280  12.103  1.3954 -0.3511  0.9347
  902MPD2    H213271   2.052   2.538  12.237 -0.4334 -1.4801 -1.4543
  902MPD2    H313272   2.173   2.417  12.057 -0.7902  3.9270 -0.1366
  902MPD2     N13273   2.456   2.239  12.327  0.1811 -0.0219 -0.2754
  902MPD2    H513274   2.474   2.186  12.242 -0.9428  0.5350 -0.8537
  902MPD2    N113275   2.101   2.529  12.484 -0.9864  0.7848 -0.1195
  902MPD2    H713276   2.010   2.560  12.451 -2.2884 -2.9926 -0.0766
  903MPD2     C13277   2.436   2.062  11.855  0.1453  1.0214 -0.4825
  903MPD2    C113278   2.398   2.039  11.985 -0.3886  0.3439  0.0136
  903MPD2    C213279   2.270   2.066  12.024  0.1342 -0.0746 -0.2701
  903MPD2    C313280   2.178   2.115  11.933  0.0541 -0.5250 -1.1211
  903MPD2    C413281   2.215   2.136  11.801  0.0576 -0.5182 -0.1294
  903MPD2    C513282   2.351   2.117  11.761  0.3028  0.0075 -0.7382
  903MPD2     H13283   2.241   2.057  12.128  1.1101  0.1176  0.0154
  903MPD2    H113284   2.150   2.182  11.728 -0.1458  1.7258  1.4354
  903MPD2    H213285   2.540   2.040  11.834 -0.1056 -0.5840 -0.0239
  903MPD2    H313286   2.389   2.143  11.663 -1.6306 -0.9466 -1.7404
  903MPD2     N13287   2.040   2.134  11.968  0.1680  0.1727  0.1417
  903MPD2    H513288   2.018   2.122  12.067 -0.3871  1.9997  0.2616
  903MPD2    N113289   2.498   1.999  12.082  0.2020  0.8664 -1.2267
  903MPD2    H713290   2.595   1.985  12.057  0.1021 -1.4352 -0.2393
  904MPD2     C13291   1.846   0.593  13.823 -0.4245 -0.7124 -0.3032
  904MPD2    C113292   1.785   0.684  13.901 -0.6081 -0.2969 -0.5083
  904MPD2    C213293   1.850   0.721  14.021  0.4093 -0.2126  0.1009
  904MPD2    C313294   1.961   0.657  14.063  0.8082  0.1663 -0.1040
  904MPD2    C413295   2.010   0.553  13.983 -0.6476 -0.4249  0.6387
  904MPD2    C513296   1.955   0.526  13.862 -0.0922 -0.5290 -0.7081
  904MPD2     H13297   1.817   0.808  14.077  1.2457 -0.0592  0.3425
  904MPD2    H113298   2.099   0.492  13.997 -1.0251 -1.2929 -0.7365
  904MPD2    H213299   1.810   0.567  13.724 -0.3139  1.0566 -0.8080
  904MPD2    H313300   2.008   0.446  13.810 -0.4010 -1.6976  0.7722
  904MPD2     N13301   2.023   0.716  14.172 -0.0914  0.1932  0.0782
  904MPD2    H513302   1.983   0.799  14.214  0.1805  0.1907  0.3423
  904MPD2    N113303   1.668   0.744  13.856  0.3039  0.3089  0.3545
  904MPD2    H713304   1.632   0.729  13.763 -0.2166 -0.4168  0.6695
  905MPD2     C13305   1.204   1.107  13.283  0.2899 -0.6946 -0.0550
  905MPD2    C113306   1.322   1.123  13.349 -0.6908  0.3017  0.3749
  905MPD2    C213307   1.433   1.143  13.275  0.1680 -0.8600 -0.1790
  905MPD2    C313308   1.434   1.147  13.134  0.6323  0.0847 -0.9009
  905MPD2    C413309   1.311   1.147  13.071 -0.0945  0.5859 -0.5885
  905MPD2    C513310   1.203   1.128  13.148 -0.9187 -0.3506 -0.0673
  905MPD2     H13311   1.523   1.162  13.333 -1.7947  1.3797  2.1644
  905MPD2    H113312   1.296   1.160  12.964  1.9679 -0.6456 -1.0196
  905MPD2    H213313   1.114   1.087  13.340  0.3367  1.8688  0.9065
  905MPD2    H313314   1.104   1.135  13.103 -0.8286  0.1800 -0.1852
  905MPD2     N13315   1.549   1.186  13.065 -0.0190 -0.3326 -0.7478
  905MPD2    H513316   1.523   1.230  12.977  1.5672  1.2945 -0.3944
  905MPD2    N113317   1.325   1.104  13.489  0.2042  0.6987  0.3055
  905MPD2    H713318   1.232   1.094  13.530 -0.1121  2.1103 -0.0709
  906MPD2     C13319   3.617   1.557  11.526 -0.8078  0.5455 -0.3371
  906MPD2    C113320   3.667   1.473  11.424 -0.3159 -0.4429  0.2040
  906MPD2    C213321   3.636   1.335  11.432 -0.6943 -0.5720  0.9078
  906MPD2    C313322   3.577   1.284  11.552 -0.0328 -0.0229  0.1872
  906MPD2    C413323   3.542   1.370  11.654  0.1777 -0.2455 -0.1609
  906MPD2    C513324   3.553   1.509  11.641 -1.2146 -0.7083 -0.1304
  906MPD2     H13325   3.664   1.261  11.358  1.2149  0.9560  0.1085
  906MPD2    H113326   3.491   1.325  11.739 -0.1770  1.5803  0.6016
  906MPD2    H213327   3.641   1.663  11.525  2.0055 -0.0359  2.3828
  906MPD2    H313328   3.513   1.571  11.721  0.3551  0.1921 -0.0524
  906MPD2     N13329   3.545   1.146  11.563  0.3600 -0.4060  0.1373
  906MPD2    H513330   3.493   1.119  11.646 -0.6035  2.7306  0.5265
  906MPD2    N113331   3.726   1.516  11.305 -0.6338  0.4308  0.2501
  906MPD2    H713332   3.747   1.453  11.228 -0.2393 -1.0251  1.5496
  907MPD2     C13333   2.503   0.893  15.687  0.4526  0.4834  0.9108
  907MPD2    C113334   2.556   0.765  15.702 -0.9327  0.0997  0.3772
  907MPD2    C213335   2.617   0.746  15.824  0.2432 -0.1623  0.3097
  907MPD2    C313336   2.605   0.839  15.928 -0.1031  0.3306 -0.0207
  907MPD2    C413337   2.551   0.957  15.906  0.0839 -0.1714  0.1658
  907MPD2    C513338   2.490   0.982  15.787  0.4607  0.4513  0.3260
  907MPD2     H13339   2.669   0.652  15.839  0.1708 -0.3783 -0.8303
  907MPD2    H113340   2.539   1.038  15.977  0.1116  0.1904 -0.2413
  907MPD2    H213341   2.461   0.919  15.590  1.3898 -3.1129 -0.4884
  907MPD2    H313342   2.440   1.075  15.760 -1.1176 -0.3621  0.4925
  907MPD2     N13343   2.655   0.794  16.054  0.3961 -0.5038 -0.0567
  907MPD2    H513344   2.681   0.697  16.070  2.0210  0.2409  1.7762
  907MPD2    N113345   2.552   0.669  15.594 -0.0558  0.1466  0.0255
  907MPD2    H713346   2.602   0.581  15.605 -2.4535 -1.2093 -0.0066
  908MPD2     C13347   1.250   1.232   9.969  0.1729 -0.2519  0.0693
  908MPD2    C113348   1.142   1.160  10.008 -0.8141  0.6159  0.0785
  908MPD2    C213349   1.060   1.218  10.101  0.6047  0.5545 -0.1234
  908MPD2    C313350   1.091   1.339  10.161 -0.5361 -0.4658  0.0207
  908MPD2    C413351   1.218   1.393  10.136 -0.0458  0.4673 -0.3280
  908MPD2    C513352   1.292   1.345  10.030  0.4914 -0.6984 -0.4910
  908MPD2     H13353   0.962   1.172  10.110  0.1142  1.6063 -0.1060
  908MPD2    H113354   1.249   1.487  10.181  1.4598  0.4478 -1.3221
  908MPD2    H213355   1.319   1.185   9.900  0.2802 -0.3500  0.2430
  908MPD2    H313356   1.385   1.393   9.999  0.5988 -0.7808 -0.2994
  908MPD2     N13357   1.005   1.389  10.265 -0.2154 -0.2638 -0.3028
  908MPD2    H513358   0.935   1.326  10.304 -1.2279  1.1013  0.0824
  908MPD2    N113359   1.134   1.027   9.959  0.2543  0.3073 -0.1061
  908MPD2    H713360   1.183   0.998   9.876 -0.1894 -0.8342  0.0265
  909MPD2     C13361   0.613   3.801  11.733 -0.0176  0.1930 -0.2906
  909MPD2    C113362   0.663   3.931  11.756 -0.3478  0.2779  0.8072
  909MPD2    C213363   0.583   4.024  11.811  0.3174 -0.2114 -0.1711
  909MPD2    C313364   0.457   3.992  11.862 -0.5475  1.0192 -0.3010
  909MPD2    C413365   0.405   3.863  11.844  0.1139  0.0555 -0.6106
  909MPD2    C513366   0.490   3.772  11.789  0.5519 -0.2841 -0.4418
  909MPD2     H13367   0.624   4.124  11.818 -0.7905  0.3068 -1.0624
  909MPD2    H113368   0.312   3.835  11.893 -0.5408  0.7161 -1.4737
  909MPD2    H213369   0.674   3.727  11.682  1.0748 -0.8527  2.5281
  909MPD2    H313370   0.467   3.666  11.780  1.6275 -0.6577  1.2118
  909MPD2     N13371   0.404   4.094  11.936 -0.0011  0.7872 -0.3691
  909MPD2    H513372   0.444   4.186  11.953  1.5323 -0.1542  1.0545
  909MPD2    N113373   0.783   3.977  11.697  0.1139 -0.2756 -0.1812
  909MPD2    H713374   0.808   4.075  11.708  1.2521 -0.1893 -3.6833
  910MPD2     C13375   1.938   1.728  16.152  0.2578 -0.2505  0.4528
  910MPD2    C113376   2.016   1.617  16.115  0.6137 -0.4044 -0.2673
  910MPD2    C213377   1.966   1.545  16.013 -0.1414 -0.1337 -0.3110
  910MPD2    C313378   1.841   1.565  15.959 -0.0547  0.0041  0.3572
  910MPD2    C413379   1.779   1.681  15.996 -0.5469 -0.2013  0.3029
  910MPD2    C513380   1.827   1.759  16.087  0.4849 -0.8215  0.3290
  910MPD2     H13381   2.017   1.457  15.976 -0.8758  0.0013 -1.6283
  910MPD2    H113382   1.687   1.720  15.954 -0.1103 -0.3885 -0.8257
  910MPD2    H213383   1.973   1.807  16.218  0.3731  1.7593 -2.0166
  910MPD2    H313384   1.770   1.847  16.114  0.7541 -0.8791  1.0859
  910MPD2     N13385   1.797   1.495  15.849 -0.2233 -0.0888 -0.5606
  910MPD2    H513386   1.729   1.540  15.788 -1.1578  0.0809  0.6138
  910MPD2    N113387   2.137   1.588  16.182  0.0989 -0.3227  0.1469
  910MPD2    H713388   2.195   1.514  16.146 -0.4376 -1.3242  1.3457
  911MPD2     C13389   0.226   0.825  16.625 -0.1136  0.5468  0.2527
  911MPD2    C113390   0.236   0.941  16.567  0.7251 -0.3686  0.3721
  911MPD2    C213391   0.139   0.989  16.478  0.5685 -0.5028  0.0178
  911MPD2    C313392   0.022   0.919  16.464  0.1606 -0.0140  0.4906
  911MPD2    C413393   0.008   0.809  16.542  0.7366  0.1451  0.1212
  911MPD2    C513394   0.109   0.764  16.611  0.1607  0.0543 -0.3767
  911MPD2     H13395   0.156   1.088  16.438 -2.9400 -0.1457 -0.6051
  911MPD2    H113396   4.650   0.761  16.557 -0.1091  1.2624 -1.7207
  911MPD2    H213397   0.304   0.776  16.683  0.2645 -0.0394 -0.7435
  911MPD2    H313398   0.090   0.673  16.666  1.1418 -0.0766 -0.2505
  911MPD2     N13399   4.650   0.967  16.387 -0.0922 -0.3734 -0.1770
  911MPD2    H513400   4.573   0.901  16.383  0.8157 -1.3192 -2.6025
  911MPD2    N113401   0.358   1.008  16.591  0.3383  0.7161  0.6411
  911MPD2    H713402   0.429   0.958  16.644  1.1135  0.4816 -0.6247
  912MPD2     C13403   4.154   0.721  15.780 -0.5828  0.1320  0.2613
  912MPD2    C113404   4.152   0.759  15.914 -0.4820  0.2209  0.5671
  912MPD2    C213405   4.088   0.681  16.009  0.0121  0.0465  0.0534
  912MPD2    C313406   4.041   0.561  15.972  0.2153 -0.3837  0.1505
  912MPD2    C413407   4.029   0.526  15.841 -0.1904 -0.0223 -0.8023
  912MPD2    C513408   4.095   0.605  15.742 -0.0393 -0.2251 -0.3394
  912MPD2     H13409   4.089   0.715  16.112  0.7506  0.4799 -0.1023
  912MPD2    H113410   3.996   0.430  15.803 -2.7728  0.5393  0.0277
  912MPD2    H213411   4.203   0.782  15.705 -1.0665  0.9278  0.5929
  912MPD2    H313412   4.093   0.588  15.635  0.8000  0.8325 -0.5201
  912MPD2     N13413   3.985   0.480  16.074  0.0012 -0.1192 -0.1175
  912MPD2    H513414   4.001   0.516  16.168 -2.2163 -1.7022  0.8566
  912MPD2    N113415   4.231   0.871  15.944  0.1189  0.3849 -0.1021
  912MPD2    H713416   4.249   0.929  15.863 -0.6358 -1.1227 -1.3392
  913MPD2     C13417   0.905   3.793  10.846  0.5862 -0.6293  0.3519
  913MPD2    C113418   0.831   3.704  10.763  0.5986 -0.5754 -0.1906
  913MPD2    C213419   0.834   3.727  10.626 -0.6061  0.1059  0.4388
  913MPD2    C313420   0.904   3.830  10.569  0.3837 -0.5072  0.5460
  913MPD2    C413421   0.970   3.918  10.652 -0.5871 -0.3326  0.6633
  913MPD2    C513422   0.975   3.891  10.790  0.1876  0.7377  0.4069
  913MPD2     H13423   0.777   3.662  10.561 -0.7679 -0.6546  1.3457
  913MPD2    H113424   1.025   4.002  10.612  0.5887 -0.5157  1.8963
  913MPD2    H213425   0.905   3.791  10.954  1.1050 -1.4145  0.3323
  913MPD2    H313426   1.034   3.956  10.853 -2.2537  2.1239  1.2439
  913MPD2     N13427   0.917   3.847  10.430 -0.0171  0.4831  0.0371
  913MPD2    H513428   0.968   3.932  10.407  0.8482  0.2800  1.2196
  913MPD2    N113429   0.766   3.599  10.836 -0.0919  0.5439 -0.6205
  913MPD2    H713430   0.767   3.595  10.938 -0.1864 -0.9880 -0.6934
  914MPD2     C13431   2.799   2.855  12.481  0.1410  0.0546  0.1181
  914MPD2    C113432   2.805   2.908  12.608  0.6232  0.1784  0.1575
  914MPD2    C213433   2.880   2.842  12.704  0.5797 -0.4537 -0.1726
  914MPD2    C313434   2.936   2.715  12.681 -0.0736  0.2441  0.8956
  914MPD2    C413435   2.921   2.657  12.559  0.5684  0.0657 -0.3521
  914MPD2    C513436   2.862   2.730  12.458  0.1497  0.3509 -0.1535
  914MPD2     H13437   2.878   2.878  12.807  0.7343  0.6388 -0.5531
  914MPD2    H113438   2.948   2.554  12.542 -0.0035  0.0302 -1.0374
  914MPD2    H213439   2.744   2.897  12.397  0.3282 -2.4169 -1.2543
  914MPD2    H313440   2.838   2.686  12.362 -0.4063 -0.9999  0.6050
  914MPD2     N13441   3.012   2.653  12.777  0.1329  0.6755  0.7923
  914MPD2    H513442   3.030   2.711  12.859 -1.1021  1.4157  0.5374
  914MPD2    N113443   2.747   3.037  12.622 -0.4448  0.0463  0.2709
  914MPD2    H713444   2.695   3.077  12.544  0.7909 -0.8692 -1.0182
  915MPD2     C13445   0.960   3.078  15.610 -0.0786 -0.3062  0.3964
  915MPD2    C113446   0.823   3.091  15.635  0.3973 -0.3990 -0.2265
  915MPD2    C213447   0.784   3.121  15.764  0.0172  0.2737  0.3651
  915MPD2    C313448   0.875   3.119  15.868 -0.1218 -0.4065 -0.0644
  915MPD2    C413449   1.009   3.101  15.839 -0.2142 -0.5707  0.3046
  915MPD2    C513450   1.050   3.076  15.714  0.6978 -0.4542  0.4142
  915MPD2     H13451   0.678   3.124  15.783 -0.1253  1.1500 -0.5655
  915MPD2    H113452   1.087   3.109  15.914 -0.0819 -1.5131  0.2745
  915MPD2    H213453   1.001   3.077  15.510 -1.1105  1.6088 -0.0269
  915MPD2    H313454   1.155   3.075  15.687  0.6175 -2.6685  0.1904
  915MPD2     N13455   0.833   3.122  16.007  0.2858 -0.1629 -0.3128
  915MPD2    H513456   0.734   3.145  16.013  0.6058  0.3966  2.9467
  915MPD2    N113457   0.735   3.088  15.526  0.4815  0.0479 -0.8867
  915MPD2    H713458   0.782   3.094  15.436  1.3523 -0.4759 -0.4741
  916MPD2     C13459   3.979   1.888  15.613  0.5976 -0.3464 -0.5345
  916MPD2    C113460   3.903   1.806  15.688 -0.0696  0.0412  0.4278
  916MPD2    C213461   3.885   1.677  15.646  0.0375 -0.3668 -0.2656
  916MPD2    C313462   3.931   1.636  15.518  0.3082 -0.0243  0.2855
  916MPD2    C413463   4.010   1.719  15.451 -0.2112  0.7176  0.3468
  916MPD2    C513464   4.038   1.845  15.500  0.1502  0.1983 -0.1545
  916MPD2     H13465   3.828   1.610  15.709 -0.3884  0.7950  0.5657
  916MPD2    H113466   4.062   1.691  15.361 -1.0497  0.4478 -0.0512
  916MPD2    H213467   4.009   1.987  15.645  1.1762 -0.4387 -0.7880
  916MPD2    H313468   4.113   1.907  15.451 -0.5788  0.8661 -0.4268
  916MPD2     N13469   3.904   1.502  15.475  0.3278  0.2378  0.3307
  916MPD2    H513470   3.852   1.459  15.551  0.8247 -0.2456  0.3888
  916MPD2    N113471   3.857   1.857  15.812  0.2767  0.0745 -0.2605
  916MPD2    H713472   3.863   1.957  15.825 -0.5781  0.1323 -0.2872
  917MPD2     C13473   4.236   3.741  11.518 -0.0479 -0.4749 -0.2609
  917MPD2    C113474   4.261   3.764  11.650  0.6833  0.4166 -0.3326
  917MPD2    C213475   4.291   3.894  11.685 -0.2428  0.2088 -0.6392
  917MPD2    C313476   4.284   3.998  11.599  0.5213  0.3257 -0.5526
  917MPD2    C413477   4.253   3.975  11.468  0.2108 -0.4916 -0.4636
  917MPD2    C513478   4.225   3.847  11.427  0.1069 -0.1257 -0.3386
  917MPD2     H13479   4.309   3.919  11.789  1.2835  0.6607 -1.0247
  917MPD2    H113480   4.226   4.059  11.405  0.1903  0.8249  1.2992
  917MPD2    H213481   4.222   3.643  11.474  2.9977 -1.1239  0.2454
  917MPD2    H313482   4.191   3.834  11.325  0.4970  0.1380 -0.5012
  917MPD2     N13483   4.292   4.137  11.637 -0.4305  0.3265 -0.0952
  917MPD2    H513484   4.244   4.203  11.576 -0.4946 -0.6008 -1.0293
  917MPD2    N113485   4.222   3.656  11.735  0.4510 -0.1965  0.0402
  917MPD2    H713486   4.205   3.563  11.699  0.2322 -0.1448  0.0105
  918MPD2     C13487   3.999   4.138  12.375  0.1120  0.2066  0.2278
  918MPD2    C113488   4.119   4.068  12.392 -0.2794 -0.2687  0.1821
  918MPD2    C213489   4.122   3.934  12.365  0.4621 -0.6091 -0.1219
  918MPD2    C313490   4.012   3.869  12.310  0.4494 -0.8906 -0.1589
  918MPD2    C413491   3.890   3.938  12.302  0.0529  0.0744 -0.2730
  918MPD2    C513492   3.884   4.069  12.350 -0.1875 -0.1970  0.2447
  918MPD2     H13493   4.222   3.893  12.358  1.0155  0.8478 -0.7024
  918MPD2    H113494   3.801   3.889  12.265 -0.2975 -0.2286  0.9631
  918MPD2    H213495   3.990   4.245  12.396  0.5854  0.0684  1.1618
  918MPD2    H313496   3.792   4.123  12.370 -1.3450 -2.2724  0.4619
  918MPD2     N13497   4.039   3.743  12.261  0.4233  0.2562 -0.0764
  918MPD2    H513498   4.133   3.709  12.274  1.0244  1.8225 -0.3371
  918MPD2    N113499   4.237   4.134  12.423 -0.2071 -0.7497  0.0141
  918MPD2    H713500   4.313   4.071  12.448  0.1828  0.0291  0.7800
  919MPD2     C13501   4.568   2.793  12.207  0.2439 -0.0102 -0.0019
  919MPD2    C113502   4.494   2.697  12.138 -0.5760  0.7003  0.5277
  919MPD2    C213503   4.452   2.733  12.014 -0.5131  0.7546 -0.4775
  919MPD2    C313504   4.498   2.846  11.947 -0.3571 -0.7430 -0.1764
  919MPD2    C413505   4.584   2.930  12.007  0.5034  0.2819  0.8594
  919MPD2    C513506   4.609   2.908  12.142 -0.3762 -0.7344 -0.3778
  919MPD2     H13507   4.397   2.659  11.957 -2.1377  0.8495  0.9835
  919MPD2    H113508   4.618   3.021  11.960 -0.4530  1.8137  3.1098
  919MPD2    H213509   4.616   2.782  12.303  2.6183  1.0421 -1.0485
  919MPD2    H313510   4.689   2.965  12.188 -1.4954  0.2627  0.3272
  919MPD2     N13511   4.472   2.869  11.813  0.6437 -0.3731  0.2439
  919MPD2    H513512   4.531   2.945  11.781 -0.8553 -0.5117 -2.8525
  919MPD2    N113513   4.464   2.571  12.194  0.0626 -0.7792  0.7535
  919MPD2    H713514   4.405   2.509  12.139  0.1285  0.2273 -0.4800
  920MPD2     C13515   3.931   2.517  10.915 -1.0220  0.0890  0.3233
  920MPD2    C113516   3.971   2.644  10.895 -0.1218 -0.1218 -0.2022
  920MPD2    C213517   4.061   2.707  10.981  0.2190  0.3727 -0.0472
  920MPD2    C313518   4.097   2.647  11.096 -0.3549  0.2149 -0.2875
  920MPD2    C413519   4.070   2.512  11.105  0.8798 -0.2040  0.0718
  920MPD2    C513520   3.983   2.452  11.017  0.5360  0.0641 -0.3636
  920MPD2     H13521   4.087   2.809  10.957 -1.1569  0.3339 -1.7187
  920MPD2    H113522   4.090   2.448  11.189 -1.4478 -1.5782 -0.4180
  920MPD2    H213523   3.847   2.472  10.862  0.8055  0.1504 -2.6247
  920MPD2    H313524   3.958   2.348  11.033 -0.0798  0.4852  1.3145
  920MPD2     N13525   4.177   2.726  11.186 -0.0858  0.6971 -0.2026
  920MPD2    H513526   4.184   2.826  11.170 -2.4309  0.7234 -1.0806
  920MPD2    N113527   3.918   2.718  10.787 -0.1286 -0.3424  0.4159
  920MPD2    H713528   3.947   2.815  10.792  1.9298 -0.8912 -1.1131
  921MPD2     C13529   0.463   1.975  16.382 -0.4329  0.1762  0.5674
  921MPD2    C113530   0.593   1.924  16.385  0.0919 -0.2153  0.4858
  921MPD2    C213531   0.627   1.803  16.428  0.1892 -0.0085  0.2686
  921MPD2    C313532   0.519   1.725  16.478 -0.5523 -0.2148  0.2894
  921MPD2    C413533   0.388   1.775  16.485  0.1729  0.3353  0.3149
  921MPD2    C513534   0.366   1.897  16.435  0.0643 -0.2152 -0.4478
  921MPD2     H13535   0.725   1.766  16.401  0.6191  0.5055  1.1615
  921MPD2    H113536   0.307   1.717  16.528  0.2250  1.2992  1.7059
  921MPD2    H213537   0.429   2.071  16.346 -0.6740  0.0147  0.3589
  921MPD2    H313538   0.262   1.928  16.442 -0.1503 -1.3414  1.3698
  921MPD2     N13539   0.529   1.589  16.493 -0.4524  0.6723 -0.1005
  921MPD2    H513540   0.446   1.534  16.514  0.6053 -0.3164  1.5023
  921MPD2    N113541   0.687   1.997  16.307 -0.5149 -0.2657  0.0711
  921MPD2    H713542   0.654   2.086  16.271  2.3220  0.5500 -0.4588
  922MPD2     C13543   1.812   0.433  17.419 -0.7922 -0.5076  0.3657
  922MPD2    C113544   1.766   0.437  17.549 -0.0439  0.0818  0.4322
  922MPD2    C213545   1.722   0.316  17.594  0.2368 -0.3372  0.0101
  922MPD2    C313546   1.716   0.200  17.519  0.3692 -0.2782  0.0258
  922MPD2    C413547   1.761   0.199  17.395 -0.6941  0.4829  0.0673
  922MPD2    C513548   1.821   0.310  17.348  0.2827 -0.8808 -0.3780
  922MPD2     H13549   1.676   0.315  17.692 -2.3839  3.3714 -1.1732
  922MPD2    H113550   1.776   0.108  17.338 -1.8958 -0.1553  0.7486
  922MPD2    H213551   1.859   0.518  17.372 -1.0666 -0.0191  0.9850
  922MPD2    H313552   1.861   0.295  17.249  2.7156  3.0026 -0.0237
  922MPD2     N13553   1.674   0.080  17.582  0.0460 -0.4986  0.2333
  922MPD2    H513554   1.655   0.090  17.681 -0.5053 -1.3002  0.2044
  922MPD2    N113555   1.764   0.552  17.632  0.3355  0.1052  0.3306
  922MPD2    H713556   1.725   0.543  17.725  0.3391 -0.8343  0.2409
  923MPD2     C13557   3.013   1.985   8.671  0.3536 -0.2023 -0.3939
  923MPD2    C113558   3.025   2.074   8.772 -0.2962  0.0612 -0.0865
  923MPD2    C213559   3.085   2.032   8.891  0.2551 -0.4090 -0.7516
  923MPD2    C313560   3.136   1.905   8.908 -0.9706  0.5772 -0.7298
  923MPD2    C413561   3.118   1.818   8.805 -0.0425  0.0155  0.2590
  923MPD2    C513562   3.057   1.855   8.688  0.3335  0.1973  0.5021
  923MPD2     H13563   3.065   2.087   8.983  0.2679 -0.2775 -0.8284
  923MPD2    H113564   3.166   1.721   8.816 -0.7471 -0.0882  2.3482
  923MPD2    H213565   2.961   2.012   8.580  1.8963  1.1265 -0.8784
  923MPD2    H313566   3.043   1.776   8.615  0.1104  0.1446  0.6000
  923MPD2     N13567   3.202   1.865   9.022  0.7285 -0.6915 -0.1752
  923MPD2    H513568   3.210   1.766   9.043  0.8108 -0.2717  1.7429
  923MPD2    N113569   2.962   2.197   8.765  1.0705 -0.3155  1.1460
  923MPD2    H713570   2.904   2.213   8.683  0.1226  0.7355  2.0234
  924MPD2     C13571   2.450   0.080  16.362  0.0196  0.4651  0.5833
  924MPD2    C113572   2.452   0.166  16.466 -0.2245  0.4498 -1.0557
  924MPD2    C213573   2.530   0.285  16.449  0.0002 -0.6301  0.0693
  924MPD2    C313574   2.611   0.306  16.334  0.0338  0.0525 -0.6570
  924MPD2    C413575   2.598   0.218  16.225  0.0578 -0.9449 -0.1257
  924MPD2    C513576   2.520   0.101  16.247  0.3728  0.1215  0.0306
  924MPD2     H13577   2.539   0.354  16.531 -1.3123  1.9256 -1.9353
  924MPD2    H113578   2.651   0.230  16.131  0.6172  1.0716  0.4519
  924MPD2    H213579   2.392   4.726  16.366  0.5619  0.0794 -0.4900
  924MPD2    H313580   2.504   0.028  16.168  2.2690 -1.5246  1.1704
  924MPD2     N13581   2.697   0.423  16.331  0.4136 -0.5947  0.3156
  924MPD2    H513582   2.744   0.443  16.244  1.3432  1.0365  1.1986
  924MPD2    N113583   2.389   0.123  16.586  0.3557 -0.6621  0.5303
  924MPD2    H713584   2.371   0.024  16.598  1.0509 -0.8816 -0.2509
  925MPD2     C13585   1.729   2.330  14.683  0.5966 -0.8337  0.2275
  925MPD2    C113586   1.603   2.352  14.642 -0.1913 -0.9832 -0.1001
  925MPD2    C213587   1.508   2.401  14.733  0.1399 -0.0997 -0.0994
  925MPD2    C313588   1.543   2.412  14.868  1.1438  0.0122  0.6359
  925MPD2    C413589   1.670   2.376  14.904  0.2265 -0.3429 -0.0736
  925MPD2    C513590   1.759   2.337  14.812  0.6525  0.4818 -0.2964
  925MPD2     H13591   1.410   2.435  14.704 -1.0223  0.4598  4.4811
  925MPD2    H113592   1.702   2.385  15.007 -1.2469  1.1010  0.2633
  925MPD2    H213593   1.811   2.291  14.622  2.1898  1.5870  0.8376
  925MPD2    H313594   1.847   2.295  14.859 -0.3305  0.1621  1.2586
  925MPD2     N13595   1.443   2.448  14.971  0.4062  0.0545  0.0755
  925MPD2    H513596   1.469   2.436  15.069  1.7945  1.7785 -0.0671
  925MPD2    N113597   1.569   2.351  14.505 -0.2508  0.0358  0.1982
  925MPD2    H713598   1.479   2.384  14.475 -1.0409 -0.5103  1.9599
  926MPD2     C13599   0.215   0.655  13.444  0.4342 -0.3669 -0.5184
  926MPD2    C113600   0.109   0.744  13.428 -0.4182 -0.2343 -0.4415
  926MPD2    C213601   0.133   0.866  13.380 -0.3230 -0.4234  0.3728
  926MPD2    C313602   0.258   0.911  13.343 -0.0045  0.3679  0.5360
  926MPD2    C413603   0.363   0.831  13.367 -0.0016  0.1875 -0.2294
  926MPD2    C513604   0.351   0.706  13.421 -0.0238  0.1786  0.1145
  926MPD2     H13605   0.042   0.919  13.356  0.0113  0.4789  1.1104
  926MPD2    H113606   0.465   0.863  13.348 -0.0920  1.2272  1.0106
  926MPD2    H213607   0.212   0.552  13.478 -2.6039  0.5543  1.9858
  926MPD2    H313608   0.433   0.638  13.435 -1.8055 -1.7844  0.9814
  926MPD2     N13609   0.285   1.036  13.294 -0.3906 -0.2516  0.3392
  926MPD2    H513610   0.381   1.058  13.269 -0.8985 -1.1607 -2.4100
  926MPD2    N113611   4.722   0.709  13.467  0.1238  0.4217 -0.0797
  926MPD2    H713612   4.645   0.768  13.437  0.2361  0.0245 -1.1195
  927MPD2     C13613   4.578   2.528  17.358 -0.1349  0.6417 -0.1449
  927MPD2    C113614   4.497   2.639  17.334  0.5428 -0.4558  0.3152
  927MPD2    C213615   4.523   2.708  17.217  0.3862  0.4918 -0.3389
  927MPD2    C313616   4.610   2.660  17.119  0.1262  0.2577 -0.6753
  927MPD2    C413617   4.676   2.533  17.145 -0.2609 -0.2220  0.7565
  927MPD2    C513618   4.656   2.471  17.259  0.0130 -0.1021 -0.1053
  927MPD2     H13619   4.484   2.809  17.205  1.1709  0.7877 -0.3923
  927MPD2    H113620   0.013   2.490  17.080  0.0607  0.3152  0.7788
  927MPD2    H213621   4.579   2.484  17.457  0.8735 -0.8024 -0.7857
  927MPD2    H313622   4.700   2.377  17.289  1.4169  0.5613 -0.1038
  927MPD2     N13623   4.626   2.728  16.997 -0.8718  0.5747 -0.2375
  927MPD2    H513624   4.582   2.818  16.981  1.6117  1.3522 -2.7736
  927MPD2    N113625   4.423   2.695  17.439 -0.0173 -0.4954 -0.5069
  927MPD2    H713626   4.423   2.637  17.523 -1.9922 -0.6585 -0.6188
  928MPD2     C13627   2.508   1.693   1.168  0.3450 -0.7312 -0.1987
  928MPD2    C113628   2.620   1.775   1.151  0.3510 -0.9418  0.3378
  928MPD2    C213629   2.700   1.776   1.035 -0.0448  0.3527  0.5975
  928MPD2    C313630   2.663   1.703   0.927 -0.0252  0.0527 -0.4402
  928MPD2    C413631   2.542   1.620   0.942 -0.6178 -0.8119 -0.0698
  928MPD2    C513632   2.472   1.617   1.059  0.1099  0.1666 -0.2351
  928MPD2     H13633   2.781   1.848   1.033 -1.2027  1.6823  2.0492
  928MPD2    H113634   2.508   1.556   0.861 -0.8094 -0.1054 -0.5423
  928MPD2    H213635   2.449   1.696   1.259  1.0032  3.0306  0.1337
  928MPD2    H313636   2.384   1.554   1.057  0.7981 -0.7479 -1.4856
  928MPD2     N13637   2.752   1.706   0.818 -0.4533  0.1581 -0.4805
  928MPD2    H513638   2.824   1.775   0.831  0.9740 -1.5429  0.6585
  928MPD2    N113639   2.646   1.844   1.274 -0.4693  0.9881  0.4685
  928MPD2    H713640   2.587   1.825   1.355  1.5904  0.7139  1.8915
  929MPD2     C13641   2.654   1.715  10.268  0.0177  0.8259  0.7851
  929MPD2    C113642   2.684   1.629  10.168 -0.2734  0.0985  0.7664
  929MPD2    C213643   2.749   1.686  10.053 -0.0051  0.3558 -0.5907
  929MPD2    C313644   2.753   1.823  10.030 -0.0666 -0.1555 -0.5687
  929MPD2    C413645   2.707   1.901  10.130 -0.4426 -0.4580  0.1830
  929MPD2    C513646   2.668   1.855  10.250 -0.4419  0.0663  0.6903
  929MPD2     H13647   2.776   1.619   9.971  0.8773 -0.0695  0.0470
  929MPD2    H113648   2.708   2.009  10.119 -3.7321 -0.3960  0.3869
  929MPD2    H213649   2.594   1.681  10.352 -0.4573 -2.6949 -0.9820
  929MPD2    H313650   2.650   1.931  10.325 -1.3593  0.7771 -0.2527
  929MPD2     N13651   2.786   1.898   9.909  0.0454 -0.3314  0.2477
  929MPD2    H513652   2.761   1.996   9.902 -2.6052 -0.8378  2.6671
  929MPD2    N113653   2.659   1.490  10.180 -0.0584  0.0971 -0.0814
  929MPD2    H713654   2.632   1.463  10.274  2.1428  0.6185  0.7105
  930MPD2     C13655   4.425   3.723  13.784 -0.7833 -0.1057  0.4762
  930MPD2    C113656   4.542   3.672  13.735 -0.1238  0.6825 -1.1857
  930MPD2    C213657   4.536   3.554  13.670  0.9091 -0.5678  0.3010
  930MPD2    C313658   4.417   3.502  13.632 -0.5685 -0.4263  0.7917
  930MPD2    C413659   4.303   3.569  13.676  0.3330 -0.7582  0.3709
  930MPD2    C513660   4.307   3.666  13.762  0.1323  0.0433  0.1182
  930MPD2     H13661   4.627   3.500  13.649  1.3353  0.0124  0.6609
  930MPD2    H113662   4.205   3.542  13.639  0.4809 -1.9237  0.8452
  930MPD2    H213663   4.419   3.815  13.841 -2.2188 -0.1887  0.4527
  930MPD2    H313664   4.208   3.701  13.789 -0.1990 -1.7107  1.1972
  930MPD2     N13665   4.404   3.382  13.564 -0.5486  0.3022 -0.4472
  930MPD2    H513666   4.317   3.353  13.521 -0.7253  0.6193 -0.2955
  930MPD2    N113667   4.669   3.738  13.755  0.7120 -0.1524  0.0248
  930MPD2    H713668   4.661   3.831  13.795  1.9241  0.3958 -0.9917
  931MPD2     C13669   4.518   2.520   0.251  0.0611 -0.2485  0.2176
  931MPD2    C113670   4.508   2.655   0.269  0.5283 -0.1573 -0.1018
  931MPD2    C213671   4.540   2.703   0.391 -0.4841  0.6495 -0.3819
  931MPD2    C313672   4.577   2.620   0.494 -0.0201  0.1887 -0.3478
  931MPD2    C413673   4.582   2.482   0.469  0.3976 -0.4338 -0.3074
  931MPD2    C513674   4.547   2.435   0.349 -0.7204  0.0385 -0.1794
  931MPD2     H13675   4.520   2.808   0.409  1.7164  0.6081  2.4343
  931MPD2    H113676   4.591   2.406   0.545  1.6175 -0.5674 -0.5832
  931MPD2    H213677   4.496   2.480   0.152 -1.0527  2.0430 -0.4704
  931MPD2    H313678   4.534   2.329   0.332  1.2713 -0.3138  0.5004
  931MPD2     N13679   4.615   2.663   0.620 -0.2745 -0.0654 -0.3458
  931MPD2    H513680   4.650   2.593   0.685  0.4147  1.4683  0.9460
  931MPD2    N113681   4.456   2.731   0.155  0.0774 -0.0561 -0.2809
  931MPD2    H713682   4.435   2.689   0.065 -0.1525 -1.0070  0.2131
  932MPD2     C13683   1.594   1.867  11.467  0.1435 -0.9867 -0.3228
  932MPD2    C113684   1.665   1.934  11.567  0.1320  0.2927 -0.6111
  932MPD2    C213685   1.686   1.876  11.689 -0.5441 -0.6862  0.3792
  932MPD2    C313686   1.637   1.751  11.716 -0.2863 -1.2487 -1.2423
  932MPD2    C413687   1.565   1.683  11.619  0.2284  0.0217  0.8271
  932MPD2    C513688   1.546   1.738  11.495 -0.4423 -0.2734 -0.1365
  932MPD2     H13689   1.751   1.917  11.765  2.4063 -0.4606 -2.2666
  932MPD2    H113690   1.541   1.578  11.631  0.3238 -0.3130 -1.9060
  932MPD2    H213691   1.578   1.906  11.368 -1.7526  1.3133  0.9153
  932MPD2    H313692   1.486   1.687  11.421  0.9129  0.1920 -1.5620
  932MPD2     N13693   1.665   1.690  11.837 -0.1618 -0.0711  0.3309
  932MPD2    H513694   1.736   1.738  11.891  0.4628 -0.1346 -0.4309
  932MPD2    N113695   1.733   2.053  11.547 -0.4554 -0.1278 -0.1590
  932MPD2    H713696   1.787   2.086  11.627  0.2343 -0.2440 -0.5725
  933MPD2     C13697   2.455   2.155   2.042  0.5860  0.3869 -0.2191
  933MPD2    C113698   2.443   2.163   1.909  0.3668  0.2036  0.4921
  933MPD2    C213699   2.327   2.223   1.864 -0.2553 -0.1396  0.3871
  933MPD2    C313700   2.228   2.282   1.943  0.4506  0.0335 -0.6700
  933MPD2    C413701   2.245   2.266   2.083 -0.5126  0.3230 -0.2222
  933MPD2    C513702   2.357   2.202   2.126 -0.2408 -0.1155  0.2918
  933MPD2     H13703   2.311   2.239   1.758 -1.0734  2.4445  0.9124
  933MPD2    H113704   2.179   2.308   2.157 -0.1250 -1.9784  1.4324
  933MPD2    H213705   2.545   2.124   2.094  0.5069 -1.8280 -1.4056
  933MPD2    H313706   2.372   2.194   2.234  2.0487 -0.5177 -0.0631
  933MPD2     N13707   2.124   2.360   1.884 -0.0908  0.9598 -0.3611
  933MPD2    H513708   2.134   2.392   1.788  2.5106 -2.5580 -1.2497
  933MPD2    N113709   2.552   2.115   1.823 -0.1605  0.2919 -0.1801
  933MPD2    H713710   2.633   2.087   1.879  0.4013 -0.7602 -1.5244
  934MPD2     C13711   3.891   4.214   1.546  0.5203 -0.6994  0.2072
  934MPD2    C113712   3.935   4.096   1.497  0.4202 -0.0664  0.6483
  934MPD2    C213713   3.844   4.010   1.441 -0.2550  0.1239  0.6695
  934MPD2    C313714   3.712   4.041   1.425 -0.0067 -1.0258 -0.3011
  934MPD2    C413715   3.665   4.159   1.481  0.2516  0.4043 -0.6295
  934MPD2    C513716   3.754   4.243   1.537 -0.0191 -0.1025 -0.2848
  934MPD2     H13717   3.889   3.914   1.418 -2.5332 -0.7492 -0.1012
  934MPD2    H113718   3.564   4.191   1.458 -0.2592 -0.8886 -0.1839
  934MPD2    H213719   3.957   4.289   1.587  0.0901  0.6472 -1.5643
  934MPD2    H313720   3.725   4.337   1.582 -0.4930  0.3715 -1.5715
  934MPD2     N13721   3.618   3.954   1.367  0.3285 -0.4986 -0.2254
  934MPD2    H513722   3.523   3.989   1.353  1.4205  1.3546 -2.8828
  934MPD2    N113723   4.070   4.060   1.514 -1.5093 -0.0030  0.2471
  934MPD2    H713724   4.108   3.980   1.463 -1.2190 -0.9233  1.8836
  935MPD2     C13725   3.780   3.046   1.002 -0.4765 -0.6369  0.0575
  935MPD2    C113726   3.652   3.065   0.947  0.6134 -0.7182 -0.1461
  935MPD2    C213727   3.590   3.179   0.981  0.0747  0.3079 -0.2168
  935MPD2    C313728   3.647   3.271   1.066 -0.1402 -0.4894  0.2179
  935MPD2    C413729   3.770   3.248   1.117 -0.2377 -0.2171  0.3773
  935MPD2    C513730   3.838   3.129   1.089 -0.2619  0.9795 -1.3078
  935MPD2     H13731   3.494   3.195   0.934 -0.4087  1.3551  1.1080
  935MPD2    H113732   3.809   3.318   1.189 -0.4420  0.4142 -0.1274
  935MPD2    H213733   3.836   2.953   0.997  1.2459  0.3939 -0.1626
  935MPD2    H313734   3.929   3.106   1.144  0.2773  0.8901 -2.2323
  935MPD2     N13735   3.584   3.389   1.113  0.0695  0.3547 -0.4177
  935MPD2    H513736   3.630   3.441   1.187  0.9975 -0.9228 -0.1028
  935MPD2    N113737   3.593   2.964   0.863  0.3903 -0.2857 -0.2359
  935MPD2    H713738   3.505   2.990   0.820 -0.5436 -0.5382  1.5717
  936MPD2     C13739   2.202   4.439  12.736 -0.5459  0.2081 -0.1904
  936MPD2    C113740   2.198   4.554  12.813  0.2958  0.0709  1.0069
  936MPD2    C213741   2.180   4.676  12.750  0.4074 -0.0637 -0.6661
  936MPD2    C313742   2.160   4.686  12.610  0.1219  0.0479  0.0467
  936MPD2    C413743   2.164   4.571  12.537  0.2092  0.7326  0.6183
  936MPD2    C513744   2.189   4.450  12.598  0.5174  0.0155  0.5277
  936MPD2     H13745   2.175   0.032  12.803 -0.3532 -0.7674  0.5196
  936MPD2    H113746   2.145   4.574  12.431 -1.2749 -1.3692  0.8206
  936MPD2    H213747   2.216   4.339  12.776 -1.1677  0.6384  1.0851
  936MPD2    H313748   2.196   4.362  12.535  0.9393 -0.0228  0.6277
  936MPD2     N13749   2.148   0.076  12.551  0.2715 -0.3360 -0.2692
  936MPD2    H513750   2.146   0.153  12.617 -1.3121  0.0382 -0.7666
  936MPD2    N113751   2.215   4.554  12.959  0.4960  0.3297  0.0916
  936MPD2    H713752   2.183   4.640  13.004 -2.6512 -0.3273 -0.9303
  937MPD2     C13753   0.233   1.942  12.237 -0.3041 -0.6552 -0.4681
  937MPD2    C113754   0.194   2.055  12.169  0.2790 -0.5221  0.3074
  937MPD2    C213755   0.259   2.082  12.049  0.0059 -0.8343 -0.9380
  937MPD2    C313756   0.358   1.999  11.992 -0.2327  0.9935 -0.1997
  937MPD2    C413757   0.370   1.875  12.053  0.2203 -0.5331  0.2599
  937MPD2    C513758   0.317   1.855  12.181  0.8723  0.1521 -0.1658
  937MPD2     H13759   0.240   2.181  12.011 -0.6183 -0.8113 -0.5584
  937MPD2    H113760   0.439   1.798  12.020 -1.2613 -0.3476 -3.3053
  937MPD2    H213761   0.187   1.913  12.331  2.9120 -0.3267  1.2089
  937MPD2    H313762   0.350   1.768  12.236  1.0063 -0.0359 -0.5378
  937MPD2     N13763   0.426   2.036  11.873 -0.2663  0.5285 -0.3684
  937MPD2    H513764   0.410   2.130  11.838  0.2714  0.6347 -0.3201
  937MPD2    N113765   0.076   2.127  12.210 -0.3773 -0.3356  0.2569
  937MPD2    H713766   0.058   2.214  12.161 -0.6991  0.6669  2.1513
  938MPD2     C13767   2.858   3.261   0.796  0.5200 -0.3866 -0.8312
  938MPD2    C113768   2.808   3.352   0.881 -0.0238 -0.0759  0.0009
  938MPD2    C213769   2.709   3.309   0.969  0.4385  0.2450  0.4126
  938MPD2    C313770   2.662   3.185   0.968  0.2024  0.0204  0.6786
  938MPD2    C413771   2.716   3.092   0.880  0.8303 -0.4059  0.5128
  938MPD2    C513772   2.812   3.133   0.794 -0.0950 -0.3782 -0.2637
  938MPD2     H13773   2.673   3.376   1.046 -2.4578 -1.5538  0.6238
  938MPD2    H113774   2.670   2.995   0.875 -1.4576  0.6926  0.2770
  938MPD2    H213775   2.939   3.284   0.728  0.8336 -0.1742 -0.3863
  938MPD2    H313776   2.849   3.069   0.714 -1.1628 -0.5356 -0.6326
  938MPD2     N13777   2.548   3.146   1.041  0.1625  0.4185 -0.0850
  938MPD2    H513778   2.536   3.046   1.051  1.2804  0.4851  1.9168
  938MPD2    N113779   2.855   3.484   0.900  0.0998 -0.2288 -0.1733
  938MPD2    H713780   2.809   3.540   0.972  2.1289 -0.7736  1.5486
  939MPD2     C13781   4.598   0.037   1.248 -0.4848 -0.0918 -0.5320
  939MPD2    C113782   4.518   0.137   1.192 -0.3743  0.0652  0.2059
  939MPD2    C213783   4.495   0.133   1.058  0.0958 -0.9564 -0.5189
  939MPD2    C313784   4.515   0.018   0.981 -1.4855  0.6460  0.6547
  939MPD2    C413785   4.573   4.650   1.042 -0.3692 -0.5353 -0.0995
  939MPD2    C513786   4.619   4.659   1.174 -0.4097 -0.3614  1.0505
  939MPD2     H13787   4.451   0.222   1.013  2.0399 -0.8383 -2.2209
  939MPD2    H113788   4.596   4.558   0.989 -2.3631 -1.4002  0.5438
  939MPD2    H213789   4.631   0.025   1.351  0.2514 -2.2062 -1.0037
  939MPD2    H313790   4.672   4.574   1.215 -0.5362 -0.2705  1.4043
  939MPD2     N13791   4.488   0.024   0.843 -0.5201  0.9356  0.3551
  939MPD2    H513792   4.448   0.110   0.808  1.7513  1.1275 -1.7301
  939MPD2    N113793   4.499   0.252   1.274 -0.6783 -0.0889  0.5036
  939MPD2    H713794   4.542   0.254   1.366  1.8926  1.0917 -0.7079
  940MPD2     C13795   2.901   0.059  13.605  0.3405 -0.2209  0.0713
  940MPD2    C113796   3.034   0.046  13.616 -0.5870  0.9412 -0.2307
  940MPD2    C213797   3.105   0.012  13.503  0.1897 -0.0402 -1.0847
  940MPD2    C313798   3.047   0.001  13.377  0.1123  0.3720  0.0524
  940MPD2    C413799   2.910   0.021  13.371 -0.1360  0.4215 -0.0153
  940MPD2    C513800   2.836   0.057  13.480  0.6144  0.1829  0.1667
  940MPD2     H13801   3.208   4.723  13.520  0.3844 -0.1263 -2.4391
  940MPD2    H113802   2.864   0.026  13.273  0.5083  0.8632 -0.2975
  940MPD2    H213803   2.834   0.086  13.686  0.8845  0.7889  0.1752
  940MPD2    H313804   2.743   0.112  13.473  0.1549 -0.7379 -0.9513
  940MPD2     N13805   3.129   4.711  13.258 -0.2071 -0.2999 -0.5439
  940MPD2    H513806   3.074   4.716  13.173 -0.8216  2.6997  0.0378
  940MPD2    N113807   3.092   0.057  13.746 -0.1917  0.6097 -0.4752
  940MPD2    H713808   3.036   0.079  13.827  1.9212  0.2019  1.0871
  941MPD2     C13809   2.201   4.478   9.400  0.0627 -0.3197 -0.2252
  941MPD2    C113810   2.275   4.431   9.508  0.0684 -0.3167  0.2198
  941MPD2    C213811   2.219   4.345   9.599  0.2224  0.0610  0.8327
  941MPD2    C313812   2.090   4.298   9.576  0.1996 -0.2438 -0.0435
  941MPD2    C413813   2.020   4.344   9.465  0.0597 -0.1595 -0.3101
  941MPD2    C513814   2.073   4.439   9.388  0.2945 -0.2141 -0.0459
  941MPD2     H13815   2.273   4.329   9.691 -1.0079 -0.8625  1.3866
  941MPD2    H113816   1.926   4.298   9.438 -0.6472  0.1264  1.7040
  941MPD2    H213817   2.246   4.550   9.332 -0.0442 -0.2056 -0.1729
  941MPD2    H313818   2.012   4.465   9.302  1.7764  3.4565  0.0016
  941MPD2     N13819   2.024   4.212   9.660 -0.0881  0.0845  0.1796
  941MPD2    H513820   1.933   4.185   9.623  0.9459 -0.6711 -1.7880
  941MPD2    N113821   2.404   4.475   9.541  0.1917  0.2826  0.0862
  941MPD2    H713822   2.433   4.453   9.636  1.2914 -0.5204 -0.4324
  942MPD2     C13823   2.441   2.345   8.597 -0.0543  0.4953  0.0933
  942MPD2    C113824   2.423   2.317   8.732 -0.9834  0.3199  0.2115
  942MPD2    C213825   2.495   2.213   8.781  0.5226 -0.3008 -0.7205
  942MPD2    C313826   2.565   2.122   8.701 -0.0992 -0.7490 -0.4816
  942MPD2    C413827   2.570   2.142   8.563 -0.0931 -0.4078  0.4858
  942MPD2    C513828   2.507   2.254   8.512  0.0543  0.4116 -0.0679
  942MPD2     H13829   2.490   2.196   8.888 -0.4380 -1.9334 -1.0357
  942MPD2    H113830   2.617   2.076   8.491 -1.5638  0.8667 -1.6683
  942MPD2    H213831   2.399   2.432   8.549 -3.2034 -1.2766 -0.4075
  942MPD2    H313832   2.509   2.278   8.407  1.2223 -0.1014 -0.1675
  942MPD2     N13833   2.640   2.014   8.757  0.7169  0.4297  0.1837
  942MPD2    H513834   2.661   1.936   8.696 -0.6505 -1.0923  1.6676
  942MPD2    N113835   2.343   2.394   8.829 -0.2670 -0.2439  0.4347
  942MPD2    H713836   2.335   2.349   8.919 -0.1737 -3.4539 -1.1585
  943MPD2     C13837   1.561   0.469  10.517  0.4431  0.0370  0.9457
  943MPD2    C113838   1.471   0.366  10.506 -0.6128  0.7699 -0.7250
  943MPD2    C213839   1.341   0.378  10.559  0.4924  0.0908 -0.6604
  943MPD2    C313840   1.318   0.491  10.640  0.0175 -0.3045 -0.1402
  943MPD2    C413841   1.411   0.599  10.658  0.5063  0.1706 -0.1372
  943MPD2    C513842   1.532   0.591  10.584  0.0820  0.2630 -0.7555
  943MPD2     H13843   1.270   0.298  10.539 -0.7470  1.4279 -1.6488
  943MPD2    H113844   1.378   0.687  10.712 -0.6344 -2.1631  2.9498
  943MPD2    H213845   1.654   0.459  10.463 -0.7054 -1.2254 -0.7683
  943MPD2    H313846   1.601   0.675  10.586  0.2773  0.1208 -2.1816
  943MPD2     N13847   1.197   0.517  10.709  0.8755  0.0910 -0.1580
  943MPD2    H513848   1.184   0.608  10.752  1.1929  0.0479  0.0317
  943MPD2    N113849   1.518   0.257  10.430  0.2773  0.3042 -0.1747
  943MPD2    H713850   1.613   0.255  10.394  0.7266 -0.4980  1.0713
  944MPD2     C13851   0.674   3.390  11.348 -0.0219 -0.4016 -0.6307
  944MPD2    C113852   0.744   3.498  11.288 -0.6428  0.1236 -0.2755
  944MPD2    C213853   0.697   3.631  11.307  0.1805  0.2924  0.1414
  944MPD2    C313854   0.580   3.650  11.379  0.3571  1.0484 -0.4487
  944MPD2    C413855   0.517   3.544  11.446 -0.3543 -0.6906  0.0094
  944MPD2    C513856   0.564   3.420  11.422 -0.0190  0.0787 -0.0356
  944MPD2     H13857   0.750   3.718  11.269 -1.5172  1.6670  0.9096
  944MPD2    H113858   0.436   3.553  11.517  0.3227 -0.0521  0.7011
  944MPD2    H213859   0.706   3.287  11.337 -1.5634 -0.4871 -4.1137
  944MPD2    H313860   0.508   3.338  11.467 -0.0648  0.9530  1.4821
  944MPD2     N13861   0.529   3.780  11.391 -0.1697 -0.7279 -0.7070
  944MPD2    H513862   0.590   3.847  11.346  0.2803 -1.0461 -0.5805
  944MPD2    N113863   0.864   3.466  11.223 -0.0043  0.5254 -0.2659
  944MPD2    H713864   0.875   3.367  11.203  0.8247  1.0220 -2.2786
    1TMC1    C113865   4.387   3.921  14.824  0.1482  0.1868 -0.3797
    1TMC1    C213866   4.310   3.871  14.723 -0.7272 -0.1157 -0.6691
    1TMC1    C313867   4.371   3.798  14.625 -0.3137 -0.1218 -0.4738
    1TMC1    C413868   4.520   3.896  14.828  0.4124  0.2915 -0.1790
    1TMC1    C513869   4.577   3.822  14.731  0.1327  0.4505  0.2579
    1TMC1    C613870   4.504   3.766  14.629 -0.8001  0.0642 -0.5251
    1TMC1     C13871   4.334   4.027  14.904  0.0958  0.6918  0.4163
    1TMC1     O13872   4.371   4.030  15.020  1.3828 -0.1770  0.2146
    1TMC1     H13873   4.202   3.886  14.719 -0.6754  0.9452  1.7836
    1TMC1    H113874   4.583   3.929  14.910 -1.4912  0.2750  1.2784
    1TMC1    H213875   4.552   3.713  14.548  0.1372  0.0457  0.0375
    1TMC1    C713876   4.717   3.804  14.744 -0.1260 -0.2416  0.0699
    1TMC1    C813877   4.299   3.728  14.524  0.3877  0.0846 -0.1579
    1TMC1    O113878   0.047   3.891  14.798 -0.2890 -0.1502 -0.9661
    1TMC1    O213879   4.345   3.635  14.455 -0.1558  0.4036  0.2806
    1TMC1    O313880   0.002   3.672  14.755 -0.0489  0.3947  0.2072
    1TMC1    H313881   4.667   3.609  14.735  0.6352 -0.8403  1.5979
    1TMC1    O513882   4.218   3.815  14.467  0.3141 -0.5552 -0.4542
    1TMC1    H513883   4.195   3.898  14.515  1.6840 -0.4693  0.0368
    2MPD2     C13884   4.008   4.412  14.904 -0.1093 -0.6506 -0.8705
    2MPD2    C113885   4.065   4.402  14.782  0.1468  0.2055 -0.8281
    2MPD2    C213886   4.157   4.301  14.756  0.1820 -0.2960  0.7494
    2MPD2    C313887   4.201   4.221  14.861  0.2582  0.8716  0.0411
    2MPD2    C413888   4.146   4.238  14.989 -0.0632  0.2948 -0.2732
    2MPD2    C513889   4.040   4.332  15.009  0.4755 -0.4562 -0.6220
    2MPD2     H13890   4.212   4.281  14.664  0.9897  2.0291  0.7344
    2MPD2    H113891   4.164   4.167  15.069  0.3704  1.1267  0.3701
    2MPD2    H213892   3.924   4.479  14.919 -0.4779 -1.2005 -0.5156
    2MPD2    H313893   3.984   4.327  15.101  1.6515  2.9043  0.2723
    2MPD2     N13894   4.283   4.116  14.826  0.4917 -0.7619 -0.1348
    2MPD2    H513895   4.289   4.101  14.726  2.3027  1.8507 -0.4261
    2MPD2    N113896   4.027   4.499  14.683 -0.0930  0.4226 -0.3379
    2MPD2    H713897   3.957   4.569  14.703 -0.3881  0.3396 -1.0919
    3TMC2    C113898   4.027   4.609  14.484 -0.3894 -0.5718  0.6500
    3TMC2    C213899   3.963   4.709  14.549 -0.1017 -0.3584 -0.1572
    3TMC2    C313900   3.899   0.059  14.469 -0.3702 -0.0538  0.3988
    3TMC2    C413901   4.021   4.596  14.348  0.0892 -0.0949  0.9001
    3TMC2    C513902   3.946   4.685  14.271 -0.3287 -0.0186 -0.3181
    3TMC2    C613903   3.891   0.058  14.334  0.1995  0.2383  0.4375
    3TMC2     C13904   4.088   4.506  14.558  0.6830  0.4446 -0.6575
    3TMC2     O13905   4.180   4.441  14.509  0.2850  0.4050  0.1221
    3TMC2     H13906   3.973   4.724  14.656  1.5361 -1.1576 -0.2019
    3TMC2    H113907   4.057   4.497  14.325 -0.1156 -0.1245  0.7085
    3TMC2    H213908   3.836   0.129  14.273 -1.8602 -1.6285  0.0840
    3TMC2    C713909   3.900   4.627  14.150  0.6344  0.3789 -0.1769
    3TMC2    C813910   3.817   0.155  14.537 -0.1968 -0.3891 -0.0286
    3TMC2    O113911   3.901   4.503  14.158  0.4002  0.3172  0.1685
    3TMC2    O213912   3.793   0.265  14.492 -0.3389  0.7312 -0.5299
    3TMC2    O513913   3.746   0.098  14.637 -0.1254 -0.3859  0.1478
    3TMC2    H513914   3.747   0.000  14.632 -0.2348 -0.4859  1.9810
    4TMC2    C113915   3.385   0.486  13.668  0.0131  0.0955 -0.1777
    4TMC2    C213916   3.426   0.585  13.588 -0.0596  0.5377  0.5853
    4TMC2    C313917   3.554   0.583  13.542  0.1990 -0.4350 -0.5280
    4TMC2    C413918   3.473   0.389  13.709 -0.6221 -0.4132 -0.2746
    4TMC2    C513919   3.596   0.384  13.655  0.4820  0.6876  0.5344
    4TMC2    C613920   3.643   0.485  13.579 -0.1007  1.1487 -0.3956
    4TMC2     C13921   3.294   0.533  13.776 -0.1866 -0.8489  0.1777
    4TMC2     O13922   3.328   0.515  13.894 -0.0899  0.2555  0.3265
    4TMC2     H13923   3.369   0.676  13.575 -0.0154  0.3116 -1.1709
    4TMC2    H113924   3.437   0.318  13.783  0.9237 -0.1852  0.6992
    4TMC2    H213925   3.744   0.488  13.540 -0.1738  0.5197 -0.6239
    4TMC2    C713926   3.682   0.288  13.699  0.1035 -0.2707  0.2692
    4TMC2    C813927   3.587   0.693  13.448  0.0042  0.6675 -0.1301
    4TMC2    O113928   3.793   0.325  13.732 -0.2425  0.0172 -0.2678
    4TMC2    O213929   3.505   0.751  13.380  0.0854  0.2263  0.1847
    4TMC2    O513930   3.709   0.744  13.480  0.1401 -0.2440  0.2326
    4TMC2    H513931   3.747   0.698  13.558  1.3099 -0.8096 -0.6796
    5MPD2     C13932   2.863   0.716  13.981 -0.4223  0.0506 -0.7257
    5MPD2    C113933   2.839   0.678  13.851  0.3485  0.5900  0.7682
    5MPD2    C213934   2.945   0.636  13.771 -0.2294 -0.4836 -0.4908
    5MPD2    C313935   3.072   0.635  13.818  0.2627 -0.6293  0.2968
    5MPD2    C413936   3.095   0.677  13.951 -0.1673  0.9615 -0.3912
    5MPD2    C513937   2.991   0.717  14.026  0.7524 -0.2287  1.0696
    5MPD2     H13938   2.924   0.594  13.674  0.2957 -0.2093 -0.7212
    5MPD2    H113939   3.191   0.691  13.999 -0.5780 -0.0301  0.7074
    5MPD2    H213940   2.789   0.753  14.051  2.1901  1.7043  1.2056
    5MPD2    H313941   3.011   0.755  14.125  2.7781  1.3112  0.0695
    5MPD2     N13942   3.175   0.588  13.732 -0.0493  0.6468  0.7542
    5MPD2    H513943   3.151   0.581  13.634  3.8407 -2.7316  0.0175
    5MPD2    N113944   2.703   0.683  13.810 -0.0940 -0.0356 -0.1280
    5MPD2    H713945   2.636   0.699  13.884 -1.4960 -2.0882 -0.9798
    6MPD1     C13946   2.639   2.261  13.260 -0.2858 -0.0892 -0.0752
    6MPD1    C113947   2.563   2.193  13.173  0.1937  0.1604  0.6414
    6MPD1    C213948   2.498   2.081  13.217  0.7270 -0.0205 -0.2951
    6MPD1    C313949   2.511   2.032  13.346  0.2269  0.0095 -0.8349
    6MPD1    C413950   2.570   2.116  13.437  1.1291 -0.2926  0.2732
    6MPD1    C513951   2.639   2.223  13.394 -0.3420  0.5174  0.3783
    6MPD1     H13952   2.433   2.036  13.144 -0.4316 -0.0353  0.7424
    6MPD1    H113953   2.575   2.097  13.544 -1.6362  0.9630  0.6017
    6MPD1    H213954   2.686   2.355  13.234 -1.0327 -0.0018 -1.1173
    6MPD1    H313955   2.698   2.293  13.452  0.8127  1.2274 -1.6187
    6MPD1     N13956   2.447   1.913  13.388  0.1049 -0.2291  0.1558
    6MPD1    H513957   2.435   1.901  13.488  1.8456 -1.4277  0.2039
    6MPD1    N113958   2.519   2.264  13.063 -0.4796 -0.0374 -0.1717
    6MPD1    H613959   2.488   2.203  12.988  0.4807  0.7530 -1.2196
    6MPD1    H713960   2.596   2.322  13.029 -1.2526  1.1597  0.1114
    7MPD2     C13961   2.334   1.328  13.881 -0.1842 -0.3309 -0.2558
    7MPD2    C113962   2.296   1.294  13.757 -0.7108 -0.0940  0.3833
    7MPD2    C213963   2.258   1.160  13.741  0.5294 -0.3975 -0.1978
    7MPD2    C313964   2.270   1.063  13.837  0.2767  0.4626 -0.4334
    7MPD2    C413965   2.306   1.107  13.962  0.5478 -0.3865  0.3029
    7MPD2    C513966   2.335   1.239  13.984 -0.3441 -0.2213 -0.0744
    7MPD2     H13967   2.212   1.134  13.647 -1.3609  0.4669  0.4706
    7MPD2    H113968   2.310   1.035  14.043  0.0875  0.0462  0.7071
    7MPD2    H213969   2.349   1.433  13.907  0.5438 -0.2199 -1.1426
    7MPD2    H313970   2.366   1.279  14.080 -1.4976  2.5502 -0.8551
    7MPD2     N13971   2.264   0.922  13.806  0.6757  0.9408 -0.1346
    7MPD2    H513972   2.238   0.905  13.709  1.5300  1.0491 -0.3840
    7MPD2    N113973   2.268   1.380  13.655 -0.1450 -0.4894  0.0595
    7MPD2    H713974   2.204   1.342  13.586  0.3778 -0.8641 -0.2132
    8TMC3    C113975   2.301   0.690  13.808 -0.3758  0.0184  0.1042
    8TMC3    C213976   2.430   0.645  13.804  0.0614 -0.4771 -0.6024
    8TMC3    C313977   2.507   0.642  13.689 -0.0915  0.6073 -0.4716
    8TMC3    C413978   2.237   0.705  13.690  0.2282  0.2489  0.4629
    8TMC3    C513979   2.311   0.706  13.573  0.0525  0.1417 -0.3917
    8TMC3    C613980   2.449   0.685  13.569  0.0845 -0.1061  0.1767
    8TMC3     C13981   2.297   0.817  13.887  0.1983  0.6007  0.7320
    8TMC3     O13982   2.342   0.821  14.000  0.2768  0.9196 -0.0198
    8TMC3     H13983   2.484   0.648  13.898  0.2425 -1.5160 -0.6656
    8TMC3    H113984   2.134   0.737  13.701  0.5002  1.0571  0.6473
    8TMC3    H213985   2.506   0.688  13.477  2.7485 -0.4039  1.8295
    8TMC3    C713986   2.258   0.811  13.487  0.4405  0.0699 -0.3457
    8TMC3    C813987   2.653   0.659  13.688  1.0958 -0.8089 -0.3399
    8TMC3    O113988   2.166   0.878  13.538  0.5973  0.0025  0.2602
    8TMC3    O213989   2.714   0.647  13.580 -0.1617 -0.5674  0.0682
    9TMC3    C113990   2.347   1.697  13.358 -0.4603 -0.0147 -0.0001
    9TMC3    C213991   2.300   1.616  13.274  0.1239 -0.4868  0.6678
    9TMC3    C313992   2.230   1.506  13.308  0.0181 -0.5848  0.1084
    9TMC3    C413993   2.330   1.689  13.487 -0.2064 -0.2571 -0.0472
    9TMC3    C513994   2.260   1.575  13.528  0.0721 -0.2247  0.6445
    9TMC3    C613995   2.206   1.489  13.439 -0.2561 -0.6214 -0.0306
    9TMC3     C13996   2.398   1.819  13.301 -0.6636  0.2092  0.0127
    9TMC3     O13997   2.390   1.828  13.177  0.0543 -0.0233  0.3802
    9TMC3     H13998   2.336   1.619  13.172  0.3878  0.3098  0.7820
    9TMC3    H113999   2.386   1.744  13.561  0.4052 -1.0675  0.0945
    9TMC3    H214000   2.127   1.420  13.467 -0.1815 -0.5935  0.2498
    9TMC3    C714001   2.296   1.516  13.657 -0.4850  0.2373  1.0507
    9TMC3    C814002   2.219   1.406  13.205 -0.9285  0.4796  0.0504
    9TMC3    O114003   2.356   1.586  13.735  0.3369  0.1629  0.4377
    9TMC3    O214004   2.257   1.419  13.091  0.1164 -0.6490 -0.3870
   10MPD2     C14005   2.322   0.895  13.140  0.4905  0.2393  0.3997
   10MPD2    C114006   2.283   0.920  13.270 -0.6126  0.2950 -0.5364
   10MPD2    C214007   2.244   1.049  13.309 -0.4107  0.1126 -0.3834
   10MPD2    C314008   2.249   1.153  13.223 -0.1624  0.7905  0.4445
   10MPD2    C414009   2.291   1.129  13.096 -0.4140  0.9447 -0.6649
   10MPD2    C514010   2.316   1.005  13.052  1.5101 -0.4091 -0.0428
   10MPD2     H14011   2.208   1.062  13.410 -0.9689 -1.0763 -0.4266
   10MPD2    H114012   2.294   1.211  13.025 -1.2510  0.3905 -1.3391
   10MPD2    H214013   2.367   0.804  13.102  0.6893 -0.2943  1.9181
   10MPD2    H314014   2.350   0.994  12.950  1.7968  2.6768 -0.2841
   10MPD2     N14015   2.206   1.279  13.265  0.5094  0.2035 -0.2087
   10MPD2    H514016   2.171   1.285  13.361  0.3336  1.0040 -0.3159
   10MPD2    N114017   2.310   0.814  13.360 -0.3352 -0.0524  1.0418
   10MPD2    H714018   2.364   0.734  13.328 -0.5661  0.1418  0.1610
   11MPD2     C14019   3.743   4.563  13.914 -0.5707  0.1972 -1.1227
   11MPD2    C114020   3.798   4.686  13.940 -0.5112  0.0818  0.2796
   11MPD2    C214021   3.770   0.058  13.862  0.1045 -0.7060  0.2918
   11MPD2    C314022   3.677   0.045  13.760  0.4774 -0.3897  0.4047
   11MPD2    C414023   3.624   4.661  13.731  0.1201 -0.7770 -0.0447
   11MPD2    C514024   3.662   4.555  13.803  0.8240  0.1941 -0.6660
   11MPD2     H14025   3.813   0.156  13.883  0.6309 -0.9114  0.1900
   11MPD2    H114026   3.559   4.643  13.646 -0.6619  2.3726 -0.1247
   11MPD2    H214027   3.762   4.477  13.977 -1.9169 -0.0800 -1.0765
   11MPD2    H314028   3.614   4.463  13.770  0.7072  0.1921 -0.4873
   11MPD2     N14029   3.628   0.161  13.688  0.1198  0.3856  1.0228
   11MPD2    H514030   3.550   0.135  13.628 -0.2660  1.0044  1.2601
   11MPD2    N114031   3.864   4.711  14.055 -0.6790 -0.3817 -0.0191
   11MPD2    H714032   3.877   0.071  14.078  0.7590 -0.4794 -0.4419
    1MPD1     C14033   2.022   2.373  16.208  0.1592 -1.0030 -0.1179
    1MPD1    C114034   1.913   2.391  16.290  0.4515  0.3226 -0.3040
    1MPD1    C214035   1.921   2.443  16.423 -0.4054 -0.3340  0.5557
    1MPD1    C314036   2.040   2.444  16.491 -0.1338 -0.3506  1.0567
    1MPD1    C414037   2.151   2.435  16.408  0.1993 -0.1184 -0.1009
    1MPD1    C514038   2.138   2.410  16.269  0.4234 -0.3985 -0.8033
    1MPD1     H14039   1.830   2.462  16.479 -0.7775  1.8207 -0.7558
    1MPD1    H114040   2.248   2.455  16.450 -0.9191  1.0989  1.9028
    1MPD1    H214041   2.016   2.337  16.107 -0.3942  0.9507 -0.7879
    1MPD1    H314042   2.228   2.390  16.211 -0.0307 -0.6141 -1.4344
    1MPD1     N14043   2.055   2.468  16.626  0.1854  0.7165  0.1120
    1MPD1    H514044   2.151   2.466  16.658 -0.5441  0.1297  2.2516
    1MPD1    N114045   1.789   2.394  16.219 -0.3666  0.2895 -0.1055
    1MPD1    H614046   1.709   2.375  16.279 -1.5341 -0.1583 -1.8334
    1MPD1    H714047   1.790   2.326  16.143 -0.8930 -1.5082  1.4880
    2MPD1     C14048   1.612   2.134  17.432 -0.0319 -0.6018 -0.1666
    2MPD1    C114049   1.627   2.067  17.308 -0.2942  0.9205 -0.9098
    2MPD1    C214050   1.725   2.116  17.224  0.1593  0.1019 -0.5366
    2MPD1    C314051   1.805   2.225  17.260 -0.0191 -0.9073  0.0031
    2MPD1    C414052   1.787   2.283  17.384 -0.0283  0.5296 -0.0096
    2MPD1    C514053   1.688   2.241  17.469  0.4460 -0.8320  0.1393
    2MPD1     H14054   1.732   2.066  17.128  0.9252  0.1349 -0.4970
    2MPD1    H114055   1.848   2.370  17.406 -0.8207  1.0556  0.1135
    2MPD1    H214056   1.538   2.093  17.500 -0.9395  2.1820  0.4971
    2MPD1    H314057   1.666   2.284  17.566  1.0457  1.1231 -0.5943
    2MPD1     N14058   1.890   2.276  17.168  0.2577  0.0381 -0.5569
    2MPD1    H514059   1.878   2.248  17.072  2.0158 -1.1130 -0.4475
    2MPD1    N114060   1.549   1.954  17.277 -0.2627 -0.1065 -0.0259
    2MPD1    H614061   1.450   1.975  17.289 -0.6332  0.1642 -3.5196
    2MPD1    H714062   1.546   1.926  17.179 -1.3822  3.1189 -0.9136
    3TMC3    C114063   2.027   2.438  17.060 -0.0292  0.8504 -0.5083
    3TMC3    C214064   2.148   2.497  17.072  0.6871 -0.0348 -0.0747
    3TMC3    C314065   2.204   2.554  16.963  0.1755 -0.8272  0.2309
    3TMC3    C414066   1.940   2.457  16.951  0.6711  0.0350 -0.3599
    3TMC3    C514067   2.006   2.514  16.844  0.5786 -0.2754  0.0625
    3TMC3    C614068   2.134   2.565  16.848 -0.4453  0.0528 -0.4946
    3TMC3     C14069   1.988   2.371  17.188 -0.2047  0.1608 -0.0893
    3TMC3     O14070   2.044   2.407  17.290 -0.3702  0.8179 -0.4987
    3TMC3     H14071   2.209   2.481  17.160 -0.2082  0.3793  0.6087
    3TMC3    H114072   1.839   2.420  16.944  0.2948  0.8584  0.6675
    3TMC3    H214073   2.162   2.625  16.762 -2.1036 -1.4534 -2.0926
    3TMC3    C714074   1.955   2.492  16.715 -0.1946 -0.4315 -0.3639
    3TMC3    C814075   2.350   2.587  16.973  0.8486  0.4919 -0.3189
    3TMC3    O114076   1.833   2.480  16.702 -0.3059  0.4320  0.2608
    3TMC3    O214077   2.424   2.563  17.068  0.1414  0.4069 -0.1996
    4MPD1     C14078   2.757   2.805  16.760  0.2646  0.1462 -0.0745
    4MPD1    C114079   2.657   2.831  16.669 -0.4303 -0.0369 -0.0029
    4MPD1    C214080   2.526   2.785  16.700  0.3320 -0.1876 -0.3030
    4MPD1    C314081   2.510   2.704  16.818 -0.3827 -0.4714  0.1356
    4MPD1    C414082   2.622   2.669  16.892  0.2371 -0.0683 -0.1722
    4MPD1    C514083   2.739   2.730  16.878  0.1055 -0.2125 -0.5726
    4MPD1     H14084   2.446   2.824  16.638  1.3994  1.0842 -0.8772
    4MPD1    H114085   2.621   2.604  16.979  0.3680 -0.6453 -0.6030
    4MPD1    H214086   2.857   2.843  16.738 -0.1764  0.3146 -1.8338
    4MPD1    H314087   2.825   2.694  16.933 -1.4387 -3.2688 -0.1848
    4MPD1     N14088   2.382   2.659  16.858  0.3182  0.6155  0.3287
    4MPD1    H514089   2.304   2.688  16.800 -0.1568  2.5656  1.9440
    4MPD1    N114090   2.677   2.924  16.563  0.1558  0.5093  0.6802
    4MPD1    H614091   2.773   2.933  16.530 -0.4863  0.2476 -1.2542
    4MPD1    H714092   2.629   2.894  16.479  0.4767 -0.7332  0.9382
    1TCq1    O114093   0.713   0.528  11.694 -0.1524  0.0120 -0.0819
    1TCq1    C114094   0.599   0.585  11.643  0.4414  0.0305  0.2526
    1TCq1    O214095   0.549   0.574  11.534 -0.1417 -0.1209  0.0579
    1TCq1    C214096   0.518   0.596  11.761 -0.9096  0.2018  0.3335
    1TCq1    C314097   0.390   0.549  11.745  0.9928  0.0776 -0.0471
    1TCq1    C414098   0.330   0.515  11.860 -0.6394 -0.2874 -0.2245
    1TCq1    C514099   0.362   0.557  11.983 -0.2366  0.4440 -0.3167
    1TCq1    C614100   0.486   0.623  11.991  0.3613  0.4972  0.1778
    1TCq1    C714101   0.570   0.636  11.883  0.1033  0.4686 -0.0592
    1TCq1    C814102   0.526   0.676  12.118  0.0036  0.2555 -0.3980
    1TCq1    O414103   0.615   0.760  12.128  0.0406 -0.3107  0.2093
    1TCq1    C914104   0.196   0.476  11.843 -0.0502  0.3488  0.1087
    1TCq1    O514105   0.125   0.465  11.947  0.4931  0.3298 -0.1445
    1TCq1    O614106   0.154   0.442  11.731  0.5120 -0.1229  0.0034
    1TCq1    H114107   0.723   0.524  11.792 -2.4863  3.1523  0.2989
    1TCq1    H214108   0.357   0.513  11.649 -0.8695 -1.3926  1.1385
    1TCq1    H314109   0.290   0.549  12.064 -1.4419  3.5136 -1.0427
    1TCq1    H414110   0.667   0.684  11.889  0.1386  0.2072  1.5254
    2MPD1     C14111   0.543   0.609  12.630 -1.1010 -0.6347 -0.0039
    2MPD1    C114112   0.477   0.506  12.573 -0.7441  0.3007  0.2879
    2MPD1    C214113   0.463   0.506  12.439 -0.9555 -0.1083  0.2023
    2MPD1    C314114   0.498   0.611  12.352  0.4510 -0.1332  0.2729
    2MPD1    C414115   0.541   0.726  12.420  0.4259  0.2044  0.0051
    2MPD1    C514116   0.561   0.721  12.559  0.2271  0.3821  0.0465
    2MPD1     H14117   0.431   0.410  12.399 -0.0384 -0.6324  0.7241
    2MPD1    H114118   0.565   0.810  12.356  0.4117  0.6435  0.5876
    2MPD1    H214119   0.562   0.606  12.737 -1.6000 -1.8812  0.0516
    2MPD1    H314120   0.598   0.812  12.606  1.1895 -1.8566  3.5842
    2MPD1     N14121   0.474   0.596  12.216  0.2588 -0.3581  0.5733
    2MPD1    H514122   0.420   0.517  12.182  2.2457 -1.3058 -0.3489
    2MPD1    N114123   0.450   0.392  12.650  0.5680 -0.0607 -0.1157
    2MPD1    H614124   0.442   0.410  12.750 -0.4093 -1.5756  0.0818
    2MPD1    H714125   0.367   0.338  12.624  0.4042  0.6114 -0.9762
    1TMC1    C114126   4.229   3.322  17.411 -0.1586 -0.1606 -0.2844
    1TMC1    C214127   4.092   3.307  17.412 -0.7107 -0.1977 -0.5011
    1TMC1    C314128   4.034   3.258  17.302  0.5132  0.6230 -0.0861
    1TMC1    C414129   4.309   3.271  17.316 -0.3247 -0.2586  0.0602
    1TMC1    C514130   4.251   3.219  17.212  0.7298  0.4782  0.8934
    1TMC1    C614131   4.113   3.217  17.199  0.1212 -0.3045 -0.2924
    1TMC1     C14132   4.294   3.422  17.491 -0.6667 -0.0420 -0.6067
    1TMC1     O14133   4.413   3.413  17.514  0.2893  0.1697  0.4818
    1TMC1     H14134   4.029   3.320  17.499 -3.2584 -1.8856 -2.0932
    1TMC1    H114135   4.414   3.296  17.326 -0.1626  0.2779 -3.0773
    1TMC1    H214136   4.062   3.191  17.107  1.7615  0.9154 -1.5430
    1TMC1    C714137   4.323   3.203  17.089  0.0716  0.4515 -0.7873
    1TMC1    C814138   3.887   3.266  17.290  0.0623  0.4846  0.2953
    1TMC1    O114139   4.270   3.207  16.975  0.0149 -0.0482  0.1899
    1TMC1    O214140   3.828   3.328  17.203  0.7678  0.1997  0.2976
    1TMC1    O314141   4.432   3.137  17.117  0.0512  0.1912 -0.0077
    1TMC1    H314142   4.454   3.133  17.213  0.8679  2.0822 -0.1152
    1TMC1    O514143   3.829   3.247  17.410 -0.8318  0.0071  0.0599
    1TMC1    H514144   3.882   3.186  17.466  0.1988 -0.1161 -1.0728
    2MPD1     C14145   4.306   3.843   0.037 -0.2792  0.5099 -0.2109
    2MPD1    C114146   4.206   3.852  17.696 -0.2309 -0.1617 -0.5292
    2MPD1    C214147   4.180   3.739  17.618  0.1078 -0.2664 -0.0644
    2MPD1    C314148   4.253   3.629  17.610 -0.2637  0.2670 -0.1593
    2MPD1    C414149   4.357   3.625  17.704 -0.5722 -0.0254 -0.4172
    2MPD1    C514150   4.385   3.727   0.041 -0.2826 -0.3113  0.5767
    2MPD1     H14151   4.087   3.734  17.563  0.2743  1.9801 -0.5489
    2MPD1    H114152   4.419   3.537  17.719  0.4400  0.7184 -0.2161
    2MPD1    H214153   4.328   3.919   0.112  0.7045  0.8369 -0.8268
    2MPD1    H314154   4.459   3.715   0.119  1.4080  2.1842 -0.6308
    2MPD1     N14155   4.214   3.529  17.521  0.2873  0.3068  0.0859
    2MPD1    H514156   4.121   3.536  17.480  0.4527  0.6077 -0.2353
    2MPD1    N114157   4.109   3.957  17.708 -0.3242  0.2354 -0.7508
    2MPD1    H614158   4.158   4.042  17.734 -1.0737  0.7082 -0.8675
    2MPD1    H714159   4.062   3.978  17.619 -0.4446  1.4139 -0.4107
    1MPD1     C14160   4.203   1.406  11.335  0.4091 -0.0305  0.9285
    1MPD1    C114161   4.152   1.438  11.460 -0.1150 -0.0405  0.0249
    1MPD1    C214162   4.243   1.472  11.560 -0.8413  0.7517  0.2783
    1MPD1    C314163   4.382   1.466  11.546 -0.1134  0.9933 -0.0871
    1MPD1    C414164   4.426   1.400  11.439 -0.2187  0.7147  0.2003
    1MPD1    C514165   4.338   1.382  11.331  0.8510  0.1148  0.2682
    1MPD1     H14166   4.195   1.519  11.645 -0.3022 -0.8532  1.4778
    1MPD1    H114167   4.530   1.383  11.415 -0.8057 -1.0733 -1.0918
    1MPD1    H214168   4.136   1.397  11.249  0.5122  0.1413  0.8294
    1MPD1    H314169   4.376   1.349  11.235 -0.4416  0.8189 -0.4963
    1MPD1     N14170   4.458   1.533  11.645  0.4957  0.4057  0.0909
    1MPD1    H514171   4.407   1.566  11.727  0.3310 -2.2397  1.0869
    1MPD1    N114172   4.015   1.463  11.469 -0.4738  0.0865 -0.7215
    1MPD1    H614173   3.960   1.393  11.420 -0.4914 -0.5472  0.2142
    1MPD1    H714174   3.998   1.468  11.569  0.9494  1.8391 -0.5748
    2MPD1     C14175   3.959   2.009  11.246 -0.6035 -0.2573  0.0662
    2MPD1    C114176   3.929   2.040  11.118 -0.3287  0.1288  0.1172
    2MPD1    C214177   4.026   2.098  11.042  0.3980  0.3394 -0.4641
    2MPD1    C314178   4.156   2.121  11.088  0.7535 -0.0216 -1.1135
    2MPD1    C414179   4.183   2.088  11.218  0.8473 -0.8955 -0.2114
    2MPD1    C514180   4.086   2.033  11.299  0.6598 -0.1824 -0.1698
    2MPD1     H14181   3.994   2.129  10.943 -1.5584  3.2543  1.0816
    2MPD1    H114182   4.280   2.103  11.264  0.9981 -1.6079 -0.2954
    2MPD1    H214183   3.875   1.980  11.309 -0.8473 -0.1647 -0.2126
    2MPD1    H314184   4.103   2.008  11.403 -0.5924  1.0366  0.3298
    2MPD1     N14185   4.258   2.194  11.023 -0.7203  0.1919  0.1625
    2MPD1    H514186   4.342   2.214  11.076 -0.2482 -0.5050 -0.3227
    2MPD1    N114187   3.795   2.017  11.084 -0.3356 -0.3222  0.7242
    2MPD1    H614188   3.747   1.956  11.149  0.7988 -1.9186  0.0454
    2MPD1    H714189   3.788   1.988  10.987 -1.1724 -1.1275  1.0293
    3MPD1     C14190   4.033   2.754  10.227  0.1575  0.3501  1.0219
    3MPD1    C114191   3.951   2.664  10.292  0.3366  0.4511 -0.2828
    3MPD1    C214192   4.009   2.589  10.399 -0.1866  0.2915 -0.1801
    3MPD1    C314193   4.134   2.628  10.449 -0.1573  0.2948  0.2758
    3MPD1    C414194   4.210   2.723  10.381  0.4519  0.4180 -0.0023
    3MPD1    C514195   4.160   2.776  10.264 -0.1479  0.7122 -0.4616
    3MPD1     H14196   3.950   2.509  10.443 -0.6157  0.6448 -0.1105
    3MPD1    H114197   4.311   2.748  10.411 -0.0803 -0.2302  2.2628
    3MPD1    H214198   3.997   2.809  10.140  0.7015  0.2788  0.7514
    3MPD1    H314199   4.217   2.855  10.215 -2.2582  0.4934 -3.2417
    3MPD1     N14200   4.190   2.554  10.557 -0.2982  0.2736  0.2334
    3MPD1    H514201   4.138   2.476  10.596  0.8156 -0.7550 -0.3353
    3MPD1    N114202   3.831   2.619  10.238  0.5592  0.1635  0.5334
    3MPD1    H614203   3.768   2.583  10.310  1.1393 -4.1122 -1.0874
    3MPD1    H714204   3.788   2.693  10.183 -0.9830 -0.0614  1.4235
    4MPD2     C14205   4.344   2.067  11.956  0.5819 -0.2039  0.9019
    4MPD2    C114206   4.483   2.060  11.978  0.2935  0.5482  0.1076
    4MPD2    C214207   4.556   2.176  11.980  0.4017  0.2552  0.1318
    4MPD2    C314208   4.500   2.299  11.956  0.4993  0.1780  0.2974
    4MPD2    C414209   4.359   2.306  11.946  0.4500 -0.2532 -0.1412
    4MPD2    C514210   4.280   2.190  11.949  0.2879  0.0399  0.1902
    4MPD2     H14211   4.664   2.173  11.988  0.4092  0.1326 -0.0056
    4MPD2    H114212   4.308   2.398  11.919  1.4601  0.5731  0.7920
    4MPD2    H214213   4.275   1.983  11.960  1.5847 -1.1906 -2.1310
    4MPD2    H314214   4.172   2.197  11.942  0.2523  0.0157  0.6780
    4MPD2     N14215   4.582   2.410  11.933 -0.3951 -0.6229  0.0117
    4MPD2    H514216   4.550   2.480  11.869 -1.7716 -0.3665  0.9816
    4MPD2    N114217   4.560   1.941  11.972  0.7838  0.2111  0.0943
    4MPD2    H714218   4.661   1.955  11.969  0.6552  1.2116  0.5090
    5TMC3    C114219   4.616   1.717  11.957 -0.3203 -0.9257  0.5163
    5TMC3    C214220   4.568   1.629  11.872  0.6279  0.1528  0.1204
    5TMC3    C314221   4.649   1.607  11.763 -0.3192  0.6101  0.0672
    5TMC3    C414222   4.738   1.781  11.948 -0.4953 -0.0139 -0.8358
    5TMC3    C514223   0.074   1.755  11.837  0.0312 -0.0010  0.2547
    5TMC3    C614224   0.035   1.659  11.751 -0.5016 -0.2316 -0.0178
    5TMC3     C14225   4.510   1.813  11.985  0.4777 -0.6530 -0.9886
    5TMC3     O14226   4.395   1.787  12.002 -0.1926 -0.0442  0.5999
    5TMC3     H14227   4.476   1.576  11.896 -0.4853  3.1356  2.4398
    5TMC3    H114228   0.035   1.848  12.026 -2.9314  0.7684 -0.3885
    5TMC3    H214229   0.110   1.612  11.688 -1.8271 -0.0010 -1.7816
    5TMC3    C714230   0.111   1.883  11.778  0.5297  0.6739 -0.0489
    5TMC3    C814231   4.594   1.536  11.646  0.1160  0.2494  0.4648
    5TMC3    O114232   0.067   1.982  11.834 -0.0539  0.0078 -0.5136
    5TMC3    O214233   4.676   1.474  11.587 -0.6995  0.4308  0.0065
    6TMC3    C114234   4.361   2.306  10.845  0.5712 -0.3191  0.7051
    6TMC3    C214235   4.310   2.378  10.736  0.2281  0.2382  0.0615
    6TMC3    C314236   4.328   2.520  10.742  0.1924 -0.5655  0.0222
    6TMC3    C414237   4.431   2.366  10.941  0.4903 -0.3961 -0.1929
    6TMC3    C514238   4.449   2.505  10.940 -0.5207 -0.1126  0.1136
    6TMC3    C614239   4.393   2.581  10.840 -0.1677 -0.0874  0.5798
    6TMC3     C14240   4.264   2.210  10.886  0.0043 -0.6037 -0.3652
    6TMC3     O14241   4.179   2.181  10.803 -0.0579  0.0343  0.0406
    6TMC3     H14242   4.265   2.312  10.663  1.0375  1.1035 -1.2187
    6TMC3    H114243   4.469   2.310  11.025 -1.4933 -2.3318 -0.5841
    6TMC3    H214244   4.420   2.685  10.829  0.1193 -0.2670 -0.4422
    6TMC3    C714245   4.517   2.560  11.055  0.1306 -0.8758  0.2644
    6TMC3    C814246   4.295   2.611  10.633 -0.4025  0.1491 -0.0283
    6TMC3    O114247   4.518   2.496  11.158  0.2161  0.1836 -0.4355
    6TMC3    O214248   4.321   2.726  10.640  0.3410 -0.1085 -0.3598
    7MPD2     C14249   0.308   2.187  11.410  0.6820 -0.6432  0.5472
    7MPD2    C114250   0.268   2.219  11.538 -0.3943  0.7788  0.4548
    7MPD2    C214251   0.216   2.121  11.622  0.3243  0.4838  0.2322
    7MPD2    C314252   0.226   1.989  11.581 -0.1709 -0.3370 -0.5647
    7MPD2    C414253   0.289   1.961  11.462  0.7930  0.0002 -0.2974
    7MPD2    C514254   0.313   2.056  11.366 -0.8587  0.3378 -0.3200
    7MPD2     H14255   0.175   2.148  11.718  0.4850 -1.6920  0.9103
    7MPD2    H114256   0.294   1.857  11.431  1.6247 -0.0103 -0.1179
    7MPD2    H214257   0.342   2.267  11.345  0.3734 -1.9196 -1.1737
    7MPD2    H314258   0.341   2.035  11.263  0.4061 -2.9076  0.6725
    7MPD2     N14259   0.182   1.873  11.661  0.7754  0.3382 -0.0123
    7MPD2    H514260   0.212   1.781  11.629 -0.2302 -0.2573  0.7692
    7MPD2    N114261   0.296   2.352  11.587  1.1303  0.7913  0.3773
    7MPD2    H714262   0.309   2.426  11.519 -1.3286 -0.7163 -1.7851
    8TMC3    C114263   0.261   2.504  11.766  0.2663 -0.4533 -0.0863
    8TMC3    C214264   0.207   2.577  11.658  0.1930 -0.3086  0.4731
    8TMC3    C314265   0.075   2.612  11.672  0.0064  0.8720  0.0357
    8TMC3    C414266   0.190   2.474  11.877  0.6973 -0.9544  0.5661
    8TMC3    C514267   0.054   2.498  11.875  0.1092 -0.3467  0.1208
    8TMC3    C614268   4.736   2.578  11.780 -0.5957 -0.5912  0.1566
    8TMC3     C14269   0.311   2.378  11.719 -0.0089 -0.3520 -0.1138
    8TMC3     O14270   0.338   2.294  11.803 -0.1970  0.0348 -0.4785
    8TMC3     H14271   0.267   2.602  11.571  1.4502  0.9394  1.7023
    8TMC3    H114272   0.231   2.414  11.957  0.4761  1.3636  2.4101
    8TMC3    H214273   4.634   2.616  11.782 -0.8083 -1.1291 -0.2862
    8TMC3    C714274   4.716   2.422  11.966 -0.1759 -0.2520  0.6335
    8TMC3    C814275   0.005   2.649  11.547  0.3368  0.4303  0.4114
    8TMC3    O114276   0.037   2.365  12.057 -0.6570  0.2239 -0.1049
    8TMC3    O214277   4.634   2.598  11.540 -0.0471  0.4328 -0.7978
    9MPD2     C14278   0.076   2.901  11.293  0.3725 -0.1009  0.2113
    9MPD2    C114279   0.015   2.793  11.347 -0.4225  0.1376  0.1800
    9MPD2    C214280   4.669   2.714  11.275  0.4069 -0.8989  0.9414
    9MPD2    C314281   4.633   2.760  11.143  0.0932 -0.3604 -0.5114
    9MPD2    C414282   4.680   2.887  11.107  0.2577 -1.0907 -0.5545
    9MPD2    C514283   0.035   2.958  11.173 -0.0410 -0.0340  0.4249
    9MPD2     H14284   4.651   2.613  11.310  2.6886 -1.5111  0.3290
    9MPD2    H114285   4.663   2.932  11.010  0.4957 -1.6712 -0.8614
    9MPD2    H214286   0.143   2.968  11.345  1.6068 -3.3359  2.7978
    9MPD2    H314287   0.073   3.056  11.147 -1.5215  0.5149  0.2971
    9MPD2     N14288   4.555   2.690  11.047 -0.1200  0.1863  0.6145
    9MPD2    H514289   4.537   2.741  10.961  2.4056 -1.0980 -0.6774
    9MPD2    N114290   0.062   2.749  11.477 -0.1860  0.3894 -0.4225
    9MPD2    H714291   0.142   2.801  11.513  1.8342 -1.1461 -2.6402
    1MPD1     C14292   3.066   0.786  16.206 -0.0520  0.4072  0.8280
    1MPD1    C114293   3.111   0.758  16.080  0.1660 -0.2323 -0.1414
    1MPD1    C214294   3.186   0.854  16.012  0.2421 -0.0954  0.0553
    1MPD1    C314295   3.191   0.987  16.055 -0.4121 -0.3517  1.2389
    1MPD1    C414296   3.138   1.012  16.175  0.5036  0.1934  0.1971
    1MPD1    C514297   3.084   0.913  16.244  0.0520  0.2573  0.4144
    1MPD1     H14298   3.233   0.823  15.919  1.0672 -2.4576  1.2718
    1MPD1    H114299   3.145   1.110  16.221 -0.5461 -1.1109  3.1144
    1MPD1    H214300   3.022   0.711  16.271 -1.2583  0.1646 -0.2810
    1MPD1    H314301   3.031   0.948  16.332 -4.3591 -3.0862 -0.9041
    1MPD1     N14302   3.260   1.090  15.992 -0.1649  0.0483  0.5456
    1MPD1    H514303   3.258   1.174  16.049  0.2431  0.6218 -0.2885
    1MPD1    N114304   3.115   0.623  16.035 -0.3064 -0.2216 -0.2895
    1MPD1    H614305   3.117   0.621  15.933  0.2359 -1.9874 -0.2329
    1MPD1    H714306   3.029   0.577  16.063  0.6884 -0.8086  1.7830
    2TMC2    C114307   3.353   1.453  15.891 -0.1768 -0.4165  0.2691
    2TMC2    C214308   3.477   1.479  15.845  0.6031  0.5412  0.2948
    2TMC2    C314309   3.538   1.375  15.789  0.3979 -0.7542 -0.2236
    2TMC2    C414310   3.305   1.331  15.900  0.0515 -0.7971 -0.2212
    2TMC2    C514311   3.382   1.228  15.856 -1.3485 -0.4889  0.9006
    2TMC2    C614312   3.501   1.246  15.793 -0.2765  0.1026  0.3663
    2TMC2     C14313   3.265   1.555  15.950 -0.2943 -0.2218  0.2972
    2TMC2     O14314   3.322   1.642  16.014 -0.3091  0.7489 -0.6230
    2TMC2     H14315   3.517   1.580  15.846  1.1332  0.3387 -1.0739
    2TMC2    H114316   3.204   1.302  15.928 -0.6366  1.2046 -0.6199
    2TMC2    H214317   3.557   1.162  15.753 -1.1763 -0.1242 -0.4147
    2TMC2    C714318   3.336   1.092  15.882  0.6149 -0.8486 -0.0270
    2TMC2    C814319   3.629   1.407  15.688 -0.3134  0.3744 -0.1572
    2TMC2    O114320   3.361   1.004  15.804  0.3670 -0.2624  0.6648
    2TMC2    O214321   3.748   1.382  15.680  0.2794  0.6573 -0.4379
    2TMC2    O514322   3.543   1.452  15.591 -0.3909 -0.3145 -0.0724
    2TMC2    H514323   3.451   1.483  15.607  0.3885 -0.2659  4.4010
    3MPD1     C14324   2.820   1.817  15.952  0.0610 -0.3557 -0.4452
    3MPD1    C114325   2.795   1.693  15.894  0.2174  0.8070  0.4984
    3MPD1    C214326   2.904   1.609  15.879 -0.2169  0.5550 -1.2072
    3MPD1    C314327   3.029   1.635  15.924 -0.0140  0.5829  0.0098
    3MPD1    C414328   3.046   1.753  15.994  0.7109 -0.0166 -0.4311
    3MPD1    C514329   2.942   1.842  16.000  0.7019 -0.0685 -0.8053
    3MPD1     H14330   2.888   1.514  15.829 -0.2096  0.5698 -1.2379
    3MPD1    H114331   3.142   1.775  16.038  1.1594 -2.0625 -0.4116
    3MPD1    H214332   2.741   1.891  15.955  0.5899  0.1794  0.2353
    3MPD1    H314333   2.962   1.939  16.044 -1.9413  0.3360 -0.5242
    3MPD1     N14334   3.136   1.533  15.914  0.6453 -0.5024 -0.7167
    3MPD1    H514335   3.113   1.444  15.871  0.9579 -1.0178  0.1849
    3MPD1    N114336   2.679   1.674  15.817  0.6585  0.1278  0.2359
    3MPD1    H614337   2.652   1.576  15.823  2.1009 -0.2486  0.4864
    3MPD1    H714338   2.601   1.730  15.850 -0.1682  0.9128 -2.9992
    1TMC1    C114339   1.762   3.753  13.537  0.4627 -0.4284  0.0720
    1TMC1    C214340   1.875   3.674  13.563  0.0903 -0.1985 -0.3835
    1TMC1    C314341   1.900   3.568  13.476  0.2012  0.3877 -0.1062
    1TMC1    C414342   1.675   3.718  13.440  0.3380  0.1773  0.3600
    1TMC1    C514343   1.702   3.611  13.361 -0.3961  0.0801 -0.4652
    1TMC1    C614344   1.817   3.541  13.369  0.3983  0.2816  0.3826
    1TMC1     C14345   1.745   3.882  13.609  0.3795  0.1010 -0.8645
    1TMC1     O14346   1.629   3.921  13.606  0.2817  0.4294 -0.3499
    1TMC1     H14347   1.932   3.689  13.654 -1.4091  1.4566  0.2856
    1TMC1    H114348   1.600   3.793  13.416  0.2519 -0.2132 -0.5948
    1TMC1    H214349   1.842   3.463  13.297 -0.9316  1.1015 -0.9759
    1TMC1    C714350   1.626   3.602  13.231  0.3125  0.2759  0.1393
    1TMC1    C814351   2.012   3.482  13.507 -0.2087  0.3218 -0.2230
    1TMC1    O114352   1.546   3.694  13.195  0.0722 -0.0176  0.3990
    1TMC1    O214353   2.082   3.493  13.608 -0.3297  0.2325  0.4898
    1TMC1    O314354   1.686   3.504  13.159  0.3276  0.2188 -0.0252
    1TMC1    H314355   1.648   3.506  13.069  0.7089 -2.6912 -0.2471
    1TMC1    O514356   1.979   3.364  13.451  0.4109  0.0939  0.4066
    1TMC1    H514357   1.920   3.358  13.373  1.7207 -0.8247 -0.5348
    2MPD2     C14358   1.762   4.129  13.758  0.5153 -0.0264  0.4636
    2MPD2    C114359   1.872   4.058  13.726 -0.1148  0.3946  0.4296
    2MPD2    C214360   2.006   4.099  13.764 -0.3475  0.2147 -0.3146
    2MPD2    C314361   2.022   4.222  13.828 -0.6583  0.0035  0.2466
    2MPD2    C414362   1.907   4.295  13.854 -0.0661 -0.0250  0.0424
    2MPD2    C514363   1.779   4.248  13.823  0.2130 -0.2298 -0.4671
    2MPD2     H14364   2.090   4.033  13.750  0.6886  1.8692 -1.7871
    2MPD2    H114365   1.908   4.393  13.901 -2.3438  0.2349 -0.4293
    2MPD2    H214366   1.661   4.096  13.739  0.5802  0.1591 -0.1898
    2MPD2    H314367   1.696   4.311  13.853  0.5903 -0.8537  1.8859
    2MPD2     N14368   2.156   4.262  13.874  0.3183 -0.0571 -0.2088
    2MPD2    H514369   2.230   4.193  13.867 -1.7898 -2.4206  0.7518
    2MPD2    N114370   1.858   3.930  13.662  0.1388 -0.3671 -0.7622
    2MPD2    H714371   1.938   3.870  13.651 -0.5583 -1.2513 -0.9928
    3TCq1    O114372   2.628   4.724  14.052 -0.5644  0.4519 -0.2844
    3TCq1    C114373   2.531   4.708  13.966 -0.4027 -0.0595  0.3783
    3TCq1    O214374   2.473   0.049  13.896 -0.6219  0.0380  0.3317
    3TCq1    C214375   2.503   4.562  13.961 -0.0603 -0.2769 -1.3334
    3TCq1    C314376   2.605   4.471  13.934 -0.7243 -0.6248  0.1751
    3TCq1    C414377   2.567   4.343  13.899 -0.3462 -0.4203 -0.2486
    3TCq1    C514378   2.428   4.311  13.903 -0.6002  0.4940 -0.0714
    3TCq1    C614379   2.331   4.406  13.946 -0.2742  0.2726 -0.5077
    3TCq1    C714380   2.368   4.536  13.968 -0.2932 -1.0928 -0.6139
    3TCq1    C814381   2.192   4.387  13.922  0.3428 -0.4611  0.8791
    3TCq1    O414382   2.112   4.484  13.920  0.2733 -0.3473 -0.0267
    3TCq1    C914383   2.659   4.242  13.849 -0.1165  0.1709  0.0150
    3TCq1    O514384   2.779   4.276  13.832 -0.1143  0.1917  0.1841
    3TCq1    O614385   2.614   4.134  13.803 -0.0206 -0.2761 -0.3539
    3TCq1    H114386   2.660   4.637  14.082 -3.9851 -1.1995 -1.3439
    3TCq1    H214387   2.706   4.508  13.918 -0.8494 -1.3683 -2.2939
    3TCq1    H314388   2.399   4.212  13.870  0.7419  0.4914 -1.2652
    3TCq1    H414389   2.289   4.609  13.980  0.3207 -0.5301  0.0109
    1MPD2     C14390   1.516   1.048  14.675  0.5540  0.6178 -0.6674
    1MPD2    C114391   1.427   0.970  14.604 -0.4790  0.4689  0.8119
    1MPD2    C214392   1.457   0.837  14.571  0.4779  0.0943  0.8721
    1MPD2    C314393   1.576   0.784  14.606 -0.2621  0.3817  0.0242
    1MPD2    C414394   1.665   0.862  14.672 -0.4850 -0.1455  0.2145
    1MPD2    C514395   1.639   0.995  14.708 -0.2178  0.0012  0.8616
    1MPD2     H14396   1.383   0.784  14.512 -1.5107  3.4801  0.3379
    1MPD2    H114397   1.762   0.829  14.707 -0.2108 -2.5782 -2.8652
    1MPD2    H214398   1.505   1.150  14.711 -0.6511  0.4015 -0.4171
    1MPD2    H314399   1.712   1.059  14.756 -2.2538  2.7976  0.2306
    1MPD2     N14400   1.607   0.650  14.590 -0.2401  0.3598 -0.1245
    1MPD2    H514401   1.697   0.613  14.619 -1.1001 -0.0322  2.0958
    1MPD2    N114402   1.303   1.017  14.575 -0.6350  0.1331  0.0854
    1MPD2    H714403   1.274   1.099  14.626  2.7985  0.1546  1.9889
    2TMC3    C114404   1.085   1.039  14.479  1.2843  0.0863  0.3711
    2TMC3    C214405   1.033   1.010  14.605 -0.2153 -0.4905 -0.1668
    2TMC3    C314406   0.897   0.984  14.609 -0.0053 -0.2541  0.6243
    2TMC3    C414407   1.012   1.039  14.367 -0.4084  0.2992 -0.0815
    2TMC3    C514408   0.876   1.015  14.371 -0.4459  0.1263  0.1024
    2TMC3    C614409   0.818   0.989  14.494  0.4090 -0.9959 -1.0086
    2TMC3     C14410   1.214   0.980  14.470 -0.2519 -0.2893  0.1860
    2TMC3     O14411   1.237   0.893  14.389  0.1547  0.1962 -0.1615
    2TMC3     H14412   1.097   0.996  14.692  1.8908 -0.9431 -1.7797
    2TMC3    H114413   1.073   1.039  14.277 -1.3353 -4.0995 -0.7018
    2TMC3    H214414   0.722   0.939  14.500 -0.4962  0.5937 -2.2926
    2TMC3    C714415   0.783   1.073  14.280 -0.2416 -0.5302  0.0026
    2TMC3    C814416   0.869   0.863  14.679  0.9681  0.3371  0.4203
    2TMC3    O114417   0.664   1.058  14.304 -0.0588  0.0018 -0.4254
    2TMC3    O214418   0.752   0.837  14.705 -0.8302 -0.3554 -0.0790
    3TCq1    O114419   0.688   1.941  13.449  0.3461  0.2658 -0.3115
    3TCq1    C114420   0.826   1.929  13.437  0.3709 -0.1345 -0.0509
    3TCq1    O214421   0.889   2.008  13.367  0.0617 -0.6011  0.3461
    3TCq1    C214422   0.880   1.863  13.550  0.5949 -0.3379  0.5772
    3TCq1    C314423   0.986   1.910  13.620  0.5988 -0.7299  1.3447
    3TCq1    C414424   1.029   1.839  13.724 -0.3701  0.4149  0.4963
    3TCq1    C514425   0.978   1.718  13.759  0.2829  0.7384 -0.0379
    3TCq1    C614426   0.862   1.680  13.691  0.6402 -0.0976 -0.4778
    3TCq1    C714427   0.806   1.754  13.592 -0.1645  0.6403 -0.2897
    3TCq1    C814428   0.758   1.594  13.760 -0.4714 -0.3510  0.4566
    3TCq1    O414429   0.645   1.599  13.709 -0.9300  0.2438 -0.0402
    3TCq1    C914430   1.157   1.877  13.790  0.7148 -0.2725 -0.5112
    3TCq1    O514431   1.212   1.796  13.872 -0.2540  0.9733 -0.6201
    3TCq1    O614432   1.227   1.965  13.729 -0.2403 -0.1234  0.4831
    3TCq1    H114433   0.653   1.901  13.531  0.7925  0.3439 -0.0842
    3TCq1    H214434   1.036   2.000  13.588 -0.8921 -0.0967  0.7714
    3TCq1    H314435   1.015   1.675  13.852 -1.1998  0.5288  0.4578
    3TCq1    H414436   0.730   1.710  13.529 -0.0592 -0.6327  0.4647
    4MPD2     C14437   0.602   1.383  13.904 -0.3335  0.5956  0.9402
    4MPD2    C114438   0.737   1.403  13.924 -0.5367 -0.2936  0.1578
    4MPD2    C214439   0.811   1.335  14.017  1.0924  0.4875 -0.3686
    4MPD2    C314440   0.758   1.235  14.097 -0.5832  0.2047 -0.1579
    4MPD2    C414441   0.617   1.217  14.077  0.2581  0.9442  0.0529
    4MPD2    C514442   0.552   1.285  13.982 -0.0044  0.2532  0.2639
    4MPD2     H14443   0.916   1.357  14.028  1.3420 -1.2579  0.8064
    4MPD2    H114444   0.556   1.145  14.131  2.2973 -0.9289 -0.1291
    4MPD2    H214445   0.525   1.435  13.847 -0.5497  0.9181  1.5331
    4MPD2    H314446   0.444   1.279  13.981  0.0992 -1.2459 -1.0159
    4MPD2     N14447   0.836   1.158  14.184  0.2446 -0.1559  0.5203
    4MPD2    H514448   0.937   1.167  14.177  0.1756 -0.0464 -0.2940
    4MPD2    N114449   0.811   1.505  13.856  0.1489 -0.4329  0.4599
    4MPD2    H714450   0.910   1.513  13.878 -0.2607  0.0866  2.1576
    5TMC2    C114451   1.434   0.284  14.731  0.9840 -0.5004  0.4577
    5TMC2    C214452   1.531   0.291  14.832 -0.2406  0.4263  0.2382
    5TMC2    C314453   1.651   0.358  14.796  0.1500  0.1743 -0.0914
    5TMC2    C414454   1.457   0.339  14.612 -0.2198  0.4658  0.1286
    5TMC2    C514455   1.564   0.422  14.592  0.1104 -0.0087 -0.2508
    5TMC2    C614456   1.668   0.414  14.678  0.3176  0.1762  0.1009
    5TMC2     C14457   1.298   0.282  14.776  0.2523  0.6100  0.7200
    5TMC2     O14458   1.256   0.231  14.882 -0.3365  0.2523  0.3440
    5TMC2     H14459   1.522   0.242  14.928 -0.7679 -0.3424 -0.1965
    5TMC2    H114460   1.378   0.323  14.540  0.7656 -1.0655 -0.6195
    5TMC2    H214461   1.770   0.443  14.653  0.4893  1.5257  2.3507
    5TMC2    C714462   1.517   0.554  14.554 -0.6686  0.0247  0.6121
    5TMC2    C814463   1.745   0.381  14.901 -0.3092 -0.7522  0.2630
    5TMC2    O114464   1.394   0.558  14.562 -0.3867 -0.0398 -0.4336
    5TMC2    O214465   1.861   0.417  14.872 -0.3854 -0.0055 -0.2286
    5TMC2    O514466   1.682   0.437  15.006  0.0874 -0.8940  0.3195
    5TMC2    H514467   1.593   0.398  15.018  0.2088 -1.4905 -0.7099
    6MPD2     C14468   0.876   0.579  14.786  0.1614  0.6932  0.9081
    6MPD2    C114469   0.970   0.641  14.706 -1.0467  0.6324  0.0718
    6MPD2    C214470   1.098   0.578  14.692  0.0943  0.0114  0.1378
    6MPD2    C314471   1.123   0.450  14.747  0.0618 -0.5313 -0.6427
    6MPD2    C414472   1.014   0.384  14.803  0.5785 -0.7221 -0.5070
    6MPD2    C514473   0.890   0.447  14.824  0.0740  0.0755 -1.1778
    6MPD2     H14474   1.167   0.644  14.639 -0.8151 -0.6497 -1.8702
    6MPD2    H114475   1.013   0.278  14.826  2.0671 -0.7790 -0.7303
    6MPD2    H214476   0.780   0.629  14.789 -1.0376 -1.8035  3.1730
    6MPD2    H314477   0.809   0.391  14.869 -1.0934  2.4709 -0.2548
    6MPD2     N14478   1.247   0.392  14.721  0.0076  0.4719 -0.5764
    6MPD2    H514479   1.308   0.460  14.677  1.0596 -0.3306 -0.3537
    6MPD2    N114480   0.969   0.774  14.668 -0.2377  0.3445  0.0636
    6MPD2    H714481   1.054   0.813  14.629  0.0420 -0.3288 -0.0021
  945NH3     N114482   3.260   3.740  13.738 -0.6231  0.6893 -0.5958
  945NH3     H214483   3.292   3.824  13.786 -1.9432  0.7110  0.2345
  945NH3     H314484   3.208   3.678  13.798  1.7677  0.3864  1.1379
  945NH3     H414485   3.182   3.775  13.682 -3.0637  0.8322  2.9182
  946SOD     NA14486   4.122   3.798  15.215 -0.3082 -0.1552 -0.1643
  947SOD     NA14487   4.118   0.360  12.447  0.2233 -0.1442  0.2531
  948SOD     NA14488   2.398   3.414  17.209  0.0038 -0.1351  0.1785
  949SOD     NA14489   1.495   2.489   9.510  0.4757  0.2333 -0.5075
  950SOD     NA14490   3.353   0.911  13.367  0.2617 -0.3941  0.1808
  951SOD     NA14491   4.491   2.215  11.523 -0.1643 -0.5905 -0.1584
  952SOD     NA14492   2.950   3.436  16.560 -0.1141 -0.2747 -0.3341
  953SOD     NA14493   4.719   3.931  11.937 -0.1238  0.2575  0.1024
  954SOL     OW14494   2.968   4.463   0.005 -0.3393 -0.5038 -0.1918
  954SOL    HW114495   3.062   4.473  17.741 -0.5281  1.5957  0.0088
  954SOL    HW214496   2.970   4.484   0.099 -2.5737 -1.5257  0.0727
  955SOL     OW14497   2.197   3.843  12.817 -0.5211 -0.2806 -0.2212
  955SOL    HW114498   2.229   3.892  12.742  1.2478 -0.5513  0.3646
  955SOL    HW214499   2.227   3.753  12.812 -1.2665 -0.5019 -0.6725
  956SOL     OW14500   0.464   2.349  14.986  0.3085 -0.5751  0.2881
  956SOL    HW114501   0.373   2.362  15.012  0.9164  2.7072  0.8326
  956SOL    HW214502   0.472   2.384  14.897  1.8350  1.5662  1.2581
  957SOL     OW14503   0.860   3.277   5.579  0.1251 -0.4062  0.6830
  957SOL    HW114504   0.867   3.181   5.582  0.6553 -0.4024 -0.5195
  957SOL    HW214505   0.914   3.292   5.657  0.4617  0.9087  0.2007
  958SOL     OW14506   1.011   0.084   5.336 -0.0672  0.1210 -0.2888
  958SOL    HW114507   1.086   0.024   5.339  0.9513  1.3749 -0.5701
  958SOL    HW214508   0.948   0.022   5.373 -0.9856  0.7279 -0.8230
  959SOL     OW14509   4.343   3.133   1.699 -0.0919  0.2625 -0.0195
  959SOL    HW114510   4.385   3.185   1.768 -2.0407  1.8862 -0.0560
  959SOL    HW214511   4.319   3.199   1.634 -3.6194  0.3709  1.4081
  960SOL     OW14512   0.560   0.231   9.094 -0.0213  0.1004 -0.0185
  960SOL    HW114513   0.553   0.136   9.091  1.0295  0.0013  0.5922
  960SOL    HW214514   0.582   0.259   9.005 -0.3918 -0.8785 -0.4219
  961SOL     OW14515   4.173   2.886   7.000 -0.0886 -0.5796  0.1549
  961SOL    HW114516   4.141   2.963   6.955  0.4668 -1.0100 -0.9636
  961SOL    HW214517   4.266   2.908   7.001 -0.1384 -0.4136  1.5950
  962SOL     OW14518   3.241   0.852   7.741 -0.1689 -0.5258 -0.1669
  962SOL    HW114519   3.269   0.894   7.822 -0.9245 -0.2884 -0.0279
  962SOL    HW214520   3.146   0.845   7.754 -0.4018  0.3597 -1.3059
  963SOL     OW14521   0.400   2.742   6.036  0.2117  0.0960  0.3913
  963SOL    HW114522   0.484   2.767   5.997  1.3734 -1.3471  1.9783
  963SOL    HW214523   0.395   2.788   6.120  1.7702  1.3958 -0.2099
  964SOL     OW14524   4.102   0.777  17.726  0.1132 -0.4502  0.3490
  964SOL    HW114525   4.038   0.737  17.667 -3.7994  1.7545  3.1000
  964SOL    HW214526   4.122   0.856  17.675  0.7800 -2.0656 -1.8687
  965SOL     OW14527   1.646   4.611   5.455 -0.3951 -0.0402 -0.2171
  965SOL    HW114528   1.733   4.583   5.484 -0.8983 -0.2201  1.1253
  965SOL    HW214529   1.592   4.545   5.499 -1.2324  0.8557  0.1074
  966SOL     OW14530   4.727   2.824   9.174  0.0194  0.0039 -0.0434
  966SOL    HW114531   4.736   2.761   9.102  3.5749 -0.3995  0.7283
  966SOL    HW214532   4.653   2.782   9.219  1.4570 -1.3389  1.0899
  967SOL     OW14533   3.308   4.233   7.762 -0.1615 -0.0704  0.5582
  967SOL    HW114534   3.246   4.266   7.697  0.0367  1.9410  1.3764
  967SOL    HW214535   3.344   4.162   7.710 -2.0459  0.3779 -1.3532
  968SOL     OW14536   3.263   2.649   2.057 -0.0818  0.6824  0.0077
  968SOL    HW114537   3.229   2.651   1.967 -0.1759  1.4862  0.0629
  968SOL    HW214538   3.339   2.704   2.038  0.9886 -1.1401 -1.0139
  969SOL     OW14539   2.906   2.713   6.484 -0.1921 -0.1839 -0.0080
  969SOL    HW114540   2.962   2.637   6.495 -0.7386 -0.3646  1.5610
  969SOL    HW214541   2.878   2.689   6.396 -1.9104  0.6360  0.3043
  970SOL     OW14542   0.244   3.459   4.644  0.4843  0.2650  0.6684
  970SOL    HW114543   0.151   3.456   4.662  0.4822  0.0230  0.6150
  970SOL    HW214544   0.282   3.418   4.722 -0.4210 -0.3873  0.7599
  971SOL     OW14545   4.598   3.969   7.748  0.3829  0.2676 -0.1845
  971SOL    HW114546   4.638   3.946   7.664 -2.4790  0.4350 -1.6201
  971SOL    HW214547   4.677   3.960   7.801  0.3909  0.4881 -0.1583
  972SOL     OW14548   0.071   3.107   0.845  0.5228 -0.3121 -0.4114
  972SOL    HW114549   0.143   3.073   0.899  0.7315  0.3728 -0.2633
  972SOL    HW214550   0.002   3.094   0.909 -0.0184  1.2311 -0.6763
  973SOL     OW14551   0.441   1.692   8.396 -0.0244  0.5856 -0.4708
  973SOL    HW114552   0.495   1.676   8.319 -1.2898  1.8572 -1.6409
  973SOL    HW214553   0.511   1.711   8.457 -2.5495  1.6224  2.0908
  974SOL     OW14554   4.569   0.378  17.198  0.1922 -0.7323  0.2317
  974SOL    HW114555   4.580   0.283  17.194 -1.6541 -0.9148 -0.3129
  974SOL    HW214556   4.654   0.405  17.234 -1.0025  1.3392  1.4706
  975SOL     OW14557   1.309   3.770   8.997  0.4760 -0.9250  0.4744
  975SOL    HW114558   1.296   3.821   8.917 -1.3903  1.7515  2.5053
  975SOL    HW214559   1.226   3.723   8.996  1.5779 -2.8311 -0.6246
  976SOL     OW14560   1.046   3.651  14.499 -0.1999  0.2397  1.0165
  976SOL    HW114561   0.982   3.580  14.502 -1.2132  1.1490  0.8739
  976SOL    HW214562   1.084   3.658  14.586 -0.6533  1.4718  1.1087
  977SOL     OW14563   1.017   3.280   5.815 -0.2587  0.3504  0.0830
  977SOL    HW114564   0.991   3.189   5.795 -2.9301  1.1026  0.1674
  977SOL    HW214565   1.112   3.274   5.830 -0.1747 -3.2602 -1.8575
  978SOL     OW14566   4.489   1.431  13.204  0.3527 -0.4359  0.1199
  978SOL    HW114567   4.460   1.473  13.285  1.0053 -0.3077  0.2885
  978SOL    HW214568   4.565   1.484  13.180 -0.2083 -1.2811 -3.4740
  979SOL     OW14569   0.914   1.347   6.735  0.5383 -0.3688  0.5246
  979SOL    HW114570   0.902   1.280   6.802  0.2563 -0.7596  0.0826
  979SOL    HW214571   0.853   1.419   6.750 -0.0925 -0.2774 -2.4025
  980SOL     OW14572   4.530   1.013   1.144  0.1544  0.1482  0.0724
  980SOL    HW114573   4.530   0.974   1.231 -1.6658  0.1810  0.0874
  980SOL    HW214574   4.438   1.010   1.119  0.2306 -1.4260  0.0315
  981SOL     OW14575   3.752   2.737   3.562 -0.2080  0.3798  0.7115
  981SOL    HW114576   3.671   2.733   3.612 -0.4728  2.4754  0.4560
  981SOL    HW214577   3.746   2.651   3.520  1.3868 -0.0282  1.2888
  982SOL     OW14578   3.029   0.987   2.702  0.7135  0.7221  0.1397
  982SOL    HW114579   3.106   1.041   2.682  0.3253  0.7085 -1.3889
  982SOL    HW214580   3.019   1.005   2.795 -2.1766 -1.4813  0.2372
  983SOL     OW14581   3.265   3.654  11.150 -0.2280 -0.2356 -0.3111
  983SOL    HW114582   3.283   3.655  11.244 -2.0112 -1.9832  0.0577
  983SOL    HW214583   3.298   3.741  11.128 -1.0368 -0.4001 -2.1887
  984SOL     OW14584   0.014   3.485   2.853  0.4866  0.5673 -0.5819
  984SOL    HW114585   0.035   3.563   2.904  0.6964 -0.6543  1.2312
  984SOL    HW214586   0.099   3.449   2.829  0.3673 -0.3171  0.3063
  985SOL     OW14587   4.610   1.452   3.701  0.2001  0.3385 -0.3938
  985SOL    HW114588   4.663   1.376   3.678  2.3992  1.7286  0.1201
  985SOL    HW214589   4.668   1.507   3.754 -1.2558 -0.9375  2.5662
  986SOL     OW14590   4.273   2.082  15.642  0.4732  0.2161 -0.0260
  986SOL    HW114591   4.299   2.064  15.552  2.8439  1.4370  0.4347
  986SOL    HW214592   4.226   2.164  15.629  0.4750  0.1167 -0.6451
  987SOL     OW14593   4.284   4.449   2.790  0.3224 -0.2114 -0.2892
  987SOL    HW114594   4.239   4.379   2.743 -0.3455  0.6499 -0.9420
  987SOL    HW214595   4.354   4.409   2.841  0.3430 -0.5203 -0.5598
  988SOL     OW14596   2.489   1.210   6.954 -0.1938  0.2034  0.0030
  988SOL    HW114597   2.507   1.294   6.997  0.9851 -0.7762  1.4190
  988SOL    HW214598   2.554   1.155   6.997 -0.2129  1.4330  1.5920
  989SOL     OW14599   0.644   1.801   7.355 -0.3883  0.1325  0.0426
  989SOL    HW114600   0.722   1.767   7.400 -0.5774  0.6914  0.8007
  989SOL    HW214601   0.690   1.861   7.296  1.5908 -0.2638  1.1567
  990SOL     OW14602   4.020   0.988   6.987 -0.2420  0.2768  0.5642
  990SOL    HW114603   4.092   1.051   6.992 -1.0607  1.3344 -0.9086
  990SOL    HW214604   4.070   0.908   7.004 -3.3561 -1.7962 -0.1347
  991SOL     OW14605   3.643   1.213   6.395 -0.2592  0.0377 -0.3348
  991SOL    HW114606   3.615   1.160   6.469 -0.0186  0.2694 -0.0794
  991SOL    HW214607   3.735   1.224   6.419  0.2535 -0.3454 -2.1030
  992SOL     OW14608   2.006   0.474  11.949 -0.2915  0.0932  0.2910
  992SOL    HW114609   1.928   0.519  11.918 -1.3460 -1.3172  0.8968
  992SOL    HW214610   2.004   0.391  11.900 -2.0307  0.5400 -0.3875
  993SOL     OW14611   2.106   0.084   2.552  0.5069 -0.4705 -0.3375
  993SOL    HW114612   2.152   0.046   2.476 -0.5010  0.0690 -1.2235
  993SOL    HW214613   2.166   0.157   2.567  0.3094 -0.0922 -1.3231
  994SOL     OW14614   3.986   0.161   1.696  0.0238  0.2458 -0.5637
  994SOL    HW114615   3.912   0.178   1.637 -0.7092  2.2943  0.9697
  994SOL    HW214616   4.046   0.224   1.657  0.7922 -0.2793 -0.2333
  995SOL     OW14617   1.600   3.727   4.245 -0.0901  0.5645  0.2461
  995SOL    HW114618   1.531   3.762   4.189 -0.0018  2.2043  1.1488
  995SOL    HW214619   1.629   3.809   4.284 -0.8250  0.8114  0.2726
  996SOL     OW14620   3.821   2.181  16.622 -0.3636  0.0209 -0.0721
  996SOL    HW114621   3.762   2.184  16.697 -0.6639  0.3849 -0.3189
  996SOL    HW214622   3.759   2.149  16.556  1.6290 -0.4314 -1.7321
  997SOL     OW14623   4.316   0.757   9.308  0.2734 -0.4681 -0.2109
  997SOL    HW114624   4.349   0.679   9.265  1.0219 -0.1572 -0.2128
  997SOL    HW214625   4.222   0.757   9.289  0.3621 -1.8614 -0.6540
  998SOL     OW14626   4.648   2.556   2.721 -0.0741  0.0764 -0.7410
  998SOL    HW114627   4.576   2.546   2.659 -0.9234 -3.9234  0.9039
  998SOL    HW214628   4.608   2.604   2.793 -0.3253 -2.3990  0.7743
  999SOL     OW14629   1.415   2.688   3.088  0.0287  0.0475  0.4133
  999SOL    HW114630   1.490   2.632   3.109 -1.2488 -1.6205  0.4843
  999SOL    HW214631   1.343   2.631   3.063  0.4011  0.4290 -1.5317
 1000SOL     OW14632   0.375   2.229   5.169  0.4797  0.3671  0.2730
 1000SOL    HW114633   0.447   2.285   5.140 -1.6073  1.4245 -2.8656
 1000SOL    HW214634   0.400   2.139   5.146 -0.8293  0.0987 -0.1261
 1001SOL     OW14635   1.819   2.925   2.658 -0.2495  0.1346 -0.6093
 1001SOL    HW114636   1.831   2.835   2.630  0.9178  0.2898 -0.6092
 1001SOL    HW214637   1.890   2.965   2.607 -1.3121 -0.9108 -2.8688
 1002SOL     OW14638   1.899   1.312   9.296  0.2536 -0.4960 -0.0254
 1002SOL    HW114639   1.907   1.222   9.328 -1.6351 -0.5939  0.2016
 1002SOL    HW214640   1.804   1.316   9.310  0.1908  0.7077 -0.8008
 1003SOL     OW14641   3.904   3.591  16.506  0.3656 -0.4992 -0.3743
 1003SOL    HW114642   3.925   3.604  16.598 -2.2241  1.4963 -0.0761
 1003SOL    HW214643   3.990   3.598  16.465 -0.0612 -1.5554 -1.4393
 1004SOL     OW14644   1.243   0.890   6.326  0.1363  0.0630  0.5769
 1004SOL    HW114645   1.235   0.979   6.361 -2.3733 -0.9048  2.3958
 1004SOL    HW214646   1.233   0.844   6.409 -0.6909 -1.0915 -0.1605
 1005SOL     OW14647   1.318   2.452   1.496  0.1879 -0.1370  0.4563
 1005SOL    HW114648   1.357   2.507   1.427  2.3090  0.1007  1.8375
 1005SOL    HW214649   1.314   2.521   1.562  0.1367 -0.3658  0.6878
 1006SOL     OW14650   4.374   1.559   7.370  0.0047  0.4345  0.7086
 1006SOL    HW114651   4.381   1.548   7.465 -5.3533 -1.6101  0.8463
 1006SOL    HW214652   4.281   1.565   7.348 -0.1597 -1.3416  0.9249
 1007SOL     OW14653   0.613   2.766  10.063 -0.5348 -0.2361 -0.2428
 1007SOL    HW114654   0.595   2.715  10.142  0.5130  1.2437  0.9764
 1007SOL    HW214655   0.652   2.848  10.097 -1.6344 -0.2383  1.0103
 1008SOL     OW14656   0.465   1.745  17.652  0.0427 -0.0316  0.1690
 1008SOL    HW114657   0.530   1.679  17.628 -2.5979 -2.2009 -1.0931
 1008SOL    HW214658   0.408   1.741  17.575 -0.4279  1.1821  0.4556
 1009SOL     OW14659   0.663   0.038   2.457  0.0109  0.1323 -0.2120
 1009SOL    HW114660   0.607   0.075   2.525  0.3304  0.6197 -0.2095
 1009SOL    HW214661   0.739   0.096   2.463 -1.0610  1.3754  1.1053
 1010SOL     OW14662   0.599   2.579   0.674 -0.0342 -0.4207  0.1702
 1010SOL    HW114663   0.573   2.552   0.762 -0.5568  1.6055  0.6357
 1010SOL    HW214664   0.687   2.616   0.681  0.6803 -1.4834 -2.9303
 1011SOL     OW14665   4.375   1.285   6.606  0.3391 -0.2976  0.1431
 1011SOL    HW114666   4.458   1.281   6.654 -0.4227 -0.1005  1.4697
 1011SOL    HW214667   4.384   1.224   6.533  2.0099  1.5103 -1.1584
 1012SOL     OW14668   1.262   2.003  12.614 -0.1133  0.4435  0.3831
 1012SOL    HW114669   1.178   2.046  12.630 -0.4932 -0.3767  0.6237
 1012SOL    HW214670   1.292   1.986  12.704  1.6123 -0.2824 -0.3273
 1013SOL     OW14671   1.500   4.107   8.642 -0.1195  0.0716 -0.8202
 1013SOL    HW114672   1.495   4.015   8.616  0.6848  0.2861 -1.7445
 1013SOL    HW214673   1.507   4.102   8.737  0.4094  1.3227 -0.7896
 1014SOL     OW14674   4.668   1.959   1.076  0.4356  0.3226  0.5301
 1014SOL    HW114675   4.688   1.891   1.140  1.6310 -0.7798 -1.0262
 1014SOL    HW214676   4.641   2.026   1.138  2.5958  0.8429  0.9310
 1015SOL     OW14677   4.702   3.530   0.094  0.1576 -0.1491 -0.3239
 1015SOL    HW114678   0.008   3.539   0.178  0.4048  0.6906 -0.5482
 1015SOL    HW214679   4.610   3.515   0.118  0.1342  0.8102  0.1590
 1016SOL     OW14680   4.679   1.588   8.043 -0.0392  0.2991 -0.0088
 1016SOL    HW114681   4.628   1.582   7.962 -1.3053  0.5517  0.7636
 1016SOL    HW214682   0.028   1.565   8.010  0.3643  3.3041 -1.0815
 1017SOL     OW14683   1.880   0.077   4.945  0.4692 -0.1199  0.2613
 1017SOL    HW114684   1.809   0.119   4.897  0.5375 -0.2291  0.0617
 1017SOL    HW214685   1.946   0.145   4.960  1.9226 -1.7766  1.4168
 1018SOL     OW14686   2.487   1.311   5.974 -0.0265  0.4809 -0.1416
 1018SOL    HW114687   2.439   1.306   6.057  0.3325  3.2600  0.2037
 1018SOL    HW214688   2.463   1.224   5.941 -0.0652  0.2374  0.5094
 1019SOL     OW14689   3.283   3.818   9.550 -0.5362 -0.4772  0.4804
 1019SOL    HW114690   3.302   3.912   9.559 -1.7925  0.0467 -2.4911
 1019SOL    HW214691   3.270   3.785   9.639  0.1767 -0.1110  0.7214
 1020SOL     OW14692   2.286   4.269   3.882  0.1278  0.1851 -0.3783
 1020SOL    HW114693   2.240   4.218   3.815  0.0765 -0.3754  0.0737
 1020SOL    HW214694   2.336   4.195   3.916  2.5785  2.9117  1.9430
 1021SOL     OW14695   4.430   2.910  16.713 -0.1547 -0.4710 -0.2439
 1021SOL    HW114696   4.451   2.831  16.663  1.1338  1.5149 -2.8362
 1021SOL    HW214697   4.340   2.922  16.684 -0.3868 -1.1930  0.1872
 1022SOL     OW14698   0.885   0.840   7.287 -0.2438 -0.3720  0.6569
 1022SOL    HW114699   0.939   0.910   7.249 -0.5804 -1.5723 -2.0465
 1022SOL    HW214700   0.812   0.849   7.226 -0.2595  2.0909  1.0229
 1023SOL     OW14701   2.832   3.800   3.925  0.0364  0.6513 -0.3043
 1023SOL    HW114702   2.768   3.836   3.986 -0.2195 -0.8861  0.3418
 1023SOL    HW214703   2.818   3.707   3.944  0.2904  0.5410 -0.6636
 1024SOL     OW14704   4.493   3.065  15.011  0.1816  0.1302 -0.4288
 1024SOL    HW114705   4.565   3.009  14.981 -0.0741  0.4612 -1.6538
 1024SOL    HW214706   4.479   3.042  15.103  2.1204  0.6561  0.0023
 1025SOL     OW14707   3.340   3.039   0.730  0.4932 -0.3050 -0.0140
 1025SOL    HW114708   3.353   3.078   0.643 -0.6614  0.5544  0.2032
 1025SOL    HW214709   3.280   3.107   0.760 -1.4457 -2.3113  0.6420
 1026SOL     OW14710   2.164   4.218   3.207  0.5754  0.0724  0.0526
 1026SOL    HW114711   2.231   4.225   3.139  1.6830  1.1561  1.2618
 1026SOL    HW214712   2.138   4.310   3.215 -0.2492 -0.3345  2.0220
 1027SOL     OW14713   4.715   1.100   5.345  0.3952  0.3683  0.7642
 1027SOL    HW114714   4.640   1.073   5.398  0.3616 -2.9662 -1.0196
 1027SOL    HW214715   4.705   1.042   5.269  0.0589  1.8798 -0.3534
 1028SOL     OW14716   3.618   0.170   7.527  0.0672  0.1095  0.5870
 1028SOL    HW114717   3.665   0.119   7.460  1.3261  1.1025  0.7049
 1028SOL    HW214718   3.691   0.223   7.558  1.4878  0.2042 -2.9155
 1029SOL     OW14719   0.050   1.060   4.828  0.1302  0.2058  0.1208
 1029SOL    HW114720   0.110   1.125   4.793  1.5964 -1.1402  0.1140
 1029SOL    HW214721   4.721   1.118   4.863  0.9782  0.4429  1.3491
 1030SOL     OW14722   1.952   0.224  15.650  0.2405 -0.4205 -0.6551
 1030SOL    HW114723   1.922   0.240  15.739 -0.0909 -0.8845 -0.6893
 1030SOL    HW214724   1.962   0.313  15.615  0.7579 -0.6604 -1.1213
 1031SOL     OW14725   2.071   0.200   2.994  0.0234  0.0364  0.7746
 1031SOL    HW114726   2.017   0.257   3.050  0.4535 -0.0882  1.3251
 1031SOL    HW214727   2.044   0.112   3.020  1.3589 -0.6126 -0.0268
 1032SOL     OW14728   0.704   4.391  10.018  0.4323  0.0779 -0.0326
 1032SOL    HW114729   0.615   4.418  10.039  0.6515  0.7006  0.1097
 1032SOL    HW214730   0.738   4.474   9.983  1.4063  0.5768  2.0619
 1033SOL     OW14731   2.868   1.280   1.378  0.6826 -0.4160 -0.1780
 1033SOL    HW114732   2.815   1.202   1.394 -1.9432  1.0232 -1.9177
 1033SOL    HW214733   2.810   1.353   1.358  1.5418  0.5442  0.7855
 1034SOL     OW14734   1.690   0.314   0.660  0.4936  0.0099 -0.4274
 1034SOL    HW114735   1.697   0.226   0.624  0.8489 -0.3257  0.4698
 1034SOL    HW214736   1.728   0.368   0.591 -1.9959  2.4133  0.0854
 1035SOL     OW14737   1.822   3.258   6.031  0.6093  0.1293 -0.3330
 1035SOL    HW114738   1.886   3.216   5.974  0.6318  1.3040 -1.1809
 1035SOL    HW214739   1.764   3.189   6.062  0.1679  0.9611  0.7133
 1036SOL     OW14740   1.644   2.147   5.841 -0.1740  0.3379  0.5146
 1036SOL    HW114741   1.567   2.168   5.788 -0.5097  0.2425  0.9631
 1036SOL    HW214742   1.638   2.053   5.858 -0.6277  0.4533  0.9802
 1037SOL     OW14743   0.470   3.121   9.876  0.1997 -0.9329 -0.5110
 1037SOL    HW114744   0.539   3.187   9.861 -0.8219  0.3941  0.6270
 1037SOL    HW214745   0.468   3.073   9.794  1.1572  0.6649 -1.4842
 1038SOL     OW14746   0.771   2.907   2.765  0.0951 -0.3537  0.0023
 1038SOL    HW114747   0.708   2.871   2.702  1.1806 -0.9781 -0.7210
 1038SOL    HW214748   0.743   2.999   2.766 -1.0364 -0.7000 -0.1767
 1039SOL     OW14749   0.651   0.308   9.522 -0.5311  0.1535  0.1032
 1039SOL    HW114750   0.682   0.272   9.439 -0.0263  0.8474 -0.0034
 1039SOL    HW214751   0.723   0.368   9.542 -0.0164 -0.3537 -0.2334
 1040SOL     OW14752   2.541   0.076  12.535 -0.4420  0.2228 -0.1333
 1040SOL    HW114753   2.499   0.053  12.618 -0.7588 -0.1351 -0.3910
 1040SOL    HW214754   2.577   4.731  12.504 -0.7062  0.2663 -0.5584
 1041SOL     OW14755   2.784   4.494  15.713 -0.3347  0.4590  0.1179
 1041SOL    HW114756   2.877   4.518  15.707 -0.5629  2.0188  3.0805
 1041SOL    HW214757   2.782   4.400  15.694 -0.7811  0.2414  1.2650
 1042SOL     OW14758   4.182   1.805   4.546 -0.7028  0.0290 -0.2726
 1042SOL    HW114759   4.172   1.806   4.641 -0.2935 -1.5022 -0.2188
 1042SOL    HW214760   4.093   1.838   4.531 -1.2452 -1.0117  0.6258
 1043SOL     OW14761   4.069   1.618   2.387  0.0652 -0.3842  0.4659
 1043SOL    HW114762   4.002   1.625   2.320  1.4833  0.7775 -0.8154
 1043SOL    HW214763   4.014   1.663   2.452  0.1972  0.8110 -0.2672
 1044SOL     OW14764   0.977   4.618   6.211 -0.6610 -0.0850  0.3204
 1044SOL    HW114765   1.003   4.528   6.190 -0.9202 -0.2913  0.8960
 1044SOL    HW214766   1.050   4.668   6.174 -2.1244  1.9962  0.2260
 1045SOL     OW14767   3.523   3.044   5.069 -0.3395 -0.3685  0.5346
 1045SOL    HW114768   3.529   3.125   5.119 -1.2593  0.4182 -0.6118
 1045SOL    HW214769   3.472   2.986   5.126 -1.5600  0.0095 -0.1664
 1046SOL     OW14770   4.674   2.834   1.923  0.2340 -0.1689  0.0294
 1046SOL    HW114771   0.025   2.863   1.904  0.3798 -1.4575 -1.2168
 1046SOL    HW214772   4.686   2.742   1.945 -0.4486 -0.8319 -2.3397
 1047SOL     OW14773   1.936   2.951   8.349 -0.2047 -0.2041 -0.1400
 1047SOL    HW114774   1.920   2.869   8.302  2.6159 -1.7441  1.5597
 1047SOL    HW214775   1.883   2.941   8.428  1.7742  1.3813  1.3888
 1048SOL     OW14776   0.508   3.034   5.766  0.3162  0.0053  0.0225
 1048SOL    HW114777   0.535   2.972   5.833  2.2097  1.7905  0.8805
 1048SOL    HW214778   0.529   2.990   5.684  0.7653  1.4872 -0.6518
 1049SOL     OW14779   0.323   3.230  17.683  0.0638  0.0691  1.0587
 1049SOL    HW114780   0.228   3.244  17.691 -0.0701  0.9677 -1.7070
 1049SOL    HW214781   0.350   3.321  17.669  0.2683 -0.1583 -0.0712
 1050SOL     OW14782   4.510   1.482   1.838 -0.2131 -0.1687  0.2848
 1050SOL    HW114783   4.492   1.395   1.801  0.5289 -0.5113  0.7408
 1050SOL    HW214784   4.482   1.537   1.764 -0.1020 -3.5909 -2.3178
 1051SOL     OW14785   0.524   3.426  11.871 -0.0603 -0.3784  1.4634
 1051SOL    HW114786   0.546   3.346  11.824  0.2247 -0.3506  1.5521
 1051SOL    HW214787   0.590   3.427  11.940  2.2057  0.5729 -0.7577
 1052SOL     OW14788   0.585   1.923  15.960  0.1515 -0.3039 -0.4010
 1052SOL    HW114789   0.534   1.883  15.890 -1.2871 -0.6713  0.8398
 1052SOL    HW214790   0.617   1.843  16.001  1.3092  0.1972 -0.3266
 1053SOL     OW14791   3.676   3.976   7.074  0.1398 -0.9643 -0.3306
 1053SOL    HW114792   3.615   3.908   7.046 -0.4139  0.1246 -1.7487
 1053SOL    HW214793   3.620   4.053   7.069 -1.4900 -2.2095 -1.0533
 1054SOL     OW14794   3.146   0.703   7.495  0.3385  1.3774  0.4555
 1054SOL    HW114795   3.236   0.709   7.527 -0.1441  1.0860  1.8730
 1054SOL    HW214796   3.104   0.784   7.525 -0.0513  1.0470  0.8083
 1055SOL     OW14797   3.874   2.718   2.703 -1.0460  0.1411 -0.3330
 1055SOL    HW114798   3.943   2.754   2.647  0.4038  0.5538  1.7324
 1055SOL    HW214799   3.817   2.793   2.721 -0.5631 -0.3247  3.1612
 1056SOL     OW14800   3.620   2.822   9.321 -0.3761 -0.4715 -0.0539
 1056SOL    HW114801   3.626   2.751   9.257 -0.3868  0.9193 -1.5641
 1056SOL    HW214802   3.562   2.774   9.380  2.0812 -0.1671  2.6334
 1057SOL     OW14803   0.671   3.811   1.417 -0.8269 -0.4391  0.3008
 1057SOL    HW114804   0.656   3.870   1.491  2.7388  2.1068 -1.0293
 1057SOL    HW214805   0.750   3.850   1.381  0.3414 -4.8904 -2.0464
 1058SOL     OW14806   1.747   0.609   2.594 -0.2197  0.3199 -0.2737
 1058SOL    HW114807   1.736   0.602   2.499 -0.8170 -1.2102 -0.1003
 1058SOL    HW214808   1.703   0.693   2.605 -0.5768  0.1730 -0.5867
 1059SOL     OW14809   3.712   1.467  16.135 -0.3368  0.0688  0.2538
 1059SOL    HW114810   3.716   1.528  16.062  1.5175  1.7369  1.7578
 1059SOL    HW214811   3.804   1.466  16.161 -0.8083 -1.2498  1.9045
 1060SOL     OW14812   3.105   4.366  10.650 -0.2726 -0.0859 -0.2555
 1060SOL    HW114813   3.078   4.298  10.589  0.0565  0.9076 -1.5185
 1060SOL    HW214814   3.109   4.439  10.588  1.6422  1.3748  1.5946
 1061SOL     OW14815   0.711   4.576   9.681 -0.4878 -0.3006 -0.0606
 1061SOL    HW114816   0.684   4.611   9.766  0.9623  0.9518 -0.1272
 1061SOL    HW214817   0.623   4.565   9.645 -0.9710  1.5574  0.5263
 1062SOL     OW14818   0.026   2.118  14.237  0.2306  0.5112 -0.0387
 1062SOL    HW114819   0.047   2.098  14.329  1.5362  0.3030 -0.3824
 1062SOL    HW214820   4.685   2.064  14.236  2.0154 -2.1159  1.5299
 1063SOL     OW14821   3.271   3.623   8.698  0.8350 -0.1211  0.0957
 1063SOL    HW114822   3.259   3.603   8.791  0.3181 -1.2103 -0.2075
 1063SOL    HW214823   3.297   3.715   8.693 -3.6697  1.2246  1.0568
 1064SOL     OW14824   3.873   4.259   0.803 -0.1411 -0.0924 -0.4044
 1064SOL    HW114825   3.778   4.263   0.792 -0.0644 -3.1697 -2.1369
 1064SOL    HW214826   3.884   4.166   0.786  0.6666  0.3353 -2.2127
 1065SOL     OW14827   4.415   4.416   8.792 -0.2392  0.2942  0.2285
 1065SOL    HW114828   4.347   4.352   8.813  2.5946 -1.9494  2.4044
 1065SOL    HW214829   4.489   4.368   8.756 -0.7550  0.0448 -0.5059
 1066SOL     OW14830   1.248   1.607   8.810 -0.3677  0.3532  0.6900
 1066SOL    HW114831   1.288   1.551   8.742 -0.1472  0.2544  0.8987
 1066SOL    HW214832   1.200   1.666   8.753 -1.4951 -2.3054 -1.1455
 1067SOL     OW14833   0.891   2.603   1.480 -0.0572  0.0420  0.6059
 1067SOL    HW114834   0.796   2.590   1.472  0.0948 -0.5350 -0.3404
 1067SOL    HW214835   0.894   2.698   1.478 -0.1151  0.0338 -0.2217
 1068SOL     OW14836   3.999   2.522   5.227 -0.1164  0.0027  0.4734
 1068SOL    HW114837   4.063   2.478   5.171 -1.6522 -0.6169 -0.8098
 1068SOL    HW214838   4.052   2.556   5.299 -0.0847  0.5355  0.2060
 1069SOL     OW14839   0.774   1.419   2.106 -0.1679 -0.0866  0.3049
 1069SOL    HW114840   0.786   1.487   2.172  0.3029 -0.8310  0.9857
 1069SOL    HW214841   0.816   1.464   2.033  1.4399  1.7527  2.3647
 1070SOL     OW14842   2.045   1.239   5.373 -0.2304  0.0136 -0.3300
 1070SOL    HW114843   2.100   1.161   5.361 -1.8930 -0.5073 -4.6007
 1070SOL    HW214844   2.082   1.295   5.304 -0.7981 -1.6545 -2.0040
 1071SOL     OW14845   1.775   3.162   8.671  0.1433 -0.2557 -0.1075
 1071SOL    HW114846   1.866   3.148   8.643 -0.1902  0.9884 -1.7818
 1071SOL    HW214847   1.778   3.249   8.710  0.6133 -0.7783  1.0156
 1072SOL     OW14848   3.029   3.050   2.155  0.7972 -0.4704  0.0234
 1072SOL    HW114849   3.114   3.017   2.183 -0.1690 -2.6048  0.4339
 1072SOL    HW214850   3.057   3.141   2.146 -1.1344  0.0355 -0.7628
 1073SOL     OW14851   2.052   0.685  12.566 -0.1840  0.1752  0.0624
 1073SOL    HW114852   2.106   0.725  12.497  0.6030 -0.2858  0.4166
 1073SOL    HW214853   2.060   0.752  12.634 -1.1597  0.2547  0.0924
 1074SOL     OW14854   4.138   4.219   8.554  0.3364 -0.3011 -0.3044
 1074SOL    HW114855   4.172   4.165   8.626  1.0014  0.8769  0.2713
 1074SOL    HW214856   4.169   4.173   8.476 -0.9614  0.5827 -1.3289
 1075SOL     OW14857   0.944   2.854  16.376  0.4634 -0.8817 -0.0868
 1075SOL    HW114858   0.877   2.788  16.362  0.3626 -0.2943 -2.4311
 1075SOL    HW214859   0.899   2.916  16.432 -0.0264 -0.3943 -1.0138
 1076SOL     OW14860   0.192   1.183  16.159 -0.7707 -0.2085 -0.8081
 1076SOL    HW114861   0.117   1.176  16.218 -1.7819  1.6602 -1.8824
 1076SOL    HW214862   0.259   1.234  16.204 -2.0312 -0.3400  1.1759
 1077SOL     OW14863   3.796   3.815  16.859 -0.2931  0.3468  0.0434
 1077SOL    HW114864   3.773   3.794  16.769 -2.1217  2.2258  0.0727
 1077SOL    HW214865   3.808   3.728  16.896  0.2085  0.3628 -0.0669
 1078SOL     OW14866   3.592   2.419  16.553  0.4001 -0.2372  0.6023
 1078SOL    HW114867   3.634   2.471  16.484  0.5196 -0.4532  0.5136
 1078SOL    HW214868   3.634   2.457  16.630 -1.6965  0.6958  1.2728
 1079SOL     OW14869   0.187   3.179   4.384  0.4301  0.5296 -0.1416
 1079SOL    HW114870   0.135   3.151   4.308  0.0081  1.7160 -0.2946
 1079SOL    HW214871   0.118   3.184   4.450  0.3123  0.1946 -0.2363
 1080SOL     OW14872   4.340   1.994  16.336 -0.0695 -0.2487 -0.0424
 1080SOL    HW114873   4.353   1.907  16.299 -0.8970  0.3477 -1.6888
 1080SOL    HW214874   4.314   1.958  16.421 -1.1630 -0.2252 -0.3730
 1081SOL     OW14875   3.635   4.275   8.136  0.1043 -0.1698 -0.0207
 1081SOL    HW114876   3.644   4.180   8.143  0.7404 -0.1981 -1.0901
 1081SOL    HW214877   3.702   4.312   8.193 -0.3125  0.1789  0.2419
 1082SOL     OW14878   3.530   1.522   3.273  0.6938  0.0078 -0.4582
 1082SOL    HW114879   3.562   1.582   3.206  0.3155  2.4606  1.5824
 1082SOL    HW214880   3.612   1.514   3.321  0.3874 -0.3641  0.0052
 1083SOL     OW14881   1.460   0.906   5.021  0.1020  0.6708  0.4266
 1083SOL    HW114882   1.530   0.955   5.064  0.4479 -1.8804  2.7236
 1083SOL    HW214883   1.385   0.966   5.025 -1.3243 -1.1808  1.4482
 1084SOL     OW14884   4.215   0.197   7.019  0.0482  0.5639 -0.5712
 1084SOL    HW114885   4.141   0.237   7.064 -0.7552  1.1631 -2.3929
 1084SOL    HW214886   4.186   0.193   6.927  1.2465  0.4533 -0.9388
 1085SOL     OW14887   3.246   0.334   1.515  0.4783 -0.4656 -0.4781
 1085SOL    HW114888   3.300   0.385   1.455  2.9475 -2.1478  0.3121
 1085SOL    HW214889   3.270   0.246   1.488 -0.4035 -0.6519 -0.6523
 1086SOL     OW14890   0.207   1.007   7.372  0.5175 -0.7988  0.1128
 1086SOL    HW114891   0.269   1.008   7.445  0.0299 -1.2717  0.5331
 1086SOL    HW214892   0.198   1.100   7.352  1.5516 -0.2959  1.9348
 1087SOL     OW14893   3.599   3.101   9.271  0.3665  0.7394  0.1092
 1087SOL    HW114894   3.611   3.006   9.267  1.1182  0.8958 -1.2500
 1087SOL    HW214895   3.675   3.142   9.313  0.5486 -0.4169  0.9391
 1088SOL     OW14896   3.782   0.318  17.200 -0.0634  0.0263  0.0015
 1088SOL    HW114897   3.821   0.345  17.117  0.2926 -0.7598 -0.0778
 1088SOL    HW214898   3.697   0.362  17.188  0.3958  0.5070 -1.4046
 1089SOL     OW14899   1.980   1.885  17.473 -0.0066 -0.1720  0.0622
 1089SOL    HW114900   2.024   1.802  17.489  0.3353 -0.1245 -0.6257
 1089SOL    HW214901   1.957   1.877  17.381 -1.8988 -2.0451  0.7106
 1090SOL     OW14902   3.269   2.632  16.841  0.4375  0.5821  0.1274
 1090SOL    HW114903   3.346   2.685  16.819  0.6477 -0.4771 -1.6717
 1090SOL    HW214904   3.283   2.611  16.933  1.0624 -2.5128 -0.6864
 1091SOL     OW14905   1.117   0.803  10.734 -0.6185  0.6642  0.2209
 1091SOL    HW114906   1.066   0.841  10.805 -1.2875 -1.6656  1.0149
 1091SOL    HW214907   1.197   0.854  10.734 -0.4116  0.3440 -0.0981
 1092SOL     OW14908   2.646   1.569   4.937  0.5756 -0.1510  0.3140
 1092SOL    HW114909   2.592   1.568   5.016 -1.7683 -1.7341 -1.2931
 1092SOL    HW214910   2.693   1.486   4.948 -1.2724 -1.3635 -0.8922
 1093SOL     OW14911   3.777   2.687   3.144  0.5558 -0.0415 -0.1776
 1093SOL    HW114912   3.805   2.628   3.215 -1.2193 -0.7636 -0.0787
 1093SOL    HW214913   3.858   2.720   3.104 -0.7931  1.8318 -1.3162
 1094SOL     OW14914   2.768   1.387   6.275  0.3967 -0.0381  0.5252
 1094SOL    HW114915   2.697   1.413   6.334 -0.4558  1.4073 -1.1317
 1094SOL    HW214916   2.721   1.336   6.210  0.0465  1.4185 -0.3640
 1095SOL     OW14917   4.128   1.303  16.064 -0.5901  0.0284  0.5894
 1095SOL    HW114918   4.086   1.232  16.113 -1.8118 -0.1027 -0.6525
 1095SOL    HW214919   4.062   1.325  15.998  0.5781 -0.3196 -0.6877
 1096SOL     OW14920   0.414   3.285   5.527  0.3096  0.2326 -0.0927
 1096SOL    HW114921   0.476   3.308   5.457 -1.0663 -0.3046 -1.4776
 1096SOL    HW214922   0.346   3.238   5.480 -2.4578  2.0275  2.0993
 1097SOL     OW14923   0.280   4.557   3.371 -0.5153 -0.0770 -0.3785
 1097SOL    HW114924   0.318   4.527   3.289  0.5724 -0.2616  0.1905
 1097SOL    HW214925   0.190   4.542   3.343 -1.5544  1.0407  2.3131
 1098SOL     OW14926   0.297   3.010  14.134 -0.1588 -0.1550 -0.3532
 1098SOL    HW114927   0.257   3.059  14.062 -4.8670 -2.3570  0.7995
 1098SOL    HW214928   0.307   3.079  14.200  1.6326 -0.8935  0.1690
 1099SOL     OW14929   2.568   3.907   4.816  0.3555 -0.5038  0.4865
 1099SOL    HW114930   2.524   3.839   4.867 -0.1904 -0.3567  0.2178
 1099SOL    HW214931   2.501   3.928   4.751  1.8482  2.8377  0.0082
 1100SOL     OW14932   1.576   0.550   7.778  0.0531  0.3718 -0.3330
 1100SOL    HW114933   1.498   0.532   7.831  0.3413  0.3432  0.0818
 1100SOL    HW214934   1.643   0.512   7.834  0.4397 -0.9555 -1.6907
 1101SOL     OW14935   1.698   4.372  14.839  0.2560  0.1434  0.2956
 1101SOL    HW114936   1.636   4.375  14.766 -0.0860 -2.3700  0.4661
 1101SOL    HW214937   1.744   4.301  14.794 -0.4286 -0.6907  0.9126
 1102SOL     OW14938   4.350   2.192  16.107 -0.2075 -0.8221 -0.5404
 1102SOL    HW114939   4.434   2.161  16.073 -0.9414 -2.1573 -1.1396
 1102SOL    HW214940   4.326   2.119  16.164  0.1466  0.8800  1.7975
 1103SOL     OW14941   0.177   3.713   7.271  0.0556 -0.4094 -0.4340
 1103SOL    HW114942   0.162   3.632   7.319  1.2547 -1.3052 -1.5505
 1103SOL    HW214943   0.094   3.722   7.226 -1.6081  0.1554  2.7623
 1104SOL     OW14944   4.183   2.893   8.802 -0.0100 -0.7501 -0.2595
 1104SOL    HW114945   4.088   2.903   8.810  0.0394  1.0422 -2.0014
 1104SOL    HW214946   4.207   2.870   8.892  0.4812  1.3389  0.1544
 1105SOL     OW14947   4.336   0.880   2.679 -0.1177  0.1156 -0.3475
 1105SOL    HW114948   4.404   0.938   2.712  1.5956 -1.2925 -1.4551
 1105SOL    HW214949   4.366   0.798   2.717  3.7078  1.3080 -0.8706
 1106SOL     OW14950   0.979   2.839  12.193 -0.2380  0.5076  0.3854
 1106SOL    HW114951   1.049   2.854  12.130 -0.6949 -0.7460 -0.4052
 1106SOL    HW214952   1.026   2.766  12.234  1.7646  0.2282 -2.4318
 1107SOL     OW14953   2.126   1.377   8.414  0.2126 -0.5245  0.3233
 1107SOL    HW114954   2.097   1.352   8.327 -0.9039  1.2049  0.1846
 1107SOL    HW214955   2.095   1.468   8.419  1.8326  0.0007  1.0582
 1108SOL     OW14956   3.872   0.229   3.311  0.2816  0.0178 -0.0940
 1108SOL    HW114957   3.874   0.210   3.217  2.1798  0.5093 -0.1432
 1108SOL    HW214958   3.959   0.263   3.328 -0.0515  1.0143 -0.4274
 1109SOL     OW14959   3.236   2.334   6.775  0.1030 -0.3107  0.0999
 1109SOL    HW114960   3.310   2.320   6.716  0.2504  2.0332 -0.2790
 1109SOL    HW214961   3.275   2.290   6.851 -0.9337 -0.2287  0.6894
 1110SOL     OW14962   2.780   2.475  11.124  0.1755 -0.3255  0.0913
 1110SOL    HW114963   2.725   2.505  11.196  0.9041  2.1380 -0.4041
 1110SOL    HW214964   2.811   2.393  11.162 -1.1312 -0.5771  0.6008
 1111SOL     OW14965   4.031   4.393   3.333 -0.0767  0.5079 -0.0987
 1111SOL    HW114966   4.003   4.377   3.243 -0.5406  1.6733 -0.1725
 1111SOL    HW214967   3.949   4.373   3.377  0.1226  1.2009  0.6045
 1112SOL     OW14968   4.030   3.049   6.807  0.1454  0.6641  0.2226
 1112SOL    HW114969   3.942   3.033   6.774  0.1968  1.9095 -0.5006
 1112SOL    HW214970   4.075   3.068   6.724 -1.6665  0.9769 -0.6720
 1113SOL     OW14971   0.986   3.731   2.981  0.1292  0.2626  0.1708
 1113SOL    HW114972   0.954   3.677   3.053  1.3765 -1.3069 -0.4546
 1113SOL    HW214973   1.078   3.709   2.993  0.1485  0.2817  0.0586
 1114SOL     OW14974   2.604   1.126  10.847  0.4993 -0.1909 -0.3232
 1114SOL    HW114975   2.515   1.098  10.829  0.5984 -1.2149  0.7837
 1114SOL    HW214976   2.658   1.046  10.849  2.3354  1.0264 -1.0765
 1115SOL     OW14977   0.081   3.198   9.912  0.0197 -0.2957 -0.4276
 1115SOL    HW114978   0.165   3.194   9.957 -0.0008  0.0253 -0.3588
 1115SOL    HW214979   0.013   3.193   9.979  0.9028  0.7577  0.5590
 1116SOL     OW14980   1.005   4.733   8.691 -0.3701 -0.2880  0.3714
 1116SOL    HW114981   0.995   4.642   8.662 -0.7059  0.4382 -1.7789
 1116SOL    HW214982   1.099   4.727   8.709 -0.3337  0.8486  0.5303
 1117SOL     OW14983   0.120   1.251   2.576  0.0802 -0.8642 -0.2848
 1117SOL    HW114984   0.102   1.162   2.606 -1.6787 -0.8430 -1.2783
 1117SOL    HW214985   0.202   1.242   2.527 -1.3338 -0.8686 -2.6697
 1118SOL     OW14986   1.934   1.251   8.179  0.2687 -0.5408  0.0364
 1118SOL    HW114987   1.952   1.323   8.118  2.1789  0.1542  1.4145
 1118SOL    HW214988   1.845   1.233   8.150 -0.2737  1.3167  0.5355
 1119SOL     OW14989   1.794   0.756   3.947 -0.4321 -0.0834 -0.3485
 1119SOL    HW114990   1.773   0.763   3.854  3.2258  2.5844 -0.9958
 1119SOL    HW214991   1.718   0.725   3.996 -0.6830 -3.3358 -2.7948
 1120SOL     OW14992   1.020   3.693   6.188  0.2136  0.0021  0.0750
 1120SOL    HW114993   1.032   3.692   6.283  0.6077 -0.1740  0.0197
 1120SOL    HW214994   1.039   3.784   6.167 -1.1498 -0.1182 -1.6545
 1121SOL     OW14995   4.395   2.803   5.350 -0.2522  0.0622 -0.0647
 1121SOL    HW114996   4.417   2.889   5.314 -0.0654 -0.0082 -0.1198
 1121SOL    HW214997   4.483   2.782   5.381 -0.0497  1.3184  0.2083
 1122SOL     OW14998   3.186   0.329  17.272  0.2325 -0.4967 -0.1705
 1122SOL    HW114999   3.119   0.285  17.220  3.4033 -2.5672 -2.5770
 1122SOL    HW215000   3.139   0.345  17.354  0.6609  4.0356 -0.8484
 1123SOL     OW15001   3.246   2.809   2.979  0.6292 -0.1893 -0.2245
 1123SOL    HW115002   3.186   2.858   3.036 -0.5054 -1.1145 -0.6254
 1123SOL    HW215003   3.185   2.767   2.918  0.2306  0.9709 -0.6282
 1124SOL     OW15004   1.004   4.335   6.796  0.3070 -0.3545  0.0451
 1124SOL    HW115005   0.938   4.399   6.769  2.3084  0.9663 -1.7076
 1124SOL    HW215006   1.027   4.372   6.881 -2.9839  0.2662  0.6566
 1125SOL     OW15007   4.125   0.432  15.242  0.1584 -0.5074  0.6399
 1125SOL    HW115008   4.065   0.470  15.178 -0.3985  0.5374  1.7911
 1125SOL    HW215009   4.106   0.339  15.230 -1.7242  0.1055 -1.1059
 1126SOL     OW15010   4.279   3.145   9.132 -0.0748 -0.1776 -0.0201
 1126SOL    HW115011   4.250   3.212   9.194 -0.1947 -0.2381 -0.0131
 1126SOL    HW215012   4.202   3.090   9.141  0.9890 -1.3370  2.0966
 1127SOL     OW15013   0.960   0.460   0.715  0.1402  0.4793 -0.1255
 1127SOL    HW115014   0.869   0.448   0.743  0.6223  0.8428  1.6082
 1127SOL    HW215015   0.968   0.554   0.733  1.1359  0.4891 -0.6422
 1128SOL     OW15016   1.706   4.325   2.952  0.1433 -0.5801 -0.2322
 1128SOL    HW115017   1.616   4.307   2.923 -0.7011 -2.0024  3.3547
 1128SOL    HW215018   1.743   4.242   2.979  1.0438  0.2391  1.0213
 1129SOL     OW15019   2.227   0.648   1.589  0.1548  0.1801 -0.0571
 1129SOL    HW115020   2.143   0.631   1.547  0.6949 -1.6132 -0.4090
 1129SOL    HW215021   2.253   0.568   1.635 -0.3488 -1.3416 -2.4550
 1130SOL     OW15022   2.327   1.402   2.613  0.5468 -0.2066  0.0385
 1130SOL    HW115023   2.283   1.317   2.612  2.3013 -1.1682  3.4776
 1130SOL    HW215024   2.309   1.424   2.705 -3.2465  2.1846 -1.2826
 1131SOL     OW15025   1.586   4.706   6.494  0.1698  0.1550  0.4545
 1131SOL    HW115026   1.549   4.683   6.580  0.5330  0.4600  0.6956
 1131SOL    HW215027   1.595   0.063   6.497 -0.3587  0.2874 -2.7175
 1132SOL     OW15028   2.936   2.632   2.172  1.0881 -0.2493 -0.0753
 1132SOL    HW115029   2.897   2.707   2.126 -0.4514 -1.7227 -1.1883
 1132SOL    HW215030   2.879   2.560   2.145  1.0249 -0.7082  1.2917
 1133SOL     OW15031   4.311   4.113   2.715  0.0502  0.2305  0.3692
 1133SOL    HW115032   4.326   4.103   2.621  0.0719 -1.0373  0.5089
 1133SOL    HW215033   4.219   4.094   2.733  0.9865 -4.0083  0.6184
 1134SOL     OW15034   4.147   4.308   7.964  0.1661 -0.0344  0.0445
 1134SOL    HW115035   4.066   4.265   7.991 -0.3853  1.1390  0.2541
 1134SOL    HW215036   4.146   4.385   8.020 -3.3362 -0.3127  0.3620
 1135SOL     OW15037   3.035   1.448   1.804  0.2710 -0.0373  0.3023
 1135SOL    HW115038   3.074   1.529   1.770 -0.7145  0.4821  0.3987
 1135SOL    HW215039   2.985   1.415   1.729  1.4902  0.4854 -0.7406
 1136SOL     OW15040   4.122   3.541   9.203  0.4568  0.1072 -0.3818
 1136SOL    HW115041   4.151   3.632   9.193 -0.0965  0.1126 -2.0852
 1136SOL    HW215042   4.097   3.519   9.113 -0.4308 -1.2965  0.2110
 1137SOL     OW15043   0.318   3.635   9.113  0.3918 -0.1378  0.2277
 1137SOL    HW115044   0.281   3.680   9.190  0.7914 -1.3858  1.1481
 1137SOL    HW215045   0.312   3.543   9.139  0.6656  0.3450  2.0459
 1138SOL     OW15046   3.114   0.710   5.553  0.1756 -0.2272  0.5450
 1138SOL    HW115047   3.129   0.780   5.489  1.0608 -0.9453 -0.0392
 1138SOL    HW215048   3.200   0.698   5.593 -0.2233 -1.2232  1.1110
 1139SOL     OW15049   1.970   1.080   5.119 -0.1962  0.1230 -0.0296
 1139SOL    HW115050   1.885   1.121   5.130 -0.5961 -0.5198 -0.7151
 1139SOL    HW215051   2.023   1.156   5.095 -1.3402 -0.0086 -2.9404
 1140SOL     OW15052   1.409   2.331   5.949 -0.3201 -0.7535 -0.2276
 1140SOL    HW115053   1.325   2.360   5.985  0.1643 -1.1110  1.1885
 1140SOL    HW215054   1.386   2.299   5.862 -0.3863 -1.3161 -0.0061
 1141SOL     OW15055   0.542   4.668   3.446 -0.3231 -0.8458 -0.8638
 1141SOL    HW115056   0.513   0.021   3.442  1.2302 -0.4908 -3.9412
 1141SOL    HW215057   0.457   4.627   3.429  1.0289 -3.8035 -0.5355
 1142SOL     OW15058   4.213   2.945  13.208 -0.0698 -0.6491  0.1090
 1142SOL    HW115059   4.132   2.907  13.175 -0.0440  0.0150 -0.7145
 1142SOL    HW215060   4.193   3.038  13.202 -2.1044 -1.2561 -1.9957
 1143SOL     OW15061   2.462   4.300   4.201 -0.1612  0.4731  0.0634
 1143SOL    HW115062   2.515   4.320   4.124  3.3062 -2.0242  1.8074
 1143SOL    HW215063   2.468   4.388   4.239 -0.6685  1.1920 -1.5094
 1144SOL     OW15064   1.679   0.647  10.037  0.0941  0.0104 -0.5854
 1144SOL    HW115065   1.685   0.727  10.089  1.3025 -0.9927  0.8133
 1144SOL    HW215066   1.608   0.675   9.979  0.5100  3.1862  0.4536
 1145SOL     OW15067   4.552   1.818   7.772 -0.6041 -0.2600 -0.1968
 1145SOL    HW115068   4.583   1.801   7.683 -1.3121 -2.0309 -0.1087
 1145SOL    HW215069   4.520   1.733   7.802 -4.0642  0.4431 -1.9794
 1146SOL     OW15070   3.681   0.893   0.620  0.1308  0.6835 -0.6428
 1146SOL    HW115071   3.588   0.907   0.638  0.1681  0.9240 -0.6434
 1146SOL    HW215072   3.672   0.904   0.525  1.1543  0.8805 -0.7110
 1147SOL     OW15073   1.540   1.021   2.696  0.1378  0.3138  0.2042
 1147SOL    HW115074   1.484   1.097   2.678 -1.2382 -0.4692  1.1923
 1147SOL    HW215075   1.588   1.056   2.771  0.1977  3.5342 -1.3169
 1148SOL     OW15076   3.364   4.532  16.745 -0.1941  0.2300 -0.3855
 1148SOL    HW115077   3.282   4.568  16.779 -0.0672 -1.7187  1.9540
 1148SOL    HW215078   3.354   4.561  16.654 -0.8440 -4.1913 -1.7191
 1149SOL     OW15079   0.994   3.822   4.342 -0.2322 -0.3816  0.0451
 1149SOL    HW115080   1.029   3.760   4.406 -0.0217 -1.6005 -1.2466
 1149SOL    HW215081   0.996   3.764   4.266  0.6401 -0.8568  0.4193
 1150SOL     OW15082   1.432   2.525   9.071 -0.1340  0.1292 -0.5466
 1150SOL    HW115083   1.416   2.540   9.164 -0.1108 -0.2415 -0.4808
 1150SOL    HW215084   1.515   2.477   9.066  0.8675  1.7720  0.2285
 1151SOL     OW15085   2.093   1.357   6.326  0.0373 -0.2270 -0.2898
 1151SOL    HW115086   2.019   1.413   6.347  3.0527  3.1324  1.2851
 1151SOL    HW215087   2.040   1.278   6.315  0.1888 -0.7853  2.8069
 1152SOL     OW15088   0.052   2.409   9.689  0.0123 -0.5586 -0.3952
 1152SOL    HW115089   0.010   2.398   9.774 -1.9799 -2.1875 -1.5899
 1152SOL    HW215090   0.124   2.461   9.723 -0.0063 -0.0299 -1.1685
 1153SOL     OW15091   0.121   4.544   5.544  0.3307 -0.8674 -1.3092
 1153SOL    HW115092   0.117   4.452   5.569  0.3199 -0.3889  0.4130
 1153SOL    HW215093   0.207   4.559   5.505  0.2960 -0.8707 -1.3867
 1154SOL     OW15094   0.583   3.253  15.990  0.5480  0.6254 -0.1596
 1154SOL    HW115095   0.537   3.213  15.916  2.5647  0.4016 -1.2850
 1154SOL    HW215096   0.504   3.298  16.019 -0.9006 -1.4808 -0.7823
 1155SOL     OW15097   0.106   4.206   7.458  0.3989 -0.1415 -0.7823
 1155SOL    HW115098   0.167   4.166   7.520 -2.3503 -0.2919  1.8638
 1155SOL    HW215099   0.152   4.290   7.451  0.1090 -0.0423 -1.5161
 1156SOL     OW15100   0.916   4.109   4.770 -0.2192  0.3692  0.1300
 1156SOL    HW115101   0.857   4.148   4.834  1.0538  1.1872  0.7800
 1156SOL    HW215102   0.866   4.128   4.691 -0.3055 -0.3306  0.0133
 1157SOL     OW15103   1.435   0.962  10.102  0.2874 -0.2060 -0.1972
 1157SOL    HW115104   1.366   1.028  10.100  0.0823 -0.3349  2.1207
 1157SOL    HW215105   1.428   0.926  10.191 -0.2397 -1.1416 -0.6175
 1158SOL     OW15106   1.915   2.018   8.364  0.5578  0.1316  0.2450
 1158SOL    HW115107   1.860   1.945   8.391 -1.4490  1.2418 -0.8489
 1158SOL    HW215108   1.926   2.049   8.454  0.4907 -0.4919  0.4661
 1159SOL     OW15109   4.176   1.569   4.277  0.2324  0.1560  0.1445
 1159SOL    HW115110   4.088   1.543   4.305 -0.0003  2.0395  1.1780
 1159SOL    HW215111   4.179   1.653   4.323  0.9474 -0.1903  0.7176
 1160SOL     OW15112   0.876   2.709   6.203 -0.1182 -0.0350 -0.2559
 1160SOL    HW115113   0.949   2.762   6.170  0.0113  0.7320  1.2638
 1160SOL    HW215114   0.812   2.731   6.135 -0.7680  1.9371  0.9664
 1161SOL     OW15115   1.867   4.444   5.538 -0.1736 -0.1767 -0.7948
 1161SOL    HW115116   1.865   4.380   5.467  1.1225  0.0018 -0.9853
 1161SOL    HW215117   1.920   4.516   5.504  0.1380  0.5562  1.2478
 1162SOL     OW15118   1.684   3.845   9.266 -0.1474  0.0769 -0.5208
 1162SOL    HW115119   1.595   3.809   9.269 -0.1653  0.0722 -1.1068
 1162SOL    HW215120   1.724   3.806   9.344  0.8236 -0.7615 -1.4504
 1163SOL     OW15121   2.023   3.207   8.282  0.5351 -0.0634  0.9664
 1163SOL    HW115122   1.946   3.241   8.237  0.3150 -1.7125  0.1009
 1163SOL    HW215123   1.991   3.122   8.312 -0.6111  0.1876  0.4654
 1164SOL     OW15124   0.348   4.247  14.837 -0.4832  0.1808 -0.1468
 1164SOL    HW115125   0.289   4.315  14.870 -1.9626 -0.9629 -0.4470
 1164SOL    HW215126   0.291   4.188  14.789 -1.7026  0.8878  0.4468
 1165SOL     OW15127   2.421   2.260  16.438 -0.4988 -0.2713  0.5454
 1165SOL    HW115128   2.380   2.199  16.378  2.1357 -0.1797 -1.3481
 1165SOL    HW215129   2.487   2.203  16.477 -0.7680 -1.4290 -0.7319
 1166SOL     OW15130   3.732   1.217   8.814 -0.2344 -0.0033 -0.1136
 1166SOL    HW115131   3.648   1.251   8.846 -0.5629  2.2394 -3.3797
 1166SOL    HW215132   3.783   1.294   8.788 -1.0187 -0.7119 -3.7597
 1167SOL     OW15133   3.912   2.948   8.807  0.2620  0.4329 -0.2457
 1167SOL    HW115134   3.857   2.968   8.730 -1.0619  2.1859  1.1497
 1167SOL    HW215135   3.885   3.015   8.870  0.3322  0.3577 -0.1362
 1168SOL     OW15136   0.869   0.248   9.061 -0.3744 -0.0751 -0.5348
 1168SOL    HW115137   0.889   0.156   9.044 -1.6680 -0.1328 -1.7065
 1168SOL    HW215138   0.942   0.286   9.012 -0.3175 -1.4005 -1.4687
 1169SOL     OW15139   4.234   4.333   2.499 -0.1652 -0.2338 -0.0065
 1169SOL    HW115140   4.235   4.412   2.446 -1.6249 -0.6211 -0.5842
 1169SOL    HW215141   4.180   4.271   2.451  0.0535  0.1298 -0.7144
 1170SOL     OW15142   4.182   3.831   7.640  0.2052 -0.0109 -0.2232
 1170SOL    HW115143   4.245   3.837   7.711 -0.7626  1.4093  0.5237
 1170SOL    HW215144   4.238   3.842   7.563 -0.6420  0.3756 -0.7810
 1171SOL     OW15145   0.282   2.586   4.312  0.4678  0.2636  0.0644
 1171SOL    HW115146   0.374   2.560   4.317 -0.0480 -1.1733  2.2095
 1171SOL    HW215147   0.277   2.613   4.220 -0.6483 -0.2495 -0.0301
 1172SOL     OW15148   3.643   1.369  17.124 -0.1299  0.2702  0.2898
 1172SOL    HW115149   3.659   1.382  17.218 -2.9340  1.3810  0.6044
 1172SOL    HW215150   3.692   1.446  17.094  1.1684 -0.5599  0.2899
 1173SOL     OW15151   0.480   1.541  11.245  0.5306 -0.4165 -0.5333
 1173SOL    HW115152   0.529   1.620  11.269  0.1384  0.0684 -1.3308
 1173SOL    HW215153   0.543   1.485  11.199 -1.3670 -2.3094 -0.8471
 1174SOL     OW15154   2.714   0.580   6.251 -0.4807 -0.5870  0.5847
 1174SOL    HW115155   2.801   0.579   6.293 -0.7070 -1.5352  1.0274
 1174SOL    HW215156   2.708   0.668   6.215  0.8900 -0.8291 -0.2479
 1175SOL     OW15157   2.008   4.607   0.476  0.1882 -0.6347  0.1332
 1175SOL    HW115158   2.042   4.519   0.493  0.6461 -0.5937 -0.5680
 1175SOL    HW215159   1.914   4.591   0.467 -0.1834 -0.0464  2.9619
 1176SOL     OW15160   4.308   2.837   4.959 -0.7387 -0.3269  0.1794
 1176SOL    HW115161   4.338   2.926   4.943  0.9051 -1.2432 -1.8564
 1176SOL    HW215162   4.384   2.783   4.935  0.3020  1.5976 -0.8451
 1177SOL     OW15163   0.815   1.895   9.054  0.0122 -0.0160  0.5993
 1177SOL    HW115164   0.835   1.830   9.121 -0.1447 -0.5525  0.1205
 1177SOL    HW215165   0.769   1.959   9.108 -0.7773  0.8639 -1.1102
 1178SOL     OW15166   1.515   3.465   4.137 -0.7498  0.1815  0.1035
 1178SOL    HW115167   1.522   3.552   4.176 -1.4275 -0.2680  1.2160
 1178SOL    HW215168   1.520   3.407   4.213  0.8129  0.9563  0.5940
 1179SOL     OW15169   0.426   1.617  12.518 -0.0827  0.3990  0.0218
 1179SOL    HW115170   0.496   1.552  12.525 -0.6896 -0.1625  0.9417
 1179SOL    HW215171   0.468   1.696  12.485  1.8332 -0.3862  0.5635
 1180SOL     OW15172   2.502   3.088   9.520 -0.0220  0.3524 -0.0459
 1180SOL    HW115173   2.462   3.047   9.597 -1.5271 -0.2841 -1.1853
 1180SOL    HW215174   2.579   3.035   9.501  0.6916  1.4048 -0.0928
 1181SOL     OW15175   3.639   1.829   8.270  0.6255 -0.5735 -0.3973
 1181SOL    HW115176   3.700   1.856   8.339  0.3398  1.2441 -0.8560
 1181SOL    HW215177   3.704   1.819   8.200 -0.0784 -0.0321 -1.1231
 1182SOL     OW15178   3.384   3.710   4.745  0.0811 -0.2634  0.1417
 1182SOL    HW115179   3.356   3.642   4.683 -1.5688 -0.7888  1.4701
 1182SOL    HW215180   3.397   3.657   4.824 -0.0331 -4.2031 -2.4465
 1183SOL     OW15181   0.499   4.059   5.219 -0.2013  0.0889  0.1754
 1183SOL    HW115182   0.587   4.033   5.194 -0.2419 -0.5513  0.7162
 1183SOL    HW215183   0.472   3.975   5.256 -0.5235  0.1926  0.1753
 1184SOL     OW15184   2.613   1.695   6.441  0.7177 -0.2163 -0.1645
 1184SOL    HW115185   2.585   1.699   6.349 -0.1227 -1.3491  0.0512
 1184SOL    HW215186   2.704   1.712   6.417  1.1462 -0.2566  1.4825
 1185SOL     OW15187   2.483   1.064  15.401  0.1374  0.3436 -0.2791
 1185SOL    HW115188   2.547   1.073  15.472 -2.6008  1.0121  2.1279
 1185SOL    HW215189   2.431   0.989  15.430  1.0177  1.0453  3.0893
 1186SOL     OW15190   2.464   4.349   8.459  0.3470  0.3097 -0.5763
 1186SOL    HW115191   2.378   4.379   8.430  0.2210  0.4016 -0.0990
 1186SOL    HW215192   2.428   4.261   8.474 -0.4351  0.6295 -0.5993
 1187SOL     OW15193   3.912   4.339   6.841 -0.1837 -0.0305  0.5047
 1187SOL    HW115194   3.991   4.390   6.828 -1.2958  2.0542  1.9884
 1187SOL    HW215195   3.848   4.410   6.845  0.2822  0.2678  2.6725
 1188SOL     OW15196   4.329   0.240   2.018 -0.3996  0.6573  0.0744
 1188SOL    HW115197   4.276   0.165   2.046  0.1247  0.5119  0.6885
 1188SOL    HW215198   4.260   0.301   2.042 -1.9410 -0.6126 -1.1762
 1189SOL     OW15199   2.694   3.693   6.740  0.4170  0.3272 -0.0459
 1189SOL    HW115200   2.738   3.773   6.770  3.5823 -2.1498  1.7803
 1189SOL    HW215201   2.625   3.687   6.806 -0.9089 -0.0082 -1.4626
 1190SOL     OW15202   0.560   1.111  10.887  0.0747 -0.8105  0.0418
 1190SOL    HW115203   0.615   1.048  10.933  0.0710 -1.7518 -1.2287
 1190SOL    HW215204   0.485   1.118  10.946 -1.2868 -2.5800 -1.4821
 1191SOL     OW15205   0.392   0.988   5.835 -0.0365  0.3743  0.3881
 1191SOL    HW115206   0.356   0.934   5.905 -0.9786 -0.1324 -0.4929
 1191SOL    HW215207   0.422   0.921   5.774 -1.4930  0.1382 -0.0736
 1192SOL     OW15208   2.219   2.592  17.444  0.0675  0.3852 -0.0799
 1192SOL    HW115209   2.159   2.537  17.394 -0.7928  2.0441 -0.8512
 1192SOL    HW215210   2.303   2.568  17.404 -0.4907 -2.2264  0.3157
 1193SOL     OW15211   2.537   0.250   2.712  0.0541 -0.4988 -0.0576
 1193SOL    HW115212   2.582   0.173   2.677  0.7652 -0.6755  1.2625
 1193SOL    HW215213   2.474   0.202   2.766  0.2575  0.6434  1.1666
 1194SOL     OW15214   0.379   3.584   5.553 -0.5789 -0.5414  0.8099
 1194SOL    HW115215   0.438   3.521   5.513  1.6567 -0.6128  4.2052
 1194SOL    HW215216   0.297   3.535   5.549 -0.9048 -0.0278  1.1147
 1195SOL     OW15217   2.294   0.266   3.706  1.0559  0.0408  0.4193
 1195SOL    HW115218   2.255   0.254   3.793  0.1233  2.3094  0.3077
 1195SOL    HW215219   2.376   0.312   3.726  0.0933  0.5982  3.1230
 1196SOL     OW15220   3.995   4.577  12.397  0.0803 -0.2442  0.0137
 1196SOL    HW115221   3.915   4.528  12.415 -0.6378  0.8010 -0.3135
 1196SOL    HW215222   4.064   4.513  12.415 -0.0060  0.1352  1.6352
 1197SOL     OW15223   0.814   3.219   8.157 -0.4328 -0.2638 -0.0865
 1197SOL    HW115224   0.882   3.167   8.115 -2.5814 -0.5741 -3.1602
 1197SOL    HW215225   0.848   3.307   8.142  0.4884 -0.7919 -1.0457
 1198SOL     OW15226   4.585   1.077  13.044  0.4302  0.3677 -0.0643
 1198SOL    HW115227   4.559   1.166  13.021 -1.8953  0.0690  1.3979
 1198SOL    HW215228   4.646   1.096  13.116  0.5533  1.5019 -0.4736
 1199SOL     OW15229   0.722   1.038   9.935  0.0173  0.1617  0.2401
 1199SOL    HW115230   0.745   0.961   9.883 -0.9026  0.6374 -0.8737
 1199SOL    HW215231   0.659   1.087   9.882 -1.5630 -2.1614  0.0021
 1200SOL     OW15232   3.983   3.534   6.327  0.0114 -0.2286 -0.0497
 1200SOL    HW115233   3.890   3.557   6.328 -0.5422 -2.5367  0.9802
 1200SOL    HW215234   4.014   3.570   6.244  1.0079  1.5995  1.1184
 1201SOL     OW15235   3.618   0.571   9.320 -0.0772  0.1174  0.7359
 1201SOL    HW115236   3.629   0.661   9.351  2.9992  0.3588 -1.0045
 1201SOL    HW215237   3.700   0.571   9.270  0.8705  1.7007  2.2899
 1202SOL     OW15238   4.134   3.637  13.337 -0.3681  0.2857 -0.1608
 1202SOL    HW115239   4.206   3.697  13.356 -0.3604  0.5895 -1.1748
 1202SOL    HW215240   4.141   3.639  13.242 -1.9289 -0.6411 -0.2948
 1203SOL     OW15241   1.052   3.537   3.525 -0.0113  0.1730 -1.1364
 1203SOL    HW115242   1.023   3.623   3.555 -0.3376  0.1747 -1.4577
 1203SOL    HW215243   1.070   3.557   3.433 -2.0368 -3.1476 -2.2233
 1204SOL     OW15244   1.700   3.710   1.535 -0.0067 -0.5943  0.2620
 1204SOL    HW115245   1.606   3.725   1.543  0.2618  0.9614  0.4994
 1204SOL    HW215246   1.710   3.661   1.453 -0.7786  0.6923 -0.6054
 1205SOL     OW15247   0.815   3.562   8.477 -0.3044  0.2337 -0.3172
 1205SOL    HW115248   0.817   3.467   8.468  1.0407  0.3677 -1.6939
 1205SOL    HW215249   0.741   3.581   8.420  1.0602  1.8598 -1.5767
 1206SOL     OW15250   1.747   4.414   7.308 -0.9232 -0.1005 -0.3280
 1206SOL    HW115251   1.742   4.503   7.341  0.3928 -1.2302  2.8498
 1206SOL    HW215252   1.838   4.407   7.279 -0.7020 -2.2102  0.8587
 1207SOL     OW15253   4.532   0.737   7.979 -0.1544 -0.1894 -0.4034
 1207SOL    HW115254   4.536   0.728   8.074 -0.7426  0.5794 -0.3072
 1207SOL    HW215255   4.578   0.663   7.940  2.4233  1.2385 -0.0825
 1208SOL     OW15256   0.957   3.541   9.273 -0.1770  0.2856 -0.2707
 1208SOL    HW115257   0.974   3.508   9.185 -1.3148  2.2812 -1.2313
 1208SOL    HW215258   0.891   3.477   9.297 -0.5328  0.8535  0.2859
 1209SOL     OW15259   3.558   1.706   7.780  0.8891  0.3973 -0.0815
 1209SOL    HW115260   3.528   1.768   7.847  2.4107  1.9020 -0.7929
 1209SOL    HW215261   3.618   1.648   7.828  0.6093  1.6466  1.7845
 1210SOL     OW15262   2.056   0.834   7.151 -0.8055 -0.5140  0.1311
 1210SOL    HW115263   2.065   0.919   7.194 -0.6270  0.6476 -2.2283
 1210SOL    HW215264   1.981   0.786   7.188  1.4367 -2.0859  2.5922
 1211SOL     OW15265   4.175   2.201   6.758  0.3361  0.1095  0.1423
 1211SOL    HW115266   4.256   2.199   6.707 -0.1853  0.5190 -0.7129
 1211SOL    HW215267   4.177   2.296   6.774  0.7838  0.1124  0.0739
 1212SOL     OW15268   4.215   4.728   0.272 -0.5598  0.1687  0.1224
 1212SOL    HW115269   4.168   4.666   0.216  1.8190 -1.3199 -0.1960
 1212SOL    HW215270   4.203   0.066   0.214  1.1650  1.6259  1.6674
 1213SOL     OW15271   3.849   4.516   0.369  0.4209  0.5267 -0.0342
 1213SOL    HW115272   3.858   4.444   0.306 -0.1245  0.1598  0.3010
 1213SOL    HW215273   3.771   4.488   0.418 -0.1042  3.1609  0.6469
 1214SOL     OW15274   0.231   2.517  17.448 -0.4462 -0.1398 -0.0177
 1214SOL    HW115275   0.247   2.539  17.540  1.6266 -2.1398  0.1041
 1214SOL    HW215276   0.320   2.538  17.419  0.2237 -2.2565  0.5163
 1215SOL     OW15277   3.562   0.945  16.249 -0.1597 -0.0865  0.1598
 1215SOL    HW115278   3.655   0.964  16.254 -0.1983  0.3770 -0.8424
 1215SOL    HW215279   3.541   1.027  16.205 -2.1734 -0.6411  0.0825
 1216SOL     OW15280   2.234   1.948   5.160 -0.4123  0.0171  0.7428
 1216SOL    HW115281   2.197   2.036   5.151  1.5758  0.8292  0.5385
 1216SOL    HW215282   2.199   1.909   5.240  0.6673  0.3718  1.3880
 1217SOL     OW15283   2.389   2.807   8.524  0.8628 -0.2382 -0.2890
 1217SOL    HW115284   2.477   2.771   8.525  1.5192  1.3235 -2.1330
 1217SOL    HW215285   2.352   2.738   8.579 -1.4070  1.5742  0.4723
 1218SOL     OW15286   1.524   4.724   1.130  0.0682  0.1054 -0.5403
 1218SOL    HW115287   1.461   0.028   1.072 -0.6049  0.5381  0.5009
 1218SOL    HW215288   1.473   4.654   1.172 -2.3395  1.6117 -0.9733
 1219SOL     OW15289   2.518   1.230   1.195  0.2291  0.2470 -0.8814
 1219SOL    HW115290   2.560   1.303   1.239 -0.5718  0.2857 -0.1848
 1219SOL    HW215291   2.577   1.156   1.190 -0.5952 -0.5912  2.0446
 1220SOL     OW15292   1.391   2.317   9.413 -0.0969 -0.2398 -0.2298
 1220SOL    HW115293   1.333   2.255   9.458  0.3741  0.3582  1.1865
 1220SOL    HW215294   1.370   2.304   9.321  4.0445 -1.0727 -1.0157
 1221SOL     OW15295   0.672   3.342   5.133 -0.0728 -0.3145 -0.2390
 1221SOL    HW115296   0.735   3.312   5.067 -1.5986  0.3264 -1.9974
 1221SOL    HW215297   0.660   3.429   5.095  2.8119  0.6062  0.9870
 1222SOL     OW15298   0.614   1.504   5.608 -0.4437  0.5002 -0.4166
 1222SOL    HW115299   0.676   1.439   5.575 -0.4294  0.8329 -1.0363
 1222SOL    HW215300   0.609   1.486   5.702 -1.0065 -2.0007 -0.9118
 1223SOL     OW15301   1.987   3.230   8.940 -0.7152  0.1990  0.6788
 1223SOL    HW115302   2.069   3.210   8.895 -1.5681 -0.6596 -0.4942
 1223SOL    HW215303   1.992   3.148   8.989 -0.2756 -0.6231 -0.7407
 1224SOL     OW15304   2.301   0.118   2.841  0.4407  0.5505 -0.4457
 1224SOL    HW115305   2.232   0.156   2.897 -1.2088 -0.8703 -1.5329
 1224SOL    HW215306   2.340   0.064   2.910 -3.4654 -0.6481  0.8320
 1225SOL     OW15307   3.389   1.334  13.349  0.2332  0.0155  0.1734
 1225SOL    HW115308   3.401   1.248  13.309  0.8459  0.3983 -0.4797
 1225SOL    HW215309   3.351   1.383  13.275  0.6002 -0.6404 -0.4478
 1226SOL     OW15310   3.329   0.743   3.443 -0.6268  0.2172 -0.0328
 1226SOL    HW115311   3.412   0.697   3.453 -0.6236 -0.1079 -1.4830
 1226SOL    HW215312   3.294   0.681   3.378 -1.3955  1.5117 -0.8634
 1227SOL     OW15313   1.623   4.593   3.458  0.5604  0.1810 -0.4335
 1227SOL    HW115314   1.624   4.588   3.362  0.9499  0.1271 -0.4282
 1227SOL    HW215315   1.704   4.546   3.478  0.2459 -0.0006  0.3923
 1228SOL     OW15316   1.796   4.209   3.804 -0.3381  0.1611  0.5996
 1228SOL    HW115317   1.726   4.146   3.820  0.7640 -1.0522  0.7465
 1228SOL    HW215318   1.868   4.147   3.819  0.4399  0.3616 -2.1938
 1229SOL     OW15319   3.235   0.990   7.126  0.6568  0.0586  0.5417
 1229SOL    HW115320   3.214   0.991   7.032  0.5511 -1.9080  0.5445
 1229SOL    HW215321   3.159   0.940   7.153 -0.3361  0.8552 -0.7555
 1230SOL     OW15322   3.622   3.867   5.351 -0.0765 -0.0727  0.2748
 1230SOL    HW115323   3.552   3.877   5.287  1.1418 -0.2010 -1.0799
 1230SOL    HW215324   3.689   3.890   5.287  2.2743  0.2248  2.8035
 1231SOL     OW15325   1.940   1.819  11.941 -0.0002  0.2479 -0.0041
 1231SOL    HW115326   1.908   1.892  11.994 -0.7529  0.6116 -0.9598
 1231SOL    HW215327   2.021   1.792  11.984  0.4993  3.4857  1.0544
 1232SOL     OW15328   3.910   0.143   6.311 -0.1515  0.6404  0.1687
 1232SOL    HW115329   3.909   0.195   6.230  0.9919  2.0959  1.1009
 1232SOL    HW215330   3.994   0.100   6.295 -1.1087 -1.0687 -0.3316
 1233SOL     OW15331   3.708   3.826   0.456 -0.1486 -0.0018 -0.3315
 1233SOL    HW115332   3.749   3.911   0.447  0.9410 -0.4733  0.1786
 1233SOL    HW215333   3.680   3.814   0.365  2.2010  1.2274 -1.2129
 1234SOL     OW15334   0.923   3.772   8.204  0.2772  0.2763 -0.1352
 1234SOL    HW115335   1.012   3.750   8.232 -0.6923 -1.2801  1.7662
 1234SOL    HW215336   0.906   3.703   8.140 -2.6382  1.4573 -0.6315
 1235SOL     OW15337   2.604   4.537   6.976  0.0318 -0.1199 -0.0925
 1235SOL    HW115338   2.627   4.617   6.929  1.3309  0.7065  1.9865
 1235SOL    HW215339   2.593   4.563   7.067 -1.2614 -0.6771 -0.0974
 1236SOL     OW15340   0.933   1.710  12.621 -0.4113 -0.4255 -0.4988
 1236SOL    HW115341   0.922   1.791  12.571  0.0030 -0.1885 -0.2129
 1236SOL    HW215342   0.932   1.645  12.551 -0.1976 -1.0760  0.1013
 1237SOL     OW15343   0.734   0.478   7.216 -0.2282  0.0649 -0.0626
 1237SOL    HW115344   0.648   0.513   7.240  0.8643  1.5180  1.7172
 1237SOL    HW215345   0.792   0.504   7.287 -2.2466  2.3639  0.7406
 1238SOL     OW15346   4.737   0.324   3.517 -0.0205  0.2850 -0.2146
 1238SOL    HW115347   0.030   0.233   3.513 -0.0757  0.3142 -1.3133
 1238SOL    HW215348   4.653   0.298   3.555  0.2971 -0.8251 -0.2484
 1239SOL     OW15349   0.564   2.289   4.841 -0.2203 -0.2946 -0.5710
 1239SOL    HW115350   0.608   2.342   4.775  0.9148 -2.8099 -1.8635
 1239SOL    HW215351   0.564   2.341   4.921  1.4289  0.2294 -0.9188
 1240SOL     OW15352   4.007   3.070   4.488  0.0058 -0.3514  0.0303
 1240SOL    HW115353   3.955   2.990   4.489 -0.0216 -0.3306  0.3312
 1240SOL    HW215354   4.014   3.091   4.581  0.2967  0.8942 -0.2659
 1241SOL     OW15355   4.267   3.130   0.775 -0.0060  0.0251  0.6110
 1241SOL    HW115356   4.340   3.172   0.821  0.6706  0.3192 -0.7425
 1241SOL    HW215357   4.191   3.148   0.830  0.0515  1.4218  0.2328
 1242SOL     OW15358   0.805   1.961   9.535 -1.1060 -0.0294  0.5239
 1242SOL    HW115359   0.855   2.042   9.532 -1.0174 -0.0742  0.7838
 1242SOL    HW215360   0.713   1.989   9.535 -0.8201  0.8938 -0.1895
 1243SOL     OW15361   4.095   3.214   2.731 -0.4016  0.0010  0.4552
 1243SOL    HW115362   4.002   3.238   2.728 -1.2112 -3.1993 -0.7117
 1243SOL    HW215363   4.140   3.295   2.751  0.2636 -0.8601  2.5008
 1244SOL     OW15364   4.195   0.181   4.737  0.6276  0.0221  0.3201
 1244SOL    HW115365   4.175   0.257   4.792 -1.6634 -1.8275  1.9743
 1244SOL    HW215366   4.115   0.177   4.686  1.1438 -1.0040 -0.4046
 1245SOL     OW15367   2.834   2.655   2.696  0.2099 -0.5889 -0.4969
 1245SOL    HW115368   2.853   2.597   2.769 -1.1586 -0.0363  0.2882
 1245SOL    HW215369   2.742   2.670   2.715  0.7449  2.5250 -0.2748
 1246SOL     OW15370   1.691   3.704   5.487 -0.6643  0.6423 -0.2837
 1246SOL    HW115371   1.600   3.712   5.456 -1.3384 -0.7887  1.3528
 1246SOL    HW215372   1.678   3.728   5.579  2.9504  1.1480  0.0979
 1247SOL     OW15373   0.059   0.872   5.755 -0.1705 -0.2133 -0.1948
 1247SOL    HW115374   0.094   0.783   5.744  1.6716  0.2123  2.0258
 1247SOL    HW215375   4.721   0.872   5.698 -0.5175  1.8251  0.2901
 1248SOL     OW15376   3.511   4.698   0.193  0.3185 -0.0058  0.2567
 1248SOL    HW115377   3.430   0.005   0.213 -0.9393 -1.7239 -0.9831
 1248SOL    HW215378   3.517   4.730   0.103  0.5583 -0.5601  0.0748
 1249SOL     OW15379   4.386   0.801  16.843 -0.0447  0.3503 -0.4985
 1249SOL    HW115380   4.457   0.864  16.830 -0.0375  0.5966  0.8001
 1249SOL    HW215381   4.438   0.722  16.849  0.6726  1.0400  2.1401
 1250SOL     OW15382   3.219   3.656   3.338 -0.0305  0.5914 -0.4504
 1250SOL    HW115383   3.256   3.576   3.374  1.8153  0.5270 -2.5221
 1250SOL    HW215384   3.155   3.628   3.273  2.0499 -1.1360 -1.7122
 1251SOL     OW15385   1.385   4.366   2.894  0.1375  0.0119  0.2007
 1251SOL    HW115386   1.306   4.406   2.930 -1.7151 -1.5195 -2.1549
 1251SOL    HW215387   1.419   4.436   2.839  0.6409 -0.2954  0.1197
 1252SOL     OW15388   0.206   1.046   8.193  0.3172  0.5824  0.1902
 1252SOL    HW115389   0.208   1.142   8.195  0.5651  0.6246 -1.5821
 1252SOL    HW215390   0.128   1.023   8.242 -0.2333 -0.8071 -1.3479
 1253SOL     OW15391   2.822   1.704  12.408 -0.5032 -0.1325 -0.0686
 1253SOL    HW115392   2.834   1.696  12.503  0.9271  1.2867 -0.1448
 1253SOL    HW215393   2.810   1.799  12.403 -1.4437 -0.2578 -0.1688
 1254SOL     OW15394   4.713   4.623   4.667  0.8863  0.0738 -0.2641
 1254SOL    HW115395   4.692   4.563   4.595 -0.0342  0.3445 -0.2182
 1254SOL    HW215396   4.627   4.640   4.706  1.5861 -1.3274  1.8771
 1255SOL     OW15397   0.070   4.505   2.488 -0.2812 -0.2160 -0.1897
 1255SOL    HW115398   0.084   4.437   2.553  0.8927 -0.9070 -1.1670
 1255SOL    HW215399   4.720   4.487   2.456 -0.8187  0.7661  0.7502
 1256SOL     OW15400   3.417   4.230   8.327  0.4708  0.5265  0.2045
 1256SOL    HW115401   3.477   4.155   8.334 -0.2449 -0.2937 -2.4802
 1256SOL    HW215402   3.463   4.275   8.256  0.7662  0.3141  0.2595
 1257SOL     OW15403   0.613   3.637  17.654 -0.5648 -0.5128 -0.1051
 1257SOL    HW115404   0.547   3.578  17.619 -1.7239  0.0247  1.1832
 1257SOL    HW215405   0.691   3.613  17.605  0.2773 -0.2684  1.1055
 1258SOL     OW15406   3.285   1.544   2.494  0.1474 -1.3164 -0.6339
 1258SOL    HW115407   3.230   1.523   2.419 -2.0142  0.4933  0.4291
 1258SOL    HW215408   3.211   1.583   2.541 -1.6377 -3.1289 -1.9253
 1259SOL     OW15409   1.427   0.383   4.721 -0.1663  0.0130  0.0416
 1259SOL    HW115410   1.406   0.370   4.629 -1.3526 -0.1895  0.3490
 1259SOL    HW215411   1.346   0.354   4.762  0.3708 -0.6218  0.6579
 1260SOL     OW15412   4.530   1.299   8.095 -0.6270 -0.6050 -0.0117
 1260SOL    HW115413   4.600   1.310   8.032 -1.3729  1.3031 -0.4889
 1260SOL    HW215414   4.549   1.370   8.156 -2.5761 -1.9244  2.1624
 1261SOL     OW15415   3.785   4.106   3.050 -0.0902 -0.3774  0.4344
 1261SOL    HW115416   3.726   4.102   3.125  0.2707  1.1215  0.7887
 1261SOL    HW215417   3.732   4.067   2.980 -1.3356  0.4702  0.9069
 1262SOL     OW15418   3.935   2.806   8.446 -0.8206 -0.2937  0.3740
 1262SOL    HW115419   3.857   2.789   8.393 -0.7973  0.8520 -0.0365
 1262SOL    HW215420   3.915   2.880   8.504  0.3825 -0.0761  0.5140
 1263SOL     OW15421   4.435   3.403   6.459 -0.1785 -0.0719 -0.0359
 1263SOL    HW115422   4.519   3.420   6.417 -1.1402  1.5459 -1.3042
 1263SOL    HW215423   4.459   3.428   6.548 -1.4055 -0.9803  0.5467
 1264SOL     OW15424   1.392   3.742   9.268 -0.3417  0.3309 -0.1772
 1264SOL    HW115425   1.304   3.768   9.297 -0.7853 -0.7534 -0.5656
 1264SOL    HW215426   1.373   3.732   9.175 -1.3084 -2.0623  0.2839
 1265SOL     OW15427   0.973   1.782   9.710 -0.0837 -0.1934  0.1205
 1265SOL    HW115428   0.903   1.826   9.660  1.4904  0.9665 -1.0730
 1265SOL    HW215429   0.950   1.792   9.802 -0.1786 -0.0024  0.0763
 1266SOL     OW15430   3.452   1.311  13.611  0.3895  0.1049  0.1219
 1266SOL    HW115431   3.414   1.326  13.524  1.4738  1.3275 -0.1398
 1266SOL    HW215432   3.546   1.295  13.602  0.1217 -2.0073  1.0338
 1267SOL     OW15433   0.855   4.660  17.145  0.2443  0.0772 -0.5923
 1267SOL    HW115434   0.821   4.570  17.138  2.6731 -0.9821  1.0254
 1267SOL    HW215435   0.904   4.661  17.227 -2.3196 -1.9504  1.0074
 1268SOL     OW15436   2.609   4.248  12.884 -0.4977  0.1442 -0.1237
 1268SOL    HW115437   2.526   4.269  12.928  0.0757  0.0398  1.0115
 1268SOL    HW215438   2.673   4.247  12.955  1.6131  2.6439 -2.0080
 1269SOL     OW15439   3.087   2.183   6.347 -0.6115  0.3442 -0.4701
 1269SOL    HW115440   3.045   2.205   6.430  1.9077 -2.1252  1.4570
 1269SOL    HW215441   3.042   2.099   6.333 -0.5074 -0.0123  1.3033
 1270SOL     OW15442   4.389   4.323   7.478  0.0672 -0.2176 -0.0161
 1270SOL    HW115443   4.365   4.399   7.531  0.7871 -0.5275  0.7512
 1270SOL    HW215444   4.390   4.259   7.550  2.0342  0.0801  0.2287
 1271SOL     OW15445   1.726   1.813   3.133 -0.2230 -0.0556 -0.5131
 1271SOL    HW115446   1.768   1.814   3.047  2.0812 -2.0895  0.6041
 1271SOL    HW215447   1.695   1.722   3.133 -0.5850  0.0814  1.2076
 1272SOL     OW15448   0.580   1.772   9.916 -0.2424  0.0046 -0.6097
 1272SOL    HW115449   0.582   1.699   9.855  3.6476  1.0007 -1.6454
 1272SOL    HW215450   0.496   1.752   9.958 -0.0483 -0.5056 -0.4594
 1273SOL     OW15451   3.963   3.667  13.561  0.1155  0.2595 -0.3515
 1273SOL    HW115452   3.952   3.573  13.546 -2.3273  0.2777  1.3335
 1273SOL    HW215453   4.018   3.680  13.484 -0.6142  0.9330 -0.7464
 1274SOL     OW15454   3.366   0.499   2.770 -0.2652 -0.3833  0.5868
 1274SOL    HW115455   3.368   0.591   2.797 -0.2271 -0.5733  1.2343
 1274SOL    HW215456   3.338   0.461   2.853 -0.9071  0.8890  0.9473
 1275SOL     OW15457   2.798   2.731   0.996 -0.1994 -0.7469  0.5426
 1275SOL    HW115458   2.853   2.722   0.918  0.6254 -2.6287  1.3309
 1275SOL    HW215459   2.862   2.717   1.067  1.1050  0.2373 -0.4366
 1276SOL     OW15460   4.131   3.834   2.874 -0.0510 -0.4290 -0.4395
 1276SOL    HW115461   4.072   3.782   2.818 -0.5868 -0.8806  0.5469
 1276SOL    HW215462   4.137   3.914   2.822 -0.9293 -0.9398 -1.3457
 1277SOL     OW15463   1.171   0.968   5.994 -0.7754 -0.0047 -0.4191
 1277SOL    HW115464   1.195   1.052   6.034 -0.0189 -1.5054  2.3104
 1277SOL    HW215465   1.248   0.942   5.943  0.4308 -2.2062  2.5004
 1278SOL     OW15466   4.265   3.193   4.736  0.0431  0.1533 -0.2029
 1278SOL    HW115467   4.280   3.146   4.654 -0.3977  0.8173 -0.6623
 1278SOL    HW215468   4.194   3.246   4.699 -0.4573  0.2960  0.9407
 1279SOL     OW15469   1.794   2.540   6.830  0.4148 -0.4337 -0.5746
 1279SOL    HW115470   1.864   2.477   6.848 -1.2711 -2.6557 -1.8342
 1279SOL    HW215471   1.813   2.609   6.893  0.0619 -2.2396  1.4993
 1280SOL     OW15472   4.678   0.369   6.397  0.0335  0.2658 -0.4982
 1280SOL    HW115473   4.636   0.283   6.400 -1.3327  0.9775  0.5031
 1280SOL    HW215474   4.729   0.372   6.478 -1.0805 -0.1998  0.2267
 1281SOL     OW15475   1.983   3.365   7.757 -0.3612 -0.7466 -0.3757
 1281SOL    HW115476   1.904   3.312   7.763 -1.2443  0.4943 -1.0764
 1281SOL    HW215477   2.025   3.337   7.839  1.1314 -0.1172 -0.9292
 1282SOL     OW15478   4.134   1.577   7.217  0.3123  0.3266 -0.0220
 1282SOL    HW115479   4.130   1.645   7.285  1.9722  0.3552  0.0555
 1282SOL    HW215480   4.158   1.638   7.148  1.7500 -1.3543 -1.0082
 1283SOL     OW15481   0.630   4.565   8.318  0.4990 -0.4362  0.2118
 1283SOL    HW115482   0.694   4.636   8.318  1.8576 -1.6534 -0.2765
 1283SOL    HW215483   0.684   4.501   8.364 -1.3193  0.6580  3.7832
 1284SOL     OW15484   3.057   3.711  14.948  0.7002 -0.2512 -0.1809
 1284SOL    HW115485   3.053   3.791  15.000  0.1141  0.0839 -0.7502
 1284SOL    HW215486   2.990   3.737  14.885 -0.0815  1.8780  1.5199
 1285SOL     OW15487   3.798   0.925   7.317 -0.0680  0.0733 -0.2818
 1285SOL    HW115488   3.764   0.979   7.388  0.2871  0.2744 -0.2609
 1285SOL    HW215489   3.819   0.993   7.252  1.8786  0.0019  0.2659
 1286SOL     OW15490   0.879   1.818   8.324 -0.0234  0.3479 -0.2925
 1286SOL    HW115491   0.833   1.862   8.395  0.9485  0.0860  0.4950
 1286SOL    HW215492   0.889   1.732   8.365  0.2403 -0.2150 -1.5231
 1287SOL     OW15493   4.031   4.645   5.274  0.3846 -0.1327 -0.2740
 1287SOL    HW115494   4.048   4.635   5.368 -0.9052  3.1526  0.3310
 1287SOL    HW215495   4.103   4.700   5.243  0.1111  0.1530 -0.4038
 1288SOL     OW15496   3.280   1.456   3.864  0.5317  0.2645 -0.6175
 1288SOL    HW115497   3.197   1.454   3.816  0.0547 -1.5409  0.2683
 1288SOL    HW215498   3.323   1.505   3.793 -1.3510 -2.0874 -3.4145
 1289SOL     OW15499   3.018   0.214   9.979 -0.5633  0.1550 -0.0579
 1289SOL    HW115500   3.035   0.199   9.886  2.0262 -0.2000  0.4577
 1289SOL    HW215501   3.062   0.299   9.986  0.8582 -0.5490 -0.3953
 1290SOL     OW15502   3.373   0.210   3.919  0.1035  0.3966  0.3642
 1290SOL    HW115503   3.364   0.185   3.827  2.2685  0.2578  0.1873
 1290SOL    HW215504   3.429   0.136   3.944  1.4380  1.0207 -0.7527
 1291SOL     OW15505   2.747   4.047  15.867  0.3928  0.5555  0.1397
 1291SOL    HW115506   2.723   4.118  15.927 -1.7524  0.5053 -0.6698
 1291SOL    HW215507   2.756   3.975  15.930  0.2432 -0.1664 -0.6648
 1292SOL     OW15508   1.287   3.436   6.426  0.6256 -0.1381  0.0607
 1292SOL    HW115509   1.373   3.398   6.408  0.6057 -0.5854  0.9064
 1292SOL    HW215510   1.316   3.517   6.469 -0.8659  1.0382 -1.1822
 1293SOL     OW15511   0.067   0.468   1.312  0.1450 -0.4715 -0.1885
 1293SOL    HW115512   0.157   0.468   1.280 -0.8397 -2.8600 -2.9607
 1293SOL    HW215513   0.019   0.455   1.230  0.4393  0.5289 -0.5143
 1294SOL     OW15514   1.900   3.376  14.975  0.4325 -0.5128  0.3826
 1294SOL    HW115515   1.865   3.455  14.934 -0.2301 -0.9792  0.0361
 1294SOL    HW215516   1.823   3.355  15.027 -0.4401  2.2828  0.2021
 1295SOL     OW15517   1.489   0.184   8.723 -0.1628 -0.0232 -0.0941
 1295SOL    HW115518   1.411   0.202   8.776 -0.1518 -1.8922  0.5449
 1295SOL    HW215519   1.464   0.218   8.637 -0.7435 -0.2898 -0.0305
 1296SOL     OW15520   4.092   0.435   9.129 -0.0738  0.3977  0.0387
 1296SOL    HW115521   4.029   0.479   9.071  0.9108  0.8482 -0.6742
 1296SOL    HW215522   4.178   0.467   9.105  0.2409 -0.8352 -0.4724
 1297SOL     OW15523   1.195   2.797   9.974 -0.3997  0.3535 -0.0284
 1297SOL    HW115524   1.106   2.808   9.941 -0.6448  1.7105  1.1082
 1297SOL    HW215525   1.241   2.831   9.897  2.1256 -0.1841  1.2434
 1298SOL     OW15526   3.269   0.759   9.095 -0.6207 -0.1521 -0.3903
 1298SOL    HW115527   3.187   0.710   9.106  1.9111 -4.2729  0.1786
 1298SOL    HW215528   3.304   0.725   9.177 -2.0921 -0.3067  0.1806
 1299SOL     OW15529   3.663   4.547   2.116  0.1772 -0.0400 -0.1976
 1299SOL    HW115530   3.715   4.620   2.152  0.8605 -0.4418 -0.3651
 1299SOL    HW215531   3.591   4.589   2.070 -0.4024 -1.4318 -0.5486
 1300SOL     OW15532   3.408   4.341   3.207 -0.3203 -0.2094  0.0851
 1300SOL    HW115533   3.491   4.293   3.211 -1.1693 -1.5807  1.2588
 1300SOL    HW215534   3.408   4.372   3.117  1.0347 -0.3696  0.0390
 1301SOL     OW15535   3.155   4.238   4.638  0.5572  0.1615 -0.0022
 1301SOL    HW115536   3.117   4.162   4.682 -1.2954  1.4197  0.5764
 1301SOL    HW215537   3.087   4.299   4.665 -0.2161  1.0361 -3.9001
 1302SOL     OW15538   1.144   2.509   5.168 -0.0777  0.0034  0.0629
 1302SOL    HW115539   1.162   2.603   5.172 -0.2659  0.0405  0.0270
 1302SOL    HW215540   1.123   2.508   5.075 -1.5781  0.0855  0.4000
 1303SOL     OW15541   0.595   4.164   5.844 -0.6326  0.2405  0.5645
 1303SOL    HW115542   0.547   4.223   5.785  0.3416 -0.1243 -0.5959
 1303SOL    HW215543   0.539   4.087   5.843 -0.4086  0.0710  0.8880
 1304SOL     OW15544   0.390   2.826   7.967  0.0422 -0.2472  0.3815
 1304SOL    HW115545   0.456   2.876   7.918  0.9804 -2.3054 -0.4714
 1304SOL    HW215546   0.378   2.753   7.905  1.0476 -1.8623  2.0720
 1305SOL     OW15547   3.209   2.192   5.866 -0.0570 -0.3867  0.5649
 1305SOL    HW115548   3.183   2.273   5.909  0.9220  1.1841 -1.8138
 1305SOL    HW215549   3.167   2.203   5.781 -0.9839 -0.7588  0.9758
 1306SOL     OW15550   4.515   1.312   7.207 -0.9350  0.9119 -0.4958
 1306SOL    HW115551   4.496   1.278   7.120  0.9167  0.0314 -0.5654
 1306SOL    HW215552   4.425   1.328   7.234 -0.1166  1.1172  2.1770
 1307SOL     OW15553   3.931   3.332  11.283 -0.1681 -0.1813  0.3330
 1307SOL    HW115554   3.956   3.245  11.314 -1.0800 -0.8319 -0.7523
 1307SOL    HW215555   3.836   3.334  11.268 -0.6596  0.3556  3.4282
 1308SOL     OW15556   1.689   2.904   2.883  0.6904  0.7181 -0.1298
 1308SOL    HW115557   1.611   2.960   2.875 -0.6751 -1.3585 -1.4286
 1308SOL    HW215558   1.746   2.917   2.807  0.4411 -1.1444 -0.6324
 1309SOL     OW15559   4.412   0.884   8.721 -0.0943  0.1473 -0.0558
 1309SOL    HW115560   4.488   0.827   8.732 -0.2337  0.1638  0.9954
 1309SOL    HW215561   4.370   0.852   8.641 -0.8534 -1.0117  0.7988
 1310SOL     OW15562   0.338   4.108   4.255 -0.0523  0.1546 -0.7140
 1310SOL    HW115563   0.354   4.069   4.341  2.3629  0.9444 -0.8140
 1310SOL    HW215564   0.247   4.136   4.260 -0.1633 -0.5219  1.0318
 1311SOL     OW15565   3.831   4.293  14.286  0.3662 -1.0429  0.0565
 1311SOL    HW115566   3.872   4.370  14.245  1.0002 -0.2129  2.2493
 1311SOL    HW215567   3.909   4.252  14.324  0.9520 -0.4210 -0.4735
 1312SOL     OW15568   4.346   2.508   2.174 -0.4063  0.1438 -0.4607
 1312SOL    HW115569   4.398   2.505   2.093 -0.1978 -1.1100 -0.2728
 1312SOL    HW215570   4.313   2.598   2.163 -1.0064  0.0497  0.6261
 1313SOL     OW15571   0.611   1.114  15.686 -0.4969  0.3691 -0.1541
 1313SOL    HW115572   0.547   1.184  15.695 -2.0323 -0.7223 -2.6660
 1313SOL    HW215573   0.560   1.034  15.699 -1.1781  0.6342 -1.2323
 1314SOL     OW15574   1.662   0.681   2.066  0.4692 -0.1590  0.2336
 1314SOL    HW115575   1.660   0.648   2.156 -1.1977  0.2982  0.3612
 1314SOL    HW215576   1.567   0.685   2.055  0.4027  0.0107  0.8563
 1315SOL     OW15577   3.915   4.160   4.856 -0.0373 -0.0012 -0.6929
 1315SOL    HW115578   3.888   4.229   4.796 -0.8959  0.6408  0.4366
 1315SOL    HW215579   3.834   4.159   4.908  1.3755  0.5022  1.5225
 1316SOL     OW15580   1.804   4.191  15.276 -0.0971  0.4445 -0.0801
 1316SOL    HW115581   1.845   4.122  15.328 -0.7607  0.0926 -0.0376
 1316SOL    HW215582   1.805   4.258  15.344 -1.1097 -1.7298  2.0628
 1317SOL     OW15583   4.196   2.472   0.129 -0.2825  0.0224  0.8058
 1317SOL    HW115584   4.210   2.542   0.193 -2.3360  1.8950 -0.7914
 1317SOL    HW215585   4.108   2.443   0.151 -0.2809  0.9620  2.0298
 1318SOL     OW15586   3.455   3.526   1.895 -0.2097  0.2621  0.2072
 1318SOL    HW115587   3.436   3.569   1.978 -0.3986  1.5278 -0.4818
 1318SOL    HW215588   3.434   3.435   1.915  1.8951 -0.1509  0.5568
 1319SOL     OW15589   0.296   4.253   2.509  0.0004  0.0996 -0.2627
 1319SOL    HW115590   0.261   4.250   2.420  1.5273 -1.7582 -0.7961
 1319SOL    HW215591   0.325   4.344   2.522  0.0101  0.0805 -0.1492
 1320SOL     OW15592   2.455   0.880  10.711  0.0493 -0.4328  0.3990
 1320SOL    HW115593   2.383   0.940  10.732  1.3867  0.9473  0.9972
 1320SOL    HW215594   2.511   0.932  10.653 -0.7580 -1.7145 -1.5693
 1321SOL     OW15595   3.539   2.078   6.640  0.5939 -0.2564 -0.6735
 1321SOL    HW115596   3.527   1.986   6.617  1.0216 -0.1914 -1.1463
 1321SOL    HW215597   3.634   2.079   6.632  0.9136  0.7785  2.8624
 1322SOL     OW15598   1.601   4.184   2.349  0.4568 -0.0977  0.7172
 1322SOL    HW115599   1.657   4.237   2.407 -1.5945  1.9828  0.8168
 1322SOL    HW215600   1.630   4.093   2.354 -1.2192 -0.6799  0.0179
 1323SOL     OW15601   2.431   1.058   5.886 -0.0249  0.5965  0.3495
 1323SOL    HW115602   2.417   0.992   5.819  2.3374 -0.3778  0.8398
 1323SOL    HW215603   2.372   1.021   5.952  0.8517 -0.6647  0.4207
 1324SOL     OW15604   0.907   4.307  10.196  0.1831  0.0221 -0.0596
 1324SOL    HW115605   0.857   4.361  10.257 -0.6978 -0.3145 -0.4806
 1324SOL    HW215606   0.841   4.301  10.127 -0.1960 -0.8198  0.3800
 1325SOL     OW15607   0.244   2.231   5.972 -0.4068  0.2235  0.2971
 1325SOL    HW115608   0.297   2.174   6.027 -0.6455 -2.2340 -2.0445
 1325SOL    HW215609   0.257   2.316   6.015 -0.9969 -0.2650  1.4388
 1326SOL     OW15610   0.178   3.778   4.082 -0.3403  0.1104 -0.2884
 1326SOL    HW115611   0.267   3.777   4.048  0.3040 -0.3711  1.4589
 1326SOL    HW215612   0.165   3.686   4.104  1.3921 -0.2606 -0.8855
 1327SOL     OW15613   1.325   4.529   4.292 -0.4009  0.1974 -0.5085
 1327SOL    HW115614   1.330   4.512   4.386  1.9118  2.4400 -0.1941
 1327SOL    HW215615   1.339   4.440   4.259 -0.9977 -0.9921  2.4800
 1328SOL     OW15616   2.589   0.735  12.197 -0.6500 -0.0941  0.5371
 1328SOL    HW115617   2.573   0.648  12.235 -0.8262 -0.1689  0.2879
 1328SOL    HW215618   2.510   0.754  12.147  1.2149  2.0799 -1.5564
 1329SOL     OW15619   0.050   2.538   4.460  0.7168  0.0323 -0.3294
 1329SOL    HW115620   4.727   2.502   4.396  0.3553  1.9588 -1.0503
 1329SOL    HW215621   0.128   2.519   4.409 -0.3878 -2.5573 -1.0496
 1330SOL     OW15622   2.783   1.978   6.134  0.3986 -0.3693  0.1288
 1330SOL    HW115623   2.814   1.915   6.199 -1.7408 -0.6375  0.8677
 1330SOL    HW215624   2.842   1.968   6.059  3.2025  4.0219  1.7771
 1331SOL     OW15625   1.551   1.726   1.772  0.2225  0.3055 -0.3089
 1331SOL    HW115626   1.491   1.700   1.842 -0.5271 -0.4517 -1.2180
 1331SOL    HW215627   1.531   1.819   1.762  2.1992  0.6986 -0.5968
 1332SOL     OW15628   0.694   2.239  12.597  0.0045  0.7279  0.6374
 1332SOL    HW115629   0.775   2.188  12.590 -0.7597  0.0052 -2.7521
 1332SOL    HW215630   0.673   2.255  12.689 -2.7375  2.4933 -0.2877
 1333SOL     OW15631   1.107   4.198   4.221 -0.0416  0.3363  0.8956
 1333SOL    HW115632   1.040   4.249   4.174  1.8685  0.5299 -1.6357
 1333SOL    HW215633   1.052   4.178   4.297 -2.0872  1.0790 -0.3686
 1334SOL     OW15634   1.628   1.449   5.732 -0.6915  0.0568 -0.0685
 1334SOL    HW115635   1.596   1.537   5.752 -0.6465  0.4356 -1.6589
 1334SOL    HW215636   1.616   1.443   5.637  1.4859  2.0740 -0.4939
 1335SOL     OW15637   4.375   3.065   5.250  0.5053  0.4438 -0.3768
 1335SOL    HW115638   4.341   3.130   5.311  2.2899  0.3799  0.7089
 1335SOL    HW215639   4.347   3.094   5.164 -0.1515 -0.2828 -0.4042
 1336SOL     OW15640   0.734   0.159   0.261  0.1521 -0.2095 -0.3266
 1336SOL    HW115641   0.653   0.152   0.310  0.0089 -0.3598 -0.5877
 1336SOL    HW215642   0.755   0.252   0.270 -0.1964 -0.0432 -1.2703
 1337SOL     OW15643   0.090   4.476  17.112 -0.5846  0.1089  0.3035
 1337SOL    HW115644   0.167   4.436  17.152  0.3461  0.9099 -0.7133
 1337SOL    HW215645   0.038   4.408  17.070 -0.7495 -0.8565  2.0509
 1338SOL     OW15646   0.438   4.521  14.112  0.1542  0.5131 -0.1751
 1338SOL    HW115647   0.420   4.434  14.077  0.3509 -1.0676  3.6133
 1338SOL    HW215648   0.362   4.563  14.073  0.1883  0.3431 -0.4226
 1339SOL     OW15649   3.804   1.640   8.542  0.4248  0.2398 -0.4716
 1339SOL    HW115650   3.898   1.621   8.541  0.3637 -0.0431 -1.0495
 1339SOL    HW215651   3.807   1.729   8.576 -1.3822  0.0046  0.2934
 1340SOL     OW15652   3.908   3.681   4.431  0.1325  0.3218 -0.0516
 1340SOL    HW115653   3.837   3.716   4.485  0.1169  0.4350 -0.1461
 1340SOL    HW215654   3.980   3.704   4.489  0.7130 -0.1228 -0.5994
 1341SOL     OW15655   1.983   3.726   1.987  0.0356  0.2160  0.2619
 1341SOL    HW115656   1.939   3.667   2.048  0.2647 -0.7906 -0.5605
 1341SOL    HW215657   2.017   3.670   1.918 -3.5386 -1.8972  0.2622
 1342SOL     OW15658   1.146   1.908   2.128  0.0696  0.0170  0.1777
 1342SOL    HW115659   1.165   1.879   2.038  0.8524  2.4346 -0.4218
 1342SOL    HW215660   1.052   1.891   2.123 -0.1284  1.0687  0.5223
 1343SOL     OW15661   3.038   3.990   4.434  0.0768  0.3525  0.5598
 1343SOL    HW115662   3.025   3.902   4.470  0.1956 -0.0980 -0.5039
 1343SOL    HW215663   2.982   4.049   4.484  1.0675  1.3180  0.5343
 1344SOL     OW15664   2.188   0.846   0.361  0.1487 -0.1773  0.3198
 1344SOL    HW115665   2.253   0.778   0.380 -0.3813 -0.7444  0.0906
 1344SOL    HW215666   2.247   0.915   0.332 -0.5902  0.6731  0.8432
 1345SOL     OW15667   1.995   4.224  12.367 -0.3276 -0.2905  1.1537
 1345SOL    HW115668   1.933   4.218  12.294 -0.6190  1.5125  1.2400
 1345SOL    HW215669   2.065   4.163  12.345  0.5656  0.9139  0.6755
 1346SOL     OW15670   2.766   2.360   4.715 -0.1804 -0.0758  0.2673
 1346SOL    HW115671   2.787   2.360   4.808  3.5759 -2.8290 -0.5944
 1346SOL    HW215672   2.839   2.411   4.679 -0.2747 -0.3757 -0.3607
 1347SOL     OW15673   0.253   1.481  16.589 -0.4107 -0.7678  0.3898
 1347SOL    HW115674   0.241   1.386  16.582  2.3630 -0.7924 -4.0890
 1347SOL    HW215675   0.190   1.516  16.526  1.1730  1.3285 -0.0116
 1348SOL     OW15676   3.114   4.099   8.264 -0.6150 -0.1919 -0.0939
 1348SOL    HW115677   3.099   4.189   8.236 -0.6898 -0.4550 -0.8987
 1348SOL    HW215678   3.151   4.055   8.187 -0.8420 -1.0005  0.2577
 1349SOL     OW15679   3.646   3.369   1.387 -0.8021 -0.1125 -0.1772
 1349SOL    HW115680   3.699   3.293   1.409 -1.0335  0.0850  1.1145
 1349SOL    HW215681   3.558   3.335   1.404 -0.9787  0.6966  0.5756
 1350SOL     OW15682   3.376   0.081   7.440  0.4451 -0.2287  0.0624
 1350SOL    HW115683   3.442   0.133   7.487  1.0188 -1.6505  0.8298
 1350SOL    HW215684   3.358   0.014   7.506  0.3524 -1.2477 -0.9941
 1351SOL     OW15685   0.395   3.569   8.501  0.0059 -0.0745 -0.2640
 1351SOL    HW115686   0.384   3.475   8.516  1.8931 -0.2151  0.2086
 1351SOL    HW215687   0.438   3.601   8.580 -1.5775 -1.9490  1.3643
 1352SOL     OW15688   3.889   0.044   7.725  0.1940 -0.3286  0.1042
 1352SOL    HW115689   3.799   0.020   7.748  0.5483 -2.0021 -0.2289
 1352SOL    HW215690   3.892   0.139   7.733  2.0167 -0.3738 -0.1502
 1353SOL     OW15691   3.996   2.838   3.076 -0.2443  0.8223 -0.2070
 1353SOL    HW115692   3.965   2.923   3.045 -0.4235  1.0857  0.6936
 1353SOL    HW215693   4.056   2.869   3.144 -1.1539  1.8789  0.1068
 1354SOL     OW15694   2.639   4.346   7.647  0.8311 -0.0538  0.1175
 1354SOL    HW115695   2.717   4.355   7.701 -0.1966  0.3665  1.5280
 1354SOL    HW215696   2.657   4.407   7.576 -2.4808 -1.8968 -2.3158
 1355SOL     OW15697   1.699   2.643   1.425  0.3433 -0.4525 -0.8493
 1355SOL    HW115698   1.714   2.550   1.436 -2.1944 -0.8922 -1.1395
 1355SOL    HW215699   1.676   2.648   1.332  0.5288 -2.6155 -0.9981
 1356SOL     OW15700   3.122   3.268  10.549 -0.8513 -0.3159  0.6335
 1356SOL    HW115701   3.182   3.219  10.492 -0.5974 -0.6749  1.2066
 1356SOL    HW215702   3.146   3.226  10.632 -0.4510  2.0819  1.7231
 1357SOL     OW15703   2.960   1.555  13.036  0.8497 -0.2940 -0.5408
 1357SOL    HW115704   2.983   1.500  12.962  0.1452 -1.2209 -0.0766
 1357SOL    HW215705   2.933   1.635  12.991  1.0089 -0.6323 -1.2315
 1358SOL     OW15706   0.725   2.396   8.823 -0.5139  0.1921  0.9182
 1358SOL    HW115707   0.651   2.343   8.794 -1.1727  0.8813  1.3362
 1358SOL    HW215708   0.713   2.478   8.777 -3.4451 -0.2102  0.9799
 1359SOL     OW15709   4.417   3.258   9.442  0.5377 -0.2878  0.0655
 1359SOL    HW115710   4.374   3.234   9.524 -0.3301 -0.1824 -0.3580
 1359SOL    HW215711   4.378   3.344   9.429 -0.0468 -0.4211  0.9134
 1360SOL     OW15712   2.363   2.595  11.793 -0.3422 -0.4899 -0.3764
 1360SOL    HW115713   2.307   2.671  11.801 -1.4732 -1.5150  1.4974
 1360SOL    HW215714   2.397   2.588  11.882 -1.5570  1.5176  0.2361
 1361SOL     OW15715   1.837   3.746  16.072 -0.1466 -0.1910  0.0343
 1361SOL    HW115716   1.874   3.674  16.021  0.9533 -1.9715  3.3335
 1361SOL    HW215717   1.875   3.820  16.023  0.7658  0.1539  1.2484
 1362SOL     OW15718   4.156   2.745   6.655  0.2703 -0.6612  0.0391
 1362SOL    HW115719   4.130   2.834   6.630  1.8963  0.1148  1.1395
 1362SOL    HW215720   4.249   2.763   6.666  0.5275 -1.9638 -0.0816
 1363SOL     OW15721   2.541   0.462   5.420 -0.0082  0.0676 -0.9059
 1363SOL    HW115722   2.598   0.401   5.466  1.7362  1.8119 -0.7615
 1363SOL    HW215723   2.593   0.479   5.341  1.5665 -0.0925  0.0971
 1364SOL     OW15724   3.102   2.214   7.286  0.0352 -0.0615 -0.0534
 1364SOL    HW115725   3.098   2.119   7.271 -2.0730  0.1068 -0.5040
 1364SOL    HW215726   3.114   2.224   7.380 -2.2074  0.7938  0.1314
 1365SOL     OW15727   4.098   1.988   5.102 -0.0154 -0.0828  0.4980
 1365SOL    HW115728   4.151   2.032   5.036  0.7381  1.0849  1.8718
 1365SOL    HW215729   4.074   2.061   5.159 -0.9445  0.0105 -0.0106
 1366SOL     OW15730   0.628   3.656  12.863 -0.0273  0.1064 -0.2704
 1366SOL    HW115731   0.622   3.600  12.941  0.6330  3.1118  1.9214
 1366SOL    HW215732   0.595   3.736  12.903  1.5923  0.3731  0.5294
 1367SOL     OW15733   1.553   2.031   0.258  0.1453  0.0134  0.0888
 1367SOL    HW115734   1.579   2.096   0.192  1.0441  0.2022  0.6308
 1367SOL    HW215735   1.510   1.962   0.207 -0.8577  0.0791  0.8463
 1368SOL     OW15736   2.292   2.960   4.775  0.0717  0.3363  0.4863
 1368SOL    HW115737   2.347   2.978   4.852  0.0728  2.4290 -0.0013
 1368SOL    HW215738   2.328   3.026   4.715  2.1887  1.2250  2.7336
 1369SOL     OW15739   0.680   1.255  10.143 -0.3073 -0.2302 -0.0954
 1369SOL    HW115740   0.587   1.253  10.123 -0.3386  2.8704 -0.1919
 1369SOL    HW215741   0.720   1.187  10.088  0.1298 -0.3316  0.3452
 1370SOL     OW15742   0.164   2.239  15.140  0.3873 -0.3800  0.0018
 1370SOL    HW115743   0.129   2.211  15.224  2.2855 -0.5211  0.7643
 1370SOL    HW215744   0.088   2.292  15.118 -0.9881 -1.9528  1.0227
 1371SOL     OW15745   3.087   2.675   5.748  0.0299  0.4187 -0.0308
 1371SOL    HW115746   3.139   2.668   5.667 -1.2346  0.6262 -0.8511
 1371SOL    HW215747   3.126   2.744   5.802  1.8308 -0.2095 -0.5091
 1372SOL     OW15748   4.436   2.935   2.006  0.0663  0.4608  0.4610
 1372SOL    HW115749   4.449   3.029   1.999  1.1564  0.2204 -0.6738
 1372SOL    HW215750   4.526   2.909   1.986 -0.3063 -0.6229  0.1849
 1373SOL     OW15751   1.838   2.552   4.230  0.1381  0.1574  0.5581
 1373SOL    HW115752   1.743   2.560   4.227  0.0926  0.0392  1.6822
 1373SOL    HW215753   1.869   2.639   4.257 -1.4614  0.2408  2.1180
 1374SOL     OW15754   0.878   2.675   9.343  0.7560  0.0073 -0.2359
 1374SOL    HW115755   0.885   2.770   9.347  2.4616 -0.1213 -0.3219
 1374SOL    HW215756   0.783   2.681   9.328  0.8331  2.2500  0.2088
 1375SOL     OW15757   3.833   1.044   5.867 -0.6669  0.3507  0.1429
 1375SOL    HW115758   3.754   0.991   5.873 -0.6916  0.0730 -2.5387
 1375SOL    HW215759   3.862   1.056   5.958 -1.1655 -1.0824  0.4888
 1376SOL     OW15760   1.450   1.758   8.343  0.1138  0.1197 -0.2009
 1376SOL    HW115761   1.425   1.846   8.372 -2.9933 -0.4185 -1.2575
 1376SOL    HW215762   1.397   1.700   8.397  0.3705 -0.0112 -0.0871
 1377SOL     OW15763   0.828   4.624   5.449  0.1487  0.1505 -0.2492
 1377SOL    HW115764   0.844   4.551   5.389 -0.8260 -0.5608  0.3580
 1377SOL    HW215765   0.900   4.612   5.511 -1.9179 -0.3452  2.0300
 1378SOL     OW15766   3.971   1.740   5.146 -0.0665 -0.6264  0.5114
 1378SOL    HW115767   3.890   1.790   5.151  0.2535  0.1043 -1.4314
 1378SOL    HW215768   4.037   1.806   5.123 -0.1098 -1.0424 -0.8641
 1379SOL     OW15769   4.385   3.371  14.507 -0.2545 -0.4778 -0.0592
 1379SOL    HW115770   4.308   3.315  14.501 -0.1983 -0.4860 -0.7321
 1379SOL    HW215771   4.357   3.453  14.467 -0.5099 -0.6364 -0.2086
 1380SOL     OW15772   1.896   1.239   3.892  0.3575  0.0558  0.0416
 1380SOL    HW115773   1.829   1.277   3.948  1.1484 -2.4900  2.7159
 1380SOL    HW215774   1.976   1.289   3.911 -1.1028  1.5091  2.3088
 1381SOL     OW15775   3.754   3.357   9.689  0.6497 -0.6369  0.3013
 1381SOL    HW115776   3.796   3.441   9.704 -0.9155  0.1959  0.0805
 1381SOL    HW215777   3.660   3.373   9.675  0.8798 -0.7973 -1.4438
 1382SOL     OW15778   2.309   3.438   5.980  0.4899 -0.3959  0.8477
 1382SOL    HW115779   2.379   3.392   5.935 -0.5509 -2.7608  1.6702
 1382SOL    HW215780   2.245   3.369   5.995 -0.2002  0.3199  1.2225
 1383SOL     OW15781   3.445   3.532  13.653  0.2990 -0.4463 -0.0370
 1383SOL    HW115782   3.396   3.596  13.706 -0.1625 -1.0196  0.2267
 1383SOL    HW215783   3.401   3.541  13.569 -0.6459  2.1011  0.7121
 1384SOL     OW15784   0.414   2.815  17.486 -0.5177  0.2973 -0.1318
 1384SOL    HW115785   0.484   2.797  17.548 -0.0423  0.1939 -0.6994
 1384SOL    HW215786   0.466   2.835  17.408 -0.0228  1.4936  0.5100
 1385SOL     OW15787   2.709   3.537   6.204  0.2356 -0.0150  0.6091
 1385SOL    HW115788   2.754   3.553   6.287  0.8583 -2.7286  0.7967
 1385SOL    HW215789   2.624   3.574   6.230 -0.1014  1.1299 -2.0725
 1386SOL     OW15790   4.076   3.239   1.504 -0.3123 -0.3032 -0.4241
 1386SOL    HW115791   3.982   3.235   1.523 -0.6157 -0.9914 -2.0298
 1386SOL    HW215792   4.080   3.291   1.424  1.1773 -0.6739 -0.5816
 1387SOL     OW15793   2.412   0.035  10.700 -0.1447  0.5252  0.0214
 1387SOL    HW115794   2.335   0.067  10.653  0.8218  1.1890 -1.1205
 1387SOL    HW215795   2.464   4.736  10.630 -0.1566 -1.5873  1.1477
 1388SOL     OW15796   2.765   3.362  11.913 -0.2377  0.0215  0.8886
 1388SOL    HW115797   2.764   3.456  11.895 -0.2133 -0.2474 -0.4995
 1388SOL    HW215798   2.843   3.366  11.969 -0.0904  1.6237  0.5685
 1389SOL     OW15799   3.343   3.857   6.780 -0.1308  0.0173  0.3892
 1389SOL    HW115800   3.259   3.823   6.751  1.0380 -1.8941 -0.7936
 1389SOL    HW215801   3.404   3.847   6.707  0.8286 -0.5125  1.2593
 1390SOL     OW15802   0.133   3.277   5.771 -0.0471 -0.1871  0.6366
 1390SOL    HW115803   0.137   3.183   5.754  3.1526 -0.0844  0.8978
 1390SOL    HW215804   0.039   3.290   5.783 -0.2180 -1.1580  0.3723
 1391SOL     OW15805   0.672   3.419  14.813 -0.1126  0.3248 -0.1985
 1391SOL    HW115806   0.581   3.410  14.840 -0.3492  0.7922 -0.8446
 1391SOL    HW215807   0.697   3.339  14.767 -2.4815  0.4290 -1.6909
 1392SOL     OW15808   1.676   0.004   6.761  0.3010  0.1819 -0.4804
 1392SOL    HW115809   1.668   0.096   6.738 -1.3848  0.2271  0.3640
 1392SOL    HW215810   1.742   4.712   6.697  2.8256  0.9234  1.7644
 1393SOL     OW15811   3.201   0.304   2.647 -0.0163 -0.2632 -0.1373
 1393SOL    HW115812   3.258   0.374   2.679  0.1196 -0.3297 -0.2327
 1393SOL    HW215813   3.130   0.362   2.620  1.0221  1.1973  0.2322
 1394SOL     OW15814   2.960   3.760   4.574  0.3402 -0.3627 -0.0383
 1394SOL    HW115815   2.896   3.720   4.633 -1.9256  1.3810 -1.2987
 1394SOL    HW215816   2.906   3.738   4.497  1.3674 -0.0588 -0.8425
 1395SOL     OW15817   4.371   0.785  16.572  0.1824 -0.2934  0.0118
 1395SOL    HW115818   4.436   0.754  16.509  1.0995  1.4772  0.0936
 1395SOL    HW215819   4.379   0.738  16.655  4.0169  0.8513  0.2736
 1396SOL     OW15820   1.935   2.093  14.997 -0.3122 -0.2392 -0.6867
 1396SOL    HW115821   1.851   2.073  14.956 -0.4838 -1.6340  0.3143
 1396SOL    HW215822   1.996   2.031  14.957 -2.4850 -2.1845 -1.0076
 1397SOL     OW15823   2.779   2.098   5.613  0.6076 -0.8116 -0.1178
 1397SOL    HW115824   2.772   2.155   5.689 -0.7846  0.1105 -0.9209
 1397SOL    HW215825   2.872   2.093   5.592  0.6030  0.7645 -0.4832
 1398SOL     OW15826   0.152   0.183   9.638 -0.6909 -0.0206  0.1226
 1398SOL    HW115827   0.152   0.237   9.717 -1.1759  1.1478 -0.6829
 1398SOL    HW215828   0.206   0.232   9.576 -1.3665  2.4763  1.4870
 1399SOL     OW15829   2.358   2.796   5.235 -0.1050  0.1686 -0.5453
 1399SOL    HW115830   2.397   2.808   5.148  2.0875  0.9056  0.5382
 1399SOL    HW215831   2.434   2.757   5.277 -1.4881 -1.6861  0.2137
 1400SOL     OW15832   1.631   2.772  11.402  0.2927  0.3228  0.5777
 1400SOL    HW115833   1.595   2.817  11.326 -0.2354 -0.6144  0.2640
 1400SOL    HW215834   1.640   2.684  11.364  0.8758  0.5565  0.1844
 1401SOL     OW15835   2.102   0.746   6.646  0.1972  0.2293 -0.1522
 1401SOL    HW115836   2.122   0.790   6.728  0.0728 -2.9729  1.5802
 1401SOL    HW215837   2.008   0.743   6.657  0.0683  0.7025 -1.0892
 1402SOL     OW15838   2.974   4.360  12.874 -0.0942  0.1184  0.3985
 1402SOL    HW115839   2.915   4.373  12.948 -0.3747 -0.4277  0.2625
 1402SOL    HW215840   3.020   4.444  12.867  1.9067 -0.9596  0.6026
 1403SOL     OW15841   0.417   0.807   3.385 -0.0012 -0.0576 -0.1704
 1403SOL    HW115842   0.440   0.896   3.357 -0.2843  0.4104  1.0278
 1403SOL    HW215843   0.445   0.818   3.476  0.9117  0.2962 -0.5004
 1404SOL     OW15844   1.362   2.355   7.328 -0.1228 -0.2065 -0.0731
 1404SOL    HW115845   1.403   2.297   7.264  0.4290 -0.4118  0.4690
 1404SOL    HW215846   1.271   2.326   7.318  0.6033 -1.4811 -2.8646
 1405SOL     OW15847   3.334   2.052   2.925 -0.2760  0.0646  0.2680
 1405SOL    HW115848   3.298   2.001   2.852  2.2591  0.7680 -1.4651
 1405SOL    HW215849   3.257   2.079   2.975  0.5741  2.2367  0.3844
 1406SOL     OW15850   1.988   3.958   7.036 -0.1395 -0.2659  0.1662
 1406SOL    HW115851   1.944   3.884   7.078  0.5750  0.0216  1.4101
 1406SOL    HW215852   2.063   3.978   7.092 -1.7277  0.1566  2.1485
 1407SOL     OW15853   3.341   3.444   6.530  0.1756  0.8187 -0.2477
 1407SOL    HW115854   3.317   3.351   6.529  1.3733  0.4901  1.8247
 1407SOL    HW215855   3.436   3.438   6.535  0.3184  1.6550 -2.1525
 1408SOL     OW15856   0.243   1.846   2.547 -0.1354  0.1250  0.2081
 1408SOL    HW115857   0.289   1.765   2.571 -0.1522  0.3252  0.8977
 1408SOL    HW215858   0.229   1.880   2.635  0.3898 -1.6613  0.9959
 1409SOL     OW15859   2.424   3.285   6.477 -0.2931 -0.0516  0.4123
 1409SOL    HW115860   2.481   3.273   6.553  0.5765 -1.5360 -0.4685
 1409SOL    HW215861   2.485   3.313   6.408 -0.5369 -1.5071 -0.4045
 1410SOL     OW15862   0.981   3.218   2.785  0.5738  0.1287  0.4659
 1410SOL    HW115863   0.938   3.201   2.701  1.4279 -1.2545  0.3173
 1410SOL    HW215864   1.058   3.171   2.755  0.8185  1.8361 -1.6100
 1411SOL     OW15865   3.310   2.190  14.773 -0.0262  0.2229  0.0967
 1411SOL    HW115866   3.388   2.141  14.751 -0.2021 -0.7538  1.6181
 1411SOL    HW215867   3.333   2.220  14.861  0.8258  1.0304 -0.3944
 1412SOL     OW15868   4.074   1.893  10.766 -0.2929  0.3091  0.4071
 1412SOL    HW115869   3.980   1.896  10.783 -0.7455  1.7534 -2.4188
 1412SOL    HW215870   4.081   1.982  10.802 -0.0544  0.5905 -0.3364
 1413SOL     OW15871   3.443   1.607   8.153  0.1870  0.2089 -0.0722
 1413SOL    HW115872   3.514   1.621   8.215  1.4067 -0.9391 -1.2149
 1413SOL    HW215873   3.428   1.685   8.100 -3.3873 -0.4806 -0.0643
 1414SOL     OW15874   0.762   1.182   7.754 -0.9075 -0.5674 -0.1011
 1414SOL    HW115875   0.804   1.268   7.760 -0.5514 -0.7774  0.4540
 1414SOL    HW215876   0.836   1.134   7.791 -1.0715 -1.1943 -0.5962
 1415SOL     OW15877   2.257   1.351  15.963 -0.3750  0.0517  0.0494
 1415SOL    HW115878   2.317   1.315  16.029  1.7709 -0.3860 -2.1282
 1415SOL    HW215879   2.316   1.373  15.890 -0.6901 -1.0306 -0.5360
 1416SOL     OW15880   3.459   4.283   4.890  0.0491  0.0977 -0.3398
 1416SOL    HW115881   3.551   4.264   4.909 -0.7888 -2.3799  1.0815
 1416SOL    HW215882   3.439   4.347   4.958 -0.8592 -0.7649  0.2051
 1417SOL     OW15883   3.146   3.819   2.920 -0.4803  0.8746 -0.6329
 1417SOL    HW115884   3.128   3.732   2.885 -1.8067  0.2995  1.4942
 1417SOL    HW215885   3.228   3.818   2.970 -1.0272 -0.0434  0.2324
 1418SOL     OW15886   2.281   0.459   5.110 -0.1443  0.5366 -0.1372
 1418SOL    HW115887   2.320   0.491   5.191  0.8796  1.0742 -0.8294
 1418SOL    HW215888   2.268   0.539   5.058  0.6186  0.1465 -0.9461
 1419SOL     OW15889   0.737   2.223   3.242 -0.1162 -0.1435 -0.4524
 1419SOL    HW115890   0.729   2.286   3.171 -0.5203  2.2483  1.6946
 1419SOL    HW215891   0.737   2.282   3.318 -0.3980 -2.5300  1.3827
 1420SOL     OW15892   3.565   0.006  17.680 -0.1738  0.0256  0.1552
 1420SOL    HW115893   3.615   4.663  17.688 -0.1473  0.1997  1.6867
 1420SOL    HW215894   3.588   0.046  17.597  1.0793  1.0614  1.0140
 1421SOL     OW15895   4.694   2.114   4.967  0.0969  0.1913  0.1697
 1421SOL    HW115896   4.608   2.113   5.008 -0.4280 -0.2810 -0.9488
 1421SOL    HW215897   0.001   2.197   4.983 -1.1917  0.5158  2.0586
 1422SOL     OW15898   0.287   1.549   9.067 -0.7112 -0.0633  0.0943
 1422SOL    HW115899   0.361   1.567   9.009 -0.2915  2.6593  1.5011
 1422SOL    HW215900   0.214   1.524   9.010 -0.3892  3.5039 -1.8938
 1423SOL     OW15901   0.989   4.381  12.810 -0.4450  0.0479  0.2193
 1423SOL    HW115902   1.021   4.378  12.900  2.8225  1.1048 -0.9006
 1423SOL    HW215903   0.970   4.288  12.796  2.6635 -0.9389  2.3953
 1424SOL     OW15904   1.537   1.016   4.613 -0.1502 -0.1748  0.6916
 1424SOL    HW115905   1.503   1.021   4.702 -0.1774 -1.7842  0.7777
 1424SOL    HW215906   1.631   0.998   4.620  0.1365  1.6203  1.3990
 1425SOL     OW15907   2.789   2.451  16.701 -0.1589  0.4505  0.1425
 1425SOL    HW115908   2.772   2.370  16.750 -1.0634 -0.0271 -0.9619
 1425SOL    HW215909   2.810   2.517  16.767  2.3423  0.5142 -0.7145
 1426SOL     OW15910   1.323   0.456  15.385 -0.0535 -0.5362  0.1801
 1426SOL    HW115911   1.307   0.492  15.472 -1.7644 -2.6167  0.7286
 1426SOL    HW215912   1.236   0.470  15.347  0.2480 -0.5744 -0.5214
 1427SOL     OW15913   4.071   2.299   7.378 -0.1184  0.9387  0.0445
 1427SOL    HW115914   4.044   2.354   7.304 -1.2023 -0.7263 -0.7773
 1427SOL    HW215915   4.020   2.348   7.443  2.9198 -1.6264  4.3488
 1428SOL     OW15916   4.283   1.972  17.695 -0.0263  0.1171  0.1064
 1428SOL    HW115917   4.317   2.019   0.020  0.5755 -2.6202  1.5322
 1428SOL    HW215918   4.194   2.004  17.685  0.4349  2.2637  2.8587
 1429SOL     OW15919   0.857   4.098   2.807 -0.3088 -0.8207 -0.1600
 1429SOL    HW115920   0.833   4.183   2.772 -1.4375 -1.9498 -2.1417
 1429SOL    HW215921   0.918   4.065   2.741  1.0470 -1.1846  1.2787
 1430SOL     OW15922   4.412   1.602   9.345 -0.6361  0.3725 -0.7516
 1430SOL    HW115923   4.441   1.543   9.415  0.5560 -1.2120 -2.5893
 1430SOL    HW215924   4.489   1.587   9.291 -0.5202 -1.4402 -0.0867
 1431SOL     OW15925   1.626   1.931   9.862  0.0814 -0.3766 -0.4821
 1431SOL    HW115926   1.596   1.877   9.788  2.6264  1.0948 -2.6042
 1431SOL    HW215927   1.674   2.002   9.819 -0.9305 -0.7139 -2.1943
 1432SOL     OW15928   1.803   4.160   4.691 -0.1001 -0.4156  0.3700
 1432SOL    HW115929   1.729   4.196   4.643  0.6008 -0.1879 -0.5401
 1432SOL    HW215930   1.822   4.240   4.740 -0.3126 -0.1809  0.0734
 1433SOL     OW15931   1.374   0.955   9.322  0.2744  0.6751 -0.7735
 1433SOL    HW115932   1.384   1.000   9.406  0.1595  0.2211 -0.5176
 1433SOL    HW215933   1.381   1.039   9.276  1.5867 -0.1294 -2.0410
 1434SOL     OW15934   2.452   4.434   5.473 -0.1052  0.2627 -0.7981
 1434SOL    HW115935   2.375   4.424   5.529 -0.3454 -2.0705 -1.5437
 1434SOL    HW215936   2.502   4.362   5.513  1.4776  1.9604  0.2658
 1435SOL     OW15937   3.211   0.023   8.759 -0.0750 -0.0778  0.5553
 1435SOL    HW115938   3.153   4.716   8.821 -0.3826 -0.3260  0.0886
 1435SOL    HW215939   3.273   0.066   8.817  0.5336  1.2138 -1.0651
 1436SOL     OW15940   4.211   0.559  14.960 -0.1065  0.1377  0.0503
 1436SOL    HW115941   4.220   0.651  14.984  1.0148 -0.0633  0.4260
 1436SOL    HW215942   4.154   0.520  15.026 -0.3426  1.4215  0.6152
 1437SOL     OW15943   3.305   1.257   6.529  0.2449  0.3264  0.3762
 1437SOL    HW115944   3.245   1.186   6.508 -0.5184  1.1112 -0.1146
 1437SOL    HW215945   3.272   1.302   6.607  1.1435 -0.1143  1.0145
 1438SOL     OW15946   1.773   0.088   7.331  0.1976  0.0310  0.3026
 1438SOL    HW115947   1.682   0.116   7.342  0.0147 -0.4528  0.0466
 1438SOL    HW215948   1.760   0.023   7.261  1.2124 -0.0188  0.1651
 1439SOL     OW15949   3.791   3.128   1.469 -0.0627 -0.1170 -0.6779
 1439SOL    HW115950   3.783   3.095   1.558  1.2158  0.1367 -0.4780
 1439SOL    HW215951   3.803   3.046   1.421  0.8678 -0.7724  0.6973
 1440SOL     OW15952   2.525   3.487   2.976  0.2385 -0.5095  0.0114
 1440SOL    HW115953   2.496   3.497   3.067 -0.5657 -2.4569 -0.0234
 1440SOL    HW215954   2.513   3.396   2.947 -0.7122 -0.0715 -0.9727
 1441SOL     OW15955   4.089   2.595   6.938 -0.1296 -0.5648  0.1283
 1441SOL    HW115956   4.118   2.686   6.940  1.3130 -1.0533  1.1077
 1441SOL    HW215957   4.100   2.571   6.846 -1.3738 -2.6835  0.5232
 1442SOL     OW15958   0.692   4.028   6.940  0.5928 -0.1127 -0.0166
 1442SOL    HW115959   0.621   3.993   6.993  1.9791 -0.3311  1.7178
 1442SOL    HW215960   0.670   4.006   6.850  0.0049  0.4432 -0.0099
 1443SOL     OW15961   3.954   4.355   3.089 -0.0598 -0.2125 -0.7972
 1443SOL    HW115962   3.868   4.313   3.084 -1.4296  2.4166  0.3839
 1443SOL    HW215963   4.014   4.283   3.071  0.6634 -0.1402  1.3542
 1444SOL     OW15964   4.454   0.425   5.808 -0.4092 -0.1411 -0.7434
 1444SOL    HW115965   4.443   0.428   5.903 -1.0446  2.4877 -0.8886
 1444SOL    HW215966   4.413   0.510   5.793 -0.6704  0.2528  2.1064
 1445SOL     OW15967   3.368   1.907   3.855 -0.8854 -0.9025  0.1954
 1445SOL    HW115968   3.384   1.987   3.904  1.3147 -1.9961  1.2351
 1445SOL    HW215969   3.362   1.931   3.762  1.2907 -0.0157  0.2952
 1446SOL     OW15970   4.207   1.179   7.061  0.2636 -0.8262 -0.1854
 1446SOL    HW115971   4.246   1.251   7.011  1.7479 -2.5520 -1.4594
 1446SOL    HW215972   4.204   1.212   7.151  2.3995  1.2789 -0.8854
 1447SOL     OW15973   2.689   3.694  16.583  0.1438  0.5830  0.1035
 1447SOL    HW115974   2.633   3.617  16.575  0.8964 -0.2705  2.9627
 1447SOL    HW215975   2.686   3.705  16.679 -3.4264  0.0224  0.0712
 1448SOL     OW15976   3.485   4.674   8.014  0.1402  0.0141 -0.1443
 1448SOL    HW115977   3.493   4.684   8.108  0.5485 -0.6448 -0.1080
 1448SOL    HW215978   3.534   4.594   7.994  0.6269  0.1606  0.4844
 1449SOL     OW15979   0.050   4.708  16.441  0.0889  0.1008  0.8262
 1449SOL    HW115980   0.074   4.685  16.351 -0.5054  1.1664  0.3853
 1449SOL    HW215981   4.693   4.698  16.440  0.2097 -1.1733  1.5185
 1450SOL     OW15982   1.745   4.598  12.140  0.3216  0.2672 -0.4877
 1450SOL    HW115983   1.796   4.676  12.165 -1.4922  1.2395  0.1649
 1450SOL    HW215984   1.802   4.540  12.191 -0.3330 -0.1152 -0.1959
 1451SOL     OW15985   1.345   4.506   1.133 -0.0620  0.3505 -0.3360
 1451SOL    HW115986   1.351   4.442   1.204 -1.7325  1.0756  0.4503
 1451SOL    HW215987   1.258   4.541   1.148 -0.9799 -1.6470 -1.0022
 1452SOL     OW15988   2.477   1.475  17.388 -0.3477 -0.6768  0.0852
 1452SOL    HW115989   2.558   1.479  17.337 -1.3795  1.4087 -1.3902
 1452SOL    HW215990   2.417   1.497  17.316 -0.4356 -0.8859  0.0959
 1453SOL     OW15991   2.756   2.001   6.528  0.0796  0.7813 -0.0841
 1453SOL    HW115992   2.799   2.087   6.521  0.4911  0.5963  0.1881
 1453SOL    HW215993   2.824   1.946   6.489 -0.0218  2.0650 -2.1384
 1454SOL     OW15994   2.980   1.502   6.093 -0.1612  0.1707  0.0936
 1454SOL    HW115995   2.923   1.457   6.156  0.6486 -1.0667 -0.0577
 1454SOL    HW215996   3.060   1.457   6.118 -1.2190 -1.1821  1.0492
 1455SOL     OW15997   0.616   4.171   3.756  0.1756 -0.2645 -0.3760
 1455SOL    HW115998   0.548   4.149   3.692  1.0745  2.1065 -2.1614
 1455SOL    HW215999   0.612   4.109   3.828 -0.8367  0.8902  0.5683
 1456SOL     OW16000   4.062   3.938   8.335  0.3349 -0.1199 -0.5528
 1456SOL    HW116001   4.135   3.997   8.318  1.1312 -0.7331  0.7553
 1456SOL    HW216002   4.086   3.898   8.418  1.2279 -2.8902 -2.1238
 1457SOL     OW16003   3.152   3.100  17.440 -0.2618  0.1329  0.3484
 1457SOL    HW116004   3.071   3.074  17.396 -0.6168 -2.0929  2.3067
 1457SOL    HW216005   3.211   3.027  17.422 -1.9478 -1.2019  0.2382
 1458SOL     OW16006   2.633   2.910   2.758  0.1671 -0.1994  0.1356
 1458SOL    HW116007   2.552   2.893   2.805  0.3669 -1.3550  0.0832
 1458SOL    HW216008   2.641   2.834   2.699 -2.9310  0.1857 -0.7729
 1459SOL     OW16009   1.276   2.208   9.195  0.0216 -0.6130  0.1570
 1459SOL    HW116010   1.322   2.173   9.119 -1.0684 -3.8857  0.9977
 1459SOL    HW216011   1.219   2.271   9.150  1.7027  1.8189  1.4268
 1460SOL     OW16012   1.352   1.234  11.964 -0.1409 -0.3193 -0.0248
 1460SOL    HW116013   1.269   1.200  11.998 -0.0932 -1.6502 -1.2660
 1460SOL    HW216014   1.347   1.185  11.882  0.3879 -1.3665  0.5718
 1461SOL     OW16015   0.212   2.252   7.090  0.0379  0.2894  0.2466
 1461SOL    HW116016   0.237   2.161   7.075  1.4616  0.7038  0.0442
 1461SOL    HW216017   0.148   2.241   7.160  1.3302 -1.3351  1.1716
 1462SOL     OW16018   4.647   4.056   6.520 -0.4634 -0.3635 -0.1838
 1462SOL    HW116019   4.613   4.144   6.501 -2.1988 -1.1288 -0.6133
 1462SOL    HW216020   4.575   4.006   6.558  0.3620 -0.3655  1.3879
 1463SOL     OW16021   1.608   2.539   6.012  0.5131 -0.1798  0.3907
 1463SOL    HW116022   1.519   2.538   5.975  0.7666 -1.4983 -0.2021
 1463SOL    HW216023   1.617   2.446   6.033  2.2058  0.0986  0.8549
 1464SOL     OW16024   4.318   1.118   2.354  0.4572 -0.0264 -0.0028
 1464SOL    HW116025   4.283   1.207   2.351 -0.3821 -0.4767 -3.2725
 1464SOL    HW216026   4.386   1.133   2.419 -1.8279  3.1555  1.6327
 1465SOL     OW16027   0.905   3.227   1.575 -0.1643  0.2905 -0.2062
 1465SOL    HW116028   0.999   3.210   1.566  0.0242  1.1320  0.1763
 1465SOL    HW216029   0.900   3.295   1.508 -1.3010  1.4608  1.0611
 1466SOL     OW16030   1.113   4.728   4.768  0.2694  0.3710  0.0671
 1466SOL    HW116031   1.066   4.645   4.760 -0.7431  0.8181  1.3615
 1466SOL    HW216032   1.201   4.709   4.800  0.2325  1.3185  0.7399
 1467SOL     OW16033   0.074   0.330   4.181  0.1473  0.1773 -0.3352
 1467SOL    HW116034   0.098   0.406   4.235  1.0505 -0.5001  0.2277
 1467SOL    HW216035   0.059   0.257   4.241 -1.2827 -1.6152 -2.8811
 1468SOL     OW16036   0.052   4.277   5.531  0.4964  0.2401  0.1570
 1468SOL    HW116037   0.110   4.293   5.457  1.3526  0.2023  0.8284
 1468SOL    HW216038   0.103   4.228   5.596 -1.1066  0.8195  1.8496
 1469SOL     OW16039   2.298   1.210   2.211 -0.2705 -0.0139 -0.1826
 1469SOL    HW116040   2.321   1.290   2.164 -0.8197 -0.2883 -0.9419
 1469SOL    HW216041   2.248   1.249   2.282 -0.7029 -1.7704  0.4933
 1470SOL     OW16042   2.994   1.523   6.427 -0.2395 -0.3914 -0.1719
 1470SOL    HW116043   2.979   1.464   6.501 -2.6188 -1.8091 -1.7798
 1470SOL    HW216044   2.903   1.526   6.397 -0.8123 -0.7719  1.5233
 1471SOL     OW16045   2.806   4.498   4.401  0.1518  0.2368 -0.1175
 1471SOL    HW116046   2.726   4.475   4.448 -0.2263 -2.0354 -1.9190
 1471SOL    HW216047   2.807   4.593   4.415  2.0049  0.0606  1.0144
 1472SOL     OW16048   1.390   2.602   1.289 -0.1502  0.1888  0.4224
 1472SOL    HW116049   1.455   2.566   1.228  0.2890 -2.4476  2.3891
 1472SOL    HW216050   1.315   2.619   1.233  0.5628  0.8164 -0.3447
 1473SOL     OW16051   1.178   0.258   4.836  0.8965 -0.8072 -0.6708
 1473SOL    HW116052   1.101   0.245   4.890 -1.4622  0.6277 -3.7252
 1473SOL    HW216053   1.186   0.171   4.797 -0.4135 -0.7605 -1.0401
 1474SOL     OW16054   4.406   1.774  12.472 -0.3660 -0.2694  0.1630
 1474SOL    HW116055   4.455   1.723  12.537  0.9669 -0.1172 -0.7216
 1474SOL    HW216056   4.375   1.840  12.534 -0.5388  0.3758 -0.6053
 1475SOL     OW16057   1.012   3.459   9.935 -0.1882  0.4627 -0.0729
 1475SOL    HW116058   1.102   3.471   9.964 -0.7747 -0.1844  1.9989
 1475SOL    HW216059   0.985   3.550   9.922  0.1152  0.5746  0.0736
 1476SOL     OW16060   2.265   1.719   1.966  0.0443  0.4414 -0.5883
 1476SOL    HW116061   2.339   1.728   2.025 -0.8831 -1.7065  0.9187
 1476SOL    HW216062   2.252   1.809   1.935  0.0077  0.8918  0.7749
 1477SOL     OW16063   3.291   3.154   8.539 -0.0404  0.4836  0.3307
 1477SOL    HW116064   3.331   3.240   8.549  0.2031  0.2126  1.6302
 1477SOL    HW216065   3.292   3.147   8.444 -0.6343 -0.8060  0.4138
 1478SOL     OW16066   2.773   3.744   8.129  0.2134 -0.1677  0.4148
 1478SOL    HW116067   2.795   3.833   8.101 -2.1346  0.8578  1.7565
 1478SOL    HW216068   2.678   3.754   8.126  0.0655 -1.9664 -0.8197
 1479SOL     OW16069   3.642   2.808  10.025 -0.0753 -0.5304  0.4593
 1479SOL    HW116070   3.561   2.774  10.064 -1.4368  2.3060  0.0661
 1479SOL    HW216071   3.597   2.874   9.972  0.0690 -2.5276 -2.1423
 1480SOL     OW16072   0.929   4.174   5.431 -0.2266 -0.0806 -0.2757
 1480SOL    HW116073   0.894   4.087   5.452  1.5333 -0.9508 -0.9411
 1480SOL    HW216074   0.913   4.224   5.511  1.3869  1.1745 -0.7400
 1481SOL     OW16075   0.912   4.558  14.331  0.4569 -0.0965 -0.0771
 1481SOL    HW116076   0.919   4.492  14.261  1.8258  0.3954 -0.4101
 1481SOL    HW216077   0.866   4.520  14.406 -1.0298  1.5405 -0.1628
 1482SOL     OW16078   2.211   3.264  13.237 -0.2570 -0.3982 -0.0336
 1482SOL    HW116079   2.186   3.172  13.228  1.4443 -1.1148  2.6496
 1482SOL    HW216080   2.305   3.258  13.216 -0.0237 -0.7214  1.1356
 1483SOL     OW16081   2.619   0.532   8.007  1.1547 -0.4880 -0.0657
 1483SOL    HW116082   2.548   0.521   7.945  1.0085  0.3083 -0.0468
 1483SOL    HW216083   2.615   0.450   8.056  0.1213 -1.0176 -1.0590
 1484SOL     OW16084   1.375   4.403   0.352  0.2140  0.4183  0.4276
 1484SOL    HW116085   1.360   4.485   0.305 -3.4727 -0.8772 -0.6600
 1484SOL    HW216086   1.323   4.342   0.300  2.3167  1.5578 -2.9686
 1485SOL     OW16087   0.980   1.631   0.375 -0.5350  0.2374 -0.1094
 1485SOL    HW116088   0.935   1.587   0.303 -0.8878  1.5077 -0.6632
 1485SOL    HW216089   0.943   1.719   0.381  1.1944  0.8157  2.4925
 1486SOL     OW16090   0.815   2.730   8.959  0.4663 -1.0419 -0.1973
 1486SOL    HW116091   0.781   2.677   9.031  0.2626  1.2655  1.4023
 1486SOL    HW216092   0.763   2.696   8.886 -2.4803 -0.3212  1.5368
 1487SOL     OW16093   4.496   2.931  10.291 -0.1218 -0.3840 -0.0994
 1487SOL    HW116094   4.474   3.015  10.331  0.3474  0.5254 -1.7483
 1487SOL    HW216095   4.530   2.883  10.367  0.7638  1.0021  0.3825
 1488SOL     OW16096   0.722   2.901  12.110  0.3776  0.2486  0.2368
 1488SOL    HW116097   0.761   2.900  12.022  0.1990  1.5732  0.1457
 1488SOL    HW216098   0.797   2.872  12.163  0.8188  0.4877 -0.2525
 1489SOL     OW16099   4.585   3.312   8.238 -0.6194  0.2215  0.3033
 1489SOL    HW116100   4.527   3.238   8.254  0.4546 -0.3409  1.6508
 1489SOL    HW216101   4.515   3.369   8.208 -1.3527  0.7454  3.0848
 1490SOL     OW16102   2.559   0.833   7.679 -0.0836  0.2987 -0.0898
 1490SOL    HW116103   2.530   0.749   7.643  2.0760 -0.2343 -0.5781
 1490SOL    HW216104   2.474   0.876   7.692 -0.5721 -0.1712 -1.7121
 1491SOL     OW16105   1.953   2.339   7.009 -0.5811 -0.2754 -0.4178
 1491SOL    HW116106   2.038   2.374   7.037 -0.8133 -0.9848  1.2026
 1491SOL    HW216107   1.900   2.380   7.077 -0.7676  0.3496 -0.9414
 1492SOL     OW16108   0.772   2.165  13.190 -0.0807 -0.5477 -0.1397
 1492SOL    HW116109   0.813   2.126  13.268 -1.3352 -2.6207 -0.5275
 1492SOL    HW216110   0.685   2.126  13.185 -0.7509  0.9124  0.1595
 1493SOL     OW16111   4.245   0.977   1.132  0.3757  0.2906  0.5625
 1493SOL    HW116112   4.221   0.898   1.084  1.1463  1.1310 -1.1834
 1493SOL    HW216113   4.159   1.011   1.158  0.4959 -0.0173  1.3626
 1494SOL     OW16114   1.199   4.536  14.122  0.4721 -0.5517 -0.0046
 1494SOL    HW116115   1.126   4.549  14.182  0.2510 -1.8896  0.0106
 1494SOL    HW216116   1.171   4.590  14.048  0.9615  0.4579  0.5400
 1495SOL     OW16117   1.765   0.890   5.255 -0.0189 -0.2117  0.2248
 1495SOL    HW116118   1.848   0.922   5.290 -0.0153 -0.3266  0.3239
 1495SOL    HW216119   1.703   0.950   5.296  0.0072 -0.7452  1.0427
 1496SOL     OW16120   3.864   0.503   0.797 -0.2098  0.0218  0.4380
 1496SOL    HW116121   3.815   0.555   0.733 -0.7279  0.1146  0.9104
 1496SOL    HW216122   3.810   0.424   0.799  0.2142 -0.3336 -1.8695
 1497SOL     OW16123   1.961   1.455   2.508  0.0684 -0.0275  0.0005
 1497SOL    HW116124   1.887   1.506   2.475  1.5688  1.6044 -0.8141
 1497SOL    HW216125   1.913   1.423   2.585  0.4043 -1.1004 -0.2312
 1498SOL     OW16126   4.513   2.200   7.197  0.4099 -0.6151  0.5011
 1498SOL    HW116127   4.440   2.194   7.259  0.4722  2.5039  0.9030
 1498SOL    HW216128   4.593   2.203   7.250  0.3758  0.0624  0.5191
 1499SOL     OW16129   3.605   0.751  11.106  0.2035 -0.7452 -0.0924
 1499SOL    HW116130   3.611   0.841  11.074 -1.4273 -0.8861 -0.8200
 1499SOL    HW216131   3.681   0.707  11.069 -1.6650 -3.6200 -0.5381
 1500SOL     OW16132   2.022   1.561   9.297  0.0084  0.1769  0.9829
 1500SOL    HW116133   2.096   1.538   9.354 -1.6679 -2.2687  2.1849
 1500SOL    HW216134   1.972   1.482   9.317 -1.8668  1.5405  1.6427
 1501SOL     OW16135   4.039   0.010   1.911 -0.4568 -0.0219  0.0040
 1501SOL    HW116136   4.022   0.083   1.851  0.5699 -0.9484 -1.3982
 1501SOL    HW216137   4.025   4.671   1.857 -0.4825  0.1556 -0.2432
 1502SOL     OW16138   0.914   1.487   6.128 -0.4339 -0.1525 -0.5391
 1502SOL    HW116139   0.918   1.392   6.121 -3.4540 -0.1889 -1.7554
 1502SOL    HW216140   0.895   1.508   6.220  0.7019 -0.7075 -0.1782
 1503SOL     OW16141   2.673   3.076   2.278  0.4427 -0.4510  0.1979
 1503SOL    HW116142   2.708   3.121   2.202  0.1491 -1.1112 -0.3380
 1503SOL    HW216143   2.578   3.086   2.267  0.4228  1.6152  2.3472
 1504SOL     OW16144   4.260   1.958   9.993  0.2084  0.4786 -0.0841
 1504SOL    HW116145   4.230   1.991  10.077  1.0548 -0.9093  0.7779
 1504SOL    HW216146   4.230   1.867   9.998  0.5207  0.4064  0.5868
 1505SOL     OW16147   2.994   3.138   5.871  0.3563  0.1145  0.3258
 1505SOL    HW116148   2.918   3.187   5.901 -0.0922 -0.9255  0.8975
 1505SOL    HW216149   3.026   3.186   5.794 -0.1689 -0.4440 -0.2369
 1506SOL     OW16150   4.616   0.390   0.053 -0.0733 -0.3439 -0.1793
 1506SOL    HW116151   4.636   0.464  17.747 -0.7666  0.1178  0.1747
 1506SOL    HW216152   4.578   0.436   0.127 -0.4969  0.0810 -0.6576
 1507SOL     OW16153   1.243   1.791   1.893  0.2214 -0.3308 -0.2194
 1507SOL    HW116154   1.197   1.750   1.820 -0.0127 -1.5400  0.6050
 1507SOL    HW216155   1.270   1.868   1.843  0.1152 -0.1459  0.0064
 1508SOL     OW16156   3.849   1.136   9.624  0.8332 -0.5008 -0.6215
 1508SOL    HW116157   3.921   1.074   9.633  0.3221 -1.0626 -0.3184
 1508SOL    HW216158   3.892   1.206   9.575  0.3655 -0.1734 -0.5676
 1509SOL     OW16159   3.759   3.943   1.802  0.0740  0.0493 -0.1429
 1509SOL    HW116160   3.825   3.873   1.803 -1.2952 -1.2886 -2.4850
 1509SOL    HW216161   3.784   3.985   1.719  0.4055  2.2078  1.0579
 1510SOL     OW16162   0.265   2.682   4.066  0.5374  0.1756 -0.1513
 1510SOL    HW116163   0.243   2.731   3.987 -2.4893 -1.0213 -0.0881
 1510SOL    HW216164   0.326   2.737   4.116  0.6947  0.6451 -0.8645
 1511SOL     OW16165   2.979   0.032   6.317 -0.2358 -0.6834  0.2098
 1511SOL    HW116166   2.896   0.078   6.318  0.3715  0.5489 -3.6279
 1511SOL    HW216167   3.007   0.024   6.408 -2.0016 -0.7790  0.7383
 1512SOL     OW16168   0.499   3.410   3.094  0.8055 -0.0859  0.2128
 1512SOL    HW116169   0.557   3.397   3.019  0.3940  4.1901 -0.8153
 1512SOL    HW216170   0.566   3.453   3.147  0.2641 -1.4069  1.9907
 1513SOL     OW16171   3.130   1.382   7.819 -0.1056 -0.1285 -0.2189
 1513SOL    HW116172   3.151   1.407   7.909 -3.6346 -1.6326  1.0471
 1513SOL    HW216173   3.218   1.384   7.783 -0.4432 -1.4848 -1.0980
 1514SOL     OW16174   2.359   1.532   8.666 -0.2639  0.2575 -0.0933
 1514SOL    HW116175   2.438   1.487   8.696 -1.1156 -1.3265 -0.2247
 1514SOL    HW216176   2.405   1.606   8.626  0.3130  0.7381  1.4720
 1515SOL     OW16177   0.452   2.480   2.000 -0.0417 -0.2942 -0.2896
 1515SOL    HW116178   0.525   2.537   2.023  0.1156 -0.4866 -0.3177
 1515SOL    HW216179   0.501   2.417   1.947  0.0983  0.2226 -0.7826
 1516SOL     OW16180   1.449   3.594   2.597  0.6325  0.5315 -0.3813
 1516SOL    HW116181   1.372   3.579   2.543 -2.0554  2.4545  3.0086
 1516SOL    HW216182   1.439   3.683   2.628  1.3303  0.1599  0.9183
 1517SOL     OW16183   1.807   1.663   4.002 -0.4192  0.0499 -0.2962
 1517SOL    HW116184   1.814   1.757   4.015  1.6664 -0.4236  1.8658
 1517SOL    HW216185   1.854   1.623   4.075 -0.6065 -0.9071 -0.6949
 1518SOL     OW16186   3.153   1.040   6.165 -0.3967  0.5196  0.6171
 1518SOL    HW116187   3.153   1.011   6.074  1.0622  0.1762  0.7239
 1518SOL    HW216188   3.248   1.039   6.177 -0.1951 -0.1679 -1.0544
 1519SOL     OW16189   1.657   1.298   7.316  0.8183 -0.3953  0.2069
 1519SOL    HW116190   1.670   1.374   7.260  1.3127 -0.1038  0.7115
 1519SOL    HW216191   1.676   1.220   7.264 -1.5228  0.2379 -1.6020
 1520SOL     OW16192   3.811   3.458   3.627  0.2058  0.5970 -0.0987
 1520SOL    HW116193   3.875   3.397   3.665  1.5132  2.1526  0.2130
 1520SOL    HW216194   3.839   3.466   3.536  0.2580 -1.2006 -0.2443
 1521SOL     OW16195   3.813   0.091   6.777 -0.8646  0.3663  0.5932
 1521SOL    HW116196   3.779   0.163   6.830 -0.6342  1.0825 -0.2214
 1521SOL    HW216197   3.888   0.068   6.832  0.1396  0.9031 -0.5543
 1522SOL     OW16198   3.449   2.446   7.762 -0.1753 -0.0022  0.4026
 1522SOL    HW116199   3.516   2.513   7.772  3.6221 -3.6953 -0.4226
 1522SOL    HW216200   3.382   2.469   7.827 -1.1270  1.9321 -1.2986
 1523SOL     OW16201   1.298   3.539   7.083  0.7241 -0.1816 -0.3603
 1523SOL    HW116202   1.212   3.499   7.072  0.8197 -1.0513  2.1845
 1523SOL    HW216203   1.291   3.584   6.999 -0.8270  0.3432  0.0457
 1524SOL     OW16204   1.694   1.135   5.087  0.2860  0.0193 -0.1320
 1524SOL    HW116205   1.633   1.128   5.160 -2.4309 -2.5517 -2.6652
 1524SOL    HW216206   1.630   1.180   5.032 -0.9203 -1.9007 -0.3203
 1525SOL     OW16207   2.342   1.287   6.191 -0.1346 -0.2751 -0.1783
 1525SOL    HW116208   2.329   1.207   6.242 -0.6291  0.5965  1.0578
 1525SOL    HW216209   2.249   1.307   6.192  0.0660  0.5877  1.8438
 1526SOL     OW16210   1.560   1.003   4.004 -0.3896 -0.0377  0.3528
 1526SOL    HW116211   1.558   1.044   3.917 -3.0031  0.2528  0.5698
 1526SOL    HW216212   1.474   0.963   4.009 -0.4575 -0.2979 -2.7658
 1527SOL     OW16213   1.550   3.484  16.970  0.3180 -0.0241 -0.3378
 1527SOL    HW116214   1.623   3.484  17.033 -0.7194 -0.0926  0.8633
 1527SOL    HW216215   1.605   3.495  16.893 -0.1695  0.1407 -0.6606
 1528SOL     OW16216   0.794   0.435  12.636  0.7866  0.2063  0.1911
 1528SOL    HW116217   0.808   0.526  12.661  1.5247  0.8945 -2.7798
 1528SOL    HW216218   0.699   0.438  12.623  0.7704  2.9901  1.0053
 1529SOL     OW16219   3.187   2.363   4.864 -0.7509  0.2111  0.5525
 1529SOL    HW116220   3.155   2.364   4.955 -2.6933 -0.0262 -0.1234
 1529SOL    HW216221   3.276   2.396   4.869 -0.9037  0.5818  0.8441
 1530SOL     OW16222   1.692   4.007   4.321 -0.5579 -0.0520 -0.0980
 1530SOL    HW116223   1.779   4.047   4.327 -0.0625 -1.1647  0.0494
 1530SOL    HW216224   1.646   4.087   4.348 -0.2362 -0.7035  2.4019
 1531SOL     OW16225   0.696   1.503   6.831  0.3797  0.1462  0.0356
 1531SOL    HW116226   0.650   1.420   6.843  0.1684  0.2705  0.0914
 1531SOL    HW216227   0.617   1.557   6.834 -0.0641 -0.4721 -0.9697
 1532SOL     OW16228   3.208   0.471   6.390  0.1500  0.2731  0.4033
 1532SOL    HW116229   3.228   0.536   6.458  1.2591 -0.9482  1.2509
 1532SOL    HW216230   3.132   0.521   6.362  0.9499  0.9477 -0.5958
 1533SOL     OW16231   4.734   1.001  14.002 -0.1012 -0.3473  0.2657
 1533SOL    HW116232   0.056   1.069  14.031 -0.6324  0.0844  0.3584
 1533SOL    HW216233   4.673   1.057  13.954  1.9992  1.2490 -0.5039
 1534SOL     OW16234   1.108   2.464   3.704  0.3617 -0.1258 -0.3614
 1534SOL    HW116235   1.189   2.418   3.725  1.0050  1.2462  0.1146
 1534SOL    HW216236   1.150   2.548   3.687  1.1762 -0.4736 -0.0774
 1535SOL     OW16237   2.151   0.305   7.670  0.1068 -0.6506 -0.4498
 1535SOL    HW116238   2.073   0.286   7.617  0.3960 -2.1042 -0.3538
 1535SOL    HW216239   2.175   0.388   7.629  1.8862 -0.3998  1.0990
 1536SOL     OW16240   4.468   2.265   1.571  0.1202 -0.0293 -0.1393
 1536SOL    HW116241   4.418   2.347   1.576  0.0664  0.0487 -1.6819
 1536SOL    HW216242   4.411   2.223   1.506 -1.3616 -1.7102  2.2567
 1537SOL     OW16243   4.573   2.791   8.366  0.1100 -0.3605  0.0290
 1537SOL    HW116244   4.631   2.861   8.396  1.3288 -1.1625 -0.4315
 1537SOL    HW216245   4.615   2.772   8.282 -0.8049  2.2582 -1.0124
 1538SOL     OW16246   0.717   1.278   8.366 -0.1624  0.3777  0.4015
 1538SOL    HW116247   0.760   1.193   8.351  0.3325  0.5757  0.7152
 1538SOL    HW216248   0.633   1.233   8.354  0.1571 -0.3259  0.7723
 1539SOL     OW16249   1.614   0.490   6.295  0.9475  0.2866  0.0767
 1539SOL    HW116250   1.608   0.406   6.250 -1.0733  0.4914 -0.0249
 1539SOL    HW216251   1.535   0.484   6.348 -0.7618  1.6733 -2.3093
 1540SOL     OW16252   2.215   4.370  15.306  0.0780 -0.1923 -0.3841
 1540SOL    HW116253   2.245   4.282  15.331 -0.1685 -0.4401 -0.9736
 1540SOL    HW216254   2.162   4.394  15.382  0.6605  2.8700 -0.9723
 1541SOL     OW16255   2.280   0.365  16.136  0.4107  0.2365  0.2324
 1541SOL    HW116256   2.270   0.404  16.223 -0.3322  0.8602 -0.1348
 1541SOL    HW216257   2.258   0.439  16.080  2.9875  0.6205 -0.3125
 1542SOL     OW16258   3.475   0.386   3.584  0.5591  0.4013 -0.1592
 1542SOL    HW116259   3.526   0.437   3.521  0.6321 -1.4749 -1.6282
 1542SOL    HW216260   3.479   0.441   3.662  0.1784  1.7163 -1.0643
 1543SOL     OW16261   0.072   2.312  10.904  0.4487  0.4996  0.1368
 1543SOL    HW116262   0.149   2.285  10.855  0.7516  0.2863  0.7274
 1543SOL    HW216263   0.033   2.376  10.844 -0.8445 -0.8195 -0.4306
 1544SOL     OW16264   3.986   0.556   8.882 -0.7830  0.3174 -0.1608
 1544SOL    HW116265   3.901   0.538   8.842 -0.8904  0.6752 -0.0970
 1544SOL    HW216266   4.040   0.525   8.810 -0.2782  1.1930 -0.1652
 1545SOL     OW16267   3.800   0.045   3.488 -0.2454 -0.4074  0.2661
 1545SOL    HW116268   3.784   4.730   3.410 -0.9748 -0.7494  0.6508
 1545SOL    HW216269   3.802   0.131   3.446  0.8215 -0.3301  0.4820
 1546SOL     OW16270   0.446   1.376   7.172  0.4120 -0.6010  0.4729
 1546SOL    HW116271   0.463   1.470   7.182 -0.1932 -0.4303 -0.0830
 1546SOL    HW216272   0.442   1.361   7.077  0.0810 -1.0533  0.5623
 1547SOL     OW16273   0.252   0.805   6.089  0.6173 -0.0405  0.2886
 1547SOL    HW116274   0.220   0.814   6.179 -0.2158 -1.9934  0.1859
 1547SOL    HW216275   0.174   0.775   6.043  1.2374 -0.0161 -0.7615
 1548SOL     OW16276   3.274   0.629   6.620 -0.0148  0.4326  0.3128
 1548SOL    HW116277   3.212   0.702   6.630  0.0763  0.4607  0.6642
 1548SOL    HW216278   3.235   0.551   6.658 -0.7941  0.4654 -0.4257
 1549SOL     OW16279   2.939   0.630  15.481 -0.3914  0.4536 -0.0346
 1549SOL    HW116280   2.897   0.695  15.425  0.4408  1.0819  0.0657
 1549SOL    HW216281   3.000   0.595  15.416  1.3584  0.6834  1.4823
 1550SOL     OW16282   0.566   2.775  15.678  0.2774 -0.0607 -0.0171
 1550SOL    HW116283   0.601   2.746  15.594  0.2982  0.5992 -0.2352
 1550SOL    HW216284   0.540   2.864  15.655 -2.1949 -1.0596 -1.0594
 1551SOL     OW16285   1.940   4.710   7.709  1.1299  0.4458 -0.7682
 1551SOL    HW116286   1.880   0.046   7.717  1.2494  0.5087 -0.4211
 1551SOL    HW216287   1.896   4.638   7.755 -0.5956  2.1075  0.1885
 1552SOL     OW16288   1.403   0.711  14.291 -0.7214 -0.4150  0.3403
 1552SOL    HW116289   1.348   0.779  14.330  0.2096  1.3310 -1.3525
 1552SOL    HW216290   1.339   0.642  14.309 -0.3793 -0.7544  0.2608
 1553SOL     OW16291   0.880   4.244  13.485 -0.0432  0.0986  0.6039
 1553SOL    HW116292   0.828   4.224  13.407  1.0392 -0.9574  0.1460
 1553SOL    HW216293   0.844   4.324  13.522 -1.4045 -0.6072  0.7979
 1554SOL     OW16294   0.958   2.250   8.265  0.0360  0.2119 -0.4559
 1554SOL    HW116295   1.002   2.334   8.278  0.1892  0.0306  0.2155
 1554SOL    HW216296   1.029   2.189   8.247 -0.1845 -0.5614  1.2741
 1555SOL     OW16297   4.727   2.569   6.744 -0.2843 -0.0192  0.3706
 1555SOL    HW116298   4.671   2.495   6.722 -0.7893  0.9924 -1.8134
 1555SOL    HW216299   4.717   2.634   6.674  2.0866  1.7982  1.7123
 1556SOL     OW16300   0.105   4.617   3.041 -0.1485 -0.0144  0.2401
 1556SOL    HW116301   0.026   4.607   2.987 -0.8026 -1.5019  1.4831
 1556SOL    HW216302   0.102   4.710   3.060 -2.2579  0.2650 -1.4363
 1557SOL     OW16303   0.550   3.737   5.722  0.8132  0.3867  0.2142
 1557SOL    HW116304   0.488   3.694   5.780 -0.6656  2.9527  0.5404
 1557SOL    HW216305   0.498   3.722   5.643 -0.5189  2.9707  0.5857
 1558SOL     OW16306   0.463   3.924   6.147 -0.2393 -0.2419 -0.0612
 1558SOL    HW116307   0.379   3.894   6.180 -0.2796 -0.1943 -0.1202
 1558SOL    HW216308   0.449   4.017   6.127 -0.8672  0.1324  2.1270
 1559SOL     OW16309   4.282   2.493   2.859  1.0258 -0.2887 -0.3060
 1559SOL    HW116310   4.220   2.513   2.930  0.0961 -0.8936 -0.9402
 1559SOL    HW216311   4.290   2.397   2.863  1.7478 -0.1139  2.3668
 1560SOL     OW16312   3.383   0.460   9.665 -0.7010  0.7473 -0.3888
 1560SOL    HW116313   3.435   0.391   9.706 -3.2317  0.0194  1.6174
 1560SOL    HW216314   3.456   0.521   9.656  0.9260 -1.0435  0.8548
 1561SOL     OW16315   4.359   3.706   2.977  0.2356 -0.4213 -0.0077
 1561SOL    HW116316   4.412   3.651   2.921  0.5753 -1.8426  1.7040
 1561SOL    HW216317   4.281   3.727   2.925  0.9375  1.9389 -0.1378
 1562SOL     OW16318   4.065   4.088   6.009 -0.3223  0.3365 -0.1265
 1562SOL    HW116319   4.113   4.019   6.054  0.3561 -0.4918 -2.1008
 1562SOL    HW216320   3.980   4.085   6.052 -0.9083  1.8278 -1.1690
 1563SOL     OW16321   3.141   2.276  14.574  0.2372  0.2348 -0.0967
 1563SOL    HW116322   3.179   2.202  14.527  2.0155  1.6001 -0.8200
 1563SOL    HW216323   3.212   2.280  14.638  0.8435 -0.8239 -0.6993
 1564SOL     OW16324   1.132   1.818   7.305  0.7400 -0.2872 -0.0580
 1564SOL    HW116325   1.211   1.872   7.314 -0.7915  1.9592 -0.0416
 1564SOL    HW216326   1.154   1.742   7.358 -1.5817 -0.2971  0.8791
 1565SOL     OW16327   4.241   1.628   6.814 -0.0369  0.2513  0.3677
 1565SOL    HW116328   4.159   1.590   6.783  0.6957  0.3173 -1.7033
 1565SOL    HW216329   4.222   1.721   6.807  0.0029  0.4170  2.4467
 1566SOL     OW16330   0.741   2.566   5.485  0.1499  0.4569 -0.4019
 1566SOL    HW116331   0.751   2.473   5.464 -1.1477  1.0722 -3.7389
 1566SOL    HW216332   0.697   2.600   5.407  1.9920 -1.2235 -2.1930
 1567SOL     OW16333   0.966   2.373   7.130  0.6476  0.6917  0.2502
 1567SOL    HW116334   1.043   2.335   7.089  1.3590  2.2128  0.1619
 1567SOL    HW216335   0.904   2.371   7.057 -0.5057 -0.1401  1.2537
 1568SOL     OW16336   2.541   4.012   7.586  0.5776 -0.3974  0.3147
 1568SOL    HW116337   2.544   4.075   7.514  2.2136 -1.3477 -0.4329
 1568SOL    HW216338   2.636   4.004   7.595  0.7493  0.7420 -0.3541
 1569SOL     OW16339   2.247   4.587   3.797 -0.0945  0.0246 -0.4259
 1569SOL    HW116340   2.216   4.576   3.707 -2.0334 -0.5028  0.3052
 1569SOL    HW216341   2.246   4.498   3.834  0.2630 -0.9230 -2.6768
 1570SOL     OW16342   3.957   3.851   9.803  0.2160  0.0662  0.2609
 1570SOL    HW116343   3.888   3.877   9.863 -0.4898 -0.5469 -0.2800
 1570SOL    HW216344   4.001   3.934   9.784  1.3554 -1.3767 -3.4666
 1571SOL     OW16345   1.525   0.260   6.131 -0.2647 -0.3378 -0.1445
 1571SOL    HW116346   1.456   0.247   6.196 -1.5164 -1.5243 -1.7034
 1571SOL    HW216347   1.475   0.262   6.049  0.7953  2.1159 -0.7164
 1572SOL     OW16348   2.088   1.945   0.626 -0.0877  0.7718  0.3331
 1572SOL    HW116349   2.158   1.943   0.690  0.7856  0.5535 -0.6299
 1572SOL    HW216350   2.070   1.853   0.610 -0.3555  0.8164  0.3747
 1573SOL     OW16351   1.156   0.864   8.943 -0.0292 -0.1250 -0.2232
 1573SOL    HW116352   1.242   0.879   8.982 -0.9979  1.3492  1.3349
 1573SOL    HW216353   1.121   0.949   8.917  2.2690  1.0085  0.4302
 1574SOL     OW16354   2.659   4.483  10.968  0.6243 -0.3853  0.1705
 1574SOL    HW116355   2.586   4.542  10.952  0.0507 -0.7020  1.5899
 1574SOL    HW216356   2.633   4.424  11.038 -0.1147  0.5527  0.6853
 1575SOL     OW16357   3.982   4.622  11.488  0.1941  0.2908  1.1173
 1575SOL    HW116358   3.911   4.572  11.447  1.7849 -1.1032  0.0693
 1575SOL    HW216359   3.963   4.615  11.581 -2.5393 -2.3868  0.3292
 1576SOL     OW16360   2.410   0.202   6.294 -0.3409 -0.0962 -0.1065
 1576SOL    HW116361   2.472   0.270   6.268 -0.3537 -0.2858 -0.6401
 1576SOL    HW216362   2.355   0.188   6.217 -1.3993 -0.1947  0.6578
 1577SOL     OW16363   0.952   4.719  17.412 -0.1684 -0.5450  0.1056
 1577SOL    HW116364   0.903   0.062  17.402 -0.0876 -0.3218  1.5641
 1577SOL    HW216365   1.040   0.016  17.418  0.2809 -1.4659 -0.9198
 1578SOL     OW16366   0.242   3.414   8.854 -0.2817  0.3255 -0.0811
 1578SOL    HW116367   0.255   3.354   8.927  0.2891  1.3193  0.6262
 1578SOL    HW216368   0.225   3.358   8.778  1.2760 -1.1658  0.6750
 1579SOL     OW16369   1.987   1.460  16.690 -0.1851  0.0829 -0.1503
 1579SOL    HW116370   1.950   1.375  16.665  4.2579 -2.0771  0.7309
 1579SOL    HW216371   2.056   1.432  16.750  2.3052 -1.4347 -3.7398
 1580SOL     OW16372   4.448   4.142   5.905 -0.2719 -0.1940  0.1195
 1580SOL    HW116373   4.376   4.205   5.909 -1.1959 -1.2384  0.3226
 1580SOL    HW216374   4.452   4.140   5.809  0.8541 -0.1413  0.1692
 1581SOL     OW16375   0.046   2.125   1.854  0.0962 -0.2695  0.0876
 1581SOL    HW116376   0.092   2.060   1.906 -0.8610 -0.3434  0.8432
 1581SOL    HW216377   0.090   2.210   1.845  0.1725 -0.2688  0.4549
 1582SOL     OW16378   4.502   1.134   6.392 -0.0037 -0.2525 -0.1750
 1582SOL    HW116379   4.492   1.071   6.463  0.6883 -1.7066 -1.3730
 1582SOL    HW216380   4.555   1.080   6.334  2.7583 -0.2330  2.3169
 1583SOL     OW16381   0.447   0.760   8.695 -0.1611  0.4748 -0.5657
 1583SOL    HW116382   0.422   0.690   8.755 -0.1028 -0.7220 -1.9455
 1583SOL    HW216383   0.384   0.830   8.714 -0.7861  0.4428 -2.5255
 1584SOL     OW16384   2.458   2.588   0.932 -0.4014  0.3569  0.5651
 1584SOL    HW116385   2.443   2.506   0.886 -0.4783  1.1371 -0.8199
 1584SOL    HW216386   2.499   2.647   0.869 -1.8633 -0.8121 -1.4688
 1585SOL     OW16387   3.716   0.750  10.525  0.1214  0.2796 -0.3704
 1585SOL    HW116388   3.628   0.736  10.559 -0.0371  1.0922 -0.4333
 1585SOL    HW216389   3.699   0.757  10.431  1.1065  0.9014 -0.5034
 1586SOL     OW16390   3.253   4.097   3.372 -0.6290  0.4883  0.2233
 1586SOL    HW116391   3.336   4.138   3.397  0.0150 -2.5170  3.0702
 1586SOL    HW216392   3.208   4.098   3.457 -1.7293 -0.2549 -0.3535
 1587SOL     OW16393   2.788   1.320   0.422 -0.4164 -0.2109  0.1327
 1587SOL    HW116394   2.854   1.251   0.414  1.2206  1.2576  0.9619
 1587SOL    HW216395   2.783   1.325   0.517 -3.3913  0.4609 -0.0805
 1588SOL     OW16396   1.009   4.118  10.376  0.3268  0.0175 -0.3787
 1588SOL    HW116397   1.091   4.166  10.384 -0.0808  0.7321 -0.4258
 1588SOL    HW216398   0.963   4.163  10.305  0.7089  1.9334  0.5794
 1589SOL     OW16399   0.854   0.732  15.035 -0.4032  0.1843  0.3593
 1589SOL    HW116400   0.869   0.670  14.964  0.5822  1.2115 -0.3394
 1589SOL    HW216401   0.936   0.782  15.028 -0.6162  0.6208  0.9750
 1590SOL     OW16402   3.762   1.642   2.378  0.0787 -0.1304  0.1760
 1590SOL    HW116403   3.733   1.550   2.373 -1.3236  0.2758  0.9624
 1590SOL    HW216404   3.806   1.643   2.463  0.2301 -2.8640  0.1583
 1591SOL     OW16405   4.086   2.897  16.229  0.0959  0.5184 -0.6910
 1591SOL    HW116406   4.099   2.864  16.140  0.5353  0.1722 -0.4957
 1591SOL    HW216407   3.997   2.866  16.247 -0.0208  0.2310 -1.7757
 1592SOL     OW16408   4.208   1.361   2.436  0.2090  0.0460  0.1455
 1592SOL    HW116409   4.226   1.360   2.530  0.6168 -1.7846  0.0470
 1592SOL    HW216410   4.243   1.446   2.409  3.3097 -0.9856  0.9776
 1593SOL     OW16411   4.603   4.366   7.290 -1.1006 -0.0207 -0.0159
 1593SOL    HW116412   4.597   4.447   7.342 -1.1775 -0.3158  0.4314
 1593SOL    HW216413   4.605   4.302   7.361  2.1816 -0.1248 -0.1975
 1594SOL     OW16414   1.373   0.519   4.285 -0.2606 -0.2583 -0.4841
 1594SOL    HW116415   1.451   0.473   4.313 -0.0546 -0.1640 -0.8996
 1594SOL    HW216416   1.311   0.453   4.256 -0.2905 -0.7412  0.6998
 1595SOL     OW16417   2.896   3.300  12.480 -0.8508  0.8880 -0.3997
 1595SOL    HW116418   2.853   3.216  12.465 -1.7264  1.1900  0.3749
 1595SOL    HW216419   2.862   3.357  12.412 -1.4871 -0.3663 -1.1441
 1596SOL     OW16420   0.156   3.905  12.875 -0.3291 -0.4135  0.7491
 1596SOL    HW116421   0.193   3.829  12.920  1.8084  0.7299  0.9593
 1596SOL    HW216422   0.102   3.846  12.822  2.6366 -0.8869 -1.8061
 1597SOL     OW16423   2.875   0.516   5.850  0.2009 -0.0046  0.2050
 1597SOL    HW116424   2.956   0.489   5.806 -0.0804 -1.5151  0.6008
 1597SOL    HW216425   2.876   0.611   5.844 -0.3472  0.1580  2.5049
 1598SOL     OW16426   3.519   2.758  14.085 -0.3662 -0.2719 -0.0522
 1598SOL    HW116427   3.568   2.723  14.010  1.1242  0.3356  0.6477
 1598SOL    HW216428   3.577   2.825  14.121 -1.6965  0.1820  1.2450
 1599SOL     OW16429   1.866   2.866   5.118 -0.3630  0.5433 -0.0546
 1599SOL    HW116430   1.958   2.894   5.121 -0.0533 -0.3969 -0.5886
 1599SOL    HW216431   1.867   2.787   5.063 -1.2858 -0.3845  1.2660
 1600SOL     OW16432   1.853   1.058   0.738  0.4387 -0.0453  0.2863
 1600SOL    HW116433   1.893   1.003   0.671 -0.3743 -0.7773  0.4011
 1600SOL    HW216434   1.927   1.106   0.776  0.5214 -0.4265  0.5965
 1601SOL     OW16435   3.136   1.487   2.270  0.2593  0.0114 -0.1967
 1601SOL    HW116436   3.083   1.566   2.268  1.7866  1.1220  2.3619
 1601SOL    HW216437   3.174   1.474   2.183 -0.8141 -1.3647 -0.4558
 1602SOL     OW16438   0.296   0.108  12.654 -0.1710 -0.2140  0.0289
 1602SOL    HW116439   0.284   0.055  12.576 -2.3193 -0.7807  0.7469
 1602SOL    HW216440   0.368   0.055  12.688  0.8045 -0.7522 -2.9207
 1603SOL     OW16441   0.069   4.522   8.088  0.3758  0.3597 -0.1578
 1603SOL    HW116442   0.069   4.538   8.182 -0.4843  1.4731 -0.3572
 1603SOL    HW216443   0.132   4.450   8.079  0.2420  0.0881  1.1495
 1604SOL     OW16444   1.336   0.832   3.916  0.2047  0.5930 -0.4976
 1604SOL    HW116445   1.255   0.852   3.869 -0.1260 -1.5618 -0.8197
 1604SOL    HW216446   1.326   0.740   3.939 -3.4017  1.3682  1.0426
 1605SOL     OW16447   4.570   3.186   1.470  0.2375  0.8426  0.0816
 1605SOL    HW116448   4.581   3.271   1.512 -0.4751  1.1910 -0.4498
 1605SOL    HW216449   4.503   3.210   1.407 -0.0933 -1.3182 -0.3665
 1606SOL     OW16450   0.166   3.260   2.579 -0.0697 -0.2697 -0.5587
 1606SOL    HW116451   0.225   3.208   2.633 -1.5879  0.1105  1.4602
 1606SOL    HW216452   0.161   3.207   2.499  3.7671 -2.0274  0.4092
 1607SOL     OW16453   2.613   1.306  11.309  0.2909  1.4118  0.3716
 1607SOL    HW116454   2.619   1.339  11.220  0.6361 -1.9545 -0.8698
 1607SOL    HW216455   2.684   1.241  11.306 -0.2676  0.9426 -2.3873
 1608SOL     OW16456   2.172   2.806  11.820  0.8102 -0.1082 -0.1870
 1608SOL    HW116457   2.188   2.898  11.800  0.0907 -0.2622 -1.4679
 1608SOL    HW216458   2.118   2.781  11.745  0.9417  1.7021 -0.8864
 1609SOL     OW16459   3.543   4.273   2.184  0.7608 -0.0159  0.3215
 1609SOL    HW116460   3.590   4.354   2.166  1.6506 -0.4729  0.6170
 1609SOL    HW216461   3.492   4.274   2.103 -1.2267  0.0540  1.5672
 1610SOL     OW16462   2.080   0.465   9.068 -0.0052  0.5582 -0.1052
 1610SOL    HW116463   1.994   0.474   9.026  1.0076 -1.3186 -2.5494
 1610SOL    HW216464   2.059   0.507   9.152  0.2917 -1.2456  0.8561
 1611SOL     OW16465   2.676   4.409   6.207 -0.1829  0.2212 -0.3196
 1611SOL    HW116466   2.607   4.452   6.258  0.5339 -0.5096  1.2427
 1611SOL    HW216467   2.719   4.350   6.268  2.2088  2.7661  0.4258
 1612SOL     OW16468   2.833   0.382  14.975 -0.5071 -0.6976 -0.2359
 1612SOL    HW116469   2.786   0.402  14.894 -0.8849  0.2190  0.2014
 1612SOL    HW216470   2.917   0.426  14.961 -0.5458 -0.6451 -0.3023
 1613SOL     OW16471   2.434   3.579   1.880  0.1865  0.2265 -0.1477
 1613SOL    HW116472   2.508   3.594   1.821 -2.2709 -0.6950 -3.4620
 1613SOL    HW216473   2.456   3.635   1.954 -0.2543  1.7147 -1.1498
 1614SOL     OW16474   1.100   4.281  14.015 -0.2794  0.1027 -0.4766
 1614SOL    HW116475   1.133   4.204  13.968 -0.2713  1.9770 -3.4561
 1614SOL    HW216476   1.163   4.352  14.013 -1.1472  0.9839  3.6066
 1615SOL     OW16477   4.394   0.679   2.376 -0.0311  0.1264 -0.0648
 1615SOL    HW116478   4.410   0.749   2.313  0.4034  0.3293  0.2726
 1615SOL    HW216479   4.451   0.704   2.449  0.0285 -3.4777  1.1199
 1616SOL     OW16480   0.614   3.016   7.604  0.0825  0.4809  0.1968
 1616SOL    HW116481   0.681   2.987   7.666 -0.3081 -0.0744  0.3608
 1616SOL    HW216482   0.579   3.090   7.652  0.0886  0.9593 -0.5361
 1617SOL     OW16483   1.862   0.533   6.373  0.0827 -0.0307 -0.4474
 1617SOL    HW116484   1.876   0.617   6.330 -1.6203 -0.2002 -1.3645
 1617SOL    HW216485   1.777   0.515   6.333 -0.6090 -1.1027  1.5047
 1618SOL     OW16486   0.479   0.871   9.735  0.1330  0.0123 -0.1385
 1618SOL    HW116487   0.470   0.966   9.744 -0.8952 -0.0741 -0.2409
 1618SOL    HW216488   0.443   0.856   9.647 -0.3945  3.2307 -0.4803
 1619SOL     OW16489   3.565   0.705   2.044 -0.1994 -0.8743  0.5239
 1619SOL    HW116490   3.487   0.746   2.008  0.6659  0.9791  0.7420
 1619SOL    HW216491   3.614   0.785   2.061 -2.2805 -0.3612  4.1557
 1620SOL     OW16492   1.717   2.637   1.142  0.0266 -0.2511 -0.3220
 1620SOL    HW116493   1.669   2.711   1.106 -0.0536 -0.4054 -0.5331
 1620SOL    HW216494   1.761   2.618   1.059 -0.0864 -0.8554 -0.2472
 1621SOL     OW16495   4.620   2.108   9.161 -0.1540  0.0431 -0.3651
 1621SOL    HW116496   4.686   2.059   9.209  0.4658  2.4973  1.2783
 1621SOL    HW216497   4.552   2.136   9.222  0.6158  2.3417 -0.5373
 1622SOL     OW16498   3.908   0.480   1.757  0.1939 -0.3130  0.0989
 1622SOL    HW116499   3.892   0.564   1.801  0.7599  0.5697 -1.3731
 1622SOL    HW216500   3.988   0.448   1.799 -0.0827  0.5971  1.3087
 1623SOL     OW16501   0.099   2.561   2.490  0.0649 -0.4101  0.4190
 1623SOL    HW116502   0.041   2.595   2.558 -1.6154 -1.5498 -0.4432
 1623SOL    HW216503   0.033   2.574   2.421  0.2966  3.0082  0.8344
 1624SOL     OW16504   2.116   1.849  11.719 -0.0573 -0.0934 -0.2797
 1624SOL    HW116505   2.194   1.849  11.775  2.1127 -0.0748 -3.2806
 1624SOL    HW216506   2.044   1.838  11.781  0.2322 -0.2781  0.0282
 1625SOL     OW16507   1.715   4.151   7.617 -0.0376  0.2709 -0.6599
 1625SOL    HW116508   1.631   4.137   7.574 -0.7704 -0.8274  1.1222
 1625SOL    HW216509   1.783   4.156   7.550  0.3274 -0.4526 -0.3354
 1626SOL     OW16510   4.466   0.190   5.472 -0.1034  0.6147  0.6505
 1626SOL    HW116511   4.502   0.102   5.470  0.2614  0.7447  1.9875
 1626SOL    HW216512   4.395   0.179   5.535 -0.2337  1.2518  0.6122
 1627SOL     OW16513   2.647   1.473   1.358  0.2946 -0.1699 -0.3087
 1627SOL    HW116514   2.634   1.523   1.278 -1.2335  0.0607  0.0644
 1627SOL    HW216515   2.588   1.511   1.423  1.8399  0.0109  0.9879
 1628SOL     OW16516   1.528   3.060   8.658 -0.5026  0.1635  0.2904
 1628SOL    HW116517   1.612   3.098   8.633  0.0021 -1.5419 -0.5396
 1628SOL    HW216518   1.481   3.133   8.698  2.4218  2.1209  0.1875
 1629SOL     OW16519   4.017   0.516   4.030 -0.1309  0.2813  0.2777
 1629SOL    HW116520   4.023   0.537   4.123  0.1778  0.2028  0.2744
 1629SOL    HW216521   3.948   0.450   4.033  1.5330 -1.4652  0.2995
 1630SOL     OW16522   1.143   3.489  16.977 -0.0366  0.0692  0.0047
 1630SOL    HW116523   1.226   3.512  17.020  0.1066  0.4169 -0.4616
 1630SOL    HW216524   1.162   3.424  16.911 -0.2476  1.0795 -1.0589
 1631SOL     OW16525   2.809   0.677  14.380 -0.5389  0.2144 -0.6972
 1631SOL    HW116526   2.804   0.768  14.351 -1.7155  1.2200  2.7806
 1631SOL    HW216527   2.730   0.674  14.433  0.4389 -1.9464  0.6462
 1632SOL     OW16528   0.066   4.487   7.735  0.1623  0.2427 -0.0760
 1632SOL    HW116529   0.110   4.463   7.653 -0.0059  2.2440 -0.7644
 1632SOL    HW216530   0.133   4.459   7.796  0.4839 -0.9276 -0.9711
 1633SOL     OW16531   4.545   2.850   5.623  0.7650  0.3743  0.0501
 1633SOL    HW116532   4.587   2.836   5.709 -0.0418  0.0738  0.3973
 1633SOL    HW216533   4.574   2.769   5.582 -1.0381 -1.5494  2.5166
 1634SOL     OW16534   4.105   2.034   0.982 -0.1470 -0.1994 -0.5055
 1634SOL    HW116535   4.171   2.006   1.046 -1.4454 -1.1039  0.4394
 1634SOL    HW216536   4.112   2.130   0.979  0.1238 -0.1487  2.0418
 1635SOL     OW16537   2.271   0.035   6.100  0.0908  0.1526  0.3924
 1635SOL    HW116538   2.188   0.029   6.054 -1.2227  1.9416  2.5339
 1635SOL    HW216539   2.331   0.057   6.029  1.2532  0.3349  1.4261
 1636SOL     OW16540   1.929   1.234   2.984  0.1879 -0.0686  0.4386
 1636SOL    HW116541   1.870   1.307   3.002 -1.8573 -1.4421 -0.6696
 1636SOL    HW216542   1.927   1.226   2.888 -2.6378 -1.3954  0.5939
 1637SOL     OW16543   4.409   2.904   3.490  0.3890  0.2032 -0.3589
 1637SOL    HW116544   4.490   2.953   3.477  0.9294 -0.8157 -0.8410
 1637SOL    HW216545   4.452   2.822   3.514  1.6160  1.2013  0.8609
 1638SOL     OW16546   2.283   3.443  11.111  0.1626 -0.8028  0.1509
 1638SOL    HW116547   2.236   3.382  11.054  2.6538 -2.0718 -0.5519
 1638SOL    HW216548   2.369   3.404  11.122 -0.1576 -1.7407 -0.6323
 1639SOL     OW16549   1.726   3.537   2.595  0.3834  0.2392 -0.0802
 1639SOL    HW116550   1.704   3.488   2.674  0.9600 -0.0437 -0.0880
 1639SOL    HW216551   1.639   3.568   2.572 -0.0635  0.4654  1.9424
 1640SOL     OW16552   2.345   4.690   3.311 -0.6951 -0.0642 -0.0673
 1640SOL    HW116553   2.252   4.714   3.305 -0.0898  2.0831 -0.9837
 1640SOL    HW216554   2.372   4.711   3.401  0.3060 -0.7487 -0.2143
 1641SOL     OW16555   2.582   2.588   4.695 -0.1438 -0.8083  0.1978
 1641SOL    HW116556   2.624   2.674   4.697 -1.8076 -0.0574  2.3573
 1641SOL    HW216557   2.636   2.533   4.638  0.3783 -1.5978  1.4581
 1642SOL     OW16558   3.951   4.640   4.152  0.0351 -0.1665  0.8761
 1642SOL    HW116559   3.981   4.552   4.133  0.7066 -0.0636  1.4203
 1642SOL    HW216560   3.966   4.680   4.066  2.0966 -0.0927  1.2629
 1643SOL     OW16561   0.567   2.765  11.880 -0.5011 -0.2170  0.4877
 1643SOL    HW116562   0.650   2.808  11.901  0.3209  0.0044 -3.1517
 1643SOL    HW216563   0.594   2.674  11.886 -1.3814 -0.3851  1.8643
 1644SOL     OW16564   4.117   3.971   5.496 -0.4389  0.2387  0.5640
 1644SOL    HW116565   4.186   3.917   5.535  0.0556  1.0248  0.7806
 1644SOL    HW216566   4.074   3.993   5.579 -1.2504  0.3164  0.1197
 1645SOL     OW16567   1.306   2.239   8.053 -0.0845  0.2677 -0.2079
 1645SOL    HW116568   1.371   2.306   8.075 -0.1393 -0.2049  1.3371
 1645SOL    HW216569   1.368   2.170   8.031 -0.5054 -0.5460  1.1705
 1646SOL     OW16570   3.106   1.666   7.488 -0.4608  0.0227  0.1589
 1646SOL    HW116571   3.084   1.618   7.409 -3.5515 -1.0583  1.6900
 1646SOL    HW216572   3.201   1.654   7.489 -0.0505  3.3315  1.6852
 1647SOL     OW16573   0.822   3.961   5.551  0.0564  0.2059  0.1103
 1647SOL    HW116574   0.850   3.893   5.613 -2.1177 -0.3413  0.5227
 1647SOL    HW216575   0.764   4.015   5.605 -1.8939  0.6464 -2.4434
 1648SOL     OW16576   2.432   0.841   8.552  0.3183  0.1452  0.1204
 1648SOL    HW116577   2.402   0.916   8.602  0.9891 -0.3548  1.2731
 1648SOL    HW216578   2.443   0.767   8.611 -1.6896  0.8359  1.3353
 1649SOL     OW16579   4.455   0.473   4.672 -0.0782 -0.2649  0.5058
 1649SOL    HW116580   4.527   0.409   4.671  0.5287  0.4220 -0.1206
 1649SOL    HW216581   4.460   0.513   4.759  1.6054 -3.2172  1.7576
 1650SOL     OW16582   0.598   3.825   7.553  0.1226  0.5402  0.2724
 1650SOL    HW116583   0.690   3.810   7.573  0.3580  1.1222 -0.3842
 1650SOL    HW216584   0.601   3.876   7.472  0.4330  2.1560  1.2885
 1651SOL     OW16585   3.333   0.366  10.039  0.2277 -0.5106 -0.1921
 1651SOL    HW116586   3.248   0.402  10.015  1.3532  1.3150 -1.4797
 1651SOL    HW216587   3.360   0.420  10.114  2.1728 -0.0082 -1.2610
 1652SOL     OW16588   0.333   1.736  10.523  0.4345 -0.3061  0.8643
 1652SOL    HW116589   0.408   1.794  10.525  0.0884  0.1515  0.4011
 1652SOL    HW216590   0.379   1.660  10.558  1.1352  0.3294  1.3128
 1653SOL     OW16591   1.869   2.693  16.208  0.0804  0.0800  0.2620
 1653SOL    HW116592   1.886   2.601  16.226 -0.5226 -0.4962 -2.0953
 1653SOL    HW216593   1.840   2.722  16.295  1.8679  0.0631  0.8490
 1654SOL     OW16594   0.312   2.520  11.338  0.2462 -0.0276 -0.3358
 1654SOL    HW116595   0.361   2.478  11.268 -1.1734  0.6122 -1.7242
 1654SOL    HW216596   0.228   2.502  11.295 -1.1661  1.7559  1.6570
 1655SOL     OW16597   4.463   3.293   7.793  0.1441  0.3248 -1.0033
 1655SOL    HW116598   4.391   3.288   7.731  0.6938 -0.7124 -1.5631
 1655SOL    HW216599   4.408   3.301   7.872  2.1853  1.5004  0.2998
 1656SOL     OW16600   0.896   1.394   9.522  0.1237 -0.1665  0.6229
 1656SOL    HW116601   0.882   1.300   9.524 -1.1392  0.0011 -0.7361
 1656SOL    HW216602   0.940   1.405   9.606  1.0474 -0.4493  0.1711
 1657SOL     OW16603   3.931   0.494   4.296 -0.6339 -0.4073 -0.2340
 1657SOL    HW116604   3.844   0.509   4.332 -0.6379 -0.7851 -0.0857
 1657SOL    HW216605   3.981   0.540   4.363 -2.5464 -1.6076  2.0217
 1658SOL     OW16606   4.552   4.608   3.543 -0.0316 -0.0315 -0.2231
 1658SOL    HW116607   4.524   4.614   3.452 -0.4306 -0.8604 -0.1558
 1658SOL    HW216608   4.588   4.520   3.537 -1.5156 -0.5678 -1.1106
 1659SOL     OW16609   3.320   1.609   7.664 -0.0607  0.0840  0.2414
 1659SOL    HW116610   3.397   1.609   7.721  2.0445  0.1359 -2.6280
 1659SOL    HW216611   3.346   1.531   7.614 -0.2711 -0.9902  1.8100
 1660SOL     OW16612   3.744   0.794   5.579  0.1891  0.0021  0.2892
 1660SOL    HW116613   3.819   0.767   5.631 -0.3383  1.3599  1.7692
 1660SOL    HW216614   3.743   0.724   5.514  1.1428  2.5152 -2.4149
 1661SOL     OW16615   0.600   0.466   7.749  0.0535  0.2853 -0.2446
 1661SOL    HW116616   0.574   0.406   7.679 -0.1665 -1.6497  1.4836
 1661SOL    HW216617   0.685   0.507   7.730  0.7020 -0.9299  0.0361
 1662SOL     OW16618   4.236   1.301  13.259 -0.0178 -0.0235 -0.0997
 1662SOL    HW116619   4.241   1.331  13.169  2.3014  0.0505  0.0639
 1662SOL    HW216620   4.179   1.368  13.298  0.0264 -0.5874  0.9472
 1663SOL     OW16621   3.270   0.204  17.689  0.5261 -0.4248 -0.1236
 1663SOL    HW116622   3.309   0.117  17.698  0.2836 -0.4695  0.4727
 1663SOL    HW216623   3.178   0.179  17.686 -0.0910  1.7454  0.8181
 1664SOL     OW16624   1.138   3.284   8.164 -0.4042 -0.3685 -0.4898
 1664SOL    HW116625   1.077   3.326   8.104  0.7627  0.2845 -1.2156
 1664SOL    HW216626   1.185   3.230   8.099 -1.1424  0.1708 -1.4782
 1665SOL     OW16627   1.451   3.359   1.647 -0.7560  0.3926 -0.5946
 1665SOL    HW116628   1.479   3.319   1.565 -0.7709  0.5643 -0.6830
 1665SOL    HW216629   1.394   3.286   1.671  0.3228 -0.7650 -1.5793
 1666SOL     OW16630   1.946   1.604   3.378  0.5833  0.7801  0.2393
 1666SOL    HW116631   1.942   1.690   3.418  0.2749 -0.1667  2.2604
 1666SOL    HW216632   1.960   1.644   3.293  0.3704  0.1437 -0.0914
 1667SOL     OW16633   1.867   2.949  16.069  0.4770 -0.1711 -0.3111
 1667SOL    HW116634   1.796   2.951  16.005  0.7924  0.7354 -0.6319
 1667SOL    HW216635   1.856   2.858  16.098  1.6345 -0.0567  0.4875
 1668SOL     OW16636   3.398   1.329   7.860 -0.3996 -0.0753 -0.2857
 1668SOL    HW116637   3.472   1.339   7.799  0.6723 -1.0750  0.8438
 1668SOL    HW216638   3.430   1.345   7.949 -2.4552 -2.2686  0.8240
 1669SOL     OW16639   2.654   3.132   2.608  0.0979  0.2591 -0.1898
 1669SOL    HW116640   2.630   3.075   2.535 -0.6263  1.7186 -1.0904
 1669SOL    HW216641   2.654   3.066   2.677 -0.7120 -0.5443 -0.9606
 1670SOL     OW16642   3.750   2.154   2.197  0.5233 -0.2799  0.2260
 1670SOL    HW116643   3.707   2.230   2.160  1.0699  0.8217  1.8488
 1670SOL    HW216644   3.726   2.085   2.134 -3.7001  2.3981 -1.0687
 1671SOL     OW16645   2.821   3.862   6.935  0.5937 -0.1019 -0.0982
 1671SOL    HW116646   2.752   3.928   6.923 -1.2246 -2.6924 -3.7271
 1671SOL    HW216647   2.891   3.918   6.969 -0.9426  1.5776  0.3396
 1672SOL     OW16648   1.391   4.231   2.488 -0.4958 -0.0360  0.9093
 1672SOL    HW116649   1.365   4.140   2.499 -0.7395 -0.0496  0.2091
 1672SOL    HW216650   1.461   4.229   2.423  0.0405 -1.1399  1.5205
 1673SOL     OW16651   0.403   0.600   3.939 -0.6593  0.1154  0.0507
 1673SOL    HW116652   0.332   0.538   3.922 -0.6993  0.0297  0.5288
 1673SOL    HW216653   0.351   0.679   3.953 -0.6379  0.2279 -0.4890
 1674SOL     OW16654   0.024   2.792   9.622  0.0281  0.5714  0.0815
 1674SOL    HW116655   4.712   2.740   9.684  1.3906  0.6834  1.2785
 1674SOL    HW216656   4.731   2.880   9.639 -0.4515  0.7788 -1.8588
 1675SOL     OW16657   3.188   2.474   5.888 -0.0430  0.2112  0.2217
 1675SOL    HW116658   3.150   2.497   5.972 -0.5013 -0.0636  0.0882
 1675SOL    HW216659   3.150   2.542   5.831  0.5484  0.6560  0.3576
 1676SOL     OW16660   2.473   3.313   2.723  0.5482  0.4764  0.0103
 1676SOL    HW116661   2.414   3.239   2.718 -1.5048  1.9516  2.7300
 1676SOL    HW216662   2.559   3.275   2.702 -0.1966 -0.3951 -1.4840
 1677SOL     OW16663   2.659   3.248   6.610 -0.2759  0.1784 -0.0642
 1677SOL    HW116664   2.680   3.297   6.689 -0.1682  1.4637 -0.8950
 1677SOL    HW216665   2.748   3.231   6.581  0.3204  2.1500  0.6644
 1678SOL     OW16666   1.706   3.623   8.185  0.4637  0.2855 -0.4724
 1678SOL    HW116667   1.693   3.713   8.156  2.5839  1.1909  1.3892
 1678SOL    HW216668   1.712   3.648   8.278  2.7428  1.3091 -0.8972
 1679SOL     OW16669   2.074   2.988   7.222  0.0710 -0.6032  0.3859
 1679SOL    HW116670   1.999   2.982   7.164 -0.8488  0.1696  1.4991
 1679SOL    HW216671   2.040   3.036   7.298  1.9923 -0.1441  0.9668
 1680SOL     OW16672   2.209   2.206   7.449 -0.1576  0.2930 -0.5427
 1680SOL    HW116673   2.209   2.113   7.472 -2.2674  0.7600  1.2472
 1680SOL    HW216674   2.257   2.203   7.366 -2.3941 -0.2097 -1.7901
 1681SOL     OW16675   2.459   1.123   5.240  0.0261  0.3575  0.3501
 1681SOL    HW116676   2.381   1.090   5.284 -0.8561  1.4297 -0.4055
 1681SOL    HW216677   2.470   1.213   5.271  0.4281  0.2315  0.5566
 1682SOL     OW16678   4.355   4.165   4.092  0.3984  0.3602  0.3717
 1682SOL    HW116679   4.267   4.172   4.129 -0.2702  1.0156 -1.3660
 1682SOL    HW216680   4.350   4.076   4.057  0.0738  0.4629  0.1591
 1683SOL     OW16681   0.595   0.715   0.915 -0.3269 -0.0466 -0.1149
 1683SOL    HW116682   0.653   0.775   0.964 -1.4075  1.3771 -0.5711
 1683SOL    HW216683   0.616   0.732   0.823 -1.0284  0.8764 -0.1039
 1684SOL     OW16684   2.125   2.849   9.835 -0.1789 -0.5659  0.0806
 1684SOL    HW116685   2.063   2.786   9.871 -0.1073 -1.0683 -0.6887
 1684SOL    HW216686   2.129   2.813   9.747 -0.2949  2.2737 -1.0747
 1685SOL     OW16687   2.748   4.708   9.183 -0.0237  0.3423 -0.3271
 1685SOL    HW116688   2.830   0.011   9.213  1.1893 -3.4035  1.4438
 1685SOL    HW216689   2.699   0.041   9.141  2.4822  1.5001 -1.3223
 1686SOL     OW16690   0.283   4.259  17.135 -0.1980 -0.6876 -0.3211
 1686SOL    HW116691   0.298   4.277  17.227 -0.2186  0.6177 -0.5802
 1686SOL    HW216692   0.272   4.164  17.130 -0.8722 -0.6604  0.6871
 1687SOL     OW16693   3.774   2.427  12.815 -0.1292  0.4139 -0.0609
 1687SOL    HW116694   3.782   2.344  12.767 -3.1359 -0.1510  0.3931
 1687SOL    HW216695   3.689   2.422  12.859 -0.6438 -0.3958 -1.1540
 1688SOL     OW16696   1.025   4.022   8.813 -0.3662  0.4295 -0.0481
 1688SOL    HW116697   0.941   4.039   8.771 -0.1651 -1.4626 -1.1792
 1688SOL    HW216698   1.065   3.970   8.743 -1.2539 -0.5912  0.2055
 1689SOL     OW16699   3.821   3.289   2.799 -0.3373 -0.0299 -0.5160
 1689SOL    HW116700   3.758   3.310   2.868 -2.0959  0.3130 -2.2125
 1689SOL    HW216701   3.788   3.353   2.736  1.0850  2.6546  1.4401
 1690SOL     OW16702   1.080   0.039   6.750  0.1512 -0.2472 -0.4580
 1690SOL    HW116703   0.997   4.729   6.742 -0.7564  1.2358  0.0664
 1690SOL    HW216704   1.073   0.078   6.837  1.0448 -0.8581 -0.1158
 1691SOL     OW16705   0.915   2.636   7.600 -0.0965 -0.4388 -0.4624
 1691SOL    HW116706   0.927   2.725   7.633  0.3201 -1.1811  1.3699
 1691SOL    HW216707   0.961   2.637   7.515  1.6953 -1.3274  0.4960
 1692SOL     OW16708   0.417   0.678   5.411  0.3389  0.6158  0.6954
 1692SOL    HW116709   0.412   0.757   5.357  2.9091  0.8318  0.7765
 1692SOL    HW216710   0.510   0.658   5.415  0.6202  1.4104 -1.6148
 1693SOL     OW16711   3.878   4.627   8.474  0.5632 -0.3347 -0.2362
 1693SOL    HW116712   3.947   4.676   8.430 -0.9642  0.8404 -1.3346
 1693SOL    HW216713   3.831   4.708   8.495  0.4973 -0.2172 -0.8354
 1694SOL     OW16714   0.036   3.453  13.399  0.3560  0.4775 -0.6781
 1694SOL    HW116715   0.024   3.492  13.486  0.3628  1.1075 -0.9602
 1694SOL    HW216716   0.130   3.469  13.389  0.6101 -2.1821 -2.2876
 1695SOL     OW16717   0.684   4.259   3.236 -0.1120 -0.1540 -0.0396
 1695SOL    HW116718   0.663   4.252   3.143  1.8009 -0.2494 -0.4432
 1695SOL    HW216719   0.766   4.308   3.231 -0.2052  0.0181  0.1139
 1696SOL     OW16720   4.533   4.357   4.871  0.5602  0.4099 -0.4647
 1696SOL    HW116721   4.534   4.311   4.787  1.1649  1.4304 -1.0129
 1696SOL    HW216722   4.507   4.445   4.844  0.2705 -0.0268 -1.5921
 1697SOL     OW16723   2.762   0.737  11.244 -0.2421  0.2535  0.5356
 1697SOL    HW116724   2.758   0.642  11.252 -0.3667  0.1028 -1.4704
 1697SOL    HW216725   2.734   0.758  11.334  0.0447  1.3971  0.3594
 1698SOL     OW16726   3.286   2.981   2.190  0.7528  0.2859  0.3520
 1698SOL    HW116727   3.292   2.996   2.284 -1.7569  2.2382  0.1822
 1698SOL    HW216728   3.321   2.892   2.180  1.6075  0.6055  0.4754
 1699SOL     OW16729   1.700   0.643   5.907  0.1479 -0.1209  0.2423
 1699SOL    HW116730   1.757   0.567   5.894 -0.2508 -0.1774 -1.1449
 1699SOL    HW216731   1.760   0.714   5.888  0.3191 -0.9819 -2.4873
 1700SOL     OW16732   1.791   2.724   3.654 -0.4127 -0.4592  0.6096
 1700SOL    HW116733   1.763   2.729   3.563  2.4075  0.7967 -0.1925
 1700SOL    HW216734   1.871   2.776   3.662 -0.3646 -0.4070 -0.2127
 1701SOL     OW16735   1.430   4.420  11.374 -0.0655  0.5195  0.5549
 1701SOL    HW116736   1.368   4.403  11.303  1.9379  0.5706 -1.1972
 1701SOL    HW216737   1.362   4.437  11.440  1.6977 -0.0868  2.5362
 1702SOL     OW16738   3.696   1.283   7.625  0.3781 -0.0017  0.2678
 1702SOL    HW116739   3.693   1.356   7.563 -1.4306  0.5530  0.9936
 1702SOL    HW216740   3.749   1.317   7.696  2.1092 -0.2343 -0.9071
 1703SOL     OW16741   3.218   1.677   6.445 -0.2862 -0.5906  0.0511
 1703SOL    HW116742   3.154   1.614   6.411 -1.3639 -0.5614  2.0782
 1703SOL    HW216743   3.192   1.671   6.536 -0.4418  3.0056  0.2367
 1704SOL     OW16744   4.058   4.119   6.327 -0.1231  0.0671 -0.3128
 1704SOL    HW116745   4.044   4.025   6.316  2.0945 -0.2489 -0.4822
 1704SOL    HW216746   3.981   4.139   6.380  1.4727  1.5903  1.4081
 1705SOL     OW16747   4.292   0.897   0.291  0.6000 -0.0656 -0.2652
 1705SOL    HW116748   4.211   0.888   0.341  1.6723  0.8174  1.6170
 1705SOL    HW216749   4.268   0.974   0.241  0.6398 -0.1970 -0.4859
 1706SOL     OW16750   1.070   0.604   2.003  0.6792 -0.2553 -0.0984
 1706SOL    HW116751   1.154   0.600   2.050  0.4840  1.7883  0.4080
 1706SOL    HW216752   1.097   0.628   1.915  2.7239 -0.9699  0.3331
 1707SOL     OW16753   3.190   3.029   4.107  0.2390 -0.2818  0.2217
 1707SOL    HW116754   3.282   3.023   4.080  0.4674  0.9259  0.7256
 1707SOL    HW216755   3.191   2.993   4.195 -0.4383  1.5066  0.9585
 1708SOL     OW16756   2.969   1.357   6.625 -0.1651  0.5366  0.9484
 1708SOL    HW116757   2.944   1.310   6.705  0.7917  0.7118  1.3565
 1708SOL    HW216758   3.038   1.412   6.663  0.8168 -0.2600  0.3024
 1709SOL     OW16759   0.662   0.810   6.190 -0.3258 -0.8523  0.1935
 1709SOL    HW116760   0.610   0.752   6.135  0.2002 -0.6628 -0.4974
 1709SOL    HW216761   0.596   0.876   6.215 -1.0603 -1.5745  0.1611
 1710SOL     OW16762   0.614   2.757   5.303 -0.1419 -0.3380  0.9955
 1710SOL    HW116763   0.583   2.740   5.214  0.0767 -1.9603  1.2282
 1710SOL    HW216764   0.541   2.808   5.337 -2.1270 -2.3913 -0.1153
 1711SOL     OW16765   1.454   0.299   0.762  0.6852 -0.4653  0.1263
 1711SOL    HW116766   1.547   0.322   0.761  1.0947 -2.0328  2.5389
 1711SOL    HW216767   1.443   0.268   0.672  1.3519 -0.4689  0.0447
 1712SOL     OW16768   3.441   1.234   8.816  0.0391 -0.4971 -0.3702
 1712SOL    HW116769   3.424   1.157   8.761 -0.9662  0.1821 -1.0222
 1712SOL    HW216770   3.422   1.206   8.905 -1.4312 -3.9993 -1.8107
 1713SOL     OW16771   1.618   3.604   7.632  0.5091 -0.3026 -0.4614
 1713SOL    HW116772   1.618   3.603   7.727 -3.1001 -3.8627 -0.4765
 1713SOL    HW216773   1.701   3.557   7.619  2.3272  3.1831 -1.5096
 1714SOL     OW16774   3.538   2.108   0.192 -0.3445  0.4027  0.4581
 1714SOL    HW116775   3.611   2.053   0.219 -1.1609 -0.1665  1.5426
 1714SOL    HW216776   3.473   2.038   0.176 -0.1028  0.9249 -2.7848
 1715SOL     OW16777   3.588   4.650   6.141 -0.2555 -0.2688 -0.2633
 1715SOL    HW116778   3.624   4.708   6.074  0.5627 -1.8860 -1.2223
 1715SOL    HW216779   3.611   4.566   6.101  0.8460 -0.4806  0.8061
 1716SOL     OW16780   4.307   0.990  14.881 -0.2986  0.2744  0.2784
 1716SOL    HW116781   4.365   0.923  14.918 -2.0758  0.1647  2.8214
 1716SOL    HW216782   4.245   1.006  14.951 -1.0145  0.0522 -0.3048
 1717SOL     OW16783   1.489   2.571   8.312 -0.2646 -0.1639 -0.4239
 1717SOL    HW116784   1.495   2.663   8.338 -0.4557  0.0347 -1.0683
 1717SOL    HW216785   1.443   2.531   8.385  1.7542  1.0326  1.4972
 1718SOL     OW16786   2.692   2.094   2.951  0.1791  0.1349  0.5376
 1718SOL    HW116787   2.673   2.168   3.009  4.0431 -0.9341  3.1936
 1718SOL    HW216788   2.737   2.149   2.888  1.5739 -1.0949  0.4676
 1719SOL     OW16789   0.396   0.798  13.681 -0.4328 -0.0148  0.0298
 1719SOL    HW116790   0.337   0.742  13.631 -2.4467  1.7053  0.4675
 1719SOL    HW216791   0.417   0.739  13.754  1.7769  1.8244  0.8725
 1720SOL     OW16792   3.432   1.089  13.210  0.4703 -0.0580 -0.7726
 1720SOL    HW116793   3.393   1.068  13.124  0.3026 -0.6541 -0.5492
 1720SOL    HW216794   3.523   1.062  13.203  0.3983 -0.1405 -1.4659
 1721SOL     OW16795   3.715   3.429   2.094  0.3825  0.7099  0.2914
 1721SOL    HW116796   3.798   3.398   2.057  0.5932  0.3665  1.0441
 1721SOL    HW216797   3.688   3.496   2.032 -0.6428  1.0154  1.0576
 1722SOL     OW16798   4.205   3.853   2.522  0.7171  0.2596 -0.0941
 1722SOL    HW116799   4.225   3.763   2.547 -1.8158  0.8010  3.9968
 1722SOL    HW216800   4.121   3.871   2.566 -0.9151 -0.6441 -2.8358
 1723SOL     OW16801   2.548   2.467   7.043 -0.4172  0.1893 -0.5666
 1723SOL    HW116802   2.534   2.512   6.960 -1.2573 -0.0780 -0.5645
 1723SOL    HW216803   2.504   2.528   7.101  0.5018 -2.1496  2.6063
 1724SOL     OW16804   1.884   1.477  11.024 -0.2850  0.0751 -0.2090
 1724SOL    HW116805   1.860   1.446  10.937 -2.8997  0.1926  0.4771
 1724SOL    HW216806   1.922   1.395  11.057  0.3552 -0.0738 -1.3310
 1725SOL     OW16807   3.779   3.981   5.843  0.1212  0.2150  1.0789
 1725SOL    HW116808   3.767   4.042   5.916  1.7463 -0.5144  1.9661
 1725SOL    HW216809   3.695   3.983   5.797 -0.1095 -2.5833  1.4069
 1726SOL     OW16810   2.409   4.313  15.129  0.0391  0.3188  0.1524
 1726SOL    HW116811   2.368   4.358  15.055 -1.1257 -3.3927 -1.4884
 1726SOL    HW216812   2.350   4.337  15.200 -2.2622 -0.1592 -1.5881
 1727SOL     OW16813   0.434   2.790   9.259  0.0718  0.1646  0.1454
 1727SOL    HW116814   0.380   2.829   9.328 -0.7076 -1.1798  0.2901
 1727SOL    HW216815   0.369   2.768   9.193 -0.5673 -1.1916  1.2176
 1728SOL     OW16816   3.213   4.034   4.233 -0.0801  0.4354  0.2251
 1728SOL    HW116817   3.129   4.012   4.273  1.4007 -0.5446  2.7771
 1728SOL    HW216818   3.246   4.083   4.308  0.0990 -1.3358  1.2795
 1729SOL     OW16819   2.309   0.433   1.721  0.3380 -0.3854 -0.6498
 1729SOL    HW116820   2.394   0.445   1.763 -0.8073  1.3390  1.1966
 1729SOL    HW216821   2.299   0.338   1.713  0.0126 -0.4628  0.7363
 1730SOL     OW16822   1.586   4.471   2.230 -0.1076  0.2974  0.3723
 1730SOL    HW116823   1.630   4.519   2.301  0.6974  0.7071 -0.4071
 1730SOL    HW216824   1.588   4.379   2.256  0.7614  1.0025  2.8942
 1731SOL     OW16825   3.925   3.870   3.157 -0.0724  0.4471 -0.0636
 1731SOL    HW116826   3.949   3.920   3.235  0.9516 -0.3706  0.1501
 1731SOL    HW216827   3.860   3.927   3.116 -0.9997 -0.2610  0.4130
 1732SOL     OW16828   0.356   1.093   1.680 -0.1143 -0.1728  0.0162
 1732SOL    HW116829   0.412   1.037   1.733 -0.8509 -0.4034  0.5596
 1732SOL    HW216830   0.414   1.135   1.617  1.5051 -1.0016  0.9746
 1733SOL     OW16831   1.071   1.740   8.646  0.0969 -0.3956 -0.5270
 1733SOL    HW116832   1.034   1.812   8.697 -2.9556 -1.3075 -1.4398
 1733SOL    HW216833   0.988   1.693   8.643 -0.3444  0.4452 -1.4514
 1734SOL     OW16834   0.124   0.317   2.892  0.1116 -0.0555  0.1131
 1734SOL    HW116835   0.134   0.412   2.896 -0.1883 -0.0016 -0.4083
 1734SOL    HW216836   0.214   0.295   2.868 -0.1295 -1.1989  0.2235
 1735SOL     OW16837   3.355   1.635   8.510 -0.0403  0.1878  0.3563
 1735SOL    HW116838   3.383   1.722   8.483  2.2501 -1.0630 -1.3074
 1735SOL    HW216839   3.271   1.627   8.465  1.0662  1.3206 -1.9189
 1736SOL     OW16840   2.851   0.879   1.930  0.0804 -0.1781 -0.7360
 1736SOL    HW116841   2.829   0.810   1.992 -0.5773  0.4823 -0.2457
 1736SOL    HW216842   2.898   0.826   1.865  1.3694  0.4252 -0.2815
 1737SOL     OW16843   0.654   2.981   9.394  0.4252 -0.1220  0.2968
 1737SOL    HW116844   0.605   3.058   9.368  0.3394 -0.5512 -0.7952
 1737SOL    HW216845   0.738   2.999   9.352  0.0138  2.6260  0.6570
 1738SOL     OW16846   1.621   2.607  16.633  0.0897  0.2701 -0.1958
 1738SOL    HW116847   1.701   2.560  16.657 -0.7212 -0.5562  0.8817
 1738SOL    HW216848   1.559   2.578  16.700  1.9967 -1.4107  0.8461
 1739SOL     OW16849   2.489   0.417   8.631  0.0746  0.2211 -0.4818
 1739SOL    HW116850   2.529   0.330   8.628  1.6013  0.8486  1.9807
 1739SOL    HW216851   2.503   0.447   8.542  1.7102 -0.3147 -0.4004
 1740SOL     OW16852   3.798   1.992  10.791 -0.2771  0.1145  0.1597
 1740SOL    HW116853   3.791   2.086  10.774 -2.8445 -0.2096 -0.5790
 1740SOL    HW216854   3.734   1.958  10.729  0.7163 -3.1473  0.9227
 1741SOL     OW16855   3.596   4.494   8.903  0.1377  0.4449  0.6361
 1741SOL    HW116856   3.686   4.461   8.903  0.1733  0.5591 -2.9137
 1741SOL    HW216857   3.557   4.426   8.957 -2.0262  1.4769  0.3773
 1742SOL     OW16858   0.146   1.502  10.721 -0.1396 -0.3245  0.0910
 1742SOL    HW116859   0.103   1.520  10.637  1.6682  0.9644 -0.5602
 1742SOL    HW216860   0.117   1.575  10.776  0.1907 -0.8546  0.9725
 1743SOL     OW16861   1.125   2.871   6.736 -0.5515  0.2564 -0.4498
 1743SOL    HW116862   1.124   2.885   6.641  0.9236  1.4585 -0.2811
 1743SOL    HW216863   1.184   2.940   6.766  0.4864 -0.5871 -0.5195
 1744SOL     OW16864   2.440   1.715   3.665  0.1621 -0.3006  0.1612
 1744SOL    HW116865   2.516   1.759   3.704 -0.2167 -1.1924  1.8748
 1744SOL    HW216866   2.375   1.735   3.732 -0.1402  2.0430 -0.8320
 1745SOL     OW16867   1.786   3.135   8.115 -0.4423  0.7265  0.5859
 1745SOL    HW116868   1.740   3.071   8.168 -0.7515 -1.6822 -2.6280
 1745SOL    HW216869   1.753   3.212   8.162  0.0439 -0.0066  2.1464
 1746SOL     OW16870   2.138   1.430  12.196 -0.2275  0.0256 -0.2789
 1746SOL    HW116871   2.231   1.452  12.201 -0.6843  2.1455 -0.9849
 1746SOL    HW216872   2.133   1.405  12.104 -0.5881 -1.5623  0.1699
 1747SOL     OW16873   0.183   0.248   5.577 -0.2623 -0.0547  0.6507
 1747SOL    HW116874   0.164   0.281   5.489  1.6361 -1.2343 -0.2130
 1747SOL    HW216875   0.126   0.300   5.633 -0.6043  0.5940 -0.2921
 1748SOL     OW16876   3.626   0.350   6.485 -0.3086  0.1601  0.0810
 1748SOL    HW116877   3.647   0.257   6.495  0.2183  0.3444  0.7473
 1748SOL    HW216878   3.547   0.356   6.432 -0.5345 -4.9776 -0.2333
 1749SOL     OW16879   0.075   0.794  10.517 -0.0572 -0.6850 -0.1955
 1749SOL    HW116880   0.089   0.702  10.542  0.3798 -0.1036  1.6830
 1749SOL    HW216881   0.088   0.851  10.593 -3.2488  0.9796 -0.9033
 1750SOL     OW16882   2.159   0.367   0.139 -0.3629 -0.4266 -0.2223
 1750SOL    HW116883   2.079   0.343   0.091 -0.0743 -0.4419 -0.6978
 1750SOL    HW216884   2.122   0.417   0.212 -0.7988  1.2275 -1.5584
 1751SOL     OW16885   3.523   3.921   7.910 -0.1510 -0.7714 -0.2971
 1751SOL    HW116886   3.589   3.860   7.879  0.1812  0.3109 -1.7207
 1751SOL    HW216887   3.495   3.954   7.825 -1.3078 -0.1543  0.3205
 1752SOL     OW16888   2.970   0.179   0.474 -0.0714  0.0725 -0.0166
 1752SOL    HW116889   2.946   0.092   0.441  0.1726  0.8473 -2.2370
 1752SOL    HW216890   2.882   0.216   0.477 -0.8863 -1.7209 -1.9113
 1753SOL     OW16891   2.806   3.843   5.546  0.3116 -0.2296  0.0328
 1753SOL    HW116892   2.806   3.752   5.518 -2.0939  0.5260 -2.4681
 1753SOL    HW216893   2.713   3.864   5.538  0.3882 -1.2036 -3.3323
 1754SOL     OW16894   2.624   3.996  12.219 -0.9157  0.1631 -0.5937
 1754SOL    HW116895   2.565   4.066  12.191 -3.6105 -1.4987  0.9283
 1754SOL    HW216896   2.648   4.034  12.303  0.4894 -1.6910 -0.1623
 1755SOL     OW16897   2.961   0.441   9.057 -0.5244 -0.3303 -0.1026
 1755SOL    HW116898   2.973   0.529   9.094 -1.6967 -0.4269  0.5177
 1755SOL    HW216899   3.029   0.390   9.102  0.3379 -0.2214 -1.2953
 1756SOL     OW16900   2.778   3.512   9.313 -0.2342  0.6835  0.8880
 1756SOL    HW116901   2.869   3.542   9.317 -0.1636  0.4834  0.8058
 1756SOL    HW216902   2.768   3.447   9.382  2.6344 -0.4205  0.2859
 1757SOL     OW16903   0.054   3.231   8.382 -0.2184 -0.6256 -0.0934
 1757SOL    HW116904   4.719   3.245   8.323 -1.3669  0.8665  1.6758
 1757SOL    HW216905   0.124   3.272   8.332 -0.3661  1.1678  1.1781
 1758SOL     OW16906   1.682   0.261   4.813  0.4993 -0.2623 -0.1297
 1758SOL    HW116907   1.614   0.327   4.826 -0.3147 -1.5427  2.1874
 1758SOL    HW216908   1.730   0.302   4.741 -0.4196  2.3730  0.7850
 1759SOL     OW16909   1.524   0.680   6.990 -0.4280  0.3201 -0.6530
 1759SOL    HW116910   1.517   0.586   6.972 -1.9338  0.5257 -1.1590
 1759SOL    HW216911   1.610   0.683   6.949 -0.6262 -0.5253 -1.1408
 1760SOL     OW16912   1.847   2.090   7.030 -0.2337  0.1705 -0.1115
 1760SOL    HW116913   1.867   2.046   6.948 -0.8921 -0.4218  0.0388
 1760SOL    HW216914   1.879   2.177   7.009 -0.1525  0.4345  1.0756
 1761SOL     OW16915   2.076   1.693   4.494  0.0025 -0.7595  0.3723
 1761SOL    HW116916   2.104   1.782   4.516 -1.5907 -0.4803  1.2631
 1761SOL    HW216917   2.146   1.643   4.537  0.4641 -0.5923 -0.1908
 1762SOL     OW16918   1.429   4.548   1.784 -0.0310 -0.0893  0.3654
 1762SOL    HW116919   1.465   4.630   1.818  0.1821 -0.0467  0.0371
 1762SOL    HW216920   1.385   4.510   1.860  0.8704  0.0663  0.9711
 1763SOL     OW16921   4.180   2.668   2.533  0.1530 -0.5052  0.1664
 1763SOL    HW116922   4.135   2.752   2.527  2.0686  0.5843  0.8817
 1763SOL    HW216923   4.111   2.618   2.490 -1.1782  0.2295  1.4700
 1764SOL     OW16924   3.045   4.245   9.263 -0.0865  0.1917  0.7787
 1764SOL    HW116925   3.040   4.325   9.316 -0.3261  0.6378  0.0774
 1764SOL    HW216926   2.969   4.261   9.207 -0.8221 -1.1411  1.4098
 1765SOL     OW16927   4.480   3.258   4.493 -0.1988 -0.1435 -0.4832
 1765SOL    HW116928   4.498   3.170   4.527 -2.0255 -0.0859  0.6333
 1765SOL    HW216929   4.510   3.308   4.569 -0.5552 -0.1975 -0.3071
 1766SOL     OW16930   2.069   3.305   5.721 -0.2809  0.5055  0.3676
 1766SOL    HW116931   2.041   3.240   5.786  2.9231 -0.0299  1.2192
 1766SOL    HW216932   2.162   3.307   5.701 -0.4993 -0.7151 -0.7001
 1767SOL     OW16933   3.510   3.736   7.491  0.3218 -0.1825  0.0054
 1767SOL    HW116934   3.538   3.759   7.579 -0.3695 -1.5371  0.5810
 1767SOL    HW216935   3.518   3.813   7.434 -1.7233  1.6351  2.1948
 1768SOL     OW16936   3.362   1.699   6.931 -0.3703 -0.0900 -0.3419
 1768SOL    HW116937   3.434   1.749   6.969 -0.0644 -0.1181 -0.8931
 1768SOL    HW216938   3.406   1.648   6.863  0.3433  1.3643 -0.9666
 1769SOL     OW16939   0.416   4.327   5.716  0.3019  0.2304  0.4169
 1769SOL    HW116940   0.464   4.364   5.641 -1.2950  0.2213 -0.6232
 1769SOL    HW216941   0.430   4.400   5.776  0.0013  0.7797 -0.1738
 1770SOL     OW16942   1.229   0.241   8.381 -0.4650  0.0510 -0.0769
 1770SOL    HW116943   1.258   0.317   8.431  1.4962  0.6501 -2.1093
 1770SOL    HW216944   1.302   0.182   8.402 -0.2466  1.3033  2.7106
 1771SOL     OW16945   2.357   2.719   4.571  0.1282 -0.5839  0.3577
 1771SOL    HW116946   2.429   2.673   4.613  1.0827 -1.2778 -2.0561
 1771SOL    HW216947   2.390   2.808   4.585 -1.2753  0.0138 -0.0405
 1772SOL     OW16948   3.865   0.437   8.057 -0.3320 -0.2049 -0.1252
 1772SOL    HW116949   3.890   0.526   8.083  1.1635 -0.4167 -0.8761
 1772SOL    HW216950   3.777   0.435   8.093 -2.0520  0.8447 -4.2673
 1773SOL     OW16951   3.820   4.619   9.312 -0.0442 -0.0821  0.1740
 1773SOL    HW116952   3.846   4.536   9.273  2.6746  0.4145  0.9531
 1773SOL    HW216953   3.807   4.592   9.403 -0.5208 -3.1466 -0.8146
 1774SOL     OW16954   1.847   0.249  10.460 -1.1340  0.2528 -0.1876
 1774SOL    HW116955   1.924   0.285  10.416  1.5382 -4.4980  0.6148
 1774SOL    HW216956   1.872   0.265  10.551 -0.9306 -3.6537  0.4199
 1775SOL     OW16957   2.018   1.420   7.399 -0.1368 -0.3535  0.0314
 1775SOL    HW116958   1.951   1.354   7.380  1.8968 -2.6296  0.8207
 1775SOL    HW216959   1.974   1.476   7.463  3.8339  1.4909  1.1225
 1776SOL     OW16960   2.234   4.509   3.536 -0.0733 -0.1879 -0.0900
 1776SOL    HW116961   2.159   4.516   3.477  1.1980  1.2393 -1.5664
 1776SOL    HW216962   2.276   4.595   3.537  0.6433 -0.5411  0.4450
 1777SOL     OW16963   0.352   4.057  13.967  0.5500 -0.6724  0.0302
 1777SOL    HW116964   0.423   4.122  13.968  0.0826 -0.1361 -2.1065
 1777SOL    HW216965   0.282   4.111  14.005  0.7291 -1.3965  1.3861
 1778SOL     OW16966   0.520   0.494   2.046  0.1214  0.0957  0.1340
 1778SOL    HW116967   0.566   0.424   2.093  0.6986 -0.0932 -0.7054
 1778SOL    HW216968   0.433   0.481   2.085  0.0378 -0.0219 -0.0921
 1779SOL     OW16969   0.159   4.365   5.873  0.1459 -0.0762 -0.4358
 1779SOL    HW116970   0.215   4.441   5.854 -1.9775  1.1627 -1.8196
 1779SOL    HW216971   0.211   4.290   5.845  1.5460  0.6937  0.0359
 1780SOL     OW16972   4.574   1.111   8.682  0.2336  0.4193  0.0862
 1780SOL    HW116973   4.531   1.165   8.616  2.0179 -0.7635 -2.0271
 1780SOL    HW216974   4.503   1.053   8.711  2.0572 -1.5069  0.6932
 1781SOL     OW16975   2.710   2.151  17.128 -0.0594 -0.4104 -0.4355
 1781SOL    HW116976   2.652   2.130  17.202  1.2106  0.1007  0.6983
 1781SOL    HW216977   2.785   2.095  17.145  0.5733  0.9318  1.1194
 1782SOL     OW16978   4.347   4.129   9.706  0.4055 -0.2563 -0.2266
 1782SOL    HW116979   4.362   4.054   9.763  0.7461  0.8368  1.1278
 1782SOL    HW216980   4.388   4.197   9.759  1.9136 -0.6000 -0.9525
 1783SOL     OW16981   0.052   3.499   1.707  1.4566 -0.5048  0.4886
 1783SOL    HW116982   0.084   3.587   1.689  0.5413 -0.0212  1.2265
 1783SOL    HW216983   4.716   3.483   1.650  0.7306 -2.9133  2.1219
 1784SOL     OW16984   1.094   0.701   9.171 -0.5903  0.0158  0.2136
 1784SOL    HW116985   0.998   0.705   9.167 -0.5152  0.9666 -0.5671
 1784SOL    HW216986   1.126   0.750   9.095  1.4067 -1.9923 -0.2326
 1785SOL     OW16987   3.939   2.916   3.618  0.2249 -0.0031 -0.0930
 1785SOL    HW116988   3.878   2.847   3.593  0.0451  0.0140  0.2952
 1785SOL    HW216989   3.894   2.944   3.698  0.1612  2.4686 -0.9947
 1786SOL     OW16990   3.961   1.302   2.323 -0.8245  0.9456  0.4013
 1786SOL    HW116991   4.049   1.332   2.348 -0.7004 -0.1049  1.2218
 1786SOL    HW216992   3.914   1.374   2.365  1.7758  1.7532  1.9394
 1787SOL     OW16993   2.793   0.065   3.343  0.0526  0.3953  0.5483
 1787SOL    HW116994   2.860   0.007   3.381  0.3923  0.5598  0.1939
 1787SOL    HW216995   2.790   0.024   3.257  3.9182  0.1438  0.5162
 1788SOL     OW16996   4.013   4.200  12.046  0.3507 -0.1739  0.2339
 1788SOL    HW116997   4.020   4.226  12.138 -1.5221 -0.4239  0.4408
 1788SOL    HW216998   4.074   4.126  12.041 -1.7761 -1.9168  0.0101
 1789SOL     OW16999   0.283   4.074   7.649  0.1711 -0.3529  0.6105
 1789SOL    HW117000   0.275   3.979   7.649 -0.4061 -0.3063  0.2294
 1789SOL    HW217001   0.268   4.088   7.743 -1.8921 -1.4698  0.4587
 1790SOL     OW17002   1.694   0.415   5.091 -0.1975  0.2101 -0.1275
 1790SOL    HW117003   1.782   0.405   5.053 -0.9649 -0.7304 -1.6460
 1790SOL    HW217004   1.693   0.507   5.118  1.7086  0.0954  0.3709
 1791SOL     OW17005   1.938   4.654   8.736  0.1700 -0.1082  0.6939
 1791SOL    HW117006   1.962   4.625   8.824  0.1419  0.7284  0.9798
 1791SOL    HW217007   1.877   4.725   8.755 -0.5639 -0.8105  0.9513
 1792SOL     OW17008   4.278   1.074  14.616 -0.1421 -0.7630 -0.0423
 1792SOL    HW117009   4.264   1.003  14.679  2.7106  0.8415  2.3890
 1792SOL    HW217010   4.371   1.090  14.631 -0.4871  1.0907  0.1204
 1793SOL     OW17011   2.268   4.461   9.931 -0.2235  0.2615 -0.3076
 1793SOL    HW117012   2.206   4.517   9.884 -0.0266 -1.7170 -2.8522
 1793SOL    HW217013   2.223   4.480  10.014  2.3345 -1.8708  1.5431
 1794SOL     OW17014   1.188   1.662   8.394  0.5830  0.1905  0.2811
 1794SOL    HW117015   1.136   1.582   8.407  1.5800 -0.2261  1.7768
 1794SOL    HW217016   1.159   1.708   8.473 -0.8621  1.0708 -0.7805
 1795SOL     OW17017   1.808   2.027   7.649 -0.0646 -0.2185  0.0174
 1795SOL    HW117018   1.718   1.995   7.642 -0.7306  1.1856  2.2531
 1795SOL    HW217019   1.816   2.100   7.587  1.4467 -0.9506 -0.6481
 1796SOL     OW17020   2.400   2.054  12.903  0.0398 -0.4970  0.5353
 1796SOL    HW117021   2.397   1.980  12.842 -2.2177  0.2638 -0.2596
 1796SOL    HW217022   2.337   2.120  12.876 -2.2856 -2.4654  1.1199
 1797SOL     OW17023   4.505   2.434   1.067  0.1003 -0.1346  0.1746
 1797SOL    HW117024   4.484   2.343   1.087  0.8481 -0.4071 -0.2915
 1797SOL    HW217025   4.533   2.477   1.148 -0.5052 -0.2479  0.4456
 1798SOL     OW17026   2.049   0.553   4.232 -0.4222  0.2579  0.0556
 1798SOL    HW117027   2.044   0.642   4.198  1.1952  0.1735 -0.3662
 1798SOL    HW217028   1.970   0.562   4.286  0.4405 -1.0775  1.5157
 1799SOL     OW17029   3.126   2.245   3.835  0.3411  1.4183 -0.0243
 1799SOL    HW117030   3.054   2.262   3.774 -0.8508 -0.4181  0.8919
 1799SOL    HW217031   3.168   2.170   3.793 -1.0610  0.7833 -0.3042
 1800SOL     OW17032   1.317   2.364   6.548 -0.3752 -0.2048 -0.1542
 1800SOL    HW117033   1.261   2.351   6.471 -3.2284 -3.2787  2.4480
 1800SOL    HW217034   1.278   2.447   6.575 -0.6589 -1.1094  2.1899
 1801SOL     OW17035   3.854   4.124   3.418  0.2359 -0.0038  0.0682
 1801SOL    HW117036   3.821   4.115   3.508 -1.6345  0.3340 -0.5941
 1801SOL    HW217037   3.936   4.075   3.406  0.8476  0.4638  2.3661
 1802SOL     OW17038   0.870   1.360   4.136 -0.2526 -0.0128  0.1275
 1802SOL    HW117039   0.804   1.291   4.131  1.5184 -1.6389 -0.6525
 1802SOL    HW217040   0.906   1.353   4.048  1.5668  0.7302  0.8107
 1803SOL     OW17041   2.152   3.497   7.453 -0.7745  0.4307 -0.7573
 1803SOL    HW117042   2.141   3.446   7.373 -0.1090 -2.7230  1.1797
 1803SOL    HW217043   2.195   3.431   7.506 -1.0981  0.3017 -0.6541
 1804SOL     OW17044   0.595   4.239  16.501 -0.0228  0.4820  0.2844
 1804SOL    HW117045   0.688   4.258  16.501  0.4615 -1.9190  1.6587
 1804SOL    HW217046   0.564   4.319  16.543 -1.3007 -0.3511  0.9403
 1805SOL     OW17047   1.847   2.039   4.745 -0.0017  0.3416  0.0525
 1805SOL    HW117048   1.914   2.102   4.774  0.1825  0.6579 -1.0432
 1805SOL    HW217049   1.873   1.960   4.793  2.0678  0.2540 -1.2171
 1806SOL     OW17050   0.010   1.660   8.376 -0.0536  0.1054 -0.0149
 1806SOL    HW117051   4.677   1.714   8.408  0.4257 -0.2570  1.6372
 1806SOL    HW217052   4.709   1.580   8.342 -0.2296 -0.1551  0.8032
 1807SOL     OW17053   2.617   0.379   3.060  0.3592 -0.6116  0.2034
 1807SOL    HW117054   2.579   0.444   3.001  0.9823 -0.7107 -0.3034
 1807SOL    HW217055   2.535   0.344   3.097  0.6135 -1.0922  0.3129
 1808SOL     OW17056   2.573   0.663   5.984  0.3191  0.1219  0.0836
 1808SOL    HW117057   2.574   0.716   6.064  0.4565 -1.6860  1.2738
 1808SOL    HW217058   2.654   0.692   5.941  0.2182  0.2926  0.0099
 1809SOL     OW17059   3.477   4.596  14.364  0.3260  0.2255  0.5661
 1809SOL    HW117060   3.406   4.579  14.425 -0.9978 -1.3169 -1.3830
 1809SOL    HW217061   3.526   4.516  14.384  0.6920  0.2366 -0.2715
 1810SOL     OW17062   0.226   2.113  10.606 -0.0758 -1.0561  0.3797
 1810SOL    HW117063   0.194   2.047  10.544 -2.4351 -2.6355  3.2706
 1810SOL    HW217064   0.216   2.193  10.554 -1.1662 -2.3607 -1.3910
 1811SOL     OW17065   3.238   4.666   8.494  0.2137 -0.1103  0.2686
 1811SOL    HW117066   3.333   4.654   8.495  0.2829  0.3623 -0.4261
 1811SOL    HW217067   3.233   4.700   8.584 -2.5124 -1.6701  0.7010
 1812SOL     OW17068   1.088   0.540   2.600 -0.3372  0.4591  0.5048
 1812SOL    HW117069   1.068   0.514   2.690  1.6124 -0.6760  0.5959
 1812SOL    HW217070   1.173   0.498   2.592 -0.4820  0.4569 -1.0234
 1813SOL     OW17071   1.595   2.017   9.533 -0.0932 -0.3447 -0.3785
 1813SOL    HW117072   1.665   2.005   9.469 -0.5335  1.3876 -1.1848
 1813SOL    HW217073   1.591   2.111   9.548  1.9568 -0.4184  0.6187
 1814SOL     OW17074   1.003   3.855   5.242  0.0267  0.5888  0.0781
 1814SOL    HW117075   0.986   3.860   5.148  0.3704 -1.6490 -0.0860
 1814SOL    HW217076   0.987   3.762   5.259  0.1178  0.7649  1.1677
 1815SOL     OW17077   3.272   3.992   7.015  0.1364 -0.6257  0.2085
 1815SOL    HW117078   3.304   3.956   6.932 -2.5286 -0.9849 -0.6523
 1815SOL    HW217079   3.297   4.084   7.009 -2.3209  0.0629  0.7911
 1816SOL     OW17080   4.536   2.022   3.992 -0.2364  0.3845  0.1497
 1816SOL    HW117081   4.512   2.103   3.947  0.1868 -0.1935 -1.1278
 1816SOL    HW217082   4.479   2.031   4.068 -0.5628 -0.2408 -0.0266
 1817SOL     OW17083   2.188   1.813   6.835 -0.1122 -0.7037  0.4882
 1817SOL    HW117084   2.281   1.832   6.844 -0.0821 -0.7343  0.2311
 1817SOL    HW217085   2.188   1.748   6.906 -1.2403 -2.1039 -0.7817
 1818SOL     OW17086   2.513   1.084  16.648 -0.4704 -0.1327  0.4064
 1818SOL    HW117087   2.489   1.124  16.731  1.3922  1.3979  0.2047
 1818SOL    HW217088   2.574   1.024  16.691 -1.0629 -0.2218  1.1347
 1819SOL     OW17089   3.259   3.088   4.900  0.1793  0.0512  0.3997
 1819SOL    HW117090   3.298   3.133   4.825 -0.4657 -0.1153 -0.0372
 1819SOL    HW217091   3.337   3.046   4.936  0.2896  0.9654  1.2442
 1820SOL     OW17092   4.000   3.061  11.314  0.6138  0.4521  0.2899
 1820SOL    HW117093   4.049   3.059  11.232  1.4614  3.4381  0.7367
 1820SOL    HW217094   4.020   2.978  11.356  0.2600 -0.9300 -2.2883
 1821SOL     OW17095   3.562   0.849   7.858 -0.0731  0.1497 -0.0245
 1821SOL    HW117096   3.540   0.941   7.867  2.8555  0.7097  1.3108
 1821SOL    HW217097   3.513   0.815   7.934 -1.6421  0.4018 -0.9206
 1822SOL     OW17098   1.394   0.893  11.307 -0.0350 -0.4926 -0.6409
 1822SOL    HW117099   1.394   0.899  11.403 -1.9636  0.1667 -0.6737
 1822SOL    HW217100   1.479   0.853  11.289 -0.1582 -1.4299  0.8986
 1823SOL     OW17101   1.189   4.121   1.661  0.5211 -0.7635 -0.0746
 1823SOL    HW117102   1.233   4.163   1.587 -1.9654 -0.2929 -1.2803
 1823SOL    HW217103   1.247   4.148   1.732 -2.1793  1.4954  1.2656
 1824SOL     OW17104   3.588   0.623   9.662 -0.7017  0.4143 -0.0601
 1824SOL    HW117105   3.547   0.703   9.629 -1.6839  0.2459  0.7560
 1824SOL    HW217106   3.647   0.663   9.727  0.4416 -1.0716 -0.1961
 1825SOL     OW17107   4.040   4.268   0.042  0.0738  0.2480  0.3504
 1825SOL    HW117108   4.036   4.229   0.129 -2.0526  2.9832  1.4502
 1825SOL    HW217109   4.129   4.302   0.051  0.0823 -0.2033  2.0344
 1826SOL     OW17110   1.220   3.701   5.585  0.0686 -0.2050 -0.2740
 1826SOL    HW117111   1.131   3.691   5.552  0.9725 -0.1095 -2.7350
 1826SOL    HW217112   1.252   3.614   5.610 -0.5519 -1.2760 -3.2366
 1827SOL     OW17113   1.551   3.467   5.138  0.0551 -0.1296  0.1138
 1827SOL    HW117114   1.605   3.420   5.073 -0.0710 -0.1415  0.0179
 1827SOL    HW217115   1.582   3.557   5.143  1.1876 -0.5927  1.4260
 1828SOL     OW17116   2.390   0.639   3.500 -0.3200  0.7518 -0.5865
 1828SOL    HW117117   2.331   0.599   3.564  1.3696  1.4632  1.3895
 1828SOL    HW217118   2.437   0.563   3.464 -1.4475 -1.1533  1.8993
 1829SOL     OW17119   3.925   0.682   7.225 -0.3593 -0.1396 -0.3287
 1829SOL    HW117120   3.891   0.770   7.242 -1.3600 -0.2307 -1.9259
 1829SOL    HW217121   3.888   0.629   7.296  0.1095  1.2995  1.0016
 1830SOL     OW17122   1.819   3.127   5.618  0.0716  0.7494 -0.0051
 1830SOL    HW117123   1.885   3.086   5.562  1.6377  0.9737  1.6643
 1830SOL    HW217124   1.810   3.215   5.583  0.9857  1.1961  0.8745
 1831SOL     OW17125   2.808   2.825   4.107  0.0618 -0.5302 -0.1011
 1831SOL    HW117126   2.855   2.748   4.139 -0.8496 -0.8105  0.5686
 1831SOL    HW217127   2.856   2.850   4.028 -0.2184  0.6928  0.1098
 1832SOL     OW17128   0.653   4.467   7.834 -0.3262  0.0279  1.2577
 1832SOL    HW117129   0.682   4.547   7.878 -2.3635  1.7834 -0.6584
 1832SOL    HW217130   0.603   4.418   7.900  2.1631 -3.3942  0.6052
 1833SOL     OW17131   2.241   2.148   1.465 -0.3438  0.2258 -0.0824
 1833SOL    HW117132   2.172   2.178   1.525  0.6579  0.1181  1.1437
 1833SOL    HW217133   2.319   2.157   1.519 -0.7163 -0.8926  0.6463
 1834SOL     OW17134   2.943   4.630  16.670 -0.2279  0.5507 -0.0522
 1834SOL    HW117135   2.895   4.711  16.650 -1.1380 -0.3998 -1.7372
 1834SOL    HW217136   3.025   4.664  16.706 -1.1332  1.3678  1.2110
 1835SOL     OW17137   3.982   2.474   7.583  0.0714  0.3575 -0.3028
 1835SOL    HW117138   4.030   2.441   7.660  0.8566  2.5088  0.1155
 1835SOL    HW217139   4.039   2.549   7.566 -1.1279  1.5915  1.1069
 1836SOL     OW17140   1.868   1.578   0.459 -0.1593  0.0601 -0.0697
 1836SOL    HW117141   1.961   1.587   0.440 -0.1596  1.0952  0.4597
 1836SOL    HW217142   1.862   1.518   0.533  2.4141  0.2547  0.2772
 1837SOL     OW17143   4.003   2.113  11.652  0.5353 -0.4526  0.2281
 1837SOL    HW117144   4.008   2.047  11.721  0.9464 -1.7678 -1.0614
 1837SOL    HW217145   3.911   2.097  11.630  0.7587  0.4840 -1.4304
 1838SOL     OW17146   0.149   1.019   2.004 -0.0950 -0.4659 -0.5394
 1838SOL    HW117147   0.226   0.962   2.004  0.9977  1.0244  0.1609
 1838SOL    HW217148   0.075   0.958   2.005 -0.4830 -0.0028 -2.0527
 1839SOL     OW17149   3.990   2.496  16.640  0.6919 -1.0655  0.0149
 1839SOL    HW117150   4.033   2.518  16.722  1.8795 -1.7376 -0.4207
 1839SOL    HW217151   4.029   2.556  16.577  0.4322 -1.9204 -0.9685
 1840SOL     OW17152   1.970   4.538  16.532 -0.8486 -0.0549  0.7294
 1840SOL    HW117153   2.022   4.547  16.452 -1.9567 -1.1265 -0.1238
 1840SOL    HW217154   1.882   4.537  16.493 -0.4810  0.1814 -0.1157
 1841SOL     OW17155   0.288   4.490  11.451 -0.2592 -0.0437  0.6066
 1841SOL    HW117156   0.251   4.575  11.472 -1.5754 -0.3156 -0.6221
 1841SOL    HW217157   0.379   4.518  11.440 -0.3280 -0.5837 -1.2576
 1842SOL     OW17158   3.068   2.746  16.682  0.3771  0.1422  0.1531
 1842SOL    HW117159   3.129   2.687  16.727  1.5472 -0.2593 -1.9014
 1842SOL    HW217160   3.017   2.696  16.618  0.6335  0.8204 -0.5887
 1843SOL     OW17161   2.352   3.918   4.672  0.1842 -0.3317 -0.1674
 1843SOL    HW117162   2.305   3.990   4.714  1.8448  0.4033  0.4132
 1843SOL    HW217163   2.292   3.843   4.672 -1.6083  1.0958  1.3957
 1844SOL     OW17164   3.735   1.602   4.159 -0.2149 -0.3122 -0.2760
 1844SOL    HW117165   3.801   1.665   4.131 -1.8825  0.6592 -1.9382
 1844SOL    HW217166   3.659   1.654   4.186 -0.5650 -0.5315 -0.8426
 1845SOL     OW17167   3.457   3.319   6.829 -0.4890  0.2631 -0.0479
 1845SOL    HW117168   3.520   3.376   6.786 -1.3457  1.5258  0.3635
 1845SOL    HW217169   3.509   3.297   6.907  0.6455 -0.1716 -0.9253
 1846SOL     OW17170   1.557   2.016   8.672  0.1013 -0.0592 -0.2547
 1846SOL    HW117171   1.646   1.985   8.653  0.7265  1.3056  0.4400
 1846SOL    HW217172   1.544   1.971   8.756  0.0448  2.3920  1.0288
 1847SOL     OW17173   1.960   1.784   6.183 -0.7109 -0.2696 -0.0012
 1847SOL    HW117174   2.017   1.807   6.256  3.5373 -0.0102 -3.3971
 1847SOL    HW217175   2.023   1.798   6.112 -0.2187  1.0126  0.6936
 1848SOL     OW17176   2.906   4.521   4.932  0.3223  0.6728 -0.1107
 1848SOL    HW117177   2.855   4.471   4.995  0.9759  0.1341 -0.0120
 1848SOL    HW217178   2.980   4.533   4.991  1.0296  1.5328 -1.1463
 1849SOL     OW17179   0.705   3.456   0.439  0.0260 -0.2367 -0.5144
 1849SOL    HW117180   0.632   3.435   0.496  0.6330  1.1914  0.7949
 1849SOL    HW217181   0.749   3.532   0.477 -1.2682  0.1746  0.1644
 1850SOL     OW17182   3.971   1.326   9.495  0.2576 -0.1146  0.7983
 1850SOL    HW117183   3.985   1.358   9.406 -1.8681 -0.5348  0.3306
 1850SOL    HW217184   3.913   1.396   9.527  0.0628 -0.9089  2.1677
 1851SOL     OW17185   1.114   3.785   3.379  0.2193 -0.2725 -0.5703
 1851SOL    HW117186   1.172   3.733   3.323  0.8283  0.8054 -0.9429
 1851SOL    HW217187   1.164   3.823   3.452  0.6682  0.7843 -1.4262
 1852SOL     OW17188   4.425   3.470   7.214  0.5650 -0.0651  0.2926
 1852SOL    HW117189   4.478   3.400   7.253  0.6302 -0.4921 -0.5728
 1852SOL    HW217190   4.342   3.456   7.261  0.6900  0.8024  0.7737
 1853SOL     OW17191   3.429   1.321   3.431 -0.2060 -0.0183  0.2116
 1853SOL    HW117192   3.477   1.367   3.363 -0.9630 -0.4499 -0.6258
 1853SOL    HW217193   3.358   1.298   3.370  0.6277  1.0701 -1.1456
 1854SOL     OW17194   0.263   0.002   8.956 -0.6665 -0.5257 -0.3427
 1854SOL    HW117195   0.172   4.711   8.956 -0.4709 -1.1232  0.5166
 1854SOL    HW217196   0.278   0.012   9.050 -0.6326  2.8524 -0.7099
 1855SOL     OW17197   2.120   2.690   5.335 -0.1388 -0.0902  0.3882
 1855SOL    HW117198   2.189   2.748   5.302 -0.9334  1.1891  0.9574
 1855SOL    HW217199   2.091   2.646   5.256 -0.3890  0.2010  0.3155
 1856SOL     OW17200   1.886   3.739   2.848  0.1341  0.1740  0.1972
 1856SOL    HW117201   1.896   3.694   2.932 -0.4856  0.8151  0.6114
 1856SOL    HW217202   1.792   3.725   2.835 -0.3317 -0.8181  4.5725
 1857SOL     OW17203   0.039   0.023   9.446 -0.6792 -0.2800  0.3096
 1857SOL    HW117204   0.061   4.684   9.497 -0.3924  0.5951  1.5148
 1857SOL    HW217205   0.063   0.088   9.511  1.2980 -0.6413 -0.0716
 1858SOL     OW17206   2.574   3.501  17.086  0.0931 -0.2342 -0.0559
 1858SOL    HW117207   2.603   3.411  17.099  0.7769  0.1057  0.7560
 1858SOL    HW217208   2.592   3.527  16.996  3.5325 -3.4131 -0.3128
 1859SOL     OW17209   3.569   0.754   4.996  0.0599 -0.2372  0.2812
 1859SOL    HW117210   3.649   0.777   4.947  0.5140  0.0755  1.1626
 1859SOL    HW217211   3.532   0.683   4.944 -2.5957  1.1436  0.3152
 1860SOL     OW17212   2.907   1.175   6.387  0.5964  0.5601 -0.0723
 1860SOL    HW117213   2.871   1.249   6.339 -0.6540  1.3067  2.0021
 1860SOL    HW217214   2.910   1.230   6.465 -0.2360  0.9656 -0.3262
 1861SOL     OW17215   2.384   1.542   0.619 -0.7754  0.3879  0.0241
 1861SOL    HW117216   2.471   1.568   0.650 -1.1422  0.9368  0.6028
 1861SOL    HW217217   2.394   1.449   0.602 -1.3611  0.3254  0.0288
 1862SOL     OW17218   2.085   1.009   4.555  0.0067  0.0064 -0.1755
 1862SOL    HW117219   2.108   1.064   4.480 -0.0250  0.6811  0.2982
 1862SOL    HW217220   2.161   0.950   4.555 -0.2639 -0.3462  1.1518
 1863SOL     OW17221   1.021   2.681   6.932  0.3010 -0.4945 -0.2414
 1863SOL    HW117222   1.043   2.744   6.863  2.8260  1.0552  1.9664
 1863SOL    HW217223   0.939   2.718   6.966  0.0048 -0.7286 -0.6894
 1864SOL     OW17224   0.135   0.767  16.096  0.2831 -0.4288 -0.2497
 1864SOL    HW117225   0.224   0.748  16.125 -0.1642 -2.7729 -0.4010
 1864SOL    HW217226   0.076   0.747  16.170 -0.1354 -0.9931 -0.7289
 1865SOL     OW17227   0.544   2.663  11.609 -0.1122  0.1313 -0.3178
 1865SOL    HW117228   0.524   2.691  11.699 -0.0844  0.6069 -0.4574
 1865SOL    HW217229   0.640   2.658  11.603 -0.0008  0.0787  1.3298
 1866SOL     OW17230   1.001   0.338   2.396  0.4299  0.3004 -0.0173
 1866SOL    HW117231   0.937   0.398   2.356 -3.0178 -3.9863 -0.8704
 1866SOL    HW217232   1.038   0.389   2.468  1.6776  1.4209 -1.4561
 1867SOL     OW17233   1.080   0.857  15.006  0.5563 -0.3985 -0.0842
 1867SOL    HW117234   1.122   0.895  15.084  1.2521  0.2297 -0.7655
 1867SOL    HW217235   1.136   0.782  14.989  0.2492 -0.5012 -0.6252
 1868SOL     OW17236   0.298   2.861   2.976 -0.1562 -0.0303  0.2597
 1868SOL    HW117237   0.356   2.796   3.017  0.0576  0.0721  0.1205
 1868SOL    HW217238   0.321   2.941   3.024  3.6290 -0.0889 -1.4923
 1869SOL     OW17239   0.945   3.914   7.958 -0.0676  0.3237 -0.4149
 1869SOL    HW117240   1.040   3.919   7.964 -0.1534  0.9342  0.3289
 1869SOL    HW217241   0.916   3.969   7.885  0.7470 -0.0155 -0.9943
 1870SOL     OW17242   4.567   0.744   7.200 -0.0737  0.1833  0.0829
 1870SOL    HW117243   4.532   0.710   7.283 -2.6345 -0.9136 -1.4541
 1870SOL    HW217244   4.501   0.811   7.182  0.8673  0.2839 -2.9174
 1871SOL     OW17245   0.572   3.563   2.021  0.0266 -0.0605  0.2449
 1871SOL    HW117246   0.642   3.570   2.086  1.6992 -0.4676 -1.5061
 1871SOL    HW217247   0.567   3.655   1.995 -0.6992 -0.0576  0.4147
 1872SOL     OW17248   3.369   1.103  11.832 -0.0933  0.5138 -0.0752
 1872SOL    HW117249   3.321   1.174  11.789 -0.0918 -0.5209 -1.7651
 1872SOL    HW217250   3.310   1.028  11.820  2.1786 -1.1706 -0.7418
 1873SOL     OW17251   3.281   2.516   8.092 -0.0518 -0.2163  0.0088
 1873SOL    HW117252   3.297   2.606   8.064  0.4530 -0.2706  0.1046
 1873SOL    HW217253   3.241   2.475   8.016  0.6118 -0.3138 -0.2926
 1874SOL     OW17254   4.439   2.839   2.557 -0.3888 -0.0913  0.0311
 1874SOL    HW117255   4.481   2.856   2.473  2.3237 -0.8005  1.2475
 1874SOL    HW217256   4.357   2.791   2.544  1.1250 -2.4880 -0.4154
 1875SOL     OW17257   0.022   1.992   5.960 -0.4897  0.1693 -0.2261
 1875SOL    HW117258   0.089   2.043   6.005 -0.2893 -1.2902  1.1330
 1875SOL    HW217259   0.018   2.031   5.873 -3.6685 -2.0466 -1.0675
 1876SOL     OW17260   2.434   1.298   0.519  0.2247 -0.0946 -0.2262
 1876SOL    HW117261   2.398   1.233   0.458 -0.9181  0.3112  0.0160
 1876SOL    HW217262   2.515   1.313   0.471 -0.1488 -0.3535 -0.9415
 1877SOL     OW17263   2.844   1.308   5.587 -0.4110 -0.3397  0.2375
 1877SOL    HW117264   2.907   1.378   5.567 -1.6271  1.0061  1.1500
 1877SOL    HW217265   2.833   1.283   5.495 -2.4078 -0.6336  0.5564
 1878SOL     OW17266   2.595   2.120   2.594 -0.2096 -0.5400 -0.4284
 1878SOL    HW117267   2.641   2.168   2.525  0.6572  3.0774  2.6512
 1878SOL    HW217268   2.620   2.028   2.589 -2.0848 -1.0160 -1.1123
 1879SOL     OW17269   0.826   3.968   2.304  0.0947 -0.1660  0.1539
 1879SOL    HW117270   0.832   4.063   2.294 -0.5168 -0.2066 -0.6575
 1879SOL    HW217271   0.737   3.946   2.277  0.1848  1.4554 -1.4908
 1880SOL     OW17272   1.527   0.281  12.306  0.4445 -0.4804  0.1161
 1880SOL    HW117273   1.600   0.221  12.316  1.5733  0.8353 -0.3021
 1880SOL    HW217274   1.567   0.361  12.272  2.0218 -1.3199  0.0228
 1881SOL     OW17275   3.687   0.671   4.368 -0.4034  0.0422  0.0417
 1881SOL    HW117276   3.659   0.763   4.364 -0.3414  0.1390  1.8401
 1881SOL    HW217277   3.665   0.642   4.456  1.3902  0.0053  0.4663
 1882SOL     OW17278   0.216   2.285   5.379  0.1413 -0.1899  0.6150
 1882SOL    HW117279   0.244   2.237   5.457 -2.0063 -1.2036  0.7527
 1882SOL    HW217280   0.279   2.270   5.309  1.0865 -0.6955  1.5686
 1883SOL     OW17281   3.994   0.716   6.623 -0.3688 -0.2061  0.1908
 1883SOL    HW117282   3.929   0.728   6.692 -0.5500 -1.1798  0.1923
 1883SOL    HW217283   4.075   0.702   6.671 -1.2051 -1.8679  1.1436
 1884SOL     OW17284   1.377   2.137   3.918 -0.6480  0.5235 -0.1311
 1884SOL    HW117285   1.372   2.082   3.840  1.1307 -0.9827  0.8054
 1884SOL    HW217286   1.429   2.078   3.974  0.1764  1.3886  0.0120
 1885SOL     OW17287   2.176   1.447   2.371  0.1067  0.2501  0.2045
 1885SOL    HW117288   2.106   1.457   2.435  0.7545  0.8663  0.8161
 1885SOL    HW217289   2.246   1.435   2.435 -0.5328 -1.7527  0.5297
 1886SOL     OW17290   0.258   0.231   7.810 -0.3974 -0.1781 -0.0182
 1886SOL    HW117291   0.213   0.156   7.850 -1.9588  0.5369 -0.4432
 1886SOL    HW217292   0.210   0.297   7.859 -0.5177  0.9248 -1.6373
 1887SOL     OW17293   2.408   2.661   7.171 -0.0976  0.4235 -0.2428
 1887SOL    HW117294   2.357   2.715   7.111 -1.0778  1.1442  1.2374
 1887SOL    HW217295   2.414   2.711   7.253  1.8139 -0.9952  0.4840
 1888SOL     OW17296   3.372   1.534   5.447  0.5002  0.6109 -0.1305
 1888SOL    HW117297   3.416   1.452   5.428  0.1090  0.2337  0.6074
 1888SOL    HW217298   3.391   1.541   5.541  0.1025  2.2084 -0.1598
 1889SOL     OW17299   3.377   4.576   0.639  0.0010  0.1767 -0.8774
 1889SOL    HW117300   3.354   4.662   0.603  1.7294  0.3477 -1.5619
 1889SOL    HW217301   3.320   4.565   0.715  1.7766 -0.3900  0.3850
 1890SOL     OW17302   2.760   3.289   4.691  0.6743  0.2512  0.0956
 1890SOL    HW117303   2.714   3.284   4.607  0.4705 -1.4743  0.3089
 1890SOL    HW217304   2.710   3.232   4.749  2.8343 -3.1795 -1.3546
 1891SOL     OW17305   4.124   0.448   6.385  0.5149  0.6045 -0.2230
 1891SOL    HW117306   4.029   0.451   6.375  0.5222 -0.9220 -0.8158
 1891SOL    HW217307   4.133   0.417   6.475  2.3484 -0.7798 -0.8783
 1892SOL     OW17308   2.488   2.415   4.898 -0.2903  0.0485 -0.1258
 1892SOL    HW117309   2.463   2.343   4.841 -0.3735  0.3212 -0.4330
 1892SOL    HW217310   2.530   2.477   4.839  3.3715 -1.7665  0.5667
 1893SOL     OW17311   2.741   2.458   2.098 -0.1443 -0.0588  0.2126
 1893SOL    HW117312   2.686   2.410   2.160  1.3595 -0.2835  1.3799
 1893SOL    HW217313   2.673   2.492   2.040 -0.9468 -3.2357 -0.7226
 1894SOL     OW17314   4.715   2.015   2.822 -0.5388 -0.0391 -0.3319
 1894SOL    HW117315   4.630   2.025   2.778 -1.5401 -4.3597  0.6655
 1894SOL    HW217316   4.692   1.957   2.894 -1.9523  0.0349 -0.7197
 1895SOL     OW17317   0.240   3.973  13.239  0.0215  0.3573  0.0183
 1895SOL    HW117318   0.296   4.041  13.202 -1.3043  0.3457 -1.9829
 1895SOL    HW217319   0.176   3.950  13.172  1.8916  1.7467 -2.2422
 1896SOL     OW17320   1.657   4.130  14.306 -0.0749  0.0217  0.4665
 1896SOL    HW117321   1.637   4.040  14.334  0.1782 -0.2135 -0.1123
 1896SOL    HW217322   1.631   4.179  14.384 -1.7095 -0.6958  0.3748
 1897SOL     OW17323   1.880   4.235  16.219 -0.4870  0.2625  0.8023
 1897SOL    HW117324   1.793   4.201  16.197 -0.2525  0.2461 -0.1113
 1897SOL    HW217325   1.927   4.181  16.155 -1.8121  0.9657 -0.7483
 1898SOL     OW17326   4.163   3.361   9.775 -0.2525 -0.5474 -0.1932
 1898SOL    HW117327   4.223   3.433   9.793  0.0254 -1.2890  1.9311
 1898SOL    HW217328   4.100   3.386   9.843  1.1989  0.5821  0.7408
 1899SOL     OW17329   2.583   0.962  15.175  0.3606  0.2276 -0.3804
 1899SOL    HW117330   2.663   1.014  15.184  0.5026  0.2158 -1.6258
 1899SOL    HW217331   2.534   1.013  15.240  0.5040 -1.3797  0.9775
 1900SOL     OW17332   4.469   1.395   4.080 -0.3176  0.2034  0.5603
 1900SOL    HW117333   4.400   1.376   4.016  1.2246  0.7220 -1.2290
 1900SOL    HW217334   4.444   1.486   4.101  3.4972  1.9001 -2.2649
 1901SOL     OW17335   0.915   0.996   7.513 -0.3609  0.3534  0.1338
 1901SOL    HW117336   0.887   0.951   7.434  2.0199  0.6116 -0.8657
 1901SOL    HW217337   0.841   0.981   7.571  0.5896  0.3791  1.3657
 1902SOL     OW17338   1.547   2.262  10.721  0.4833 -0.4146  0.1406
 1902SOL    HW117339   1.630   2.293  10.758  0.4345  1.2095 -1.1666
 1902SOL    HW217340   1.483   2.292  10.785  0.2470 -0.2011 -0.1958
 1903SOL     OW17341   2.179   4.415   8.418 -0.1416  0.0035  0.0731
 1903SOL    HW117342   2.086   4.408   8.396  0.2615 -1.1511 -1.2488
 1903SOL    HW217343   2.177   4.492   8.475  2.3871  0.4991 -0.5033
 1904SOL     OW17344   4.333   1.554   8.103  0.3727 -0.3201 -0.2056
 1904SOL    HW117345   4.276   1.480   8.124 -0.3156  0.3167  0.2056
 1904SOL    HW217346   4.287   1.627   8.145 -0.8143 -0.6657 -0.9256
 1905SOL     OW17347   2.685   4.215  16.071 -0.0281 -0.3309  0.2120
 1905SOL    HW117348   2.700   4.185  16.160  0.4475 -0.7667 -0.0120
 1905SOL    HW217349   2.650   4.298  16.101 -2.7601 -1.4310  0.0178
 1906SOL     OW17350   1.817   4.572   4.407  0.3955  0.6457 -0.0383
 1906SOL    HW117351   1.807   4.517   4.329  0.0584  0.1550  0.3529
 1906SOL    HW217352   1.879   4.637   4.372  1.6983 -0.0340  0.9803
 1907SOL     OW17353   2.078   4.384   1.587 -0.1323  0.5293 -0.4559
 1907SOL    HW117354   2.032   4.385   1.671 -2.2692  1.2421 -1.6462
 1907SOL    HW217355   2.171   4.404   1.598 -0.0789  0.1099 -0.1258
 1908SOL     OW17356   2.857   0.802   8.678  0.1257 -0.4338  0.0166
 1908SOL    HW117357   2.922   0.847   8.625 -2.3712  0.4896 -2.2459
 1908SOL    HW217358   2.857   0.716   8.636 -3.1135 -1.3153  1.8194
 1909SOL     OW17359   2.397   0.251   4.735 -0.2424  0.2454  0.3908
 1909SOL    HW117360   2.394   0.255   4.831  0.0547  0.5541  0.3851
 1909SOL    HW217361   2.304   0.240   4.712 -0.7236  1.3417  1.7588
 1910SOL     OW17362   0.989   0.128   3.354 -0.5192 -0.0223 -0.2068
 1910SOL    HW117363   1.019   0.082   3.276 -0.2051 -2.0097  1.0956
 1910SOL    HW217364   1.030   0.061   3.408 -1.0028 -1.1042 -1.1677
 1911SOL     OW17365   3.456   2.374   4.168 -0.6235 -1.3598 -0.4108
 1911SOL    HW117366   3.533   2.325   4.197 -1.2588 -1.0439  1.7850
 1911SOL    HW217367   3.388   2.319   4.208 -0.6203 -0.2500  1.1142
 1912SOL     OW17368   2.894   0.654   8.440 -0.2126  0.1958  0.6862
 1912SOL    HW117369   2.838   0.652   8.362  1.0669  0.2887 -0.2357
 1912SOL    HW217370   2.900   0.559   8.453 -0.9668  0.2231  1.2292
 1913SOL     OW17371   3.076   1.353  15.713  0.1417  0.0658  0.1204
 1913SOL    HW117372   3.041   1.413  15.647  3.4731  2.0368  0.1051
 1913SOL    HW217373   3.009   1.285  15.709  0.5335 -0.2789 -0.6292
 1914SOL     OW17374   3.503   4.211   0.370  0.5074 -0.0479  0.0369
 1914SOL    HW117375   3.439   4.275   0.400  0.3739 -0.6841  1.0931
 1914SOL    HW217376   3.474   4.136   0.421 -1.2468  0.3510 -0.3938
 1915SOL     OW17377   0.992   0.479   9.279 -0.1984  0.0469 -0.7323
 1915SOL    HW117378   1.048   0.533   9.224 -1.1959 -0.4252 -2.2019
 1915SOL    HW217379   0.905   0.488   9.240  0.0671  1.2266 -1.0527
 1916SOL     OW17380   3.711   1.172   3.435 -0.1435  0.1227  0.4517
 1916SOL    HW117381   3.698   1.118   3.513 -0.4159 -0.3705  0.0623
 1916SOL    HW217382   3.626   1.162   3.393 -0.0983  0.7393  0.1979
 1917SOL     OW17383   0.641   3.806  17.281 -0.3161  0.4003  0.0220
 1917SOL    HW117384   0.656   3.738  17.215 -0.3019 -0.3206  0.7753
 1917SOL    HW217385   0.561   3.844  17.246  0.0108  1.0806  0.0157
 1918SOL     OW17386   1.961   4.425   3.793  0.0218 -0.5471  0.3879
 1918SOL    HW117387   2.033   4.372   3.762  0.3144  0.2882 -0.3571
 1918SOL    HW217388   1.891   4.360   3.806 -0.2230 -0.1366  1.1442
 1919SOL     OW17389   3.950   0.356   8.435 -0.2885  0.3361  0.3291
 1919SOL    HW117390   3.980   0.375   8.524 -0.2459 -0.9271  0.5783
 1919SOL    HW217391   3.901   0.432   8.401  2.5073  2.6426  1.4464
 1920SOL     OW17392   1.392   4.632   4.816  0.2006  0.4224  0.7113
 1920SOL    HW117393   1.425   4.706   4.867 -0.2935 -0.9166  2.9987
 1920SOL    HW217394   1.423   4.563   4.875  1.1352  1.4998  1.4860
 1921SOL     OW17395   2.512   1.512   4.463  0.3928 -0.0450 -0.0877
 1921SOL    HW117396   2.603   1.533   4.481  0.1926 -1.2700  2.2876
 1921SOL    HW217397   2.485   1.575   4.396 -0.4314  0.0239  0.3071
 1922SOL     OW17398   3.072   1.417   3.699 -0.1131 -0.2699  0.9509
 1922SOL    HW117399   2.980   1.389   3.703 -0.7418  1.9739  2.5045
 1922SOL    HW217400   3.073   1.428   3.604 -0.4368  0.0973  0.9906
 1923SOL     OW17401   4.621   4.362  16.790  0.1809  0.1601  0.1338
 1923SOL    HW117402   4.561   4.302  16.746  1.2797  0.3921 -1.6744
 1923SOL    HW217403   4.646   4.308  16.864 -0.1574 -1.1517 -0.7027
 1924SOL     OW17404   0.997   1.387   3.103 -0.0621  0.1423  0.0718
 1924SOL    HW117405   0.915   1.339   3.098 -0.5902  0.9637  0.8457
 1924SOL    HW217406   0.991   1.463   3.046 -1.6954 -0.2213 -0.2146
 1925SOL     OW17407   3.346   3.257   2.448 -0.7457 -0.3011 -0.2396
 1925SOL    HW117408   3.385   3.338   2.481 -1.5889 -0.1509  0.3761
 1925SOL    HW217409   3.258   3.292   2.434 -1.1301 -1.2737 -0.2878
 1926SOL     OW17410   4.000   2.075   1.821 -0.5024  0.2234  0.3285
 1926SOL    HW117411   3.911   2.100   1.797  0.1560 -0.9534 -3.4716
 1926SOL    HW217412   4.014   2.137   1.892 -0.4122  1.9593 -1.1882
 1927SOL     OW17413   2.656   2.331   4.437  0.0711  0.0754 -0.8855
 1927SOL    HW117414   2.737   2.327   4.488 -0.7250  0.2366  0.3997
 1927SOL    HW217415   2.663   2.251   4.385 -0.7243 -1.1069  0.8222
 1928SOL     OW17416   4.275   0.534  16.212 -0.2256 -0.3281  0.5360
 1928SOL    HW117417   4.277   0.621  16.173 -1.6403 -2.6913 -4.8830
 1928SOL    HW217418   4.289   0.474  16.138 -1.7208  1.3374 -1.0986
 1929SOL     OW17419   0.347   0.261  15.370  0.7057 -0.0436 -0.1415
 1929SOL    HW117420   0.275   0.300  15.320 -0.0053 -2.8956 -1.3464
 1929SOL    HW217421   0.429   0.275  15.322  0.8637 -0.5651 -0.0214
 1930SOL     OW17422   1.312   2.481  14.152  0.1752 -0.1755  0.4098
 1930SOL    HW117423   1.344   2.451  14.067  3.3282  0.2987  1.4265
 1930SOL    HW217424   1.218   2.486  14.135  0.3875  0.7024 -0.5214
 1931SOL     OW17425   1.727   2.848   9.336  0.1967  0.2977 -0.3207
 1931SOL    HW117426   1.764   2.936   9.329  1.5565 -0.4690 -2.7300
 1931SOL    HW217427   1.766   2.815   9.417  0.3817 -0.6782 -0.8011
 1932SOL     OW17428   4.408   1.768   1.728 -0.4518 -0.0328  0.1323
 1932SOL    HW117429   4.316   1.781   1.750 -0.4367  1.2048 -0.5619
 1932SOL    HW217430   4.445   1.854   1.748  1.1913 -0.6779 -0.0816
 1933SOL     OW17431   3.220   0.161  15.864 -0.1774  0.7181 -0.0292
 1933SOL    HW117432   3.290   0.122  15.812 -0.4087  0.2720 -0.0009
 1933SOL    HW217433   3.228   0.117  15.948  0.4919  0.8867 -0.0051
 1934SOL     OW17434   0.608   3.074   5.240  0.5777 -0.3667  0.3998
 1934SOL    HW117435   0.613   3.169   5.228  1.5912 -0.2447  1.8257
 1934SOL    HW217436   0.696   3.039   5.233 -0.1894 -1.9354 -1.2804
 1935SOL     OW17437   0.204   0.711   8.320 -0.2478  0.2430 -0.3333
 1935SOL    HW117438   0.206   0.705   8.224  0.3188  1.9156 -0.4314
 1935SOL    HW217439   0.135   0.778   8.321  0.1831  0.6523  1.1442
 1936SOL     OW17440   4.603   1.888   0.046  0.2956 -0.2195  0.4676
 1936SOL    HW117441   4.621   1.979   0.071 -2.3290 -0.2789  2.6148
 1936SOL    HW217442   4.592   1.861   0.137  1.3552  1.5032  1.1033
 1937SOL     OW17443   4.439   3.363   5.977 -0.0755 -0.5544  0.2471
 1937SOL    HW117444   4.376   3.316   5.922 -0.9517  1.4589 -0.4818
 1937SOL    HW217445   4.384   3.399   6.046 -1.2989  1.6338 -1.8441
 1938SOL     OW17446   3.940   2.301  12.458  0.1498  0.1420  0.1450
 1938SOL    HW117447   3.943   2.235  12.528 -3.4099 -1.8383 -1.5195
 1938SOL    HW217448   4.009   2.280  12.395 -0.3773 -2.2109  0.3300
 1939SOL     OW17449   0.305   0.566   8.091  0.1600 -0.1594  0.2069
 1939SOL    HW117450   0.347   0.574   8.176  1.5954  1.6803 -0.6714
 1939SOL    HW217451   0.265   0.479   8.091  2.0269 -0.9998  1.3941
 1940SOL     OW17452   1.737   0.131   0.450 -0.3706  0.2164  0.5827
 1940SOL    HW117453   1.826   0.111   0.420 -0.0549  0.3659  1.4164
 1940SOL    HW217454   1.709   0.039   0.456  0.1167 -0.0255 -0.6837
 1941SOL     OW17455   3.230   4.547   9.165  0.6924  0.0297  0.3518
 1941SOL    HW117456   3.203   4.485   9.097  0.3788 -0.7963  1.2215
 1941SOL    HW217457   3.148   4.596   9.175  1.3295  1.1560  0.0213
 1942SOL     OW17458   3.932   4.462   6.333  0.1413 -0.3062  0.0650
 1942SOL    HW117459   4.027   4.458   6.323  0.3066  0.5555  1.3311
 1942SOL    HW217460   3.922   4.541   6.386 -1.1400 -2.1945  2.6436
 1943SOL     OW17461   1.848   2.563   7.833  0.3270  0.4617  0.3362
 1943SOL    HW117462   1.768   2.562   7.780  1.3395  0.8769 -1.2092
 1943SOL    HW217463   1.821   2.573   7.924  1.3112  0.0490  0.6666
 1944SOL     OW17464   1.529   4.635   8.587 -0.2656  0.5792  0.0460
 1944SOL    HW117465   1.558   4.569   8.651 -1.3049  0.9786  0.9243
 1944SOL    HW217466   1.549   4.586   8.507  2.8674  0.8934  0.6368
 1945SOL     OW17467   0.044   1.216  12.888 -0.6771 -0.5657 -0.0937
 1945SOL    HW117468   0.016   1.250  12.803 -1.3267 -0.6895  0.0697
 1945SOL    HW217469   4.726   1.277  12.936 -0.0891  1.5308 -2.0587
 1946SOL     OW17470   4.485   1.832  13.211 -0.1856  0.7653  0.3080
 1946SOL    HW117471   4.562   1.803  13.260  1.4391  0.3672 -2.4456
 1946SOL    HW217472   4.444   1.871  13.288  1.2586  0.7388  1.0835
 1947SOL     OW17473   3.122   1.411   4.164  0.0122  0.1512 -0.6360
 1947SOL    HW117474   3.107   1.447   4.077  0.5463 -1.9591 -1.6102
 1947SOL    HW217475   3.097   1.319   4.149  0.5061 -0.2027  0.6981
 1948SOL     OW17476   4.432   0.473   7.629  0.2738  0.4658 -0.0489
 1948SOL    HW117477   4.472   0.439   7.709  1.1168  1.0776 -0.2131
 1948SOL    HW217478   4.414   0.386   7.592 -0.2632  0.9776 -0.9739
 1949SOL     OW17479   2.663   1.103   7.682  0.0918 -0.0431  0.6621
 1949SOL    HW117480   2.638   1.016   7.649  2.2941  0.5598 -2.5953
 1949SOL    HW217481   2.648   1.077   7.773 -0.5513 -1.6018  0.1169
 1950SOL     OW17482   3.971   3.258   4.141  0.1544  0.2577 -0.2738
 1950SOL    HW117483   4.046   3.315   4.155 -0.6628  1.2304  0.1542
 1950SOL    HW217484   4.010   3.205   4.072 -1.6361 -0.0309 -1.0652
 1951SOL     OW17485   4.614   1.557  12.523 -0.5554  0.0387 -0.0774
 1951SOL    HW117486   4.706   1.560  12.498 -0.6550  1.9492 -0.1878
 1951SOL    HW217487   4.611   1.472  12.569  0.7325 -0.0373 -0.1261
 1952SOL     OW17488   2.927   1.083   0.104  0.0100 -0.3889 -0.3396
 1952SOL    HW117489   2.940   1.111   0.014 -0.6246 -1.2150 -0.6899
 1952SOL    HW217490   2.910   1.159   0.160 -2.7849  0.5810 -2.5181
 1953SOL     OW17491   1.006   3.478   9.011 -0.0370  0.1130  0.5223
 1953SOL    HW117492   1.044   3.483   8.924 -2.4453  0.6106 -0.5090
 1953SOL    HW217493   0.914   3.472   8.985  0.7083  1.5029 -2.4281
 1954SOL     OW17494   0.345   2.270   7.828  0.1459 -0.1588 -0.2076
 1954SOL    HW117495   0.419   2.226   7.788 -0.5009 -3.3744  2.0366
 1954SOL    HW217496   0.333   2.342   7.767 -3.6302 -0.3315  0.2788
 1955SOL     OW17497   3.866   0.409   9.862 -0.4068 -0.4795  0.2428
 1955SOL    HW117498   3.956   0.413   9.830 -1.0588  1.6651 -1.3004
 1955SOL    HW217499   3.826   0.410   9.775 -0.2934  1.3237  0.2133
 1956SOL     OW17500   0.346   3.922   2.582  0.4076  0.3377  0.1670
 1956SOL    HW117501   0.342   3.892   2.672 -1.4898 -0.8041 -0.2911
 1956SOL    HW217502   0.263   3.969   2.574  0.1361 -0.2010 -0.1699
 1957SOL     OW17503   0.719   0.329   5.689 -0.0132  0.3155  0.0278
 1957SOL    HW117504   0.628   0.299   5.678  0.7188 -1.6123 -0.8066
 1957SOL    HW217505   0.771   0.249   5.694 -0.3631  0.1308  0.7786
 1958SOL     OW17506   1.297   2.321   5.267  0.2080 -0.1625 -0.6082
 1958SOL    HW117507   1.236   2.247   5.267  0.5291 -0.4147 -2.3591
 1958SOL    HW217508   1.232   2.388   5.248  0.6577  0.1511 -1.0256
 1959SOL     OW17509   1.194   2.739   7.153  0.8164  0.1067 -0.6817
 1959SOL    HW117510   1.155   2.708   7.071 -0.3791  0.7080 -0.3439
 1959SOL    HW217511   1.283   2.764   7.129  0.0256  3.5423 -0.1569
 1960SOL     OW17512   0.428   0.122   8.092  0.3100 -0.4082  0.7071
 1960SOL    HW117513   0.454   0.122   8.184 -1.1195  1.8478  1.1218
 1960SOL    HW217514   0.354   0.184   8.086 -1.2787 -2.2836  1.0050
 1961SOL     OW17515   3.617   1.757   5.380  0.2682 -0.7938  0.1849
 1961SOL    HW117516   3.635   1.663   5.370 -0.1534 -0.8756  0.2145
 1961SOL    HW217517   3.701   1.790   5.347 -0.2387  1.5583  1.2299
 1962SOL     OW17518   3.969   4.398   4.000  0.1822  0.5299  0.2327
 1962SOL    HW117519   4.022   4.392   3.921  0.3114  1.7530  0.2191
 1962SOL    HW217520   4.026   4.344   4.056  0.9032  0.4269 -0.6082
 1963SOL     OW17521   3.287   2.884   8.317  0.2267  0.0701  0.2614
 1963SOL    HW117522   3.208   2.835   8.341  0.8533 -0.8665  0.3866
 1963SOL    HW217523   3.240   2.961   8.285  0.5696  0.7906  1.4760
 1964SOL     OW17524   1.927   4.239   5.280  0.0517 -0.3317  0.3608
 1964SOL    HW117525   1.983   4.297   5.228  2.6203 -1.0725  2.3184
 1964SOL    HW217526   1.859   4.221   5.215 -2.0744  1.6044  2.0130
 1965SOL     OW17527   3.744   3.457   2.602  0.0418 -0.3018  0.4089
 1965SOL    HW117528   3.757   3.543   2.563  1.5820 -0.3494  0.8158
 1965SOL    HW217529   3.764   3.404   2.525  0.9466 -1.2056  1.2605
 1966SOL     OW17530   1.167   4.347   6.581 -0.1491  0.2829  0.1382
 1966SOL    HW117531   1.113   4.339   6.660 -1.2057 -0.8077 -0.6865
 1966SOL    HW217532   1.183   4.441   6.570  2.5159 -0.3437 -1.3118
 1967SOL     OW17533   0.718   4.463   3.512 -0.3320 -0.1876 -0.1202
 1967SOL    HW117534   0.646   4.526   3.505  0.0489  0.4917  2.2899
 1967SOL    HW217535   0.684   4.390   3.460 -0.4266  0.8464 -1.5127
 1968SOL     OW17536   3.963   0.019   7.070 -0.0415 -0.7534 -0.4290
 1968SOL    HW117537   4.036   4.728   7.126  0.7880  1.7999 -0.1636
 1968SOL    HW217538   3.982   0.113   7.065 -0.6074 -0.5248  1.6554
 1969SOL     OW17539   3.065   2.025   4.749  0.0813  0.0053 -0.0123
 1969SOL    HW117540   3.160   2.030   4.760  0.0228 -2.0260  1.3564
 1969SOL    HW217541   3.025   2.003   4.833 -0.2303 -1.9435 -0.6781
 1970SOL     OW17542   0.427   0.177  16.083  0.0413 -0.2161  0.5371
 1970SOL    HW117543   0.408   0.123  16.006  0.0794 -0.5570  0.7654
 1970SOL    HW217544   0.383   0.250  16.039  2.0388 -0.1814 -1.4066
 1971SOL     OW17545   4.567   3.445  14.689 -0.0448  0.2065 -0.4779
 1971SOL    HW117546   4.538   3.419  14.602 -0.2270  0.1857 -0.4093
 1971SOL    HW217547   4.491   3.431  14.745  0.8922 -2.4736  0.1316
 1972SOL     OW17548   3.718   0.574   0.488  0.0734  0.2331 -0.3917
 1972SOL    HW117549   3.712   0.478   0.479 -0.4940 -0.0197  2.5397
 1972SOL    HW217550   3.739   0.604   0.400 -0.4903  0.4364 -0.4528
 1973SOL     OW17551   3.061   1.131   5.204 -0.1606  0.2467  0.1519
 1973SOL    HW117552   2.977   1.086   5.214 -0.2398 -0.0514 -1.9014
 1973SOL    HW217553   3.066   1.125   5.109 -0.1714 -1.4501  0.2587
 1974SOL     OW17554   3.366   4.297   5.511 -0.4027  0.1319  0.1999
 1974SOL    HW117555   3.332   4.258   5.430 -0.4003 -0.0357  0.2790
 1974SOL    HW217556   3.460   4.291   5.495 -0.2757  1.7558  0.3746
 1975SOL     OW17557   3.209   1.277  11.729 -0.0906  0.0931  0.0788
 1975SOL    HW117558   3.230   1.237  11.644 -1.1796 -1.8511  0.7375
 1975SOL    HW217559   3.207   1.369  11.703  1.4126  0.2089  0.3574
 1976SOL     OW17560   2.246   3.777   0.338  0.3128  0.7047 -0.2251
 1976SOL    HW117561   2.287   3.832   0.271 -1.5272  2.4197  0.0324
 1976SOL    HW217562   2.223   3.844   0.402 -1.8345 -0.9693  0.7490
 1977SOL     OW17563   2.207   0.444  11.545 -0.2836  0.3231  0.2601
 1977SOL    HW117564   2.226   0.432  11.452  1.2703  2.1297  0.3506
 1977SOL    HW217565   2.111   0.445  11.545 -0.2621  0.7923 -1.9053
 1978SOL     OW17566   4.152   4.213   5.421 -0.0518 -0.5566  0.0641
 1978SOL    HW117567   4.219   4.210   5.352 -0.5446  0.8081 -0.4728
 1978SOL    HW217568   4.141   4.123   5.451  0.4674 -0.7376 -0.2939
 1979SOL     OW17569   4.132   3.614   5.801 -0.3057 -0.4120 -0.0260
 1979SOL    HW117570   4.201   3.644   5.743 -0.9029  0.4339 -0.3137
 1979SOL    HW217571   4.062   3.680   5.803 -0.3827 -0.4523 -2.1470
 1980SOL     OW17572   0.429   3.018   8.382 -0.4566  0.2491  0.2624
 1980SOL    HW117573   0.383   2.936   8.361  1.3148 -0.3279 -1.3538
 1980SOL    HW217574   0.467   3.039   8.297 -0.3273  0.1119  0.2868
 1981SOL     OW17575   4.685   1.121  12.242  0.1045 -0.5725 -0.0757
 1981SOL    HW117576   4.623   1.188  12.273  2.8833  1.5825  0.8107
 1981SOL    HW217577   0.001   1.125  12.321 -1.1135  1.1345  0.6787
 1982SOL     OW17578   3.833   2.678   6.187 -0.0030  0.1823  0.3915
 1982SOL    HW117579   3.748   2.654   6.147  0.1949  0.2808 -0.0935
 1982SOL    HW217580   3.845   2.772   6.177 -1.4026  0.3112 -0.2129
 1983SOL     OW17581   2.265   0.432  12.058  0.2589 -0.5998 -0.6044
 1983SOL    HW117582   2.181   0.458  12.020  0.7727 -1.0475 -2.0529
 1983SOL    HW217583   2.248   0.339  12.072 -1.9993 -0.1720 -0.5328
 1984SOL     OW17584   2.126   4.215   3.667 -0.1887  0.1616  0.6085
 1984SOL    HW117585   2.200   4.219   3.607  0.2725  2.9268  1.3406
 1984SOL    HW217586   2.067   4.158   3.617 -0.1404  0.0779  0.6464
 1985SOL     OW17587   3.355   3.810   7.264  0.7208  0.0731  0.7500
 1985SOL    HW117588   3.291   3.837   7.329  1.1590  0.7843  0.8924
 1985SOL    HW217589   3.326   3.859   7.186  1.5883 -3.8227 -2.0151
 1986SOL     OW17590   2.275   4.597   7.554  0.0579 -1.0784 -0.2218
 1986SOL    HW117591   2.272   4.656   7.630 -1.8553 -1.3925 -0.0762
 1986SOL    HW217592   2.278   4.516   7.605  2.5327  0.7852  2.5872
 1987SOL     OW17593   1.889   1.743  15.641 -0.2429 -0.3185 -0.6228
 1987SOL    HW117594   1.796   1.741  15.663 -0.4384 -0.0768 -1.4143
 1987SOL    HW217595   1.880   1.676  15.573  0.5774 -1.2513  0.1821
 1988SOL     OW17596   0.180   2.735  10.671 -0.5185 -0.0918  0.5191
 1988SOL    HW117597   0.194   2.792  10.747 -0.0056 -1.0984  1.1697
 1988SOL    HW217598   0.213   2.790  10.600 -0.3511 -1.2008 -0.2456
 1989SOL     OW17599   0.340   3.091   0.164 -0.3429  0.6060 -0.0642
 1989SOL    HW117600   0.275   3.145   0.209 -2.2271 -1.9876  0.2956
 1989SOL    HW217601   0.328   3.109   0.071 -0.0477 -0.0189 -0.2230
 1990SOL     OW17602   0.356   1.057   4.108  0.1348 -0.2981 -0.3366
 1990SOL    HW117603   0.421   1.065   4.178  1.4737  1.4668 -1.7508
 1990SOL    HW217604   0.309   0.982   4.143  0.5674 -0.4958 -0.1760
 1991SOL     OW17605   0.848   3.377   2.469  0.2289  0.6150  0.3458
 1991SOL    HW117606   0.793   3.416   2.400  0.6218 -0.0804 -0.3632
 1991SOL    HW217607   0.891   3.303   2.427  0.3175  1.6962 -1.4840
 1992SOL     OW17608   3.186   4.439   7.144  0.4582  0.0182 -0.7082
 1992SOL    HW117609   3.185   4.497   7.220 -1.5882  2.2922 -2.4475
 1992SOL    HW217610   3.267   4.472   7.103 -0.0722 -0.4877 -2.1745
 1993SOL     OW17611   2.822   4.180  14.951  0.5336  0.6712  0.3429
 1993SOL    HW117612   2.749   4.159  15.010 -0.3776  0.9379 -0.6915
 1993SOL    HW217613   2.778   4.163  14.867  0.4578 -2.9060  1.1124
 1994SOL     OW17614   0.914   3.066   9.245  0.2169  0.3095  0.2157
 1994SOL    HW117615   1.008   3.052   9.255  0.2486  1.5245  1.4826
 1994SOL    HW217616   0.898   3.160   9.253 -0.3456  0.3024 -0.6670
 1995SOL     OW17617   0.922   3.434   1.399 -0.3916  0.0633 -0.3495
 1995SOL    HW117618   0.983   3.495   1.358 -0.1051  0.4226  0.6057
 1995SOL    HW217619   0.844   3.463   1.353 -0.6954  1.6201  1.1910
 1996SOL     OW17620   0.467   2.831   4.127 -0.1406  0.2400 -0.2154
 1996SOL    HW117621   0.514   2.839   4.209  2.4388 -1.1069 -1.5501
 1996SOL    HW217622   0.545   2.828   4.071  0.7799 -0.1272  1.1034
 1997SOL     OW17623   1.583   0.794  17.304  0.3329 -0.4152 -0.5299
 1997SOL    HW117624   1.579   0.746  17.221  0.1245 -0.9683 -0.2035
 1997SOL    HW217625   1.641   0.741  17.360 -0.6884 -1.5773 -0.5627
 1998SOL     OW17626   1.185   2.459   7.684  0.0620 -0.3305  0.5965
 1998SOL    HW117627   1.102   2.483   7.644 -0.4419 -1.6629  0.8722
 1998SOL    HW217628   1.143   2.421   7.760 -1.1145  0.6407  0.4391
 1999SOL     OW17629   3.966   3.880  12.681  0.0766 -0.0437 -0.3043
 1999SOL    HW117630   3.923   3.935  12.615 -0.8110  0.4481  0.6856
 1999SOL    HW217631   3.999   3.807  12.628  2.0640 -1.0031  2.2739
 2000SOL     OW17632   4.197   2.782   8.540  0.5214 -0.5504  0.3483
 2000SOL    HW117633   4.221   2.846   8.608  0.5176  1.2885 -1.3587
 2000SOL    HW217634   4.112   2.748   8.567  0.7440 -1.3249  0.0489
 2001SOL     OW17635   0.363   3.388   3.499 -0.5406 -0.4495  0.1380
 2001SOL    HW117636   0.420   3.356   3.569  1.4937  0.1838 -1.2210
 2001SOL    HW217637   0.371   3.483   3.502 -1.1025 -0.4265  0.9761
 2002SOL     OW17638   1.765   1.159   8.556  0.0642  0.3094  0.3495
 2002SOL    HW117639   1.763   1.182   8.649  2.2603 -0.4672  0.5899
 2002SOL    HW217640   1.857   1.158   8.531 -0.3978  1.0766 -1.4392
 2003SOL     OW17641   0.593   2.861  17.274  0.2824 -0.3406  0.1639
 2003SOL    HW117642   0.659   2.920  17.312  2.7045 -1.4708 -2.2549
 2003SOL    HW217643   0.632   2.858  17.186  0.3451 -0.4551  0.1968
 2004SOL     OW17644   1.992   2.538   2.310  0.3033 -0.2342 -0.3078
 2004SOL    HW117645   1.994   2.485   2.230  2.3134 -1.5391  0.6063
 2004SOL    HW217646   1.916   2.593   2.290  1.4782  1.0720 -1.1616
 2005SOL     OW17647   3.354   1.484   8.846 -0.6024  0.4205  0.5689
 2005SOL    HW117648   3.424   1.540   8.810 -0.2841  0.0592  0.6254
 2005SOL    HW217649   3.387   1.397   8.823 -0.3763  0.9799 -1.2563
 2006SOL     OW17650   3.248   0.176  12.613  0.2822  0.0172  0.1447
 2006SOL    HW117651   3.189   0.130  12.672  2.1420 -0.8100  1.3710
 2006SOL    HW217652   3.291   0.225  12.683  1.3814  1.0337 -1.2444
 2007SOL     OW17653   1.318   2.239   2.297  0.0194  0.4179 -0.1385
 2007SOL    HW117654   1.351   2.328   2.309  0.4376  0.5473 -2.1851
 2007SOL    HW217655   1.255   2.253   2.226  0.3595  0.7413 -0.3740
 2008SOL     OW17656   1.860   4.495   8.522  0.0486 -0.3940 -0.0224
 2008SOL    HW117657   1.806   4.416   8.520 -0.6819  0.0958  0.0009
 2008SOL    HW217658   1.851   4.532   8.610 -1.0054  1.2432 -0.8151
 2009SOL     OW17659   1.023   4.141   8.348  0.4894  0.1181  0.1781
 2009SOL    HW117660   1.101   4.086   8.358  0.7211  0.6756  1.4534
 2009SOL    HW217661   1.046   4.234   8.343 -1.6887  0.7128  1.6524
 2010SOL     OW17662   2.434   4.653  10.939  0.2336 -0.5263  0.9362
 2010SOL    HW117663   2.417   4.733  10.988  0.4661 -0.5021  0.9755
 2010SOL    HW217664   2.416   4.695  10.855  1.5453 -1.8554  0.0048
 2011SOL     OW17665   4.385   1.067   8.330  0.1475  0.2388  0.0493
 2011SOL    HW117666   4.366   1.084   8.238 -0.7816  2.8675  0.7210
 2011SOL    HW217667   4.480   1.071   8.317 -0.1965  0.1674 -2.4309
 2012SOL     OW17668   4.626   2.366   5.853 -0.3983  0.2819 -0.4742
 2012SOL    HW117669   4.563   2.343   5.784 -3.4641  2.0811  1.7765
 2012SOL    HW217670   4.604   2.316   5.931 -0.1764  0.0180 -0.5783
 2013SOL     OW17671   0.442   3.108   7.069 -0.1648  0.0825  0.0951
 2013SOL    HW117672   0.478   3.063   7.145 -0.3217  0.2474  0.2656
 2013SOL    HW217673   0.412   3.027   7.029 -1.0785  0.7325 -0.5576
 2014SOL     OW17674   2.415   1.848  17.276  0.0071  0.3937 -0.1996
 2014SOL    HW117675   2.355   1.895  17.333  2.2437  2.2068  0.6587
 2014SOL    HW217676   2.492   1.905  17.268 -0.1120  0.5649 -0.1176
 2015SOL     OW17677   3.757   0.219   1.500  0.0068  0.1662  0.1255
 2015SOL    HW117678   3.708   0.292   1.540 -0.3483  0.6542 -1.1906
 2015SOL    HW217679   3.684   0.181   1.451  1.5551 -0.9622 -1.2847
 2016SOL     OW17680   0.821   4.067   8.163  0.2491  0.1912  1.3971
 2016SOL    HW117681   0.887   4.097   8.226  1.7322  1.1534 -0.5859
 2016SOL    HW217682   0.873   4.002   8.116 -0.0166 -0.2758  1.7505
 2017SOL     OW17683   1.678   1.764  16.472 -0.0461 -0.1559  0.5913
 2017SOL    HW117684   1.771   1.752  16.491  0.4114 -2.1957 -2.8351
 2017SOL    HW217685   1.627   1.732  16.546  0.0611  3.0719  2.0466
 2018SOL     OW17686   2.758   0.470   7.239 -0.9887 -0.4232  0.0419
 2018SOL    HW117687   2.775   0.376   7.241  1.2599  0.0206  1.9015
 2018SOL    HW217688   2.811   0.495   7.314 -0.1985  0.4708 -0.8170
 2019SOL     OW17689   3.730   0.391   5.573 -0.0752 -0.1730 -0.0570
 2019SOL    HW117690   3.802   0.418   5.629 -0.4411  0.7906 -0.0520
 2019SOL    HW217691   3.654   0.423   5.621 -0.0404 -2.5428  1.5871
 2020SOL     OW17692   1.182   2.033  10.333  0.4413  0.3756  0.3679
 2020SOL    HW117693   1.275   2.011  10.341  0.2512 -0.8421 -0.8101
 2020SOL    HW217694   1.151   2.019  10.423  1.9107  0.3578  0.8635
 2021SOL     OW17695   0.066   2.619   9.429  0.2810  0.3315  0.3585
 2021SOL    HW117696   0.046   2.677   9.503  1.2911  2.3362 -0.9503
 2021SOL    HW217697   4.733   2.556   9.437 -1.2519  2.0195  0.1600
 2022SOL     OW17698   0.492   1.076   3.095  0.7409 -0.1945  0.1403
 2022SOL    HW117699   0.506   0.990   3.134  0.1745 -1.3918 -2.2497
 2022SOL    HW217700   0.468   1.125   3.174  2.1336  1.5245 -0.5076
 2023SOL     OW17701   0.670   3.657  17.062 -0.0223 -0.1211  0.6787
 2023SOL    HW117702   0.711   3.726  17.009  2.2826  0.5185  3.2504
 2023SOL    HW217703   0.608   3.630  16.995  1.5340  2.1667 -1.6795
 2024SOL     OW17704   0.447   3.769   5.274 -0.6753 -0.4419  0.4685
 2024SOL    HW117705   0.388   3.706   5.233  1.1522 -0.7216 -1.6968
 2024SOL    HW217706   0.415   3.773   5.364  1.5212  1.6548  1.1686
 2025SOL     OW17707   2.713   1.829   8.576 -0.0658  0.2695  0.5017
 2025SOL    HW117708   2.738   1.741   8.604 -0.6054  0.8581  2.8279
 2025SOL    HW217709   2.774   1.840   8.503  1.7606 -1.0705  1.8288
 2026SOL     OW17710   4.321   1.512  12.388 -0.3264  0.5570  0.3170
 2026SOL    HW117711   4.403   1.498  12.340 -0.3782 -0.1245  0.4265
 2026SOL    HW217712   4.331   1.605  12.411  1.9395  0.3620  0.1287
 2027SOL     OW17713   1.076   3.357  14.869 -0.4377 -0.0911 -0.4227
 2027SOL    HW117714   1.023   3.290  14.912  2.1307 -0.4221  2.2332
 2027SOL    HW217715   1.052   3.340  14.778  1.4983  1.8127 -1.2746
 2028SOL     OW17716   2.375   4.006  14.762  0.2474  0.2914 -0.1565
 2028SOL    HW117717   2.294   4.052  14.786 -0.5284  0.6322 -3.5098
 2028SOL    HW217718   2.419   4.064  14.700  0.9214 -1.7575 -1.5770
 2029SOL     OW17719   3.191   2.288   4.588 -0.1548 -0.1783  0.1026
 2029SOL    HW117720   3.276   2.324   4.560 -0.5893  0.6300 -0.1656
 2029SOL    HW217721   3.192   2.316   4.679 -1.6421 -0.2895  0.1486
 2030SOL     OW17722   3.917   1.376   7.227 -0.6056 -0.2443 -0.2228
 2030SOL    HW117723   4.007   1.406   7.211 -1.5228  1.8425 -1.5010
 2030SOL    HW217724   3.908   1.390   7.321 -0.0769  0.8745 -0.3416
 2031SOL     OW17725   1.313   1.986  13.469 -0.5552  0.5998 -0.1500
 2031SOL    HW117726   1.374   1.914  13.453  0.3021  1.0348  1.1921
 2031SOL    HW217727   1.306   1.994  13.564  1.0230  1.7851 -0.1305
 2032SOL     OW17728   0.518   0.161   7.830  0.3039 -0.0520 -0.1584
 2032SOL    HW117729   0.501   0.166   7.924 -1.4733 -0.1016 -0.4696
 2032SOL    HW217730   0.429   0.181   7.798  0.7358  0.0381 -1.3246
 2033SOL     OW17731   3.494   2.775   1.998 -0.1513 -0.0035  0.8550
 2033SOL    HW117732   3.543   2.857   2.006 -2.4549  1.3981  0.5004
 2033SOL    HW217733   3.557   2.728   1.943 -0.5302  0.5326 -0.0375
 2034SOL     OW17734   3.558   0.527   1.465 -0.0441 -0.1289  0.0990
 2034SOL    HW117735   3.636   0.579   1.446  0.5175 -0.5148  1.3364
 2034SOL    HW217736   3.581   0.485   1.548 -0.4534 -1.5764 -0.5184
 2035SOL     OW17737   0.607   1.400   9.302  0.4583  0.5570 -0.0916
 2035SOL    HW117738   0.587   1.494   9.298 -1.9964  0.0702  0.4278
 2035SOL    HW217739   0.665   1.405   9.227  0.2066  3.0301 -0.1331
 2036SOL     OW17740   1.207   1.817   4.279 -0.2594  0.1071 -0.0139
 2036SOL    HW117741   1.217   1.723   4.270  1.4318  0.2582  0.4424
 2036SOL    HW217742   1.112   1.827   4.289 -0.2933  0.7187 -0.8501
 2037SOL     OW17743   0.760   3.204   8.721  0.5375  0.4364 -0.0975
 2037SOL    HW117744   0.821   3.150   8.670  0.0433 -1.7544  1.6428
 2037SOL    HW217745   0.769   3.166   8.808  0.4107 -0.4184 -0.4508
 2038SOL     OW17746   1.238   1.897   9.854  0.0712  0.0525 -0.0751
 2038SOL    HW117747   1.291   1.875   9.778 -1.7686 -3.2062 -0.4133
 2038SOL    HW217748   1.177   1.824   9.866 -1.5229  0.9936 -2.2298
 2039SOL     OW17749   0.976   1.020   1.592  1.0067 -0.3842  0.1149
 2039SOL    HW117750   0.911   1.046   1.657 -1.1804 -0.5905 -2.0120
 2039SOL    HW217751   0.933   1.052   1.513  1.2734 -0.3537 -0.0205
 2040SOL     OW17752   0.718   4.057  17.135  0.0110 -0.2105  0.6220
 2040SOL    HW117753   0.740   4.074  17.227 -1.9594  1.6338  0.7600
 2040SOL    HW217754   0.624   4.075  17.138  0.0765  0.3913 -0.8187
 2041SOL     OW17755   1.388   0.000   5.948  0.3075 -0.2497  0.7155
 2041SOL    HW117756   1.376   0.078   5.893 -0.0578 -0.9996 -0.2655
 2041SOL    HW217757   1.402   4.664   5.889  1.7805 -0.0277  0.7883
 2042SOL     OW17758   2.818   0.804   3.664  0.0274 -0.6496 -0.2296
 2042SOL    HW117759   2.781   0.803   3.752 -0.6761  2.9346 -0.4900
 2042SOL    HW217760   2.744   0.846   3.620  1.5312  0.0134 -2.1052
 2043SOL     OW17761   1.384   1.187   3.197 -0.0949  0.0361  0.0176
 2043SOL    HW117762   1.314   1.248   3.223 -1.0210 -1.3548  0.7412
 2043SOL    HW217763   1.334   1.144   3.128  1.9782 -2.2427 -0.0644
 2044SOL     OW17764   1.209   2.148   2.597  0.3182  0.3869  0.0914
 2044SOL    HW117765   1.186   2.083   2.664 -0.8600 -1.3337 -1.9728
 2044SOL    HW217766   1.139   2.213   2.603  0.3373  0.2855  1.4528
 2045SOL     OW17767   2.228   4.535   1.969  0.3272 -0.1126 -0.6184
 2045SOL    HW117768   2.228   4.523   1.874 -0.1506  0.6626 -0.7083
 2045SOL    HW217769   2.304   4.487   2.003 -0.6372 -1.8374 -0.8995
 2046SOL     OW17770   2.322   1.316   1.419 -0.2939  0.1631 -0.5185
 2046SOL    HW117771   2.341   1.265   1.497 -0.6741 -0.4643 -0.8393
 2046SOL    HW217772   2.385   1.270   1.363 -1.5634 -2.8777  0.5869
 2047SOL     OW17773   1.495   0.717   8.639 -0.1304  0.4242  0.4429
 2047SOL    HW117774   1.499   0.812   8.648  1.2117  0.2932  1.1826
 2047SOL    HW217775   1.471   0.701   8.730  1.3036  2.8623  1.2580
 2048SOL     OW17776   1.452   1.542   4.684 -0.0540  0.1347  0.2374
 2048SOL    HW117777   1.367   1.538   4.642  0.2766  0.2465 -0.4498
 2048SOL    HW217778   1.512   1.554   4.610  0.3538  0.9300  0.6924
 2049SOL     OW17779   4.175   0.237   9.562  0.6511 -0.2669  0.0691
 2049SOL    HW117780   4.090   0.193   9.565 -0.2363  1.4228 -0.3626
 2049SOL    HW217781   4.189   0.257   9.654 -0.8826  0.2338  0.1941
 2050SOL     OW17782   0.910   3.227   6.164 -0.2395 -0.3415 -0.1213
 2050SOL    HW117783   0.983   3.209   6.104 -0.1787  1.5283 -0.5960
 2050SOL    HW217784   0.911   3.323   6.166 -0.9757 -0.3578  1.2118
 2051SOL     OW17785   0.342   2.981  17.187 -0.1224  0.2024 -0.0336
 2051SOL    HW117786   0.408   2.912  17.184  1.4407  1.7525 -0.9555
 2051SOL    HW217787   0.393   3.061  17.173 -0.6249  0.4549 -0.4281
 2052SOL     OW17788   1.719   2.312   0.549  0.2006 -0.4371 -0.5265
 2052SOL    HW117789   1.714   2.216   0.557 -1.7964 -0.3749 -0.9840
 2052SOL    HW217790   1.648   2.332   0.488 -1.8205 -0.3330  1.8514
 2053SOL     OW17791   2.431   1.819   4.267  0.4413 -0.0490 -0.5839
 2053SOL    HW117792   2.347   1.828   4.311 -0.4905 -0.8463 -2.2110
 2053SOL    HW217793   2.496   1.850   4.331  0.8006 -0.6791 -0.6332
 2054SOL     OW17794   4.695   2.410   5.384 -0.1297 -0.1840 -0.0410
 2054SOL    HW117795   4.654   2.339   5.435  0.2251 -0.6594 -0.4197
 2054SOL    HW217796   0.040   2.369   5.362 -0.2642 -0.6392  0.3018
 2055SOL     OW17797   3.431   2.256   7.333 -0.3059  0.9772  0.0180
 2055SOL    HW117798   3.393   2.209   7.407  0.4734  0.9808  0.4273
 2055SOL    HW217799   3.389   2.223   7.253  0.7960 -2.0599  0.6848
 2056SOL     OW17800   3.591   1.215  16.139  0.3001  0.4073  0.9245
 2056SOL    HW117801   3.638   1.201  16.056  0.6940  3.7244  0.5853
 2056SOL    HW217802   3.608   1.307  16.158  0.4368  0.3920  0.8763
 2057SOL     OW17803   1.705   2.159   0.079 -0.8679  0.4119  0.2506
 2057SOL    HW117804   1.752   2.235   0.113 -0.1205  0.0213  0.1015
 2057SOL    HW217805   1.777   2.149   0.016 -1.4244  2.3741 -0.6827
 2058SOL     OW17806   2.548   3.277   1.561 -0.6219  0.7387 -0.6620
 2058SOL    HW117807   2.616   3.256   1.498 -0.3945 -1.4444  0.3163
 2058SOL    HW217808   2.538   3.372   1.561  1.7576  0.9801  1.3499
 2059SOL     OW17809   1.030   3.331   7.348 -0.0512  0.6383 -0.0318
 2059SOL    HW117810   0.987   3.410   7.314  0.5029  0.4987 -1.0500
 2059SOL    HW217811   1.036   3.338   7.443 -1.4701 -2.8018  0.3350
 2060SOL     OW17812   1.099   1.837  15.898 -0.1551 -0.1906  0.6712
 2060SOL    HW117813   1.086   1.818  15.991  0.5432 -0.9922  0.6023
 2060SOL    HW217814   1.035   1.773  15.867  0.7115  0.5335 -2.6257
 2061SOL     OW17815   4.261   4.175   7.285  1.1712  0.1783 -0.5088
 2061SOL    HW117816   4.176   4.206   7.316  1.8230  2.5612 -1.1077
 2061SOL    HW217817   4.321   4.203   7.354  0.4995  0.6580 -0.1266
 2062SOL     OW17818   4.098   3.134   3.564  0.4084  0.1637 -0.3300
 2062SOL    HW117819   4.042   3.058   3.573  1.8864 -0.9905 -0.8459
 2062SOL    HW217820   4.077   3.152   3.472  0.0128 -1.0441 -0.4632
 2063SOL     OW17821   1.719   2.547   5.333 -0.2364 -1.1764  0.0271
 2063SOL    HW117822   1.693   2.569   5.423 -2.5874  0.3918 -1.0101
 2063SOL    HW217823   1.771   2.469   5.351  1.0283 -0.1637  0.7172
 2064SOL     OW17824   0.069   3.949   5.056 -0.2492  0.1141 -0.8156
 2064SOL    HW117825   0.096   4.038   5.079  0.8159 -0.9158  1.9904
 2064SOL    HW217826   4.735   3.964   4.995 -0.2446  2.2073 -0.3159
 2065SOL     OW17827   4.692   2.338   7.998 -0.2565  0.0806 -0.0311
 2065SOL    HW117828   4.675   2.248   7.969  1.0083  0.1042 -0.8483
 2065SOL    HW217829   0.021   2.335   8.066  0.6731 -0.2675 -0.9678
 2066SOL     OW17830   4.026   3.838   6.360 -0.1731 -0.5536  0.0125
 2066SOL    HW117831   3.976   3.874   6.433 -0.6072 -0.8629 -0.1300
 2066SOL    HW217832   4.078   3.775   6.411 -0.6100 -1.9123 -1.2135
 2067SOL     OW17833   4.057   0.581   2.205  0.5721  0.7870 -0.2443
 2067SOL    HW117834   4.111   0.614   2.277  1.5053  0.8164 -0.9508
 2067SOL    HW217835   4.051   0.652   2.141 -1.4715  1.1264  0.3207
 2068SOL     OW17836   1.486   1.230   8.791 -0.1169 -0.1415 -0.2266
 2068SOL    HW117837   1.548   1.251   8.862  0.3513  0.1646 -0.7319
 2068SOL    HW217838   1.403   1.239   8.838 -0.4263 -1.5541 -0.4904
 2069SOL     OW17839   4.049   2.557  13.863 -0.9326  0.0776 -0.1167
 2069SOL    HW117840   4.127   2.505  13.843 -1.1973 -0.5859  0.5768
 2069SOL    HW217841   4.087   2.644  13.853 -1.2639  0.6965  4.0142
 2070SOL     OW17842   2.099   3.454  17.113 -0.2253  0.5988 -0.2248
 2070SOL    HW117843   2.042   3.505  17.170 -1.0087 -0.3845 -0.1344
 2070SOL    HW217844   2.047   3.374  17.105 -2.3891  1.7174  2.8428
 2071SOL     OW17845   3.570   4.592   8.264 -0.2019 -0.0209  0.3793
 2071SOL    HW117846   3.542   4.592   8.355  3.1946 -0.9747  1.4388
 2071SOL    HW217847   3.636   4.522   8.269 -1.2452 -0.8828  2.0509
 2072SOL     OW17848   0.753   3.835  13.758 -0.1883 -0.6569 -0.0200
 2072SOL    HW117849   0.680   3.891  13.733  0.2696  0.4492  1.0788
 2072SOL    HW217850   0.830   3.890  13.745 -0.6816  0.9466  3.7704
 2073SOL     OW17851   2.601   0.923   3.171 -0.5806  0.0149  0.0386
 2073SOL    HW117852   2.545   0.881   3.236 -2.1942  0.6251 -0.9579
 2073SOL    HW217853   2.584   1.016   3.188  0.1719  0.0459  0.6227
 2074SOL     OW17854   4.055   2.229   9.762 -0.1391  0.3377  0.2493
 2074SOL    HW117855   4.021   2.313   9.792 -1.0412 -0.2233  0.8068
 2074SOL    HW217856   4.115   2.258   9.693 -2.1266  1.8598 -0.8497
 2075SOL     OW17857   3.386   0.821   6.413  0.0134 -0.2895  0.5262
 2075SOL    HW117858   3.349   0.742   6.452  1.3129 -1.0940  0.1506
 2075SOL    HW217859   3.476   0.820   6.445 -0.2771 -3.0099  1.2528
 2076SOL     OW17860   2.386   2.333   2.433  0.4386 -0.1892  0.0929
 2076SOL    HW117861   2.297   2.314   2.402  0.3333  1.6431 -0.7569
 2076SOL    HW217862   2.377   2.378   2.517 -0.1743  1.3062 -0.7580
 2077SOL     OW17863   3.144   0.319   9.250  0.0283 -0.4104  0.2855
 2077SOL    HW117864   3.208   0.382   9.216 -0.7742  0.0204 -0.4155
 2077SOL    HW217865   3.196   0.288   9.324  2.8805 -0.0389 -1.5546
 2078SOL     OW17866   3.021   0.485   2.589  0.1413  0.0996  0.2922
 2078SOL    HW117867   2.972   0.503   2.669  1.9366  3.1735  0.6955
 2078SOL    HW217868   3.020   0.572   2.549  0.9333 -0.2296 -0.4325
 2079SOL     OW17869   2.926   3.847   3.093 -0.5264  0.0903 -0.1853
 2079SOL    HW117870   2.997   3.817   3.036 -0.4246 -2.9220  1.5507
 2079SOL    HW217871   2.883   3.898   3.024  1.5738  2.5298  0.2588
 2080SOL     OW17872   2.885   2.444  15.966  0.5214 -0.8722 -0.5173
 2080SOL    HW117873   2.807   2.390  15.975  0.3445 -0.6013 -0.4248
 2080SOL    HW217874   2.860   2.514  15.907  0.3943 -0.2624  0.2638
 2081SOL     OW17875   4.613   3.887   6.318 -0.2008 -0.6157  0.2451
 2081SOL    HW117876   4.542   3.927   6.267  2.1916  0.8944 -1.8915
 2081SOL    HW217877   4.628   3.951   6.387  0.7952 -0.0714 -0.4797
 2082SOL     OW17878   3.457   2.216  12.605  0.3539 -0.1852  0.2387
 2082SOL    HW117879   3.446   2.135  12.654  1.0684  0.7136  1.8746
 2082SOL    HW217880   3.532   2.191  12.551  1.1776  0.1915  1.2218
 2083SOL     OW17881   3.207   2.102  12.744 -0.2407  1.0502 -0.4473
 2083SOL    HW117882   3.248   2.151  12.673 -1.4208  0.3221 -1.6329
 2083SOL    HW217883   3.267   2.030  12.762  1.2793  1.7969 -2.5316
 2084SOL     OW17884   4.144   4.723   7.600  0.1943 -0.7495 -0.1908
 2084SOL    HW117885   4.053   0.010   7.615  0.4673  0.3907 -0.4791
 2084SOL    HW217886   4.173   4.730   7.691  1.2207  3.8926 -0.8845
 2085SOL     OW17887   0.992   1.588   9.342 -0.3502  0.2329 -0.3504
 2085SOL    HW117888   0.968   1.509   9.392 -1.9963  1.3921  0.6857
 2085SOL    HW217889   0.933   1.565   9.270  2.1795 -1.2756 -1.9684
 2086SOL     OW17890   4.684   3.105   9.691 -0.2689  0.3691 -0.0240
 2086SOL    HW117891   4.656   3.193   9.666  0.6197  0.7592  0.3389
 2086SOL    HW217892   4.680   3.115   9.786 -2.9564  0.1752 -0.1168
 2087SOL     OW17893   1.790   0.453   3.595  0.4600 -0.1109  0.4126
 2087SOL    HW117894   1.841   0.372   3.589 -0.8602 -0.6169 -3.9360
 2087SOL    HW217895   1.852   0.506   3.647  1.4189  0.5929 -1.4620
 2088SOL     OW17896   4.118   0.715   2.437 -0.3462  0.2313  0.1093
 2088SOL    HW117897   4.084   0.779   2.500  1.1563 -0.6466  1.7817
 2088SOL    HW217898   4.210   0.699   2.457 -0.4010 -0.5271 -0.2356
 2089SOL     OW17899   4.228   4.697   2.677  0.5069  0.5761  0.2570
 2089SOL    HW117900   4.174   4.665   2.604  0.9924  0.9204 -0.2570
 2089SOL    HW217901   4.236   4.615   2.725  2.7558  0.6286 -0.0216
 2090SOL     OW17902   0.477   0.156   7.141  0.1108 -0.0599 -0.0501
 2090SOL    HW117903   0.560   0.170   7.096 -0.5018 -2.5262 -1.9905
 2090SOL    HW217904   0.438   0.242   7.152  1.4726  0.8379 -2.1922
 2091SOL     OW17905   3.518   2.974   8.667 -0.1316  0.1284 -0.4381
 2091SOL    HW117906   3.472   3.034   8.609  0.4308  1.4835  0.4866
 2091SOL    HW217907   3.481   2.891   8.641  0.9450 -1.0490  1.7300
 2092SOL     OW17908   0.348   1.788   1.741 -0.1951  0.4759  0.3834
 2092SOL    HW117909   0.282   1.751   1.682  0.9486 -0.3938 -0.3568
 2092SOL    HW217910   0.282   1.810   1.807 -1.3613  0.8604 -0.8919
 2093SOL     OW17911   0.085   0.783   5.476  0.0185  0.0866  0.3201
 2093SOL    HW117912   0.128   0.857   5.433  0.6141 -1.6566 -2.0992
 2093SOL    HW217913   0.163   0.729   5.478 -0.5292 -0.6864  0.6222
 2094SOL     OW17914   1.650   3.860  10.758  0.0581  0.4642  0.8975
 2094SOL    HW117915   1.614   3.935  10.711 -1.8140 -0.4404  0.9154
 2094SOL    HW217916   1.660   3.890  10.849  0.4212  1.0695  0.6614
 2095SOL     OW17917   0.648   0.620   4.185 -0.1843  0.2402 -0.5195
 2095SOL    HW117918   0.732   0.576   4.180  0.3219  1.2187 -0.6683
 2095SOL    HW217919   0.593   0.551   4.148 -1.7040  0.8222  0.6542
 2096SOL     OW17920   2.784   4.097   1.860 -0.6471 -0.4411 -0.1785
 2096SOL    HW117921   2.851   4.029   1.866  0.7019  0.6873 -2.5914
 2096SOL    HW217922   2.702   4.047   1.854 -1.2510  0.5482 -0.2878
 2097SOL     OW17923   1.325   2.183   7.674 -0.3854  0.4086  0.2012
 2097SOL    HW117924   1.280   2.266   7.657 -2.0077 -0.3372  0.8599
 2097SOL    HW217925   1.256   2.117   7.670  1.3733 -1.4350  0.3627
 2098SOL     OW17926   3.522   1.028  11.096  0.3880  0.5108  0.1192
 2098SOL    HW117927   3.609   1.062  11.075  0.3753  0.5644  0.1549
 2098SOL    HW217928   3.518   1.053  11.189  0.5693  1.6404 -0.1839
 2099SOL     OW17929   2.628   0.842   4.499  0.4487  0.0102 -0.0928
 2099SOL    HW117930   2.663   0.914   4.553 -0.4613 -0.0396  0.5556
 2099SOL    HW217931   2.713   0.802   4.479  1.0924  0.9016  0.8278
 2100SOL     OW17932   1.037   3.644   2.030 -0.3448 -0.3282 -0.3979
 2100SOL    HW117933   1.005   3.663   1.942  0.5674  0.2375 -0.6091
 2100SOL    HW217934   1.001   3.555   2.034  1.8142 -1.1275  1.2876
 2101SOL     OW17935   1.621   0.250   6.649  0.0968 -0.4934  0.6051
 2101SOL    HW117936   1.615   0.342   6.620  1.7965 -1.5557 -3.2263
 2101SOL    HW217937   1.531   0.242   6.680 -0.2086  2.0037  0.4241
 2102SOL     OW17938   3.010   0.161  17.682 -0.2202  0.2142  0.0840
 2102SOL    HW117939   2.966   0.185   0.013 -3.0563 -3.3076 -0.4157
 2102SOL    HW217940   2.960   0.082  17.664 -1.1437  1.0026 -0.8422
 2103SOL     OW17941   0.757   4.472   2.898 -0.4619 -0.0300 -0.4215
 2103SOL    HW117942   0.726   4.404   2.958 -0.0031 -0.2393 -0.4189
 2103SOL    HW217943   0.721   4.558   2.921  1.6293  0.9757 -0.9013
 2104SOL     OW17944   0.151   3.119   2.319 -0.7091  0.1570 -0.1325
 2104SOL    HW117945   0.143   3.040   2.372 -0.9793  0.6773  0.6035
 2104SOL    HW217946   0.238   3.102   2.284 -0.9229  0.5943 -0.8645
 2105SOL     OW17947   3.486   0.287   4.278 -0.5058  0.0758  0.1915
 2105SOL    HW117948   3.469   0.300   4.371  1.0834  1.3921  0.2896
 2105SOL    HW217949   3.580   0.280   4.262 -0.9049 -0.0906 -2.2110
 2106SOL     OW17950   2.731   0.339  17.644  0.5006 -0.5923  0.2518
 2106SOL    HW117951   2.748   0.340  17.550  1.4147 -1.1251  0.4093
 2106SOL    HW217952   2.767   0.254  17.670  1.2680  0.9214  4.1297
 2107SOL     OW17953   0.410   1.076   6.488  0.5362 -0.3755 -0.2419
 2107SOL    HW117954   0.497   1.066   6.527  0.0867  1.8749  1.3449
 2107SOL    HW217955   0.401   1.171   6.480 -0.7510 -0.6314 -2.0296
 2108SOL     OW17956   3.291   2.010   6.886 -0.6983 -0.0842  0.1955
 2108SOL    HW117957   3.377   2.042   6.912  0.0625 -1.0003 -1.1994
 2108SOL    HW217958   3.308   2.003   6.792  0.2908 -1.1529  0.4470
 2109SOL     OW17959   2.601   4.076  17.713  0.0042 -0.0773 -0.0665
 2109SOL    HW117960   2.657   4.148  17.685  2.4215 -0.4805  3.6122
 2109SOL    HW217961   2.645   3.999  17.676  2.0932  0.7563  0.6655
 2110SOL     OW17962   2.589   0.408   3.497  0.2478 -0.1087  0.6424
 2110SOL    HW117963   2.630   0.321   3.503  0.1173 -0.1420  1.0093
 2110SOL    HW217964   2.564   0.433   3.586 -1.5251  0.8658 -0.1315
 2111SOL     OW17965   0.720   0.335   4.403  0.6658 -0.4476  0.1890
 2111SOL    HW117966   0.653   0.276   4.438  0.2662  0.8068  1.5505
 2111SOL    HW217967   0.694   0.355   4.313  1.1815  0.7869  0.3187
 2112SOL     OW17968   4.288   2.744   7.431 -0.3278 -0.8422  0.0412
 2112SOL    HW117969   4.195   2.744   7.454 -1.0994 -1.1106 -3.0330
 2112SOL    HW217970   4.294   2.694   7.350 -0.9066  0.2126 -0.6467
 2113SOL     OW17971   4.552   3.368   9.731  0.4165  0.3173 -0.2767
 2113SOL    HW117972   4.536   3.427   9.657 -0.5223  1.9750  1.2765
 2113SOL    HW217973   4.592   3.425   9.796 -0.0718  1.5695 -1.0648
 2114SOL     OW17974   0.828   4.057   7.767 -0.0799  0.6574  0.2959
 2114SOL    HW117975   0.741   4.097   7.761  0.3985  1.9523  2.1464
 2114SOL    HW217976   0.844   4.037   7.675 -0.3972  0.3421  0.3141
 2115SOL     OW17977   1.109   3.975   6.175 -0.0961 -0.6700 -0.0682
 2115SOL    HW117978   1.065   4.034   6.113  0.0708  0.6074  1.0279
 2115SOL    HW217979   1.080   4.019   6.255  1.6341 -0.8842  0.6634
 2116SOL     OW17980   4.470   1.925   4.873  0.2196 -0.1348  0.4578
 2116SOL    HW117981   4.454   1.976   4.952 -0.9942 -0.4546  0.4149
 2116SOL    HW217982   4.543   1.866   4.894  0.2542 -0.7380 -1.3465
 2117SOL     OW17983   0.676   3.162  16.978 -0.3391  0.1901 -0.7437
 2117SOL    HW117984   0.756   3.214  16.985 -1.1872  1.3529  0.1576
 2117SOL    HW217985   0.616   3.199  17.042  0.3453  2.2788 -1.3276
 2118SOL     OW17986   1.323   1.702   5.582  0.1518  0.2057  0.1514
 2118SOL    HW117987   1.277   1.621   5.601 -0.8454  0.5397 -0.7900
 2118SOL    HW217988   1.400   1.669   5.536  0.0492 -1.0645  0.8983
 2119SOL     OW17989   1.136   2.613   4.050 -0.0785 -0.7076  0.8238
 2119SOL    HW117990   1.147   2.553   4.124  0.0820 -0.0214  1.3519
 2119SOL    HW217991   1.072   2.568   3.996  0.5077 -0.1743 -0.3248
 2120SOL     OW17992   0.462   1.473  15.985  0.1040  0.1914 -0.1815
 2120SOL    HW117993   0.552   1.447  16.004 -0.8225 -2.3380  0.7035
 2120SOL    HW217994   0.428   1.402  15.932  1.2242 -0.8484  0.4966
 2121SOL     OW17995   0.438   1.715  13.585 -0.4027  0.3453 -0.0267
 2121SOL    HW117996   0.491   1.662  13.645 -0.1644  0.7457  0.1114
 2121SOL    HW217997   0.461   1.802  13.618 -1.5376  0.5462  0.2352
 2122SOL     OW17998   0.971   1.100   5.374 -0.1725 -0.2784 -0.1167
 2122SOL    HW117999   0.950   1.123   5.283 -1.5847 -1.6423 -0.1424
 2122SOL    HW218000   0.981   1.187   5.412 -0.6570  0.3134 -1.3406
 2123SOL     OW18001   2.775   4.156   3.131  0.2149  0.4194  0.0228
 2123SOL    HW118002   2.825   4.126   3.207  0.1054 -1.3749 -0.6218
 2123SOL    HW218003   2.692   4.166   3.176  1.4407  1.4872  2.0764
 2124SOL     OW18004   2.053   4.677  15.304  0.1707 -0.3509  0.8711
 2124SOL    HW118005   1.975   4.725  15.332 -0.6367 -0.2991 -1.4296
 2124SOL    HW218006   2.013   4.601  15.263  0.2355  0.3086 -0.4266
 2125SOL     OW18007   0.325   1.254  15.782 -0.6577  0.2652 -0.6513
 2125SOL    HW118008   0.302   1.195  15.711 -0.8294  4.5010 -4.0879
 2125SOL    HW218009   0.247   1.309  15.788  1.6005  3.2304  1.6934
 2126SOL     OW18010   1.617   1.384  11.155  0.4129 -0.0503  0.1988
 2126SOL    HW118011   1.685   1.379  11.088  0.9392  1.3126  0.6391
 2126SOL    HW218012   1.553   1.315  11.137 -0.2453  0.9966 -1.4427
 2127SOL     OW18013   1.204   2.722   3.670 -0.5336 -0.0045 -0.1637
 2127SOL    HW118014   1.163   2.800   3.633  1.1948  2.1930  2.5433
 2127SOL    HW218015   1.226   2.760   3.755  0.7196  0.9767 -0.9322
 2128SOL     OW18016   3.861   0.189   2.698 -0.5375 -0.1139  0.2849
 2128SOL    HW118017   3.909   0.132   2.759 -2.0069 -0.5643  1.0051
 2128SOL    HW218018   3.937   0.213   2.645  0.0752  0.6604  1.5101
 2129SOL     OW18019   1.375   2.492  13.504 -0.6336 -0.1703 -0.6464
 2129SOL    HW118020   1.342   2.564  13.450  0.0008  0.4967 -0.1452
 2129SOL    HW218021   1.382   2.422  13.439  0.7315  0.2544 -0.9646
 2130SOL     OW18022   3.510   2.066   4.288 -0.1734 -0.7985 -0.0146
 2130SOL    HW118023   3.436   2.093   4.344  0.0821 -1.2992  0.5667
 2130SOL    HW218024   3.467   2.003   4.230 -1.5951 -0.9245  1.1622
 2131SOL     OW18025   3.458   1.591   5.722  0.0731 -0.5481 -0.1373
 2131SOL    HW118026   3.516   1.667   5.725  1.4587 -1.7483  2.9525
 2131SOL    HW218027   3.512   1.521   5.758 -0.8359 -2.1611 -1.9385
 2132SOL     OW18028   3.527   0.093   6.334  0.1932 -0.8303  0.6757
 2132SOL    HW118029   3.530   0.022   6.271  2.1310  0.6090 -0.8785
 2132SOL    HW218030   3.575   0.052   6.407  0.2877 -0.9204  0.5615
 2133SOL     OW18031   2.534   4.088   6.078  0.5182  0.6292 -0.0056
 2133SOL    HW118032   2.563   4.108   5.989  0.2488  4.3753  0.7438
 2133SOL    HW218033   2.607   4.111   6.135 -0.9366  1.3713  1.5482
 2134SOL     OW18034   3.486   3.546   0.103 -0.1862 -0.2340  0.3937
 2134SOL    HW118035   3.475   3.455   0.130 -1.1086 -1.6323 -4.6645
 2134SOL    HW218036   3.459   3.551   0.011  0.8576  1.1840  0.1757
 2135SOL     OW18037   0.260   4.438  16.613 -0.6176 -0.5211  0.1731
 2135SOL    HW118038   0.265   4.351  16.652 -0.0462  0.9176  3.3328
 2135SOL    HW218039   0.258   4.498  16.688 -4.2907  0.9804 -1.1736
 2136SOL     OW18040   3.952   2.681   5.854 -0.6084 -0.1598  0.6212
 2136SOL    HW118041   3.940   2.654   5.763 -0.9517  1.0283  0.3277
 2136SOL    HW218042   3.942   2.775   5.845 -1.6473 -0.6003 -2.6898
 2137SOL     OW18043   3.915   1.365   2.732  0.2650  0.3230 -0.0863
 2137SOL    HW118044   4.008   1.342   2.736  0.2365  0.2694  0.2683
 2137SOL    HW218045   3.870   1.281   2.718  2.9415 -0.9608 -1.0213
 2138SOL     OW18046   0.904   3.368   1.035  0.0855  0.2577 -0.1845
 2138SOL    HW118047   0.843   3.434   1.071 -1.6963 -0.9374 -1.0039
 2138SOL    HW218048   0.959   3.411   0.970  1.6463  1.3711  1.8929
 2139SOL     OW18049   2.837   0.835   5.330  0.1603  0.3324  0.7739
 2139SOL    HW118050   2.929   0.859   5.327 -0.3644  2.0779 -1.1961
 2139SOL    HW218051   2.806   0.876   5.249 -1.6813  1.1091  1.8715
 2140SOL     OW18052   4.073   0.935   9.635 -0.1722 -0.8850 -0.7869
 2140SOL    HW118053   4.138   0.866   9.624  1.0835  0.3119 -0.9511
 2140SOL    HW218054   4.042   0.933   9.725  1.3572 -0.9289 -0.2728
 2141SOL     OW18055   3.326   0.418  14.151  0.2136 -0.5167 -0.0264
 2141SOL    HW118056   3.329   0.451  14.061 -1.4835  0.9046  0.4179
 2141SOL    HW218057   3.418   0.415  14.177  0.5927  0.4507 -1.2226
 2142SOL     OW18058   2.033   1.017   2.147 -0.2690  0.0056 -0.1427
 2142SOL    HW118059   2.066   0.939   2.190  0.5177 -0.0308 -0.8289
 2142SOL    HW218060   1.942   0.987   2.142 -0.8567  1.8094 -0.4971
 2143SOL     OW18061   0.696   1.949   6.940  0.7334  0.2110 -0.3143
 2143SOL    HW118062   0.687   1.860   6.975 -0.4920  0.8990  1.1121
 2143SOL    HW218063   0.768   1.935   6.879  1.3068 -0.8650  0.5994
 2144SOL     OW18064   0.094   0.622   0.800  0.2355 -0.4147  0.1214
 2144SOL    HW118065   0.008   0.660   0.786  0.9744  1.4978  0.8358
 2144SOL    HW218066   0.150   0.690   0.761 -0.4066  0.3026  0.4628
 2145SOL     OW18067   3.863   2.305   6.739 -0.0818 -0.8556 -0.4321
 2145SOL    HW118068   3.924   2.260   6.798 -1.3901  0.4150  1.9280
 2145SOL    HW218069   3.850   2.385   6.791  3.0856 -0.5224 -0.1627
 2146SOL     OW18070   4.559   0.576   5.056 -0.2658 -0.0740  0.1688
 2146SOL    HW118071   4.517   0.652   5.095 -0.9042 -0.2732 -0.1347
 2146SOL    HW218072   4.569   0.521   5.134  0.1225 -0.6634 -0.2937
 2147SOL     OW18073   0.141   0.607  15.631 -0.4963 -0.3116 -0.3967
 2147SOL    HW118074   0.133   0.699  15.657 -1.7374 -0.2492 -0.9890
 2147SOL    HW218075   0.102   0.564  15.708 -4.0849  1.7806 -1.0160
 2148SOL     OW18076   0.995   2.559   6.409 -0.1983  0.3370 -0.5816
 2148SOL    HW118077   1.053   2.612   6.464  0.4922 -2.7272  1.6782
 2148SOL    HW218078   0.950   2.625   6.356 -0.1295 -0.0359 -1.1059
 2149SOL     OW18079   1.710   2.117   5.115 -0.2918 -0.4766  0.5093
 2149SOL    HW118080   1.694   2.023   5.105  1.7709 -0.5281 -2.2372
 2149SOL    HW218081   1.618   2.133   5.137  0.1043 -0.4651  2.2092
 2150SOL     OW18082   0.001   3.522   6.678 -0.3745  0.5051 -0.6223
 2150SOL    HW118083   0.059   3.505   6.752 -3.1589  0.5569  1.5712
 2150SOL    HW218084   4.653   3.547   6.711 -0.8840  1.8007 -2.9015
 2151SOL     OW18085   4.119   3.833   9.134 -0.0910  0.1221 -0.4004
 2151SOL    HW118086   4.201   3.880   9.150 -0.3106  0.7608 -1.1539
 2151SOL    HW218087   4.059   3.874   9.196  0.4504 -0.3919  0.4720
 2152SOL     OW18088   0.829   0.742   9.220 -0.5282 -0.1350 -0.5059
 2152SOL    HW118089   0.762   0.802   9.187 -1.9219  0.2694  3.0780
 2152SOL    HW218090   0.793   0.658   9.193 -1.4522 -0.3180  1.2739
 2153SOL     OW18091   1.474   1.538   8.184  0.2441  0.0172 -0.4004
 2153SOL    HW118092   1.383   1.567   8.191 -0.0047 -1.3921  2.6190
 2153SOL    HW218093   1.506   1.619   8.223  0.4241 -0.4239  0.3862
 2154SOL     OW18094   0.869   3.287   7.733 -0.1712  0.3189  0.0082
 2154SOL    HW118095   0.810   3.305   7.660 -0.5272  0.0280  0.2236
 2154SOL    HW218096   0.954   3.314   7.697  0.2069  1.3728  1.6741
 2155SOL     OW18097   2.923   2.920   3.475  0.2286  0.0214  0.2481
 2155SOL    HW118098   2.897   3.012   3.483  1.1184  0.3739 -0.9513
 2155SOL    HW218099   2.843   2.868   3.471  1.0232 -1.1021 -0.7881
 2156SOL     OW18100   3.632   4.371   5.177 -0.2212  0.0672  0.3485
 2156SOL    HW118101   3.684   4.443   5.142 -1.8887  1.7849  1.4202
 2156SOL    HW218102   3.545   4.408   5.192  1.6841  3.7136  2.2307
 2157SOL     OW18103   3.278   2.973   3.774  0.2173 -0.2665 -0.3247
 2157SOL    HW118104   3.245   3.037   3.711 -1.4994 -1.2622 -0.4309
 2157SOL    HW218105   3.200   2.918   3.778  1.3503 -1.7086  1.7544
 2158SOL     OW18106   2.259   2.572   4.025  0.6522 -0.0905 -0.0849
 2158SOL    HW118107   2.307   2.560   4.107  0.5463  0.5808  0.0758
 2158SOL    HW218108   2.314   2.527   3.960 -0.7155  1.9623 -2.6314
 2159SOL     OW18109   4.262   2.984  12.380  0.1649  0.1529  0.0936
 2159SOL    HW118110   4.307   2.948  12.457  1.6636 -0.3156 -0.9862
 2159SOL    HW218111   4.214   2.906  12.352  1.0409 -0.3641  0.0037
 2160SOL     OW18112   4.517   3.885   9.585 -0.5869  0.0441 -0.1317
 2160SOL    HW118113   4.434   3.886   9.631 -1.1115  0.4276 -1.0776
 2160SOL    HW218114   4.576   3.842   9.646  0.9991  0.7215 -1.1638
 2161SOL     OW18115   0.029   1.198   0.931  0.1965  0.0436 -0.6298
 2161SOL    HW118116   4.724   1.161   0.854  1.0744 -0.6515 -0.7920
 2161SOL    HW218117   0.072   1.123   0.974 -1.9592 -1.5579 -1.2823
 2162SOL     OW18118   0.271   3.330   2.935 -0.0851  0.2035  0.4887
 2162SOL    HW118119   0.219   3.283   3.000  0.9335  0.6775  1.6380
 2162SOL    HW218120   0.301   3.404   2.987  0.4476 -0.8765  1.7167
 2163SOL     OW18121   1.363   4.370   7.005  0.1381 -0.3222 -0.3709
 2163SOL    HW118122   1.455   4.370   6.976  0.3728  1.5050  0.3734
 2163SOL    HW218123   1.338   4.280   6.985 -1.2151  0.6456 -2.9171
 2164SOL     OW18124   3.796   0.578   0.210 -0.4352 -0.2852  0.4054
 2164SOL    HW118125   3.892   0.581   0.212 -0.4767  1.1700 -0.1203
 2164SOL    HW218126   3.775   0.485   0.215 -0.5368 -0.2112  1.5169
 2165SOL     OW18127   2.813   0.927   8.009  0.1930 -0.2094 -0.3011
 2165SOL    HW118128   2.872   1.002   8.006  0.0767 -0.1711 -1.6090
 2165SOL    HW218129   2.731   0.963   7.975 -0.1500 -0.3238  0.4193
 2166SOL     OW18130   1.676   2.512   8.559 -0.0801 -0.1737  0.4374
 2166SOL    HW118131   1.610   2.542   8.497  2.0504  1.8730 -0.8456
 2166SOL    HW218132   1.652   2.422   8.579  1.6005 -0.9717 -1.1963
 2167SOL     OW18133   2.386   1.376   4.924 -0.3087  0.5280  0.2045
 2167SOL    HW118134   2.419   1.286   4.930 -0.1031  0.6422  0.7797
 2167SOL    HW218135   2.368   1.395   4.832 -0.6186 -0.7939 -0.0063
 2168SOL     OW18136   3.447   2.956  10.853 -0.2249 -0.6239 -0.0560
 2168SOL    HW118137   3.439   3.051  10.861 -1.7521 -0.9070  1.8659
 2168SOL    HW218138   3.494   2.938  10.934 -0.1433  1.6316  0.3970
 2169SOL     OW18139   0.846   1.688   3.164  0.9095 -0.7218  0.5822
 2169SOL    HW118140   0.885   1.656   3.245 -2.2118  1.2667  2.8458
 2169SOL    HW218141   0.805   1.767   3.200 -0.4340 -0.5970 -1.1822
 2170SOL     OW18142   3.834   0.442  14.679  0.3047  0.0873 -0.4134
 2170SOL    HW118143   3.841   0.392  14.597 -0.1079  1.4590 -1.2800
 2170SOL    HW218144   3.740   0.433  14.691  0.0574 -0.0990 -2.4409
 2171SOL     OW18145   3.633   2.736   2.321 -0.3908  0.1774 -0.1650
 2171SOL    HW118146   3.708   2.794   2.337 -0.2910  0.0468 -0.1586
 2171SOL    HW218147   3.575   2.760   2.393 -0.5640 -1.7924  0.3452
 2172SOL     OW18148   4.460   0.183   3.453 -0.6715  0.1321 -0.3729
 2172SOL    HW118149   4.368   0.157   3.457 -0.7036  0.1405 -0.9776
 2172SOL    HW218150   4.501   0.143   3.529 -1.5509  1.6845  0.9187
 2173SOL     OW18151   2.493   1.767   2.082  0.2675  0.4739 -0.1586
 2173SOL    HW118152   2.465   1.807   2.164 -0.4179 -3.9319  1.7991
 2173SOL    HW218153   2.588   1.774   2.093  0.5949 -1.6418 -1.6607
 2174SOL     OW18154   2.763   3.230   2.089  0.1628  0.3782  0.3336
 2174SOL    HW118155   2.853   3.242   2.060 -0.3866  1.7715 -0.7574
 2174SOL    HW218156   2.720   3.259   2.009  0.9600 -1.5060 -0.7876
 2175SOL     OW18157   0.746   4.364   2.020  0.4248 -0.5557  0.1183
 2175SOL    HW118158   0.801   4.440   2.002 -2.5142  2.0320  2.0144
 2175SOL    HW218159   0.780   4.340   2.107  1.6053  0.4792 -0.0733
 2176SOL     OW18160   0.706   2.721  15.452 -0.1742 -0.4669 -0.1983
 2176SOL    HW118161   0.768   2.648  15.452 -0.6546 -0.8580  3.3711
 2176SOL    HW218162   0.637   2.679  15.402  1.1453 -1.6899 -1.0002
 2177SOL     OW18163   2.431   1.511  12.237 -0.2954 -0.7949 -0.0704
 2177SOL    HW118164   2.494   1.470  12.295  0.2087 -2.2561 -1.6411
 2177SOL    HW218165   2.489   1.570  12.188 -2.4182 -0.3167 -2.0343
 2178SOL     OW18166   3.507   4.598   4.579  0.2898 -0.3541  0.5615
 2178SOL    HW118167   3.485   4.513   4.617  0.7307 -0.2163  1.1320
 2178SOL    HW218168   3.432   4.651   4.604  0.1729 -0.3966  0.2991
 2179SOL     OW18169   0.782   0.466  16.347 -0.2922  0.8929  0.6452
 2179SOL    HW118170   0.815   0.416  16.273 -0.7803  0.3632  0.7823
 2179SOL    HW218171   0.844   0.537  16.363  4.0949 -2.4696 -1.8679
 2180SOL     OW18172   1.173   0.022   4.239  0.1624 -0.3503  0.0250
 2180SOL    HW118173   1.222   4.682   4.263 -0.4930 -0.4444  1.0589
 2180SOL    HW218174   1.084   4.733   4.261  1.0323 -1.4236  2.2419
 2181SOL     OW18175   0.772   3.994   5.235  0.5403  0.0398  0.0542
 2181SOL    HW118176   0.792   3.974   5.144  1.1589 -0.9200  0.4084
 2181SOL    HW218177   0.857   3.994   5.279 -0.1964 -0.1072  1.4928
 2182SOL     OW18178   0.384   0.554   3.319 -0.3362  0.1807 -0.0347
 2182SOL    HW118179   0.406   0.647   3.322 -0.4523  0.1666  1.5925
 2182SOL    HW218180   0.461   0.522   3.367 -0.0789 -0.3447 -0.8092
 2183SOL     OW18181   2.556   3.125   5.715  0.3725  0.2602 -0.0488
 2183SOL    HW118182   2.630   3.085   5.670 -0.5457  0.0260 -1.3510
 2183SOL    HW218183   2.536   3.052   5.774 -1.1547 -0.5662 -1.5904
 2184SOL     OW18184   0.298   1.067   5.090 -0.1808  0.7037 -0.7876
 2184SOL    HW118185   0.254   0.994   5.046 -0.5505 -0.2961  1.2649
 2184SOL    HW218186   0.357   1.094   5.019 -0.9725  0.6712 -1.4576
 2185SOL     OW18187   2.473   1.749   1.503  0.1064 -0.0710 -0.2759
 2185SOL    HW118188   2.384   1.736   1.535  0.8084 -1.8725  0.9894
 2185SOL    HW218189   2.518   1.741   1.587  0.0027  3.2417  0.0638
 2186SOL     OW18190   3.965   3.105  14.284 -0.1538  0.2108  0.3690
 2186SOL    HW118191   3.980   3.128  14.192  0.0263 -0.7421  0.1639
 2186SOL    HW218192   3.880   3.062  14.284  0.5178 -1.1105 -0.9224
 2187SOL     OW18193   1.268   3.294   3.427  0.2728 -0.1653  0.0727
 2187SOL    HW118194   1.337   3.283   3.492  1.1081  1.6852 -0.5068
 2187SOL    HW218195   1.278   3.387   3.408 -1.2486  0.0393  0.2633
 2188SOL     OW18196   1.032   2.462   0.719  0.0885  0.1145 -0.1057
 2188SOL    HW118197   1.047   2.451   0.812  0.9877  0.6302 -0.1916
 2188SOL    HW218198   1.044   2.379   0.672 -1.9443  0.2614 -0.8900
 2189SOL     OW18199   1.061   1.979   3.332 -0.2098 -0.2291  0.2100
 2189SOL    HW118200   1.016   2.039   3.391  0.8113 -1.0171  1.8107
 2189SOL    HW218201   1.080   2.039   3.260  2.7658 -0.6853  0.6184
 2190SOL     OW18202   2.454   2.360  17.237  0.1972 -0.5060  0.4448
 2190SOL    HW118203   2.477   2.427  17.172  1.0737 -1.7872 -0.5643
 2190SOL    HW218204   2.455   2.407  17.320 -2.6293  2.9062 -1.4767
 2191SOL     OW18205   0.086   2.587  10.247  0.3590  0.6514  0.4322
 2191SOL    HW118206   4.736   2.578  10.284  0.2254  0.5086  0.0746
 2191SOL    HW218207   0.149   2.545  10.306  0.3447  0.0802  0.0366
 2192SOL     OW18208   3.605   0.110  16.088 -0.0904 -0.3942  0.5517
 2192SOL    HW118209   3.694   0.077  16.092 -0.0234 -0.1654  0.9576
 2192SOL    HW218210   3.587   0.113  15.994  1.2112 -0.7983  0.2917
 2193SOL     OW18211   3.771   4.582  10.182 -0.4022 -0.3175 -0.2869
 2193SOL    HW118212   3.701   4.570  10.117 -0.9256 -1.7906  0.5463
 2193SOL    HW218213   3.789   4.493  10.211 -1.9832 -0.9461 -1.2240
 2194SOL     OW18214   2.007   4.587   2.835 -0.1306  0.3248  0.1846
 2194SOL    HW118215   1.912   4.579   2.821  0.1680 -0.8128 -1.1897
 2194SOL    HW218216   2.026   4.655   2.770 -0.6756  1.3105  1.0465
 2195SOL     OW18217   2.679   3.929  12.861  0.0782 -0.6461  0.5385
 2195SOL    HW118218   2.702   3.844  12.823  1.5651 -0.1618  0.3573
 2195SOL    HW218219   2.766   3.959  12.889  0.6339 -0.0403 -1.8388
 2196SOL     OW18220   0.258   1.941   7.934  0.6438  0.0940 -0.1826
 2196SOL    HW118221   0.352   1.923   7.929  0.7643  0.8540 -0.5520
 2196SOL    HW218222   0.233   1.942   7.842 -1.8040 -1.0644  0.4856
 2197SOL     OW18223   1.994   3.041   3.145 -0.1377  0.9902 -0.3024
 2197SOL    HW118224   1.997   3.061   3.051  1.0346  1.9252 -0.0640
 2197SOL    HW218225   2.065   2.978   3.161 -0.9861  0.2110  0.4045
 2198SOL     OW18226   2.355   0.755  12.776  0.3728 -0.6567  0.1973
 2198SOL    HW118227   2.348   0.841  12.735 -2.0568 -0.1966  1.5368
 2198SOL    HW218228   2.280   0.757  12.836 -1.6090  0.3749 -2.2841
 2199SOL     OW18229   0.904   4.394   2.676 -0.2085 -0.3177  0.4770
 2199SOL    HW118230   0.961   4.461   2.638  1.0915 -1.3037  0.6915
 2199SOL    HW218231   0.840   4.449   2.722 -0.5041 -0.9696  0.8568
 2200SOL     OW18232   4.490   1.361   8.574 -0.0294  0.2152  0.4735
 2200SOL    HW118233   4.567   1.405   8.608  0.7711 -0.6297 -0.2238
 2200SOL    HW218234   4.429   1.384   8.644 -0.1468  0.9099  0.1336
 2201SOL     OW18235   0.600   1.378   4.181  0.1974  0.1648 -0.2613
 2201SOL    HW118236   0.511   1.397   4.151  0.4615  0.0755 -1.1014
 2201SOL    HW218237   0.608   1.283   4.169  1.9003  0.4998 -1.6985
 2202SOL     OW18238   2.953   4.414   4.681 -0.4241 -0.7371 -0.4873
 2202SOL    HW118239   2.896   4.437   4.754  0.3869  0.8529 -0.3587
 2202SOL    HW218240   2.974   4.503   4.654  0.4223 -0.8581 -0.2017
 2203SOL     OW18241   2.782   2.235   9.217 -0.0006 -0.1723 -0.1110
 2203SOL    HW118242   2.768   2.141   9.228  0.3361  0.2323  3.4815
 2203SOL    HW218243   2.705   2.245   9.160  1.8508 -1.0494 -2.8020
 2204SOL     OW18244   2.572   3.649   7.264  0.1682  0.1035 -0.0858
 2204SOL    HW118245   2.497   3.625   7.210 -0.5517 -1.6672  1.7241
 2204SOL    HW218246   2.529   3.674   7.345 -0.5049 -2.9318  0.4887
 2205SOL     OW18247   2.729   1.062   7.035  0.3964  0.5067  0.3036
 2205SOL    HW118248   2.747   1.066   7.129  1.8313 -0.3063  0.0752
 2205SOL    HW218249   2.796   1.003   7.000  0.6759  1.1061 -0.1472
 2206SOL     OW18250   0.999   3.472   0.202 -0.0490 -0.6483 -0.1284
 2206SOL    HW118251   1.068   3.486   0.137 -1.6215 -0.4511 -1.7709
 2206SOL    HW218252   0.927   3.443   0.146  0.1803  1.2407 -1.4175
 2207SOL     OW18253   3.094   0.915   0.269  0.1792 -0.3296 -0.0567
 2207SOL    HW118254   3.167   0.880   0.219  0.3405  0.6294 -0.5068
 2207SOL    HW218255   3.044   0.964   0.203 -2.4897 -0.3964  1.9087
 2208SOL     OW18256   4.054   4.267   7.446 -0.4653 -0.0515 -0.0623
 2208SOL    HW118257   4.107   4.305   7.517 -1.4855 -0.7357  1.0610
 2208SOL    HW218258   3.976   4.322   7.455 -0.6827 -0.7894  2.6327
 2209SOL     OW18259   0.115   3.076   6.902 -0.1374 -0.5744  0.5510
 2209SOL    HW118260   0.094   3.013   6.971 -0.9799 -1.8148 -0.8143
 2209SOL    HW218261   0.029   3.090   6.862  0.8813 -0.0882 -1.4989
 2210SOL     OW18262   1.994   3.543   2.656  0.8442  0.2505 -0.3388
 2210SOL    HW118263   1.899   3.538   2.644  0.5044  1.2922  1.8848
 2210SOL    HW218264   2.003   3.615   2.718  2.0376 -2.0637  2.2178
 2211SOL     OW18265   2.215   0.182   5.672  0.3599  0.1600 -0.3193
 2211SOL    HW118266   2.266   0.112   5.632  1.6455  1.8068 -1.5621
 2211SOL    HW218267   2.280   0.232   5.721 -0.5183 -0.4730  1.5044
 2212SOL     OW18268   2.453   1.421   7.876  0.0822  0.2555  0.3152
 2212SOL    HW118269   2.421   1.487   7.938 -0.0215  1.9382 -1.5436
 2212SOL    HW218270   2.467   1.478   7.801 -1.8683  0.8961  0.4351
 2213SOL     OW18271   4.179   1.261   2.715 -0.0763  0.3558 -0.1224
 2213SOL    HW118272   4.263   1.306   2.725  0.1210  0.6340 -3.0364
 2213SOL    HW218273   4.187   1.188   2.776 -0.2419  0.7422  0.3545
 2214SOL     OW18274   1.410   2.514  16.782  0.1487 -0.7174 -0.3300
 2214SOL    HW118275   1.372   2.484  16.865  2.4800 -2.1030  0.2402
 2214SOL    HW218276   1.355   2.480  16.711  0.5072  4.6531 -3.1995
 2215SOL     OW18277   1.609   3.428   6.491 -0.1170 -0.5992  0.2236
 2215SOL    HW118278   1.670   3.462   6.426 -2.6130  1.1250 -1.2207
 2215SOL    HW218279   1.619   3.334   6.479  1.7978 -0.6016  1.8508
 2216SOL     OW18280   4.167   3.354   6.989  0.1838  0.0565 -0.2591
 2216SOL    HW118281   4.145   3.430   7.042  2.8518  1.0167 -0.5081
 2216SOL    HW218282   4.163   3.396   6.903 -2.5998  1.2451  0.4412
 2217SOL     OW18283   2.643   3.088   8.189 -0.2222  0.2562  0.3751
 2217SOL    HW118284   2.662   3.129   8.104 -0.3537  0.1850  0.3112
 2217SOL    HW218285   2.548   3.079   8.191 -0.3619  1.4439 -1.3257
 2218SOL     OW18286   1.530   0.980   2.258 -0.1371 -0.1387  0.2784
 2218SOL    HW118287   1.481   0.907   2.221 -0.1949 -1.5618  3.1748
 2218SOL    HW218288   1.490   1.057   2.217 -0.1466 -0.9477 -1.2210
 2219SOL     OW18289   1.440   4.618  13.947 -0.5060  0.0019 -0.3399
 2219SOL    HW118290   1.382   4.652  14.015  1.5611 -0.2437  1.5390
 2219SOL    HW218291   1.521   4.615  13.997  0.0911  2.5871 -1.1572
 2220SOL     OW18292   1.576   3.727   3.274  0.3907 -0.6524  0.3530
 2220SOL    HW118293   1.669   3.724   3.295  0.0952 -0.0517  1.7305
 2220SOL    HW218294   1.562   3.821   3.264  1.4531 -0.2496  2.6918
 2221SOL     OW18295   0.808   4.709   7.374  0.1771 -0.3913 -0.2277
 2221SOL    HW118296   0.782   0.047   7.425  1.8889  1.1630 -1.6774
 2221SOL    HW218297   0.799   0.007   7.285  0.8056  2.4352  0.8606
 2222SOL     OW18298   1.900   4.676   6.591 -0.0642  0.0667 -0.0689
 2222SOL    HW118299   1.898   4.632   6.507 -0.7154 -1.0002  0.5019
 2222SOL    HW218300   1.962   0.007   6.567  0.4483  0.3065  1.9569
 2223SOL     OW18301   3.974   0.912   3.794  0.4077  0.5043 -0.2379
 2223SOL    HW118302   3.969   0.897   3.888 -0.0092  0.3323 -0.2890
 2223SOL    HW218303   3.943   1.003   3.794  0.6995  0.5964 -1.2842
 2224SOL     OW18304   2.979   0.109   2.594  0.2594 -0.1757  0.0158
 2224SOL    HW118305   3.030   0.086   2.516  0.6956  0.5954  0.0809
 2224SOL    HW218306   3.031   0.180   2.631 -1.4152  0.4464  1.1966
 2225SOL     OW18307   4.525   4.075   8.144  0.5749 -0.2037  0.1385
 2225SOL    HW118308   4.613   4.066   8.107  0.6223  0.6079  0.0523
 2225SOL    HW218309   4.519   4.006   8.211  0.9433 -0.5698 -0.2083
 2226SOL     OW18310   2.816   2.335   4.975 -0.2725 -0.6103  0.3757
 2226SOL    HW118311   2.902   2.336   5.018  0.5462  0.1444 -1.2708
 2226SOL    HW218312   2.758   2.331   5.051 -0.9894 -0.7305 -0.1854
 2227SOL     OW18313   1.406   1.942   8.126 -0.4701 -0.1099 -0.1601
 2227SOL    HW118314   1.337   1.993   8.169 -0.5365 -0.0249 -0.3690
 2227SOL    HW218315   1.432   1.877   8.192  0.1598 -1.6835 -1.9472
 2228SOL     OW18316   2.249   1.999  17.718  0.3561 -0.4136  0.3854
 2228SOL    HW118317   2.238   1.911  17.684 -1.0717 -0.4430  0.8954
 2228SOL    HW218318   2.170   2.003   0.021 -0.4424 -0.8391 -0.7501
 2229SOL     OW18319   3.610   4.250   5.424 -0.2831 -0.2412 -0.3524
 2229SOL    HW118320   3.612   4.284   5.334 -0.2535 -0.9387 -0.6189
 2229SOL    HW218321   3.699   4.279   5.440 -1.7973  3.6215  1.1933
 2230SOL     OW18322   0.893   1.603   8.513 -0.3203  0.1794  0.0252
 2230SOL    HW118323   0.902   1.542   8.440 -2.5845 -0.8269  0.5850
 2230SOL    HW218324   0.812   1.576   8.556 -1.8508  0.7756 -2.4996
 2231SOL     OW18325   3.698   0.643   7.736  0.1681 -0.1572  0.3296
 2231SOL    HW118326   3.672   0.553   7.755  1.1617 -0.5745 -0.2587
 2231SOL    HW218327   3.658   0.707   7.794 -1.2571  0.8127 -1.7370
 2232SOL     OW18328   3.113   2.904   3.202  0.8586 -0.0012  0.0898
 2232SOL    HW118329   3.132   2.994   3.228 -1.2989  0.3579  0.4060
 2232SOL    HW218330   3.019   2.909   3.185  0.6767 -1.0120  0.7392
 2233SOL     OW18331   0.145   3.388  13.801 -0.3258 -0.2161 -0.3884
 2233SOL    HW118332   0.057   3.387  13.839 -0.8237 -1.3774 -1.5340
 2233SOL    HW218333   0.125   3.446  13.727  0.5182 -0.4561 -0.8034
 2234SOL     OW18334   0.352   3.963   2.016 -0.7909  0.3995  0.7001
 2234SOL    HW118335   0.311   4.049   2.005 -0.8918  0.2975  0.2818
 2234SOL    HW218336   0.305   3.943   2.097  1.8177 -0.9273  1.8713
 2235SOL     OW18337   2.094   0.780  15.474  0.5497  0.0545  0.1653
 2235SOL    HW118338   2.093   0.732  15.391 -0.7404  3.4490 -1.7762
 2235SOL    HW218339   2.189   0.791  15.477  0.5837 -0.7758  1.9089
 2236SOL     OW18340   0.211   0.903   7.710 -0.3929  0.1525  0.3206
 2236SOL    HW118341   0.199   0.922   7.803  1.8390 -1.7257  0.9732
 2236SOL    HW218342   0.122   0.874   7.690  0.6384 -0.7129 -3.0272
 2237SOL     OW18343   1.719   4.348   7.817  0.0265 -0.0564 -0.1561
 2237SOL    HW118344   1.733   4.276   7.755  1.6285  0.6697 -0.6327
 2237SOL    HW218345   1.804   4.392   7.811  1.3710 -2.6762  0.1428
 2238SOL     OW18346   4.507   1.897   9.432  0.1254 -0.3920  0.3985
 2238SOL    HW118347   4.519   1.828   9.498 -2.5443 -0.2792  0.9886
 2238SOL    HW218348   4.441   1.947   9.479  0.8035 -0.9357  1.9194
 2239SOL     OW18349   0.858   0.731   4.496  0.5470  0.1507  0.3047
 2239SOL    HW118350   0.923   0.775   4.552  0.0904 -0.0753  1.0139
 2239SOL    HW218351   0.899   0.645   4.496 -1.2213 -0.6857  1.7194
 2240SOL     OW18352   1.064   1.460   7.248  0.1367  0.1624 -0.2494
 2240SOL    HW118353   0.998   1.424   7.308  0.6589 -0.1197  0.1609
 2240SOL    HW218354   1.141   1.437   7.300 -0.8631  0.0810  1.1985
 2241SOL     OW18355   3.534   3.910   4.261  0.3762 -0.1475  0.0333
 2241SOL    HW118356   3.551   3.995   4.221  0.9051  0.6010  1.8177
 2241SOL    HW218357   3.476   3.935   4.334 -0.2875  0.4899 -0.7135
 2242SOL     OW18358   2.873   4.663  17.164 -0.0720 -0.2521  0.1962
 2242SOL    HW118359   2.807   4.617  17.217 -0.6792  0.2135 -0.1612
 2242SOL    HW218360   2.853   4.631  17.076 -0.3162  0.5232 -0.0324
 2243SOL     OW18361   3.447   3.456   3.309  0.3252 -0.8537  0.2094
 2243SOL    HW118362   3.447   3.384   3.246  0.7240 -1.1326  0.5211
 2243SOL    HW218363   3.500   3.514   3.255 -0.8764  2.8225  3.0139
 2244SOL     OW18364   2.257   2.028   3.755  0.1099 -0.1492  0.2530
 2244SOL    HW118365   2.345   2.050   3.725 -0.0249  1.4689  1.0159
 2244SOL    HW218366   2.212   2.091   3.698  0.0481  0.9256  1.4732
 2245SOL     OW18367   3.673   3.367   5.571 -0.1809 -0.5596 -0.6145
 2245SOL    HW118368   3.677   3.455   5.608 -1.0953 -2.1120  3.1927
 2245SOL    HW218369   3.640   3.396   5.486  0.6200  0.0977 -0.6956
 2246SOL     OW18370   3.117   2.398  16.108 -0.2049  0.0201 -0.4220
 2246SOL    HW118371   3.096   2.455  16.182 -0.0941 -0.7732  0.2177
 2246SOL    HW218372   3.033   2.402  16.063  0.7331 -0.0504 -2.1756
 2247SOL     OW18373   2.542   2.584   5.901 -0.6474  0.6486 -0.4610
 2247SOL    HW118374   2.485   2.607   5.828 -1.4615  2.6956  0.8131
 2247SOL    HW218375   2.480   2.533   5.953  2.6072  1.2587  3.9960
 2248SOL     OW18376   2.083   0.340   6.060 -0.5089 -0.2253 -0.7369
 2248SOL    HW118377   2.066   0.248   6.041  2.0071 -0.5089 -1.6232
 2248SOL    HW218378   2.011   0.380   6.011 -1.4112  1.1401  1.7264
 2249SOL     OW18379   3.669   3.682   4.211  0.7247 -0.0657  0.1322
 2249SOL    HW118380   3.748   3.708   4.259  0.9477  1.3533 -1.0304
 2249SOL    HW218381   3.611   3.756   4.228  0.3707 -0.5418  0.9805
 2250SOL     OW18382   3.024   4.231   7.617  0.2025  0.4008 -0.2700
 2250SOL    HW118383   2.974   4.295   7.668  0.9934  0.3001  0.6379
 2250SOL    HW218384   2.980   4.153   7.650 -2.0955  1.1537 -1.5769
 2251SOL     OW18385   2.541   2.421   5.164  0.1859  0.3364  0.0850
 2251SOL    HW118386   2.482   2.377   5.224  1.7085 -1.0724  0.5629
 2251SOL    HW218387   2.523   2.384   5.078 -1.0358  4.3727 -1.4033
 2252SOL     OW18388   3.159   3.169   3.627 -0.1332  0.2296 -0.2175
 2252SOL    HW118389   3.126   3.169   3.537  1.5286  0.1291 -0.8113
 2252SOL    HW218390   3.205   3.252   3.627  2.8355 -1.4200  0.3337
 2253SOL     OW18391   0.321   1.988  15.239  0.0841 -0.5891  0.0317
 2253SOL    HW118392   0.376   2.065  15.224  0.1441 -0.7372 -0.4990
 2253SOL    HW218393   0.242   2.033  15.268  0.3281 -0.4384  0.4525
 2254SOL     OW18394   1.390   0.045  13.728  0.1853 -0.6327 -0.1777
 2254SOL    HW118395   1.318   4.723  13.709 -2.2699  2.1236  0.2765
 2254SOL    HW218396   1.439   4.732  13.792  1.2285  1.2672  0.5744
 2255SOL     OW18397   1.877   3.293  12.945 -0.5901  0.9565 -0.0330
 2255SOL    HW118398   1.786   3.325  12.940 -1.3420 -1.3378 -1.1805
 2255SOL    HW218399   1.897   3.279  12.853  2.2355  1.8759  0.4532
 2256SOL     OW18400   3.398   0.789   0.696 -0.2611  0.5271  0.0542
 2256SOL    HW118401   3.336   0.861   0.684 -0.5204  0.3486  0.3390
 2256SOL    HW218402   3.369   0.721   0.635 -0.6938 -1.4589  2.4844
 2257SOL     OW18403   1.804   0.557   7.944  0.0375 -0.3102 -0.9109
 2257SOL    HW118404   1.828   0.492   8.010  0.1623 -0.9862 -1.6181
 2257SOL    HW218405   1.861   0.630   7.969  1.9602 -2.3499  0.6552
 2258SOL     OW18406   1.260   1.995   3.685  0.6834  0.0355  0.4056
 2258SOL    HW118407   1.257   2.026   3.594  1.0391  0.0534  0.3966
 2258SOL    HW218408   1.315   1.918   3.666 -0.3877 -0.6069 -0.0869
 2259SOL     OW18409   3.389   0.126  12.230  0.1262  0.0476  0.1335
 2259SOL    HW118410   3.378   0.219  12.248  2.0936  0.5497 -1.2019
 2259SOL    HW218411   3.414   0.090  12.315  0.8666  0.3542  0.0424
 2260SOL     OW18412   2.019   3.051   6.392 -0.6220 -0.4996  0.3784
 2260SOL    HW118413   2.002   2.975   6.337  1.8034 -1.1795  0.5665
 2260SOL    HW218414   2.038   3.111   6.319  0.0405 -1.6357 -0.3774
 2261SOL     OW18415   1.425   2.487   0.632  0.0568  0.0585  0.1277
 2261SOL    HW118416   1.425   2.422   0.562 -1.2643 -0.1461  0.3047
 2261SOL    HW218417   1.431   2.569   0.582 -0.3992  0.2611  0.4043
 2262SOL     OW18418   1.959   1.842   2.805 -0.3733 -0.0951  0.5226
 2262SOL    HW118419   2.036   1.816   2.753 -2.2527 -0.6551 -1.9489
 2262SOL    HW218420   1.990   1.929   2.830  1.9714 -0.7232 -0.1643
 2263SOL     OW18421   4.141   1.665   7.648 -0.1594  1.0407  0.1802
 2263SOL    HW118422   4.197   1.743   7.647 -0.8494  1.5314 -0.0367
 2263SOL    HW218423   4.099   1.664   7.734  0.7546  1.1089  0.6234
 2264SOL     OW18424   3.439   4.001  15.663  0.2691  0.2098  0.4806
 2264SOL    HW118425   3.482   3.928  15.617  0.5495  0.1954  0.7705
 2264SOL    HW218426   3.354   3.963  15.685  1.0189 -0.8475  1.5619
 2265SOL     OW18427   0.265   4.296   8.181 -0.2892 -0.1548  0.3180
 2265SOL    HW118428   0.349   4.265   8.213 -0.1422 -0.3000 -0.2037
 2265SOL    HW218429   0.222   4.285   8.265 -0.5629 -3.3180 -0.2323
 2266SOL     OW18430   0.878   0.017   6.426 -0.6886  0.5042 -0.0610
 2266SOL    HW118431   0.922   4.702   6.360 -1.2866 -0.9904  0.7701
 2266SOL    HW218432   0.871   4.711   6.510 -0.9564 -0.1204 -0.4169
 2267SOL     OW18433   2.057   2.281   4.829  0.0775  0.1142  0.2150
 2267SOL    HW118434   2.111   2.336   4.885  1.3492 -1.0666  0.1347
 2267SOL    HW218435   2.122   2.217   4.800  0.4531  0.8022 -0.4795
 2268SOL     OW18436   2.108   1.163  12.299  0.0238  0.5214 -0.3611
 2268SOL    HW118437   2.121   1.239  12.243  1.2923  0.1219 -0.6187
 2268SOL    HW218438   2.035   1.111  12.265  0.6498  0.4314 -1.5703
 2269SOL     OW18439   4.410   1.075   8.017  0.2704  0.0774  0.1232
 2269SOL    HW118440   4.445   1.163   8.028 -0.7500  0.5733 -0.6383
 2269SOL    HW218441   4.486   1.017   8.018  0.1856 -0.0075  1.3138
 2270SOL     OW18442   1.749   1.882   0.900  0.0963 -0.1156 -0.1741
 2270SOL    HW118443   1.678   1.834   0.942  0.7880  0.2018  1.3611
 2270SOL    HW218444   1.831   1.838   0.923 -0.6208 -1.1995  0.3188
 2271SOL     OW18445   3.464   0.805  10.645  0.0956  0.0542  0.2519
 2271SOL    HW118446   3.456   0.859  10.723 -3.5338  1.1531 -0.8763
 2271SOL    HW218447   3.430   0.722  10.677  0.7085  0.1061  1.0266
 2272SOL     OW18448   4.430   1.728  17.657  0.5777 -0.3406 -0.2497
 2272SOL    HW118449   4.378   1.808  17.649 -0.0014 -0.7109 -0.1755
 2272SOL    HW218450   4.505   1.764  17.706 -0.5165  1.2694  0.2446
 2273SOL     OW18451   2.746   4.662   3.091  0.2767 -0.0406  0.6594
 2273SOL    HW118452   2.750   4.721   3.016 -0.3082 -0.5753  0.2083
 2273SOL    HW218453   2.689   4.599   3.047 -0.4428  2.6075 -2.1851
 2274SOL     OW18454   4.650   4.682   5.914 -0.4525 -0.5366  0.6884
 2274SOL    HW118455   4.625   4.601   5.870 -0.4357  0.6620 -1.5460
 2274SOL    HW218456   4.730   4.708   5.869 -0.2831 -0.5602  0.9741
 2275SOL     OW18457   3.971   3.221   8.372 -0.0548 -0.4947  0.2535
 2275SOL    HW118458   3.897   3.178   8.415 -0.0437 -1.9278 -1.1180
 2275SOL    HW218459   3.944   3.198   8.283  2.5581 -2.2196 -0.0792
 2276SOL     OW18460   2.074   3.393   4.085 -0.1543 -0.3189  0.0365
 2276SOL    HW118461   2.020   3.328   4.040  1.2143 -0.4152 -1.4993
 2276SOL    HW218462   2.019   3.450   4.138 -1.4965 -2.7513  1.2338
 2277SOL     OW18463   0.804   2.229   9.762  0.3137  0.1249 -0.1583
 2277SOL    HW118464   0.736   2.283   9.723 -0.3879 -0.2163  0.5846
 2277SOL    HW218465   0.754   2.181   9.828 -1.4883  1.8498 -0.2997
 2278SOL     OW18466   3.910   4.342  10.492  0.1622  0.4290 -0.1560
 2278SOL    HW118467   3.857   4.421  10.507  0.5541  0.5054  0.8160
 2278SOL    HW218468   3.897   4.328  10.398  0.0967  0.7995 -0.2025
 2279SOL     OW18469   2.024   1.578   7.856 -0.0467 -0.4054  0.6924
 2279SOL    HW118470   1.988   1.655   7.813 -1.0858  0.2373  2.6790
 2279SOL    HW218471   2.015   1.508   7.792  1.6336 -0.9666  1.0513
 2280SOL     OW18472   3.789   3.492   4.047 -0.1080  0.7675  1.1698
 2280SOL    HW118473   3.732   3.556   4.089 -0.1489  2.8968 -2.0662
 2280SOL    HW218474   3.871   3.517   4.091 -0.4802 -1.1265  2.9466
 2281SOL     OW18475   4.545   1.755   3.945 -0.2264  0.2329  0.3091
 2281SOL    HW118476   4.509   1.735   4.031  2.0298 -2.3922  0.6047
 2281SOL    HW218477   4.540   1.851   3.951 -0.0100  0.3325 -0.9820
 2282SOL     OW18478   3.452   0.923   9.004  0.6629 -0.1181  0.2842
 2282SOL    HW118479   3.443   0.886   8.917 -0.6785  0.8710 -0.0064
 2282SOL    HW218480   3.384   0.875   9.052  0.0497  0.1060 -0.3558
 2283SOL     OW18481   0.016   3.100  13.753 -0.0187  0.1976  0.7199
 2283SOL    HW118482   4.671   3.059  13.727  1.5858 -2.2782 -0.4696
 2283SOL    HW218483   4.728   3.188  13.726  1.1054  1.0338  2.3551
 2284SOL     OW18484   1.515   0.898   3.166 -0.5805  0.5714 -0.3588
 2284SOL    HW118485   1.488   0.949   3.242  1.0772  2.3346 -0.9641
 2284SOL    HW218486   1.430   0.858   3.144  0.9670 -3.1063  0.3978
 2285SOL     OW18487   1.049   1.506  13.420  0.1565 -0.0662 -0.0513
 2285SOL    HW118488   1.016   1.501  13.510 -0.5210 -2.8414 -0.4374
 2285SOL    HW218489   0.971   1.471  13.376 -1.5485  1.0635  2.0837
 2286SOL     OW18490   0.273   1.626  11.499 -0.5243 -0.0493  0.0329
 2286SOL    HW118491   0.368   1.621  11.507 -0.8437  0.6852  4.2737
 2286SOL    HW218492   0.252   1.577  11.419 -4.0910  0.6557  0.5624
 2287SOL     OW18493   3.411   4.114   1.192  0.1973  0.0342 -0.0294
 2287SOL    HW118494   3.410   4.168   1.113 -1.2758  1.6840  1.1197
 2287SOL    HW218495   3.398   4.174   1.265 -0.9322  0.1425 -0.3240
 2288SOL     OW18496   0.111   3.750  17.398 -0.2620  0.1810  0.0734
 2288SOL    HW118497   0.115   3.840  17.432 -0.8992 -0.0113  0.6659
 2288SOL    HW218498   0.063   3.696  17.461 -1.3326  0.3174 -0.6347
 2289SOL     OW18499   2.209   1.004   5.321 -0.0531 -0.0768  0.7684
 2289SOL    HW118500   2.212   0.961   5.407 -0.8312 -2.1922 -0.2642
 2289SOL    HW218501   2.180   0.925   5.275  1.6798 -0.4309  0.2841
 2290SOL     OW18502   3.410   2.583   3.998 -0.0245 -0.0210 -0.6449
 2290SOL    HW118503   3.318   2.559   4.013  0.2302 -1.1574 -0.8790
 2290SOL    HW218504   3.443   2.502   4.036 -3.0356 -0.7564  0.4501
 2291SOL     OW18505   4.693   0.377  13.865 -0.0650 -0.7005  0.2649
 2291SOL    HW118506   0.038   0.341  13.837 -0.7451 -2.3951  0.3674
 2291SOL    HW218507   4.662   0.317  13.934 -1.5524  0.7047  0.8260
 2292SOL     OW18508   3.785   1.721   4.593  0.2448  0.1104 -0.1834
 2292SOL    HW118509   3.842   1.654   4.632 -0.7131 -0.6194 -0.0175
 2292SOL    HW218510   3.708   1.668   4.573  1.8186 -2.3005  0.1542
 2293SOL     OW18511   1.307   0.562   3.069 -0.1941 -0.2275  0.3851
 2293SOL    HW118512   1.331   0.594   2.982  0.6564  0.4256  0.8568
 2293SOL    HW218513   1.386   0.510   3.088 -0.1728 -0.5767 -0.6469
 2294SOL     OW18514   0.827   4.480   9.444 -0.0361 -0.0894  0.1980
 2294SOL    HW118515   0.773   4.508   9.518  0.3621  0.4974  0.2704
 2294SOL    HW218516   0.893   4.427   9.490 -1.6309 -1.6212  0.7364
 2295SOL     OW18517   2.115   3.507   0.968 -0.1686 -0.0678 -0.2867
 2295SOL    HW118518   2.045   3.508   1.033  1.2123  0.3070  1.1893
 2295SOL    HW218519   2.188   3.539   1.020 -0.9645  0.1847  0.6768
 2296SOL     OW18520   3.812   1.534   6.351 -0.2475 -0.7144  0.1520
 2296SOL    HW118521   3.908   1.537   6.351 -0.3213  1.4988 -1.4940
 2296SOL    HW218522   3.790   1.627   6.353 -2.2069 -1.1932  1.1687
 2297SOL     OW18523   4.640   2.560   8.812 -0.3258 -0.1931 -0.5300
 2297SOL    HW118524   4.626   2.519   8.727 -0.0586 -1.6203  0.1228
 2297SOL    HW218525   4.552   2.542   8.844 -0.0596  1.9898  1.4125
 2298SOL     OW18526   2.183   4.021   4.339 -0.4345  0.2599  0.2478
 2298SOL    HW118527   2.275   4.003   4.357 -0.7058 -1.5036 -0.1855
 2298SOL    HW218528   2.152   4.043   4.427  0.4672  1.0710  0.3632
 2299SOL     OW18529   4.347   1.187  11.678 -0.1232 -0.1742 -0.0144
 2299SOL    HW118530   4.357   1.281  11.690 -1.6677 -0.1267  0.9045
 2299SOL    HW218531   4.309   1.159  11.761  1.1156 -1.0574  0.2556
 2300SOL     OW18532   4.033   3.704  10.435 -0.4436  0.2901  0.5902
 2300SOL    HW118533   4.051   3.786  10.481 -0.6701  0.3257  0.6160
 2300SOL    HW218534   3.942   3.726  10.418 -0.0379  2.2779  0.9520
 2301SOL     OW18535   4.249   0.438   2.408 -0.0358  0.0080 -0.1497
 2301SOL    HW118536   4.303   0.513   2.384  0.7078 -1.5089 -3.1942
 2301SOL    HW218537   4.316   0.383   2.447 -0.5442 -0.7106 -0.3008
 2302SOL     OW18538   0.874   0.299  16.165 -0.2296  0.1205 -0.3620
 2302SOL    HW118539   0.864   0.276  16.073  2.9085  0.8604 -0.8814
 2302SOL    HW218540   0.893   0.211  16.198  0.7334  0.8937  1.1854
 2303SOL     OW18541   1.430   0.425   5.589 -0.5853  0.4011 -0.1637
 2303SOL    HW118542   1.349   0.413   5.639 -0.3711  1.9891  0.5887
 2303SOL    HW218543   1.393   0.386   5.510  1.7409 -0.8837 -0.6181
 2304SOL     OW18544   0.336   0.996   8.729 -0.3368 -0.0814  0.3505
 2304SOL    HW118545   0.285   1.021   8.807 -1.8486 -0.5778 -0.4799
 2304SOL    HW218546   0.324   1.068   8.667  2.5060 -0.7661 -0.9793
 2305SOL     OW18547   2.816   4.653   1.159  0.6058 -0.0777  0.3145
 2305SOL    HW118548   2.741   4.614   1.112  1.4048  0.4004 -1.3714
 2305SOL    HW218549   2.785   4.636   1.248 -1.2310  0.5323 -0.2114
 2306SOL     OW18550   0.225   3.071   1.075  0.1188 -0.2882 -0.2266
 2306SOL    HW118551   0.306   3.121   1.079 -0.1595  0.1394  0.0444
 2306SOL    HW218552   0.222   3.022   1.158  1.6497  0.2182  0.1279
 2307SOL     OW18553   2.020   3.040   2.848 -0.7612 -0.1771  0.1001
 2307SOL    HW118554   2.002   2.947   2.864  0.0753 -0.4812 -0.7031
 2307SOL    HW218555   1.985   3.049   2.759  0.1194 -1.1916 -0.3624
 2308SOL     OW18556   1.260   0.654   4.793 -0.0224  0.0777  0.2714
 2308SOL    HW118557   1.193   0.598   4.753 -2.0228  2.5979  0.0953
 2308SOL    HW218558   1.212   0.737   4.794  1.2314  0.7992 -1.5911
 2309SOL     OW18559   1.359   2.614   7.936 -0.3336 -0.0261  0.1377
 2309SOL    HW118560   1.301   2.553   7.890 -1.2124  0.7133  0.2486
 2309SOL    HW218561   1.418   2.546   7.968 -0.3879  0.1736  0.6460
 2310SOL     OW18562   1.924   1.786   4.286 -0.1811  0.2923  0.4681
 2310SOL    HW118563   1.971   1.759   4.365  0.3165 -0.6732 -0.1580
 2310SOL    HW218564   1.996   1.821   4.234  0.8694 -2.9341 -0.2059
 2311SOL     OW18565   2.632   4.049   2.925  0.9355  0.1355 -0.5285
 2311SOL    HW118566   2.679   4.079   3.003  0.4702  3.1490 -1.4154
 2311SOL    HW218567   2.606   3.957   2.938  0.0339  0.2991 -1.1818
 2312SOL     OW18568   2.848   0.821   0.059 -0.2504  0.4976  0.2516
 2312SOL    HW118569   2.847   0.824  17.715  2.2606 -0.2658  0.2109
 2312SOL    HW218570   2.875   0.912   0.071  0.8434  0.1766  0.2754
 2313SOL     OW18571   2.202   3.821   1.669  0.1206 -0.2495  0.0631
 2313SOL    HW118572   2.107   3.834   1.670 -0.2025 -2.7099  0.4324
 2313SOL    HW218573   2.203   3.742   1.723  0.5527 -0.6398 -0.5317
 2314SOL     OW18574   1.753   1.035   1.463  0.1258 -0.3918 -0.3134
 2314SOL    HW118575   1.767   1.017   1.556 -0.4992 -1.9822 -0.5182
 2314SOL    HW218576   1.843   1.036   1.432  0.1303 -0.6394 -0.3084
 2315SOL     OW18577   2.704   2.636   0.488  0.0179 -0.1996 -0.7400
 2315SOL    HW118578   2.787   2.619   0.531  0.6662  2.1460 -1.0575
 2315SOL    HW218579   2.711   2.586   0.406 -2.8288 -1.6060 -0.1195
 2316SOL     OW18580   2.937   3.912   9.417  0.0038  0.3067  0.5311
 2316SOL    HW118581   2.978   3.896   9.502 -2.3863 -1.5334  1.3264
 2316SOL    HW218582   2.846   3.892   9.438  0.0139  0.0222  0.2980
 2317SOL     OW18583   3.396   0.305   7.664  0.2118 -0.1171  0.7233
 2317SOL    HW118584   3.382   0.293   7.758 -0.2958 -1.7613  0.4245
 2317SOL    HW218585   3.477   0.253   7.661 -0.4031 -0.9972 -0.6474
 2318SOL     OW18586   1.765   0.318  11.400 -0.7179  0.1067  0.4524
 2318SOL    HW118587   1.710   0.255  11.353  2.4090 -1.3507 -1.2583
 2318SOL    HW218588   1.830   0.322  11.330 -1.5083  3.0046 -0.1173
 2319SOL     OW18589   2.616   2.133   7.708  0.0534 -0.0186  0.0053
 2319SOL    HW118590   2.554   2.061   7.715 -1.3988  1.2640  0.4957
 2319SOL    HW218591   2.571   2.197   7.652 -1.6540 -0.1725  1.2140
 2320SOL     OW18592   3.134   0.825   5.886 -0.1695  0.1653 -0.1142
 2320SOL    HW118593   3.154   0.910   5.847  2.5068 -0.9511 -1.1688
 2320SOL    HW218594   3.038   0.818   5.879 -0.2883  1.4027  0.2043
 2321SOL     OW18595   2.139   1.321   5.107 -0.0381  0.9207  0.0407
 2321SOL    HW118596   2.212   1.349   5.052  0.9952 -1.4922  0.2148
 2321SOL    HW218597   2.061   1.355   5.062 -2.0861 -1.8548  1.4729
 2322SOL     OW18598   4.020   0.709   8.448  0.5347 -0.4231  0.0197
 2322SOL    HW118599   3.925   0.714   8.460  0.2378 -0.4125 -2.3828
 2322SOL    HW218600   4.024   0.695   8.354  1.7820 -2.3077  0.3525
 2323SOL     OW18601   0.302   3.269   6.898 -0.2354  0.3844  0.0583
 2323SOL    HW118602   0.226   3.210   6.897  1.9479 -2.4498  0.3016
 2323SOL    HW218603   0.361   3.238   6.967 -0.8178 -3.0948 -0.9639
 2324SOL     OW18604   3.543   0.418   7.337 -0.4294 -0.2452  0.0178
 2324SOL    HW118605   3.456   0.401   7.373 -0.1264  0.2734  0.9850
 2324SOL    HW218606   3.562   0.509   7.361  0.0537  0.0157 -1.3612
 2325SOL     OW18607   1.093   2.934   7.361 -0.5198 -0.2769 -0.3671
 2325SOL    HW118608   1.111   2.899   7.274  0.1974  1.3083 -0.8527
 2325SOL    HW218609   1.177   2.912   7.403 -0.6149  2.5829  1.3847
 2326SOL     OW18610   0.788   3.555   2.233  0.3261  0.4982  0.1359
 2326SOL    HW118611   0.809   3.499   2.159  0.2201  0.8718 -0.1771
 2326SOL    HW218612   0.867   3.607   2.250  1.6188 -1.5600  0.4508
 2327SOL     OW18613   3.801   3.602  13.349 -0.2045 -0.5840 -0.0463
 2327SOL    HW118614   3.802   3.669  13.418  0.2016 -2.0480  1.3524
 2327SOL    HW218615   3.750   3.645  13.280 -0.6281 -0.6137  0.2499
 2328SOL     OW18616   0.494   3.163   6.382  0.0947 -0.0581 -0.3018
 2328SOL    HW118617   0.475   3.094   6.446  0.4189 -0.2859 -0.4507
 2328SOL    HW218618   0.464   3.244   6.424  0.1327  0.6148 -1.5886
 2329SOL     OW18619   2.130   0.488   6.609 -0.8187  0.1896 -0.7243
 2329SOL    HW118620   2.138   0.485   6.514  0.9187 -3.1464 -0.4421
 2329SOL    HW218621   2.134   0.584   6.609 -1.3240  0.2113  0.7394
 2330SOL     OW18622   0.488   2.015   4.097  0.5255  0.4215 -0.0385
 2330SOL    HW118623   0.553   1.944   4.099 -0.4529 -0.4898 -0.7418
 2330SOL    HW218624   0.480   2.028   4.003  2.9130  3.4365  0.1551
 2331SOL     OW18625   1.333   3.971   2.435  0.1452  0.5028 -0.5387
 2331SOL    HW118626   1.254   4.007   2.394  0.2076 -0.2772 -1.3307
 2331SOL    HW218627   1.363   3.910   2.367  2.4543  0.1637  0.7809
 2332SOL     OW18628   0.692   1.764   5.595 -0.2424  0.6963  0.4900
 2332SOL    HW118629   0.769   1.730   5.640 -0.0453 -0.1727 -0.4886
 2332SOL    HW218630   0.648   1.681   5.575  0.1224  0.3890  0.9459
 2333SOL     OW18631   2.378   0.853   5.715 -0.6195  0.5133  0.4290
 2333SOL    HW118632   2.363   0.780   5.775 -0.7908 -0.8435 -1.2820
 2333SOL    HW218633   2.438   0.815   5.651  0.1539 -0.4337  1.7122
 2334SOL     OW18634   3.713   4.646   3.281 -0.3286  0.2447  0.5914
 2334SOL    HW118635   3.687   4.560   3.316  1.1488  0.2028  1.6017
 2334SOL    HW218636   3.720   4.627   3.188 -0.0720  1.3011  0.4021
 2335SOL     OW18637   2.159   3.990  15.654  0.2873  0.0114  0.1002
 2335SOL    HW118638   2.149   3.895  15.645 -0.4045  0.1652 -0.7507
 2335SOL    HW218639   2.178   4.004  15.747 -0.2210 -1.5178  0.4432
 2336SOL     OW18640   1.158   2.947   1.237 -0.1558 -0.0290  0.0309
 2336SOL    HW118641   1.073   2.971   1.202  0.5351  0.3071 -1.4148
 2336SOL    HW218642   1.135   2.856   1.255 -1.0254  0.4934  1.5982
 2337SOL     OW18643   0.155   0.007   2.513 -0.6119 -0.0634  0.0345
 2337SOL    HW118644   0.157   0.022   2.607 -3.0807 -0.7087  0.2080
 2337SOL    HW218645   0.123   4.655   2.504 -0.8161  0.0988 -0.9134
 2338SOL     OW18646   2.513   0.422   8.901  0.4740 -0.2612  0.1106
 2338SOL    HW118647   2.491   0.414   8.808  2.4387  1.2440 -0.4765
 2338SOL    HW218648   2.545   0.510   8.921  1.9280 -0.5155 -1.1040
 2339SOL     OW18649   1.607   0.579   2.890 -0.4012 -0.3021  0.1440
 2339SOL    HW118650   1.647   0.644   2.832 -0.8150  0.3040  0.5489
 2339SOL    HW218651   1.628   0.620   2.974 -3.7780 -0.2331  0.9656
 2340SOL     OW18652   4.234   2.258   8.376 -0.7284  0.0790  0.5617
 2340SOL    HW118653   4.318   2.300   8.358 -0.7970 -0.5657 -1.3534
 2340SOL    HW218654   4.211   2.294   8.462 -0.4113  1.3277  0.1233
 2341SOL     OW18655   3.207   0.675  14.277  0.0631  0.7608  0.6344
 2341SOL    HW118656   3.260   0.615  14.224  0.5428 -1.5764  3.7553
 2341SOL    HW218657   3.143   0.610  14.305 -0.5236  0.6401 -1.0136
 2342SOL     OW18658   4.367   2.538  17.686  0.0620 -0.1471 -0.5867
 2342SOL    HW118659   4.284   2.512  17.726 -0.0095  0.6266 -0.2266
 2342SOL    HW218660   4.403   2.451  17.674 -0.1556 -0.2861 -0.2299
 2343SOL     OW18661   0.974   3.388   8.738 -0.1338  0.1906  0.3745
 2343SOL    HW118662   0.907   3.321   8.732 -1.1733  1.5133 -2.6796
 2343SOL    HW218663   0.976   3.433   8.653 -0.8877 -4.0883 -1.8649
 2344SOL     OW18664   1.957   4.121   1.786 -0.3021 -0.0583  0.2325
 2344SOL    HW118665   1.870   4.159   1.779  0.5359  1.5751 -1.3329
 2344SOL    HW218666   1.998   4.203   1.758 -1.1159 -0.3556 -1.8363
 2345SOL     OW18667   1.768   3.272   2.414 -0.3998  0.3378 -0.3683
 2345SOL    HW118668   1.773   3.364   2.441  0.8082 -0.5814  2.5473
 2345SOL    HW218669   1.838   3.238   2.470  0.8477  0.8859 -1.5886
 2346SOL     OW18670   3.212   2.474  10.651  0.2014  0.0446 -0.0279
 2346SOL    HW118671   3.177   2.559  10.625 -1.2552 -0.8508 -1.0452
 2346SOL    HW218672   3.150   2.430  10.710  0.8782 -2.0642 -0.8765
 2347SOL     OW18673   4.610   0.995   9.107  0.2085  0.3971 -0.0525
 2347SOL    HW118674   4.538   1.013   9.045  1.6384  3.1235 -0.9377
 2347SOL    HW218675   4.566   1.026   9.186  1.7389 -0.7121  1.2231
 2348SOL     OW18676   3.000   3.306   1.940 -0.1260  0.4252  0.0486
 2348SOL    HW118677   2.964   3.377   1.886  1.9339  0.0020 -1.8736
 2348SOL    HW218678   3.055   3.265   1.874  1.3461  1.1639  0.8137
 2349SOL     OW18679   0.211   3.232   7.847 -0.1654 -0.1588 -0.3139
 2349SOL    HW118680   0.136   3.259   7.899  1.4706  2.9079  0.4802
 2349SOL    HW218681   0.178   3.199   7.763 -1.1095 -1.3080  0.5159
 2350SOL     OW18682   3.432   2.767   3.643 -0.0287  0.0607 -0.6166
 2350SOL    HW118683   3.412   2.843   3.698 -0.0778  0.5683 -1.3406
 2350SOL    HW218684   3.387   2.800   3.565 -0.3314 -0.3465 -0.6123
 2351SOL     OW18685   2.201   2.632   3.175 -0.5008  0.0886  0.3168
 2351SOL    HW118686   2.137   2.652   3.244 -0.4859 -2.0352  0.9490
 2351SOL    HW218687   2.206   2.713   3.124 -0.9148  0.5495  0.9959
 2352SOL     OW18688   4.297   0.270   8.783  0.1631 -0.1828 -0.3456
 2352SOL    HW118689   4.294   0.184   8.741 -1.3439 -0.6305  0.6702
 2352SOL    HW218690   4.215   0.313   8.757  0.1360  0.5096  0.9066
 2353SOL     OW18691   4.184   3.323   6.331  0.1678 -0.4107  0.0346
 2353SOL    HW118692   4.190   3.344   6.424 -0.3916  0.1976 -0.0668
 2353SOL    HW218693   4.126   3.393   6.301  0.4291 -0.4942 -0.6606
 2354SOL     OW18694   2.580   0.639   1.185 -0.6271  0.6034  0.3858
 2354SOL    HW118695   2.584   0.734   1.183 -0.7344  0.5494 -2.5744
 2354SOL    HW218696   2.652   0.615   1.244 -0.5928 -0.3797 -0.0496
 2355SOL     OW18697   0.033   1.862   7.238 -0.9095 -0.1374  0.1113
 2355SOL    HW118698   4.695   1.859   7.179 -0.7672 -4.2323  0.1379
 2355SOL    HW218699   0.093   1.925   7.200  0.0279 -0.4929  1.0080
 2356SOL     OW18700   1.802   2.107   0.761 -0.0410 -0.3236  0.7996
 2356SOL    HW118701   1.785   2.030   0.816 -0.7297 -0.7718 -0.0479
 2356SOL    HW218702   1.807   2.069   0.673  0.7808  1.0868  0.2453
 2357SOL     OW18703   0.643   0.865   9.107 -0.1047 -0.3194 -0.0769
 2357SOL    HW118704   0.705   0.922   9.063  1.3206 -0.7275  1.3931
 2357SOL    HW218705   0.566   0.921   9.105 -0.6202 -0.9829  1.1261
 2358SOL     OW18706   1.755   2.162   3.297  0.4361  0.3327 -0.4777
 2358SOL    HW118707   1.745   2.214   3.377 -2.6185  0.4043 -0.8918
 2358SOL    HW218708   1.813   2.207   3.236  0.8095  2.1107  1.1887
 2359SOL     OW18709   2.804   4.224   8.394  0.8054  0.2208  0.7465
 2359SOL    HW118710   2.855   4.161   8.445  2.1132  0.8829  0.2514
 2359SOL    HW218711   2.776   4.286   8.461 -1.5377  0.7495 -0.7170
 2360SOL     OW18712   2.975   3.969   9.119 -0.0912  0.1471  0.3378
 2360SOL    HW118713   2.899   4.009   9.077  0.9646 -0.2324 -1.9868
 2360SOL    HW218714   2.956   3.951   9.211 -2.4998  1.9731  0.1912
 2361SOL     OW18715   3.030   0.895  14.329 -0.0265  0.0403 -0.0745
 2361SOL    HW118716   3.105   0.835  14.325 -0.1930 -0.2896  1.7882
 2361SOL    HW218717   3.051   0.961  14.263 -1.5616  0.1820 -0.4289
 2362SOL     OW18718   2.382   2.608   1.734  0.5752 -0.0667  0.0742
 2362SOL    HW118719   2.322   2.679   1.711 -0.3475 -0.7786  0.2710
 2362SOL    HW218720   2.322   2.544   1.694 -0.9942  0.1456  2.0866
 2363SOL     OW18721   2.908   3.823   6.241 -0.1488 -0.2186  0.0401
 2363SOL    HW118722   2.980   3.870   6.199 -0.6469  0.3668 -0.1597
 2363SOL    HW218723   2.898   3.748   6.182  0.4196  0.2011 -0.5891
 2364SOL     OW18724   4.137   4.094   0.244 -0.2811 -0.1171  0.4055
 2364SOL    HW118725   4.145   4.170   0.301 -0.6472 -1.1260  1.8014
 2364SOL    HW218726   4.219   4.051   0.271  1.3563 -0.5495 -5.2636
 2365SOL     OW18727   0.709   2.597   7.766 -0.4313 -0.2411  0.4503
 2365SOL    HW118728   0.723   2.502   7.769  0.4714 -0.0387  2.9115
 2365SOL    HW218729   0.778   2.621   7.704 -2.4506 -1.5875 -2.3424
 2366SOL     OW18730   0.123   3.921   7.855  0.0061 -0.3286  0.3179
 2366SOL    HW118731   0.128   3.985   7.926  0.3831  0.1004 -0.0923
 2366SOL    HW218732   0.142   3.840   7.902  2.0493 -0.7514 -1.1964
 2367SOL     OW18733   0.678   2.407   6.086 -0.1127  0.4534  0.3012
 2367SOL    HW118734   0.741   2.376   6.152  0.9412  0.2043 -0.8241
 2367SOL    HW218735   0.621   2.454   6.146 -0.0273 -0.7405  1.3356
 2368SOL     OW18736   0.622   1.200   2.174 -0.1943 -0.5841  0.1231
 2368SOL    HW118737   0.538   1.244   2.163  0.6891  0.4749 -2.3570
 2368SOL    HW218738   0.679   1.275   2.156 -1.0359  0.4671  1.8305
 2369SOL     OW18739   3.182   0.024   9.768  0.4395 -0.1759 -0.0634
 2369SOL    HW118740   3.251   4.699   9.746 -0.1439 -1.2136  1.1156
 2369SOL    HW218741   3.111   4.699   9.780  0.7446 -0.3691  0.7053
 2370SOL     OW18742   3.384   0.918   4.472  0.2680 -0.3681  0.0658
 2370SOL    HW118743   3.382   0.826   4.447  1.4404 -1.1179  2.7693
 2370SOL    HW218744   3.472   0.947   4.447  0.7401  0.1156  2.2823
 2371SOL     OW18745   2.019   2.772   2.885 -0.0324 -0.3993 -0.4060
 2371SOL    HW118746   2.052   2.709   2.821 -0.2343  1.2656 -2.1768
 2371SOL    HW218747   1.955   2.720   2.933  2.9046 -1.3046  2.5461
 2372SOL     OW18748   2.516   2.838   6.113  0.1864  0.0259  0.0548
 2372SOL    HW118749   2.565   2.900   6.166 -0.4181  0.5564 -0.0037
 2372SOL    HW218750   2.585   2.785   6.074  0.3950  0.4579 -0.1596
 2373SOL     OW18751   1.543   3.743   6.329 -0.1479  0.6308  0.5607
 2373SOL    HW118752   1.565   3.758   6.420  1.9954 -1.9803  0.4652
 2373SOL    HW218753   1.457   3.785   6.325 -0.1668  0.7156  2.0175
 2374SOL     OW18754   2.720   1.247   7.447  0.0072  0.2453 -0.3424
 2374SOL    HW118755   2.801   1.292   7.471 -0.1726  0.0481  0.6508
 2374SOL    HW218756   2.689   1.194   7.520 -0.6531  1.0179 -0.0530
 2375SOL     OW18757   0.781   4.503  14.563 -0.3300  0.1904  0.3189
 2375SOL    HW118758   0.694   4.536  14.590 -0.1147  1.2269 -0.2455
 2375SOL    HW218759   0.808   4.446  14.634 -1.5512 -1.9370 -0.9322
 2376SOL     OW18760   0.785   1.645   3.777 -0.2323  0.3932  0.4233
 2376SOL    HW118761   0.815   1.562   3.813  0.7525  0.0857 -1.0780
 2376SOL    HW218762   0.863   1.691   3.745  0.6098 -2.1842 -1.2872
 2377SOL     OW18763   2.330   4.635   2.646  0.5636 -0.1806 -0.2610
 2377SOL    HW118764   2.292   4.687   2.716 -1.1516 -1.8299  0.0137
 2377SOL    HW218765   2.318   4.543   2.671 -1.8387  0.7929  2.1600
 2378SOL     OW18766   0.665   2.057  17.744 -0.0080  0.1690 -0.1313
 2378SOL    HW118767   0.738   2.116  17.730 -1.3879  1.3694 -2.2958
 2378SOL    HW218768   0.627   2.105   0.067 -1.3475  4.3607 -3.5719
 2379SOL     OW18769   2.644   0.974  12.327  0.2321  0.3962 -0.2128
 2379SOL    HW118770   2.621   1.043  12.265 -1.0269  0.8151  0.7271
 2379SOL    HW218771   2.624   0.896  12.275  0.0038  0.6286 -0.4750
 2380SOL     OW18772   2.288   1.128  12.543 -0.4701 -0.5196 -0.4505
 2380SOL    HW118773   2.234   1.135  12.622  1.3066 -0.5434  0.7596
 2380SOL    HW218774   2.223   1.152  12.476 -2.6808 -1.9592  1.1611
 2381SOL     OW18775   4.694   2.461   7.738  0.1886 -0.5445 -0.3109
 2381SOL    HW118776   4.668   2.544   7.776 -0.1801 -0.7929 -0.0274
 2381SOL    HW218777   4.662   2.409   7.812 -0.3043  1.7204  1.0677
 2382SOL     OW18778   2.283   2.070   4.015  0.2501  0.2985 -0.5150
 2382SOL    HW118779   2.257   2.071   3.923  0.0320 -2.1743 -0.4974
 2382SOL    HW218780   2.363   2.017   4.007  1.2598  1.7366  0.0778
 2383SOL     OW18781   4.436   3.220   2.452  0.0456  0.3120 -0.0813
 2383SOL    HW118782   4.498   3.205   2.380 -1.0881 -1.1270 -0.7534
 2383SOL    HW218783   4.490   3.270   2.513 -0.4657  0.2824  0.3960
 2384SOL     OW18784   1.076   4.652  13.918 -0.3120  0.3052  0.1469
 2384SOL    HW118785   1.021   4.728  13.900  1.6876  1.5295 -0.7071
 2384SOL    HW218786   1.111   4.636  13.831 -1.2156 -0.1208 -0.1407
 2385SOL     OW18787   2.557   0.114   4.252 -0.0455 -0.1796 -0.0532
 2385SOL    HW118788   2.508   0.051   4.199  0.3604 -1.4257  1.0435
 2385SOL    HW218789   2.556   0.071   4.338 -0.8999  1.1010  0.5733
 2386SOL     OW18790   1.403   1.419  16.280  0.1205 -0.0158  0.3793
 2386SOL    HW118791   1.434   1.362  16.209 -1.3345 -1.4450  0.8962
 2386SOL    HW218792   1.431   1.506  16.253 -0.0332 -0.4361 -1.1535
 2387SOL     OW18793   2.856   2.998   8.343 -0.4088  0.4490  0.2513
 2387SOL    HW118794   2.783   3.004   8.281  0.2012  0.0401 -0.5057
 2387SOL    HW218795   2.901   3.079   8.321  0.2874 -0.3856 -1.4319
 2388SOL     OW18796   3.498   0.810  13.790  0.2638  0.6250 -0.3181
 2388SOL    HW118797   3.527   0.871  13.858 -0.7515 -0.2437  0.8973
 2388SOL    HW218798   3.526   0.727  13.827 -0.6029  0.3946 -0.1776
 2389SOL     OW18799   3.267   3.441   4.627  0.2524  0.0119  0.6104
 2389SOL    HW118800   3.188   3.432   4.680 -0.5668 -0.7022 -0.7158
 2389SOL    HW218801   3.223   3.480   4.551 -0.2554  0.1870  1.0001
 2390SOL     OW18802   1.832   3.838   0.300  0.0719 -0.2328 -0.3518
 2390SOL    HW118803   1.849   3.791   0.382 -1.2870 -0.6789 -0.3178
 2390SOL    HW218804   1.913   3.890   0.300  0.0938 -0.2748  0.8887
 2391SOL     OW18805   0.541   2.792   2.266  0.4785  0.1526  0.1077
 2391SOL    HW118806   0.545   2.823   2.356  0.2681  0.6668 -0.0570
 2391SOL    HW218807   0.498   2.709   2.288  1.9896 -0.1668  1.8476
 2392SOL     OW18808   4.133   2.329   7.785  0.0390  0.0726 -0.1561
 2392SOL    HW118809   4.196   2.337   7.856  0.8844 -0.7495 -0.8019
 2392SOL    HW218810   4.177   2.263   7.730 -0.6990  0.0465 -0.7188
 2393SOL     OW18811   2.713   4.035   5.016  0.7665 -0.9351  0.4981
 2393SOL    HW118812   2.665   3.967   4.969  1.1270  1.8373 -3.8906
 2393SOL    HW218813   2.648   4.047   5.085  1.8579  1.4831  1.1004
 2394SOL     OW18814   3.567   3.703  15.118  0.2302  0.1984  0.3067
 2394SOL    HW118815   3.569   3.730  15.026 -0.6474  1.0386  0.5336
 2394SOL    HW218816   3.484   3.656  15.124  0.6335 -0.6156 -0.5601
 2395SOL     OW18817   4.027   0.201  15.759  0.8091  0.2623  0.5242
 2395SOL    HW118818   3.967   0.245  15.819  0.6765 -1.4305  1.6396
 2395SOL    HW218819   4.070   0.144  15.822 -0.5732 -2.2649 -0.7689
 2396SOL     OW18820   1.721   1.981   2.320 -0.0430  0.6615  0.2610
 2396SOL    HW118821   1.724   1.897   2.275 -0.5484  0.7834 -0.0019
 2396SOL    HW218822   1.781   1.962   2.392 -1.5024 -2.2873  0.6922
 2397SOL     OW18823   0.297   2.383   2.550  0.0464  0.6158 -0.2747
 2397SOL    HW118824   0.246   2.460   2.523  1.2013  2.1027  1.8115
 2397SOL    HW218825   0.228   2.318   2.540  1.9285 -1.2753 -0.8460
 2398SOL     OW18826   4.262   3.078   8.595  0.5105 -0.0511  0.4662
 2398SOL    HW118827   4.344   3.099   8.640  0.5234 -0.0173  0.4270
 2398SOL    HW218828   4.207   3.058   8.671  2.5736 -1.6009  1.5382
 2399SOL     OW18829   0.334   0.812   4.258  0.2362 -0.9187 -0.0281
 2399SOL    HW118830   0.309   0.740   4.316  0.5034 -0.1658  1.0272
 2399SOL    HW218831   0.417   0.836   4.299 -0.5067  1.4490  0.1217
 2400SOL     OW18832   2.676   3.608   1.101 -0.3061 -0.2083  0.2025
 2400SOL    HW118833   2.589   3.571   1.089  0.2585 -1.0193 -1.3380
 2400SOL    HW218834   2.673   3.631   1.194 -0.6680  2.0743 -0.3750
 2401SOL     OW18835   1.237   3.821  11.311  0.1222  0.2909 -0.0903
 2401SOL    HW118836   1.205   3.731  11.305  3.3589 -0.6320 -2.8429
 2401SOL    HW218837   1.160   3.876  11.331 -0.4901 -0.5564 -0.1114
 2402SOL     OW18838   2.629   0.076  17.292  0.5764 -0.2593  0.0243
 2402SOL    HW118839   2.590   0.108  17.211  2.4072 -0.7322 -1.0609
 2402SOL    HW218840   2.633   4.724  17.260  2.5956  0.8039 -2.6669
 2403SOL     OW18841   0.605   1.816   3.421  0.1709 -0.0150  0.1980
 2403SOL    HW118842   0.547   1.886   3.452 -0.9678  1.1690 -4.5539
 2403SOL    HW218843   0.678   1.867   3.385  2.2360 -1.1324  2.7506
 2404SOL     OW18844   3.654   2.511  10.421 -0.5352 -0.0246 -0.6088
 2404SOL    HW118845   3.578   2.516  10.363 -0.3974  1.7976 -0.6163
 2404SOL    HW218846   3.608   2.517  10.505  3.1429  0.4390  1.3825
 2405SOL     OW18847   3.104   1.742  16.756 -0.0864  0.1124  0.1480
 2405SOL    HW118848   3.166   1.805  16.719  0.4065  1.4282  3.1717
 2405SOL    HW218849   3.166   1.674  16.782 -0.9229 -1.6783 -2.5664
 2406SOL     OW18850   3.559   1.167   3.206 -0.0050 -0.5410  0.2119
 2406SOL    HW118851   3.517   1.199   3.127  3.0528  1.3822 -0.6584
 2406SOL    HW218852   3.495   1.099   3.227 -1.1513  0.6712  0.6270
 2407SOL     OW18853   1.597   3.026   4.919 -0.5958 -0.8105 -0.0504
 2407SOL    HW118854   1.586   3.003   4.826  1.0695  0.6987 -0.6217
 2407SOL    HW218855   1.516   2.989   4.955 -0.9323  0.1934  0.2185
 2408SOL     OW18856   1.566   2.298   9.631  0.7941  0.4238 -0.2752
 2408SOL    HW118857   1.495   2.249   9.674  2.6858 -1.5926  0.5051
 2408SOL    HW218858   1.625   2.316   9.704 -0.4210  0.2584  0.7551
 2409SOL     OW18859   1.932   1.006  11.180  0.4344 -0.1739  0.5597
 2409SOL    HW118860   1.914   0.926  11.131  0.0110 -0.4271  1.1290
 2409SOL    HW218861   1.841   1.029  11.200 -0.5782 -2.9383 -0.8448
 2410SOL     OW18862   0.191   1.024  17.715 -0.0804  0.7644  0.1137
 2410SOL    HW118863   0.132   1.046   0.035 -1.3081 -1.8866 -0.1070
 2410SOL    HW218864   0.278   1.050  17.746  0.9420 -1.4050 -0.9788
 2411SOL     OW18865   2.552   4.484  12.715  0.3124 -0.1090 -0.0980
 2411SOL    HW118866   2.505   4.567  12.725  1.6267  0.5673  0.4517
 2411SOL    HW218867   2.541   4.440  12.800 -0.0495  0.8192  0.3364
 2412SOL     OW18868   4.151   0.173  15.239 -0.0066 -0.6654 -0.4151
 2412SOL    HW118869   4.078   0.114  15.255  0.2450 -1.9839 -4.1914
 2412SOL    HW218870   4.176   0.169  15.331  0.9430  2.5742 -0.5375
 2413SOL     OW18871   0.243   1.074  11.645  0.0347  0.3667  0.0773
 2413SOL    HW118872   0.154   1.093  11.617 -0.3421 -2.7879 -0.8784
 2413SOL    HW218873   0.273   1.163  11.666 -0.6582 -0.0056  2.6911
 2414SOL     OW18874   2.102   3.030   1.664 -0.1636  0.3511  0.8875
 2414SOL    HW118875   2.122   3.076   1.746 -0.0621  0.3745  0.8501
 2414SOL    HW218876   2.169   2.961   1.656  0.8650  1.1641  2.4332
 2415SOL     OW18877   2.089   0.333  10.323 -0.5733 -0.3210  0.4754
 2415SOL    HW118878   2.073   0.395  10.252  0.7029 -0.2208  0.2729
 2415SOL    HW218879   2.106   0.400  10.389  2.7989  1.3674 -2.1053
 2416SOL     OW18880   3.205   0.845   5.046  0.6152  0.3025  0.2967
 2416SOL    HW118881   3.201   0.831   4.951  1.4475  0.7061  0.2034
 2416SOL    HW218882   3.172   0.934   5.050 -1.4216 -0.5622  2.6783
 2417SOL     OW18883   1.728   4.005   6.293  0.3968  0.1256  0.0969
 2417SOL    HW118884   1.674   3.938   6.251  1.1861 -1.7190  2.0107
 2417SOL    HW218885   1.666   4.047   6.353 -1.5470 -2.1179 -0.2863
 2418SOL     OW18886   1.556   2.421   6.401 -0.6911 -0.4954  0.3928
 2418SOL    HW118887   1.599   2.476   6.466 -1.7482 -1.5391  1.9863
 2418SOL    HW218888   1.483   2.401   6.459  0.4413 -0.6248  1.7599
 2419SOL     OW18889   2.761   1.563   1.642  0.2673 -0.6109  0.1236
 2419SOL    HW118890   2.711   1.586   1.721  1.2145  1.6228  0.0922
 2419SOL    HW218891   2.699   1.502   1.602 -0.1672  1.6871 -2.6409
 2420SOL     OW18892   2.379   4.228   3.575 -0.1974  0.0303  0.3289
 2420SOL    HW118893   2.407   4.308   3.530 -0.3000  0.1912  0.5536
 2420SOL    HW218894   2.449   4.219   3.639 -0.6580 -0.5777  0.7399
 2421SOL     OW18895   0.723   2.681  16.414 -0.2806 -0.0701  0.6669
 2421SOL    HW118896   0.669   2.727  16.478 -0.0261  1.5130 -0.2321
 2421SOL    HW218897   0.671   2.672  16.334 -0.3274 -0.1776  0.7100
 2422SOL     OW18898   4.508   0.377   5.269  0.2023 -0.1067  0.1172
 2422SOL    HW118899   4.494   0.321   5.345 -1.7245 -0.9807 -0.8591
 2422SOL    HW218900   4.602   0.392   5.272  0.1039 -0.0575  2.8436
 2423SOL     OW18901   1.356   3.478   2.963  0.5152 -0.1544 -0.4570
 2423SOL    HW118902   1.359   3.390   2.925  0.4178 -0.2242 -0.3049
 2423SOL    HW218903   1.449   3.501   2.962  0.1102  1.5434  3.4494
 2424SOL     OW18904   2.050   1.085   8.366  0.1186 -0.0167 -0.6767
 2424SOL    HW118905   2.068   1.008   8.312  1.0780 -0.7256  0.6337
 2424SOL    HW218906   2.005   1.138   8.300 -0.6123  0.5714  0.2795
 2425SOL     OW18907   0.552   3.331   0.094  0.1795  0.3225  0.3177
 2425SOL    HW118908   0.462   3.299   0.088  1.4023 -2.8895 -0.5566
 2425SOL    HW218909   0.571   3.329   0.001 -0.3152  1.4646  0.1846
 2426SOL     OW18910   3.600   1.557   8.396 -0.5130 -0.6300  0.0963
 2426SOL    HW118911   3.520   1.573   8.447 -0.0727  0.1439  0.5483
 2426SOL    HW218912   3.664   1.585   8.461 -0.6667  1.0472 -0.4832
 2427SOL     OW18913   2.519   1.617   4.102  0.0527 -0.8276  0.1686
 2427SOL    HW118914   2.515   1.633   4.007 -1.3796 -1.1443  0.1719
 2427SOL    HW218915   2.471   1.692   4.136  1.6290  0.0899  0.3524
 2428SOL     OW18916   4.557   4.110   2.811  0.5080  0.2630  0.2044
 2428SOL    HW118917   4.468   4.096   2.779 -0.0176 -0.8434  2.1553
 2428SOL    HW218918   4.590   4.025   2.841  0.2012  0.1547  0.2361
 2429SOL     OW18919   1.127   0.066  13.042  0.3513 -0.3323 -0.2430
 2429SOL    HW118920   1.093   0.096  12.958  1.2619 -1.2252 -0.9340
 2429SOL    HW218921   1.222   0.064  13.028  0.4764  0.3536  0.4803
 2430SOL     OW18922   3.164   1.346   6.169 -0.0579  0.2352  0.8268
 2430SOL    HW118923   3.237   1.358   6.229 -0.7797  1.5603  1.4286
 2430SOL    HW218924   3.159   1.251   6.173  1.9504  0.0131 -1.8813
 2431SOL     OW18925   2.776   3.384  16.731 -0.1551  0.1326 -0.1108
 2431SOL    HW118926   2.756   3.290  16.723  1.9664 -0.4904  1.9683
 2431SOL    HW218927   2.700   3.425  16.689  1.6622  3.2202 -0.3546
 2432SOL     OW18928   3.186   3.922  15.368  0.0288  0.3254  0.2415
 2432SOL    HW118929   3.156   3.832  15.377  0.7168  0.1037  0.3345
 2432SOL    HW218930   3.255   3.919  15.434  0.0669 -0.2204  0.1777
 2433SOL     OW18931   4.575   0.136   4.474  0.5266  0.4838  0.3782
 2433SOL    HW118932   4.607   0.209   4.528 -2.2280  2.7659 -1.0669
 2433SOL    HW218933   4.504   0.098   4.527 -0.6556  0.4687 -1.2207
 2434SOL     OW18934   1.591   1.505   4.192  0.2762  0.2541 -0.2097
 2434SOL    HW118935   1.603   1.416   4.158  2.7769  0.3292  0.4780
 2434SOL    HW218936   1.679   1.541   4.190  1.0928 -1.6634  0.7088
 2435SOL     OW18937   0.284   2.448   3.517  0.1334  0.8203 -0.2869
 2435SOL    HW118938   0.227   2.431   3.592 -0.6039 -1.7839 -1.4379
 2435SOL    HW218939   0.335   2.519   3.558 -1.3075 -0.0149  2.9521
 2436SOL     OW18940   2.010   0.108   0.358  0.1618  0.5331  0.0240
 2436SOL    HW118941   2.078   0.092   0.292  0.5384  1.6547  0.1381
 2436SOL    HW218942   2.023   0.018   0.386  0.4885  1.2665  2.1782
 2437SOL     OW18943   1.166   1.802   9.187 -0.5217 -0.2224  0.5920
 2437SOL    HW118944   1.169   1.856   9.266 -1.4494  0.0940  0.3984
 2437SOL    HW218945   1.079   1.763   9.179 -1.8766  2.4171  2.7091
 2438SOL     OW18946   3.042   0.133   5.605  0.2076  0.2836  0.2540
 2438SOL    HW118947   3.066   0.180   5.525  0.1798  0.1523  0.1674
 2438SOL    HW218948   3.127   0.124   5.648 -0.5929  0.7210  1.9024
 2439SOL     OW18949   1.159   2.236   1.577  0.8973 -0.7816 -0.0055
 2439SOL    HW118950   1.222   2.298   1.542 -0.0043  2.0172  3.3295
 2439SOL    HW218951   1.110   2.298   1.632  1.4145  1.7318 -2.4244
 2440SOL     OW18952   1.703   3.440   2.853 -0.4140  0.8210  0.4156
 2440SOL    HW118953   1.660   3.511   2.902 -0.3668  0.4566  0.9872
 2440SOL    HW218954   1.683   3.359   2.900 -1.0722  2.0962  2.3153
 2441SOL     OW18955   2.385   2.671   5.700  0.2582  0.4334  0.0478
 2441SOL    HW118956   2.292   2.668   5.682  0.9984  0.4558 -3.7475
 2441SOL    HW218957   2.425   2.648   5.616  0.8242 -2.8693  1.2014
 2442SOL     OW18958   1.013   3.665   7.862 -0.1169  0.2029  0.2585
 2442SOL    HW118959   1.085   3.682   7.802 -1.2165 -1.8124 -1.6258
 2442SOL    HW218960   1.018   3.747   7.911  0.0770  0.4824 -0.2387
 2443SOL     OW18961   4.307   1.611  13.078 -0.0214  0.3474  0.5673
 2443SOL    HW118962   4.307   1.516  13.065  0.3974  0.7178 -2.2272
 2443SOL    HW218963   4.395   1.619  13.115 -0.7332 -0.0010  2.2989
 2444SOL     OW18964   0.482   2.839   0.625 -0.5865 -0.1626  0.4711
 2444SOL    HW118965   0.491   2.745   0.642 -2.5922 -0.7286 -1.5457
 2444SOL    HW218966   0.476   2.844   0.530 -0.3364  1.5082  0.5572
 2445SOL     OW18967   2.243   4.294   6.613  0.3471 -0.6401 -0.0321
 2445SOL    HW118968   2.323   4.304   6.561  0.8663  0.2625  0.9486
 2445SOL    HW218969   2.244   4.387   6.634  1.1398 -0.5275 -0.5505
 2446SOL     OW18970   3.033   1.159   4.937  0.5589  0.1347  0.5372
 2446SOL    HW118971   3.039   1.239   4.885 -1.5686  0.2652  0.4797
 2446SOL    HW218972   3.018   1.097   4.866 -2.0796  0.9111  0.4090
 2447SOL     OW18973   3.419   1.331   2.622  0.3019 -0.2784 -0.3955
 2447SOL    HW118974   3.361   1.344   2.697  0.5583 -1.7749  0.0747
 2447SOL    HW218975   3.379   1.389   2.557 -0.0164 -0.6152 -0.5013
 2448SOL     OW18976   0.868   2.369   1.895  0.1507  0.1709  0.3794
 2448SOL    HW118977   0.903   2.289   1.935  1.1939 -0.2760 -1.4052
 2448SOL    HW218978   0.925   2.373   1.818 -0.5538 -1.7218 -0.2296
 2449SOL     OW18979   0.266   3.739   0.245  0.0219 -0.1550 -0.0459
 2449SOL    HW118980   0.201   3.688   0.293  1.3716 -0.0176  1.9134
 2449SOL    HW218981   0.327   3.669   0.221 -0.1260 -0.6181  0.9528
 2450SOL     OW18982   4.651   2.436   0.831 -0.6053 -0.3041  0.1917
 2450SOL    HW118983   4.609   2.350   0.831 -1.5988  0.1751  0.3844
 2450SOL    HW218984   4.623   2.461   0.919  3.0154 -0.2022  1.3239
 2451SOL     OW18985   0.900   0.735   0.810 -0.3228  0.0710 -0.0457
 2451SOL    HW118986   0.898   0.775   0.897  0.9309 -0.9525  0.4592
 2451SOL    HW218987   0.986   0.761   0.776 -0.4782  1.1145  0.3562
 2452SOL     OW18988   2.120   2.212   5.126 -0.1576 -0.1834  0.2013
 2452SOL    HW118989   2.048   2.242   5.181 -0.7014 -0.2478 -0.4824
 2452SOL    HW218990   2.164   2.295   5.109 -0.4642 -0.1776 -0.5366
 2453SOL     OW18991   0.411   0.650   7.759 -0.1914  0.4661  0.9975
 2453SOL    HW118992   0.476   0.700   7.807 -0.5379  2.2567 -0.3796
 2453SOL    HW218993   0.461   0.571   7.741 -1.1122 -0.8318  4.0031
 2454SOL     OW18994   0.520   2.829   6.463 -0.2730  0.0918 -0.2869
 2454SOL    HW118995   0.590   2.835   6.528  0.3984 -2.0275 -0.8203
 2454SOL    HW218996   0.542   2.751   6.413 -0.0787 -0.9289  1.3870
 2455SOL     OW18997   2.038   0.067  16.652  0.0361  0.3390 -0.0792
 2455SOL    HW118998   2.058   0.009  16.578  0.7909 -2.0302  1.9762
 2455SOL    HW218999   1.987   4.737  16.695 -0.4549 -0.0774 -1.3126
 2456SOL     OW19000   3.962   2.486   8.531 -0.3386 -0.1324 -0.6535
 2456SOL    HW119001   3.882   2.516   8.489 -0.0967  0.8569 -0.4116
 2456SOL    HW219002   4.014   2.558   8.495 -1.6965 -0.2230 -2.7804
 2457SOL     OW19003   1.528   0.503   9.334 -0.1276 -0.1124 -0.0859
 2457SOL    HW119004   1.554   0.559   9.261  0.4397 -0.3990 -0.1031
 2457SOL    HW219005   1.450   0.554   9.355 -0.9329 -0.8468 -1.3101
 2458SOL     OW19006   0.978   3.205   3.421  0.1993  0.1046 -0.9298
 2458SOL    HW119007   1.004   3.200   3.513  1.1410  0.0309 -1.1982
 2458SOL    HW219008   1.062   3.236   3.388 -0.0288  1.4063 -0.2928
 2459SOL     OW19009   0.731   0.821   9.778 -0.6005  0.2891 -0.4773
 2459SOL    HW119010   0.791   0.843   9.707 -0.0511 -1.8312 -0.6653
 2459SOL    HW219011   0.642   0.838   9.747 -1.0603 -2.5132 -0.7633
 2460SOL     OW19012   1.152   3.366  12.689 -0.2268 -0.0002 -0.2183
 2460SOL    HW119013   1.137   3.376  12.595 -0.2983 -2.4950 -0.4734
 2460SOL    HW219014   1.060   3.346  12.709 -1.0376  3.1519 -0.7886
 2461SOL     OW19015   0.962   1.081  14.898 -0.6420  1.1298  0.1329
 2461SOL    HW119016   1.003   1.003  14.935 -0.7707  0.6749 -0.6757
 2461SOL    HW219017   1.016   1.149  14.938 -1.3620  0.8218  1.6330
 2462SOL     OW19018   0.009   1.895   9.328  0.2441  0.0486  0.2413
 2462SOL    HW119019   4.671   1.904   9.384  0.6295 -1.2380  0.9936
 2462SOL    HW219020   0.075   1.936   9.384 -0.9135  0.3496  1.3843
 2463SOL     OW19021   0.874   1.312   5.775 -0.0642 -0.2818  0.3444
 2463SOL    HW119022   0.954   1.261   5.779 -0.5962 -1.1869 -0.3831
 2463SOL    HW219023   0.905   1.401   5.759  0.8609 -1.0549 -2.1754
 2464SOL     OW19024   0.023   2.231   4.120 -0.2541  0.0686 -0.3808
 2464SOL    HW119025   4.733   2.167   4.055  1.2675  0.1634 -1.1339
 2464SOL    HW219026   0.099   2.195   4.165 -0.1123  0.9984  0.1339
 2465SOL     OW19027   1.950   3.644   3.575  0.2522 -0.4972  0.2308
 2465SOL    HW119028   2.007   3.715   3.604  0.2095 -0.3926  0.0558
 2465SOL    HW219029   1.954   3.587   3.652  0.6834 -0.2959  0.3536
 2466SOL     OW19030   1.872   0.292   8.815 -0.1128 -0.1005  0.3211
 2466SOL    HW119031   1.836   0.221   8.868  0.6974 -0.3193  0.5931
 2466SOL    HW219032   1.836   0.265   8.731 -2.8084  1.8699  0.8317
 2467SOL     OW19033   3.598   2.574   6.010 -0.0805  0.4808 -0.1270
 2467SOL    HW119034   3.517   2.597   6.055  0.2662  1.6205 -0.0677
 2467SOL    HW219035   3.602   2.480   6.025  0.6716  0.6997  1.0859
 2468SOL     OW19036   1.872   2.656   8.694 -0.4516  0.1940 -0.2143
 2468SOL    HW119037   1.801   2.604   8.655 -0.1354  0.1981 -0.7984
 2468SOL    HW219038   1.832   2.693   8.773  1.4880  1.2458  0.2839
 2469SOL     OW19039   1.250   2.429  12.059  0.4276  0.4917 -0.1862
 2469SOL    HW119040   1.239   2.468  12.146 -2.8540 -0.7179 -0.0435
 2469SOL    HW219041   1.159   2.409  12.036  0.5601 -1.6336  1.0808
 2470SOL     OW19042   2.478   0.165  17.061  0.2728 -0.3562 -0.1508
 2470SOL    HW119043   2.440   0.152  16.974  1.2622 -1.4477 -0.4188
 2470SOL    HW219044   2.552   0.224  17.048 -0.2383  0.7135  1.7742
 2471SOL     OW19045   1.722   0.858   8.552  0.0809  0.1115 -0.4772
 2471SOL    HW119046   1.669   0.812   8.487  0.2137  1.1383 -1.3076
 2471SOL    HW219047   1.733   0.945   8.515 -0.8468 -0.6715 -2.5841
 2472SOL     OW19048   0.647   2.638   9.140 -0.5985 -0.0919  0.4397
 2472SOL    HW119049   0.582   2.697   9.180 -1.4945 -1.1258  0.5116
 2472SOL    HW219050   0.626   2.563   9.196  3.5139 -0.5803  1.3065
 2473SOL     OW19051   2.173   1.783   9.662 -0.6892 -0.1943  0.4577
 2473SOL    HW119052   2.151   1.704   9.613  2.4793  0.0246 -1.3447
 2473SOL    HW219053   2.261   1.758   9.691 -0.6363 -1.2243 -0.5735
 2474SOL     OW19054   3.029   1.496   5.593  0.1129  0.3067 -0.4361
 2474SOL    HW119055   3.085   1.538   5.658 -2.4560  3.5391 -0.3520
 2474SOL    HW219056   3.023   1.561   5.523  2.3620  2.4808  1.3826
 2475SOL     OW19057   2.160   0.510  10.522 -0.2581  0.5166 -0.1727
 2475SOL    HW119058   2.123   0.598  10.524  1.5040  1.2373  0.8811
 2475SOL    HW219059   2.244   0.509  10.568 -1.5326 -1.5532  2.0759
 2476SOL     OW19060   1.608   2.481   4.757  0.4182  0.2426 -0.2647
 2476SOL    HW119061   1.697   2.484   4.721  0.2920 -1.0148 -0.6526
 2476SOL    HW219062   1.620   2.456   4.849 -0.8942  1.8548  0.3519
 2477SOL     OW19063   4.152   2.625  16.405  0.0573  0.1600 -0.2229
 2477SOL    HW119064   4.187   2.709  16.433 -1.5988 -0.8375  4.7127
 2477SOL    HW219065   4.235   2.599  16.366 -0.7802  0.1162 -1.9930
 2478SOL     OW19066   0.113   3.139  11.883  0.7716 -0.0307  0.1894
 2478SOL    HW119067   0.171   3.215  11.880 -0.7353  1.1810  1.5821
 2478SOL    HW219068   0.164   3.082  11.939 -0.3374  0.8007  2.0358
 2479SOL     OW19069   3.569   4.033  10.609 -0.4126 -0.4850 -0.6886
 2479SOL    HW119070   3.542   4.115  10.566 -2.2533 -1.6212 -1.6644
 2479SOL    HW219071   3.661   4.060  10.613 -1.0663  1.7684 -0.8012
 2480SOL     OW19072   1.649   0.636   1.690  0.7310  0.3518  0.0493
 2480SOL    HW119073   1.631   0.646   1.597  0.6021 -0.7927 -0.0477
 2480SOL    HW219074   1.741   0.611   1.694  0.4454 -0.7584 -0.2718
 2481SOL     OW19075   4.516   4.581  16.897 -0.2892 -0.3518 -0.4758
 2481SOL    HW119076   4.549   4.499  16.859  2.2299 -0.5940  2.1972
 2481SOL    HW219077   4.423   4.570  16.877 -0.7574  0.7339  1.0761
 2482SOL     OW19078   1.833   1.496   1.865  0.2013 -0.4372  0.5358
 2482SOL    HW119079   1.851   1.590   1.862 -0.2435 -0.3478  0.6897
 2482SOL    HW219080   1.774   1.484   1.791  3.4193  0.4998 -2.1982
 2483SOL     OW19081   3.156   4.658   4.134 -0.0340  0.0524 -0.7269
 2483SOL    HW119082   3.238   4.707   4.136  0.0843 -0.1415 -0.8259
 2483SOL    HW219083   3.191   4.570   4.118  1.5226  0.1251  2.2961
 2484SOL     OW19084   2.991   2.726   4.977 -0.0256 -0.0493  0.2724
 2484SOL    HW119085   3.031   2.780   4.908 -0.4678 -1.3936 -1.0384
 2484SOL    HW219086   3.023   2.640   4.948 -0.7013  0.3515 -1.6728
 2485SOL     OW19087   3.448   2.330   6.612 -0.0725  0.4275  0.3771
 2485SOL    HW119088   3.456   2.337   6.517 -0.4570  1.2361  0.4056
 2485SOL    HW219089   3.468   2.236   6.620 -1.5041  0.1321  0.4879
 2486SOL     OW19090   4.114   3.249  14.034  0.7606  0.2771 -0.1140
 2486SOL    HW119091   4.169   3.171  14.038 -0.9889 -1.0019 -1.5390
 2486SOL    HW219092   4.110   3.265  13.940  1.3463  2.9278  0.3042
 2487SOL     OW19093   0.792   1.804   1.835  0.1624 -0.3651  0.2240
 2487SOL    HW119094   0.697   1.804   1.851  0.4173  2.6804  1.8734
 2487SOL    HW219095   0.824   1.714   1.825  1.3712  0.1320 -0.3267
 2488SOL     OW19096   0.162   1.510   5.962 -0.5426 -0.1812 -0.3677
 2488SOL    HW119097   0.180   1.416   5.972 -0.1706  0.1519  2.0080
 2488SOL    HW219098   0.238   1.541   6.010 -0.1406  2.9655 -3.0966
 2489SOL     OW19099   3.376   2.730  10.130  0.1671  0.7628  0.1549
 2489SOL    HW119100   3.346   2.776  10.209 -0.3960  1.2384 -0.3382
 2489SOL    HW219101   3.420   2.652  10.164 -0.8744 -0.7588 -2.0048
 2490SOL     OW19102   2.475   2.602   6.825  0.6644  0.1191  0.3866
 2490SOL    HW119103   2.381   2.605   6.838  0.8749  1.5924  1.5034
 2490SOL    HW219104   2.497   2.672   6.763  0.1036 -1.2291 -1.3424
 2491SOL     OW19105   3.529   2.263   2.933 -0.1869  0.0838  0.0552
 2491SOL    HW119106   3.459   2.198   2.926  0.6835 -1.1773  3.3053
 2491SOL    HW219107   3.556   2.255   2.842  2.8436  3.5379  0.6188
 2492SOL     OW19108   4.202   2.146   5.572 -0.1376 -0.1370 -0.5122
 2492SOL    HW119109   4.176   2.217   5.630 -0.2849  0.7512 -1.6470
 2492SOL    HW219110   4.239   2.078   5.628 -0.6871 -0.0679 -0.0688
 2493SOL     OW19111   0.630   1.048  13.218  0.6679  0.4961 -0.2343
 2493SOL    HW119112   0.619   1.129  13.169  0.1005  0.8934  0.5470
 2493SOL    HW219113   0.719   1.023  13.195  0.1243 -0.8084 -0.9309
 2494SOL     OW19114   3.526   3.808   5.734  0.2958  0.3433 -0.0341
 2494SOL    HW119115   3.530   3.879   5.669  2.3326  0.2418 -0.0059
 2494SOL    HW219116   3.475   3.861   5.796  0.8477 -2.0029  2.4412
 2495SOL     OW19117   0.417   0.307   2.866 -0.1243  0.0333  0.2948
 2495SOL    HW119118   0.449   0.396   2.853  0.7371 -0.2814  0.3101
 2495SOL    HW219119   0.486   0.263   2.914 -0.2624 -0.9281 -0.3873
 2496SOL     OW19120   0.574   2.767   2.981 -0.2286 -0.3743 -0.1848
 2496SOL    HW119121   0.608   2.855   2.999 -0.5052 -0.4332  0.6362
 2496SOL    HW219122   0.646   2.718   2.941  0.6620  1.5704 -0.9488
 2497SOL     OW19123   0.596   1.049   2.397 -0.6769  0.0729  0.3757
 2497SOL    HW119124   0.621   1.094   2.317 -1.4342 -0.9765 -0.4523
 2497SOL    HW219125   0.603   1.116   2.465 -0.6297  1.1202 -0.6643
 2498SOL     OW19126   2.565   4.568   1.015  0.1302  0.4453  0.1254
 2498SOL    HW119127   2.518   4.628   0.957  1.1303 -0.0555 -1.2155
 2498SOL    HW219128   2.497   4.557   1.082  0.3594 -1.5455  0.0441
 2499SOL     OW19129   4.647   3.525  10.285  0.4774  0.2340  0.2188
 2499SOL    HW119130   4.684   3.440  10.308 -0.3001 -0.0941  0.2510
 2499SOL    HW219131   4.718   3.559  10.230  0.8624 -2.2345 -0.7802
 2500SOL     OW19132   1.928   0.165   3.916 -0.2411 -0.3491 -0.4494
 2500SOL    HW119133   1.863   0.124   3.860  1.4278 -2.8529 -0.5578
 2500SOL    HW219134   1.880   0.203   3.990 -1.6359  0.2042 -1.6452
 2501SOL     OW19135   1.456   1.622  11.158  0.6926 -0.9016 -0.0560
 2501SOL    HW119136   1.372   1.610  11.202  0.7782  0.5966  0.5059
 2501SOL    HW219137   1.502   1.538  11.166 -0.6537 -1.8197 -1.8487
 2502SOL     OW19138   4.054   2.161   3.136 -0.1115 -0.5930 -0.1147
 2502SOL    HW119139   3.989   2.167   3.066  0.1790 -1.0928 -0.4260
 2502SOL    HW219140   4.015   2.218   3.202  0.8664  1.0030 -0.9161
 2503SOL     OW19141   0.444   3.135   3.348  0.2452 -0.0322  0.0821
 2503SOL    HW119142   0.445   3.203   3.415  3.0727  0.7975 -0.7922
 2503SOL    HW219143   0.536   3.113   3.330  0.1251 -0.8935  0.5474
 2504SOL     OW19144   0.428   3.326   2.024 -0.3294  0.1287 -0.2789
 2504SOL    HW119145   0.489   3.399   2.036  1.8812 -2.2306  2.6162
 2504SOL    HW219146   0.352   3.382   2.005 -0.0785  0.2844 -0.8498
 2505SOL     OW19147   1.327   2.783   6.430  0.2977  0.1409 -0.1445
 2505SOL    HW119148   1.361   2.698   6.457  1.7934  0.0832 -2.2620
 2505SOL    HW219149   1.363   2.779   6.341  0.6001  1.9812 -0.1055
 2506SOL     OW19150   4.493   1.736   0.840  0.7849 -0.0749 -0.2965
 2506SOL    HW119151   4.557   1.757   0.772  1.9046 -1.6448  0.2701
 2506SOL    HW219152   4.534   1.759   0.923 -1.9722  0.8073  0.8177
 2507SOL     OW19153   1.275   3.934  15.917  0.8988  0.2841  0.2655
 2507SOL    HW119154   1.254   4.028  15.918  1.1026  0.3266  0.8787
 2507SOL    HW219155   1.195   3.896  15.883  0.9638  1.8898 -1.6730
 2508SOL     OW19156   4.541   3.540   5.299  0.1676  0.1663  0.2587
 2508SOL    HW119157   4.630   3.546   5.265  0.0055 -1.0721 -0.3737
 2508SOL    HW219158   4.493   3.597   5.239 -1.2594  1.5300  2.6683
 2509SOL     OW19159   3.914   2.454   9.578  0.1807  0.0879 -0.1388
 2509SOL    HW119160   3.962   2.379   9.543 -0.7471 -1.1024  1.1460
 2509SOL    HW219161   3.851   2.469   9.508 -0.2843  1.3842  0.5534
 2510SOL     OW19162   3.217   0.472  11.845 -0.1290 -0.0693  0.3046
 2510SOL    HW119163   3.218   0.396  11.903 -0.0564  1.2652  2.0703
 2510SOL    HW219164   3.225   0.431  11.759  0.2216  2.6370 -0.9641
 2511SOL     OW19165   0.071   1.344   6.697 -0.2051 -0.3724 -0.1813
 2511SOL    HW119166   4.724   1.325   6.735  0.5449 -2.1426  0.6261
 2511SOL    HW219167   0.049   1.341   6.604  0.1358 -0.6298 -0.2553
 2512SOL     OW19168   0.927   3.253  16.662  0.0881 -0.0670 -0.0597
 2512SOL    HW119169   0.945   3.319  16.595 -1.4352  1.1818  0.7499
 2512SOL    HW219170   0.879   3.303  16.728 -2.1407 -0.3337 -1.4694
 2513SOL     OW19171   2.676   2.451   0.287 -0.0535 -0.3286 -0.2156
 2513SOL    HW119172   2.724   2.403   0.354 -2.4066 -0.5887  1.2827
 2513SOL    HW219173   2.584   2.436   0.311  0.3685 -0.9726  0.9809
 2514SOL     OW19174   0.439   2.875   4.807  0.1555  0.2447 -0.5234
 2514SOL    HW119175   0.516   2.928   4.787  1.0442 -0.7198  0.3658
 2514SOL    HW219176   0.472   2.786   4.797  0.1915  0.1124  0.7698
 2515SOL     OW19177   4.542   0.325   2.366 -0.5295 -0.5960 -0.3353
 2515SOL    HW119178   4.477   0.267   2.326 -0.2220  0.2806 -2.0687
 2515SOL    HW219179   4.598   0.264   2.414  2.0614 -0.7710 -3.6515
 2516SOL     OW19180   4.178   2.186  14.575 -0.1240  0.4019 -0.0424
 2516SOL    HW119181   4.240   2.139  14.519  0.2946  0.3559  0.4622
 2516SOL    HW219182   4.112   2.216  14.512 -0.3022  0.6505  0.2648
 2517SOL     OW19183   1.583   2.064   2.074 -0.1960  0.2452 -0.6067
 2517SOL    HW119184   1.493   2.038   2.096  0.1150  0.0676  0.4637
 2517SOL    HW219185   1.620   2.024   2.153 -2.2056 -0.2504  0.0744
 2518SOL     OW19186   1.990   1.448   0.205  0.0770  0.2154  0.1361
 2518SOL    HW119187   2.017   1.520   0.147 -2.4939  1.0496 -0.0134
 2518SOL    HW219188   2.071   1.404   0.230 -1.5672 -1.9683  1.6150
 2519SOL     OW19189   1.198   1.085  12.296 -0.0283 -0.4977 -0.1559
 2519SOL    HW119190   1.124   1.107  12.239 -0.4635 -3.1689 -0.6161
 2519SOL    HW219191   1.265   1.059  12.232  0.0627 -1.2925  0.2677
 2520SOL     OW19192   0.390   2.925   5.321  0.1810 -0.5591  0.4455
 2520SOL    HW119193   0.322   2.983   5.356 -0.5481 -1.8739  1.2159
 2520SOL    HW219194   0.469   2.979   5.313  0.9479 -1.8738 -0.7163
 2521SOL     OW19195   4.323   2.070   9.540 -0.6594  0.2607 -0.7165
 2521SOL    HW119196   4.271   2.029   9.609  0.2947  1.7875  0.9058
 2521SOL    HW219197   4.319   2.162   9.566 -1.3587  0.8491 -2.9159
 2522SOL     OW19198   1.279   3.451   0.675 -0.3463  0.0413 -0.1171
 2522SOL    HW119199   1.261   3.408   0.591 -0.3990 -1.3140  0.5862
 2522SOL    HW219200   1.277   3.544   0.653 -0.5862 -0.6037 -2.9187
 2523SOL     OW19201   3.129   1.894   8.292  0.3134  0.0119 -0.1071
 2523SOL    HW119202   3.219   1.876   8.319  0.5947  0.5284 -0.7051
 2523SOL    HW219203   3.132   1.866   8.200 -1.6874  0.5863 -0.3385
 2524SOL     OW19204   2.953   2.620   4.248  1.0084 -0.2463 -0.3161
 2524SOL    HW119205   2.948   2.524   4.254 -2.8125  0.0744  1.5346
 2524SOL    HW219206   2.977   2.644   4.338  1.2952  1.1189 -0.7627
 2525SOL     OW19207   0.177   0.861   4.946 -0.0290  0.6919 -0.0099
 2525SOL    HW119208   0.128   0.931   4.902 -2.4403 -1.0203 -0.0606
 2525SOL    HW219209   0.196   0.811   4.866  4.4945  1.6227  0.4579
 2526SOL     OW19210   0.139   1.077   8.916  0.4322 -0.3652 -0.8517
 2526SOL    HW119211   0.121   1.168   8.936 -2.0201 -0.5242 -2.3954
 2526SOL    HW219212   0.085   1.036   8.984 -0.3694 -0.1813 -1.3801
 2527SOL     OW19213   4.333   1.814   5.409  0.0460 -0.7009 -0.0424
 2527SOL    HW119214   4.375   1.900   5.410 -1.7308  0.1893 -0.7506
 2527SOL    HW219215   4.402   1.764   5.453 -0.7346 -0.8109  1.0446
 2528SOL     OW19216   1.274   4.609   6.561  0.6936 -0.6194 -0.5856
 2528SOL    HW119217   1.281   4.689   6.508  1.1068  0.9521  1.8836
 2528SOL    HW219218   1.258   4.637   6.651  0.0028  2.4933 -1.6697
 2529SOL     OW19219   0.808   3.854  12.777  0.5447  0.6204  0.3281
 2529SOL    HW119220   0.890   3.811  12.752  0.4794 -0.6823  2.3708
 2529SOL    HW219221   0.763   3.776  12.808  0.9574  0.4465  0.4900
 2530SOL     OW19222   4.035   0.407   0.502 -0.1412  0.4607 -0.5238
 2530SOL    HW119223   4.086   0.419   0.422  0.3450  0.0453 -0.2775
 2530SOL    HW219224   4.092   0.420   0.578  2.2778  0.1813 -2.2915
 2531SOL     OW19225   2.380   0.097   5.250 -0.3673  0.2090 -0.8514
 2531SOL    HW119226   2.465   0.083   5.290  0.4813  0.1797 -2.6622
 2531SOL    HW219227   2.324   0.051   5.312  1.5503 -0.9458  0.0154
 2532SOL     OW19228   1.295   0.293   8.953 -0.8449 -0.1284 -0.1218
 2532SOL    HW119229   1.305   0.249   9.038  1.2401 -2.0978 -1.4007
 2532SOL    HW219230   1.201   0.275   8.945 -0.5012 -1.5577 -0.9694
 2533SOL     OW19231   4.267   4.264   6.226 -0.0210  0.0843  0.4000
 2533SOL    HW119232   4.271   4.319   6.304 -0.6740  2.7426 -1.4571
 2533SOL    HW219233   4.188   4.211   6.241 -1.2994  1.3074 -2.0983
 2534SOL     OW19234   0.468   2.595   9.636  0.3406 -0.4059  0.2288
 2534SOL    HW119235   0.483   2.674   9.687 -0.3324  0.3919 -0.8075
 2534SOL    HW219236   0.414   2.543   9.696 -0.7865  0.0737 -0.3663
 2535SOL     OW19237   0.952   3.348   4.111  0.3341 -0.2314  0.0354
 2535SOL    HW119238   1.043   3.331   4.137  0.2260 -1.3003 -0.2905
 2535SOL    HW219239   0.942   3.262   4.070  0.9396 -0.0939 -0.4104
 2536SOL     OW19240   2.163   2.283  11.495  0.3283  0.1506  0.4881
 2536SOL    HW119241   2.181   2.281  11.400  2.9669  2.3818  0.9470
 2536SOL    HW219242   2.136   2.192  11.507  0.9883  0.0464  1.1229
 2537SOL     OW19243   1.983   4.421   7.753 -0.0629  0.2293  0.1314
 2537SOL    HW119244   2.065   4.372   7.756  0.4498  1.0309 -1.1068
 2537SOL    HW219245   1.996   4.465   7.669 -1.1300  0.1498 -0.0786
 2538SOL     OW19246   1.565   1.571   9.378 -0.3456  0.7443 -0.1438
 2538SOL    HW119247   1.532   1.500   9.323 -0.7642  0.0285  1.0064
 2538SOL    HW219248   1.493   1.629   9.351 -0.9303 -0.1523 -0.5130
 2539SOL     OW19249   4.466   3.540   2.027  0.2555 -0.2056  0.3747
 2539SOL    HW119250   4.544   3.590   2.051  0.7555 -0.8797  0.1680
 2539SOL    HW219251   4.441   3.612   1.970 -0.0486 -1.2360 -0.7935
 2540SOL     OW19252   1.975   4.577  11.928  0.3871 -0.1770  0.0163
 2540SOL    HW119253   2.047   4.608  11.983  0.4760 -1.2441  0.4967
 2540SOL    HW219254   1.987   4.483  11.940  0.1448 -0.1219  0.6658
 2541SOL     OW19255   1.940   4.158   4.273  0.4065 -0.2561 -0.2839
 2541SOL    HW119256   2.018   4.104   4.285  1.8722  2.1627  1.0369
 2541SOL    HW219257   1.977   4.227   4.218  1.4089 -0.1417  0.5457
 2542SOL     OW19258   1.416   3.677   8.333 -0.9886  0.5531  0.8293
 2542SOL    HW119259   1.362   3.598   8.327  0.0931 -0.1130 -0.2178
 2542SOL    HW219260   1.484   3.638   8.387  1.9431  0.7860 -2.6867
 2543SOL     OW19261   2.230   1.764   3.822 -0.4693  0.2952  0.2782
 2543SOL    HW119262   2.233   1.857   3.846 -3.3716  0.6207 -0.6627
 2543SOL    HW219263   2.152   1.768   3.767  0.4777 -2.7555 -1.2584
 2544SOL     OW19264   1.108   3.599   3.871  0.0229 -0.2265 -0.1534
 2544SOL    HW119265   1.035   3.596   3.810 -0.1826  0.1874  0.0779
 2544SOL    HW219266   1.132   3.691   3.871 -0.3619 -0.1178  3.9514
 2545SOL     OW19267   1.535   0.011   1.941  0.6444 -0.0931  0.5871
 2545SOL    HW119268   1.597   0.009   2.014  1.0096  0.3798  0.2872
 2545SOL    HW219269   1.579   0.064   1.876  0.6125 -0.5677  0.1796
 2546SOL     OW19270   2.893   0.313   6.508  0.1602  0.6381 -0.7082
 2546SOL    HW119271   2.871   0.260   6.432  0.2291 -0.4616  0.0390
 2546SOL    HW219272   2.907   0.246   6.575  0.2752  0.9379 -0.4315
 2547SOL     OW19273   4.522   2.418   6.980  0.0318 -0.2983 -0.0166
 2547SOL    HW119274   4.600   2.396   6.929  0.6461 -0.1263  0.8463
 2547SOL    HW219275   4.473   2.337   6.992 -0.3434  0.0101  0.5311
 2548SOL     OW19276   0.636   2.378   9.591 -0.4034 -0.2182  0.8483
 2548SOL    HW119277   0.717   2.425   9.574 -0.8603  0.3828  0.3217
 2548SOL    HW219278   0.580   2.449   9.623 -0.5162  0.1851 -0.2408
 2549SOL     OW19279   0.092   3.764  11.593 -0.3815  0.4468 -0.1092
 2549SOL    HW119280   0.182   3.755  11.564 -0.6997  0.3960 -1.0962
 2549SOL    HW219281   0.074   3.855  11.568 -0.3845  0.7259  0.9323
 2550SOL     OW19282   0.490   1.252   8.679 -0.0108  0.1887 -0.2668
 2550SOL    HW119283   0.537   1.217   8.755 -2.8296  0.2151  1.4931
 2550SOL    HW219284   0.516   1.186   8.615 -2.2299 -0.0762 -0.9117
 2551SOL     OW19285   2.298   2.806   6.321 -0.2098  0.4552 -0.0043
 2551SOL    HW119286   2.256   2.889   6.344  2.0981  1.6129  0.0975
 2551SOL    HW219287   2.348   2.827   6.241 -2.5010 -0.4503 -1.6511
 2552SOL     OW19288   3.342   2.116   4.809 -0.0044 -0.1403 -0.3517
 2552SOL    HW119289   3.419   2.116   4.867 -0.1763  3.3985 -0.1514
 2552SOL    HW219290   3.291   2.194   4.830 -0.4651 -0.4523 -0.3156
 2553SOL     OW19291   3.138   1.121  12.496 -0.0586  0.4287 -0.3023
 2553SOL    HW119292   3.119   1.030  12.476  0.4953  0.4317 -0.8424
 2553SOL    HW219293   3.231   1.111  12.472 -0.4164 -2.1944 -0.5940
 2554SOL     OW19294   2.993   2.948   3.917  0.6420 -0.3935 -0.2015
 2554SOL    HW119295   3.049   2.875   3.893  1.2042  0.2756 -0.9418
 2554SOL    HW219296   3.063   3.003   3.953  0.7860  0.0049 -1.0900
 2555SOL     OW19297   2.488   0.627   4.288 -0.1966  0.5146  0.0484
 2555SOL    HW119298   2.476   0.532   4.290  0.1160  0.4562 -0.8133
 2555SOL    HW219299   2.512   0.642   4.380 -1.0420 -1.2164  0.5562
 2556SOL     OW19300   4.487   4.436  15.930 -0.2613 -0.3926 -0.5415
 2556SOL    HW119301   4.519   4.384  15.856  0.3778 -0.5124 -0.1828
 2556SOL    HW219302   4.473   4.373  16.001  0.9907 -0.7432 -0.5994
 2557SOL     OW19303   2.971   1.683   2.971  0.0053  0.1078  0.1851
 2557SOL    HW119304   2.930   1.755   3.019 -0.1435 -0.7075  1.2790
 2557SOL    HW219305   2.898   1.635   2.931  0.7413  0.0094 -1.0401
 2558SOL     OW19306   1.088   4.180   7.110 -0.2847 -0.6212  0.4756
 2558SOL    HW119307   1.041   4.136   7.039 -0.5961  1.8940 -0.8609
 2558SOL    HW219308   1.148   4.114   7.145 -1.0978  0.0111  3.0298
 2559SOL     OW19309   0.628   1.359   3.281  0.0446 -0.0204  0.1793
 2559SOL    HW119310   0.675   1.348   3.364 -1.6991  4.2180  1.7473
 2559SOL    HW219311   0.672   1.293   3.229 -0.3934 -0.3490  0.2239
 2560SOL     OW19312   4.291   3.821   6.055  0.0253 -0.3971  0.1719
 2560SOL    HW119313   4.357   3.797   5.991  1.8969 -0.4125  2.1178
 2560SOL    HW219314   4.346   3.883   6.103  1.1326 -0.4482 -1.0368
 2561SOL     OW19315   4.603   0.173   8.546 -0.5398 -0.1097 -0.2359
 2561SOL    HW119316   4.669   0.180   8.616  0.8628  0.7914 -1.6486
 2561SOL    HW219317   4.619   0.079   8.538  0.3315  0.0066  0.1188
 2562SOL     OW19318   3.509   4.301  10.799 -0.1525  0.2917  0.3385
 2562SOL    HW119319   3.469   4.259  10.722  1.6316 -2.2842  0.8134
 2562SOL    HW219320   3.433   4.301  10.856 -1.1280 -0.2163 -0.9455
 2563SOL     OW19321   3.180   3.953  15.953 -0.6387 -0.4826  0.0640
 2563SOL    HW119322   3.133   3.941  16.035 -0.6274  0.1896  0.1644
 2563SOL    HW219323   3.251   4.012  15.979 -0.3352 -0.1922 -1.4275
 2564SOL     OW19324   2.531   4.562   6.422  0.6242 -0.2582  0.4225
 2564SOL    HW119325   2.541   4.620   6.497 -0.5325 -0.5055  0.7624
 2564SOL    HW219326   2.503   4.486   6.472  0.4159 -1.0714 -0.9389
 2565SOL     OW19327   0.907   4.239   9.825  0.4624  0.2494 -0.1575
 2565SOL    HW119328   0.824   4.276   9.852 -0.6568 -1.1458 -1.6937
 2565SOL    HW219329   0.957   4.321   9.828  1.2449 -0.1657 -1.6889
 2566SOL     OW19330   1.060   0.889   4.793 -0.2067 -0.1288  0.2805
 2566SOL    HW119331   0.971   0.922   4.805  0.5166  1.1897  2.0154
 2566SOL    HW219332   1.064   0.904   4.699  3.5628  0.0537  0.4912
 2567SOL     OW19333   3.201   3.274   2.744 -0.3652  0.0632 -0.7840
 2567SOL    HW119334   3.235   3.246   2.659 -0.7727 -0.5408 -0.7529
 2567SOL    HW219335   3.283   3.293   2.790 -0.9887  1.2907 -0.1751
 2568SOL     OW19336   3.939   0.819   7.730 -0.0054  0.0932 -0.5224
 2568SOL    HW119337   3.890   0.743   7.762  2.3415 -0.9335  0.5769
 2568SOL    HW219338   3.870   0.867   7.683 -0.0535  0.8804  0.3554
 2569SOL     OW19339   1.690   3.324  15.115  0.4907 -0.3976 -0.2648
 2569SOL    HW119340   1.667   3.374  15.194  0.8245  0.0855 -0.4694
 2569SOL    HW219341   1.603   3.285  15.110 -0.0144  0.7451 -0.3743
 2570SOL     OW19342   0.361   2.871  11.141  0.6275  0.3881 -0.5097
 2570SOL    HW119343   0.369   2.872  11.237  1.1264  1.1611 -0.5585
 2570SOL    HW219344   0.341   2.779  11.125 -2.5551  0.9191  0.4193
 2571SOL     OW19345   0.752   0.500   9.124 -0.2922  0.4159 -0.1820
 2571SOL    HW119346   0.666   0.484   9.085 -1.7072  1.0746  2.6662
 2571SOL    HW219347   0.794   0.421   9.092 -0.7356 -0.3279  1.0594
 2572SOL     OW19348   1.745   3.363   8.266  0.4119  0.4318  0.3671
 2572SOL    HW119349   1.682   3.361   8.338  1.0658 -0.3925  0.9162
 2572SOL    HW219350   1.750   3.457   8.248 -0.6365  0.0766 -1.8313
 2573SOL     OW19351   0.806   0.213   7.845  1.0933 -0.1906 -0.0296
 2573SOL    HW119352   0.711   0.212   7.829  0.5985  0.1909  3.0433
 2573SOL    HW219353   0.810   0.291   7.899 -2.0700 -0.2185  0.2614
 2574SOL     OW19354   0.039   0.290  16.810 -0.3962 -0.4238  0.2796
 2574SOL    HW119355   0.098   0.229  16.766  0.2483 -1.5480  2.7204
 2574SOL    HW219356   4.732   0.224  16.862  1.4082 -0.1081  2.2571
 2575SOL     OW19357   3.791   0.132   8.556  0.0818 -0.4085 -0.3125
 2575SOL    HW119358   3.737   0.166   8.628 -0.6031  0.3822 -1.2150
 2575SOL    HW219359   3.765   0.193   8.488 -0.3658  2.6544  2.5856
 2576SOL     OW19360   2.721   2.783   6.961  0.2832  0.1091 -0.7633
 2576SOL    HW119361   2.740   2.736   7.043  1.1398 -0.4126 -1.2600
 2576SOL    HW219362   2.747   2.714   6.901 -1.8609 -1.1586 -0.2459
 2577SOL     OW19363   1.105   0.721   8.703  0.4611  0.3616  0.4018
 2577SOL    HW119364   1.151   0.789   8.654  2.0415 -0.5288  0.6652
 2577SOL    HW219365   1.122   0.751   8.792  0.9948  0.6804  0.1899
 2578SOL     OW19366   1.763   0.674   5.107 -0.2885  0.0516  0.1838
 2578SOL    HW119367   1.765   0.759   5.151  1.1259 -0.7322  1.5970
 2578SOL    HW219368   1.706   0.688   5.031  2.6660  0.7900 -1.8862
 2579SOL     OW19369   4.496   3.315   4.851  0.8726 -0.2142 -0.3621
 2579SOL    HW119370   4.414   3.271   4.827 -0.6802  2.2060  0.4955
 2579SOL    HW219371   4.494   3.311   4.946 -2.9590  2.4345 -0.3118
 2580SOL     OW19372   2.329   2.138   6.878 -0.4472  0.6756  0.5986
 2580SOL    HW119373   2.339   2.232   6.862  1.5460  0.3350 -0.1520
 2580SOL    HW219374   2.242   2.124   6.841  0.3566 -4.5429  0.6196
 2581SOL     OW19375   3.235   4.432   2.447 -0.4193  0.4174 -0.3241
 2581SOL    HW119376   3.211   4.457   2.358 -1.3881 -2.0055 -0.7250
 2581SOL    HW219377   3.178   4.357   2.463  0.4088  0.0314  0.7689
 2582SOL     OW19378   2.120   1.913  14.895  0.6485  0.2395  0.1040
 2582SOL    HW119379   2.212   1.901  14.869  0.2138 -1.7009 -0.5471
 2582SOL    HW219380   2.083   1.835  14.855 -2.1289  1.2384  0.7430
 2583SOL     OW19381   4.144   1.074   8.951 -0.3680 -0.3298  0.3035
 2583SOL    HW119382   4.103   0.995   8.916 -0.3775  0.6217 -1.8668
 2583SOL    HW219383   4.067   1.116   8.989 -0.0125  1.1223 -0.5693
 2584SOL     OW19384   0.479   2.574   3.667 -0.0278 -0.2775 -0.4321
 2584SOL    HW119385   0.444   2.535   3.746  0.5325 -0.8477 -0.4659
 2584SOL    HW219386   0.562   2.610   3.698 -0.2994 -1.2578  1.4130
 2585SOL     OW19387   2.547   4.002   6.782 -0.0214  0.1576 -0.3593
 2585SOL    HW119388   2.625   4.056   6.794 -1.6452  2.1545  1.1252
 2585SOL    HW219389   2.506   4.019   6.866 -0.5414  0.6735 -0.7189
 2586SOL     OW19390   3.796   0.846  13.896 -0.0966  0.0325 -0.0589
 2586SOL    HW119391   3.741   0.783  13.942  1.2558 -1.0687  0.0448
 2586SOL    HW219392   3.873   0.850  13.953  0.0936 -0.3516 -0.2894
 2587SOL     OW19393   3.190   3.068  11.604  0.2176  0.0276  0.4159
 2587SOL    HW119394   3.245   3.143  11.624 -0.4603  0.6011  0.1192
 2587SOL    HW219395   3.110   3.119  11.591 -0.0464 -0.3555  0.5221
 2588SOL     OW19396   3.078   4.604  10.464 -0.6386 -0.5044 -0.1086
 2588SOL    HW119397   3.027   4.563  10.394 -0.1115  1.2417 -1.5243
 2588SOL    HW219398   3.067   4.695  10.437  0.3148  0.3114  2.2578
 2589SOL     OW19399   0.368   4.675   5.198 -0.0283  0.2551  0.0264
 2589SOL    HW119400   0.364   4.655   5.291 -0.8306 -0.3617 -0.1472
 2589SOL    HW219401   0.449   4.726   5.191 -1.6281  2.7710 -0.3340
 2590SOL     OW19402   1.530   0.634   4.093 -0.0611  0.7402  0.1896
 2590SOL    HW119403   1.562   0.710   4.142 -0.0685 -0.1815  1.6054
 2590SOL    HW219404   1.457   0.605   4.146  0.4319 -1.2051 -0.1810
 2591SOL     OW19405   0.550   3.346   8.115 -0.4584 -0.6110 -0.2885
 2591SOL    HW119406   0.612   3.343   8.042  0.8691 -1.4716  0.8724
 2591SOL    HW219407   0.576   3.267   8.163  0.6905  0.2110  0.4396
 2592SOL     OW19408   2.929   4.435  13.976  0.5209 -0.0702  0.2371
 2592SOL    HW119409   2.872   4.376  13.927  0.8413 -0.6016  0.5032
 2592SOL    HW219410   3.004   4.456  13.920 -0.9311 -0.5351 -1.8838
 2593SOL     OW19411   2.376   1.889  14.817  0.0321  0.2160 -0.0031
 2593SOL    HW119412   2.372   1.799  14.784 -0.5534  0.1315  0.2864
 2593SOL    HW219413   2.378   1.932  14.731  1.6908 -2.0203 -1.0702
 2594SOL     OW19414   1.678   4.335   5.723 -0.2210  0.0018 -0.9574
 2594SOL    HW119415   1.756   4.384   5.698 -0.1281  0.9507  1.2239
 2594SOL    HW219416   1.685   4.324   5.818  0.6220 -0.7101 -1.1018
 2595SOL     OW19417   1.079   4.099   1.162  0.9783  0.1287  0.0565
 2595SOL    HW119418   1.169   4.074   1.183  1.2636  0.1356 -1.1147
 2595SOL    HW219419   1.043   4.040   1.095 -0.9205  1.4369 -0.0511
 2596SOL     OW19420   2.741   2.737   3.611 -0.0679 -0.2878  0.4149
 2596SOL    HW119421   2.670   2.729   3.674 -0.2555  0.1511  0.2655
 2596SOL    HW219422   2.698   2.794   3.546  1.3658 -0.2480 -0.5008
 2597SOL     OW19423   0.175   1.868   8.834  0.0843  0.4639  0.0613
 2597SOL    HW119424   0.158   1.907   8.749 -1.9592  1.0704  0.7557
 2597SOL    HW219425   0.269   1.852   8.826  0.3535  1.6145  0.9203
 2598SOL     OW19426   2.260   4.276   6.890  0.0812 -0.4435 -0.2267
 2598SOL    HW119427   2.281   4.275   6.797 -2.1360 -1.2720 -0.7376
 2598SOL    HW219428   2.310   4.205   6.932  2.6345  2.3127  1.3779
 2599SOL     OW19429   3.917   0.808   4.048 -0.2457  0.3229 -0.3169
 2599SOL    HW119430   3.942   0.732   4.100  0.8133  0.3485 -0.7893
 2599SOL    HW219431   3.894   0.870   4.116 -1.2953  0.6135 -0.9410
 2600SOL     OW19432   1.495   1.224   2.165 -0.4391 -0.5308 -0.1398
 2600SOL    HW119433   1.442   1.213   2.086 -0.4151  2.2070 -0.5250
 2600SOL    HW219434   1.575   1.270   2.139 -1.1713  0.3022 -0.9275
 2601SOL     OW19435   0.423   1.720  13.323 -0.5574 -0.1407  0.1515
 2601SOL    HW119436   0.354   1.784  13.306 -0.7196  0.3373  2.5403
 2601SOL    HW219437   0.424   1.721  13.419 -1.1410 -0.8359  0.1582
 2602SOL     OW19438   1.981   0.613   5.308 -0.3214  0.0652  0.0104
 2602SOL    HW119439   1.885   0.620   5.306 -0.2305  0.9808 -1.2068
 2602SOL    HW219440   2.014   0.663   5.233  1.1309 -0.2812  0.4214
 2603SOL     OW19441   1.587   2.780   7.960 -0.0706  0.3522 -0.1602
 2603SOL    HW119442   1.523   2.709   7.953  0.9973 -0.8468  2.3289
 2603SOL    HW219443   1.669   2.732   7.974 -0.5914 -1.2283 -2.4526
 2604SOL     OW19444   4.245   0.035   3.535 -0.7234 -0.0516 -0.5445
 2604SOL    HW119445   4.155   0.063   3.552 -0.6410 -1.2484  1.7078
 2604SOL    HW219446   4.272   0.011   3.623 -1.5437  1.0144  0.0040
 2605SOL     OW19447   0.756   3.565  13.688  0.1126  0.0823 -0.5370
 2605SOL    HW119448   0.724   3.634  13.744  0.9707  0.0472  0.0029
 2605SOL    HW219449   0.675   3.525  13.656 -0.5529  0.9368  0.1001
 2606SOL     OW19450   0.794   4.493   5.988 -0.5580  0.1418  0.5320
 2606SOL    HW119451   0.792   4.398   5.999  1.3182  0.1443  0.9158
 2606SOL    HW219452   0.763   4.521   6.074  2.3209 -0.0535  1.6356
 2607SOL     OW19453   1.496   1.182   9.702 -0.4670 -0.3896  0.3147
 2607SOL    HW119454   1.497   1.091   9.732  0.7335  0.4900  2.9801
 2607SOL    HW219455   1.564   1.214   9.762 -0.0279  0.6045 -0.7264
 2608SOL     OW19456   2.264   3.647   6.318  0.1857  0.6560  0.2626
 2608SOL    HW119457   2.337   3.595   6.285 -1.3618 -1.1961 -0.2319
 2608SOL    HW219458   2.294   3.667   6.407 -0.5739 -2.1524  1.1542
 2609SOL     OW19459   4.439   3.938   9.864  0.0629 -0.5814  0.3978
 2609SOL    HW119460   4.361   3.884   9.877 -0.9797  0.3988 -1.6144
 2609SOL    HW219461   4.437   3.982   9.949  0.1672 -1.5619  0.9094
 2610SOL     OW19462   3.136   0.613   6.072  0.1822  0.0566  0.5190
 2610SOL    HW119463   3.201   0.554   6.034  0.3455  0.9008 -0.5245
 2610SOL    HW219464   3.123   0.666   5.994  4.0795  0.8904  0.4126
 2611SOL     OW19465   2.344   3.648  16.714  0.0703 -0.1039 -0.3163
 2611SOL    HW119466   2.324   3.580  16.778 -0.5436  1.3313  1.0241
 2611SOL    HW219467   2.401   3.712  16.757  1.7003  0.1024 -2.7851
 2612SOL     OW19468   0.555   4.435  16.684  0.3611  0.3777  0.5203
 2612SOL    HW119469   0.529   4.520  16.649 -0.1878 -0.0380 -0.0785
 2612SOL    HW219470   0.549   4.441  16.779 -0.6846  0.4299  0.4483
 2613SOL     OW19471   0.974   2.262   2.232 -0.3649 -0.3256  0.0308
 2613SOL    HW119472   0.982   2.351   2.268 -2.3507  0.3203 -1.1221
 2613SOL    HW219473   0.881   2.239   2.239  0.2046 -2.4099  0.6100
 2614SOL     OW19474   2.355   1.968  10.973 -0.2137 -0.5303 -0.0486
 2614SOL    HW119475   2.287   1.978  10.907  0.7942 -0.2519 -1.0468
 2614SOL    HW219476   2.321   1.885  11.006  0.5394  0.1354  2.3632
 2615SOL     OW19477   2.748   1.512   5.754 -0.4648  0.0332 -0.2548
 2615SOL    HW119478   2.835   1.547   5.732 -0.7798  0.1579 -1.2602
 2615SOL    HW219479   2.740   1.430   5.707  0.2469 -0.9695  1.3505
 2616SOL     OW19480   1.038   1.959  14.518  0.2041  0.6278 -0.1046
 2616SOL    HW119481   1.116   1.965  14.463 -0.4020 -1.8690 -1.2563
 2616SOL    HW219482   1.069   2.003  14.598  0.1535 -0.4369  0.5098
 2617SOL     OW19483   0.633   0.018   5.258 -0.2668  0.2773 -0.5383
 2617SOL    HW119484   0.690   4.706   5.318 -0.7654  2.2496  1.5872
 2617SOL    HW219485   0.654   0.101   5.301  0.6493  0.3599 -1.1594
 2618SOL     OW19486   3.320   0.138   0.202 -0.2201 -0.3896  0.8730
 2618SOL    HW119487   3.286   0.210   0.149 -1.3478 -1.1504  0.5690
 2618SOL    HW219488   3.348   0.186   0.280  0.8770  0.6552 -0.1690
 2619SOL     OW19489   4.473   4.588   4.252  0.1157  0.6314  0.1590
 2619SOL    HW119490   4.392   4.552   4.289 -0.0324  1.9104  1.0797
 2619SOL    HW219491   4.454   4.671   4.208  1.7598  2.1661  2.3677
 2620SOL     OW19492   0.223   2.581  11.044 -0.0872  0.4548  0.3528
 2620SOL    HW119493   0.169   2.505  11.065  0.4923  0.2302  1.0367
 2620SOL    HW219494   0.282   2.548  10.977 -0.9918 -1.0468  0.2802
 2621SOL     OW19495   3.799   0.062   4.329 -0.0640 -0.0624  0.1109
 2621SOL    HW119496   3.869   0.025   4.275  1.9990 -0.0802  2.8031
 2621SOL    HW219497   3.794   0.156   4.309 -2.0636 -0.0129  0.8855
 2622SOL     OW19498   2.814   3.978   8.701  0.6982 -0.9447  0.0036
 2622SOL    HW119499   2.887   4.038   8.714  0.4457 -0.2638 -1.7244
 2622SOL    HW219500   2.863   3.904   8.663  0.9943 -1.4462  1.3731
 2623SOL     OW19501   1.124   1.560   6.595 -0.1684 -0.0861 -1.5339
 2623SOL    HW119502   1.052   1.580   6.654 -0.7219 -1.8428 -1.6105
 2623SOL    HW219503   1.110   1.468   6.574 -0.6839 -0.7589  1.8282
 2624SOL     OW19504   2.783   4.181   6.852 -0.5427  0.0314 -0.1597
 2624SOL    HW119505   2.726   4.238   6.801  1.0234  0.8264 -1.0246
 2624SOL    HW219506   2.829   4.233   6.918  0.0514 -3.4373  2.1697
 2625SOL     OW19507   1.447   0.613   5.037 -0.8627  0.1066 -0.3096
 2625SOL    HW119508   1.385   0.579   4.973 -1.7804 -0.3937  0.8408
 2625SOL    HW219509   1.456   0.705   5.013  1.5260  0.1803  0.8140
 2626SOL     OW19510   4.416   2.529   2.618  0.1124  0.1250  0.0973
 2626SOL    HW119511   4.393   2.504   2.708 -0.5935 -0.9002 -0.3841
 2626SOL    HW219512   4.329   2.559   2.592 -0.2932  1.4082  2.8255
 2627SOL     OW19513   0.244   4.444   7.525  0.7563  0.5919  0.2325
 2627SOL    HW119514   0.319   4.411   7.476  2.0871  0.2321  2.5223
 2627SOL    HW219515   0.216   4.523   7.478 -0.8535  0.9301  1.7462
 2628SOL     OW19516   1.143   0.051   2.821 -0.7650  0.2450 -0.5031
 2628SOL    HW119517   1.093   0.014   2.893  2.2940 -0.1778  1.4085
 2628SOL    HW219518   1.127   4.721   2.755  0.6479 -1.6029  1.0373
 2629SOL     OW19519   3.881   0.306   6.094  0.2924 -0.0134  0.3855
 2629SOL    HW119520   3.886   0.363   6.170 -1.4978  0.4832  0.1434
 2629SOL    HW219521   3.945   0.341   6.033  0.1800  1.0442  0.8767
 2630SOL     OW19522   1.130   3.107   8.732  0.2051 -0.6183 -0.4379
 2630SOL    HW119523   1.147   3.198   8.753  0.0959 -0.1856 -2.2414
 2630SOL    HW219524   1.063   3.103   8.664 -1.0044  0.4775  0.7056
 2631SOL     OW19525   2.951   3.992   3.302 -0.0384 -0.1692 -0.0274
 2631SOL    HW119526   3.046   3.978   3.297  0.1147  1.3281 -1.2838
 2631SOL    HW219527   2.929   3.933   3.230  0.9219 -2.0927  1.2273
 2632SOL     OW19528   2.206   4.121   8.290 -0.2707 -0.1566 -0.1197
 2632SOL    HW119529   2.196   4.027   8.280 -1.0137 -0.2716  1.7303
 2632SOL    HW219530   2.256   4.115   8.372 -1.3926 -2.5005  0.3683
 2633SOL     OW19531   4.710   2.189  11.123 -0.1178 -0.7421  0.1068
 2633SOL    HW119532   0.008   2.219  11.040  2.9203  0.8315  1.9879
 2633SOL    HW219533   4.674   2.103  11.101  0.5069 -1.4379  1.7644
 2634SOL     OW19534   0.796   3.004   5.999  0.1175 -0.0830  0.3256
 2634SOL    HW119535   0.737   3.078   5.995 -1.3053 -1.1769  1.3156
 2634SOL    HW219536   0.850   3.036   6.071 -1.0172  0.1295  1.0595
 2635SOL     OW19537   0.837   0.976   2.661  0.3440 -0.0844  0.2554
 2635SOL    HW119538   0.748   0.969   2.695 -0.2652 -0.7397 -1.4649
 2635SOL    HW219539   0.851   0.882   2.666  0.8204 -0.0679 -0.6586
 2636SOL     OW19540   2.114   1.268   4.686 -1.0562  0.5482  0.5732
 2636SOL    HW119541   2.037   1.261   4.743 -1.2326  0.8404  0.3715
 2636SOL    HW219542   2.132   1.179   4.656  0.4476 -0.6882  5.2866
 2637SOL     OW19543   2.508   1.340   6.383  0.7995  0.0782  0.3424
 2637SOL    HW119544   2.435   1.325   6.323  3.6348 -0.7638 -2.9221
 2637SOL    HW219545   2.471   1.304   6.464  2.2914 -2.9485 -0.3363
 2638SOL     OW19546   2.940   3.523   1.237  0.1771 -0.5000 -0.4164
 2638SOL    HW119547   2.851   3.532   1.271  0.0404 -1.7932 -0.4155
 2638SOL    HW219548   2.961   3.605   1.194  1.2968 -0.7917 -0.4105
 2639SOL     OW19549   2.494   2.150   3.676 -0.4982 -0.4069 -0.0015
 2639SOL    HW119550   2.570   2.151   3.734 -1.1074  1.8889  0.7664
 2639SOL    HW219551   2.525   2.093   3.606  0.9211 -1.5037  1.5264
 2640SOL     OW19552   1.833   1.602   9.084  0.5985  0.6970 -0.4121
 2640SOL    HW119553   1.876   1.604   9.169 -0.0321  2.7886 -0.1474
 2640SOL    HW219554   1.906   1.585   9.024  1.0560 -1.5911  0.7752
 2641SOL     OW19555   0.668   0.266   5.367  0.4965 -0.2112  0.1274
 2641SOL    HW119556   0.625   0.324   5.303  0.7070 -0.2217 -0.0219
 2641SOL    HW219557   0.760   0.292   5.365  1.0573 -2.3357 -1.7323
 2642SOL     OW19558   0.736   0.721   1.283  0.0655 -0.4342  0.4455
 2642SOL    HW119559   0.656   0.675   1.309  0.4068 -0.8786  0.6973
 2642SOL    HW219560   0.717   0.809   1.315 -0.5817  0.2978 -1.9314
 2643SOL     OW19561   1.757   4.191  12.255 -0.7421 -0.5600 -0.1418
 2643SOL    HW119562   1.747   4.115  12.198 -1.3488  0.3770 -1.2773
 2643SOL    HW219563   1.753   4.267  12.197  0.0530  1.0246  1.8870
 2644SOL     OW19564   0.692   2.503  11.862 -0.4213  0.2941 -0.4370
 2644SOL    HW119565   0.728   2.432  11.807  2.0481  1.2873 -0.0953
 2644SOL    HW219566   0.671   2.468  11.948 -0.6873  0.2994 -0.4997
 2645SOL     OW19567   0.237   4.539   9.791  0.3275  0.4391  0.1412
 2645SOL    HW119568   0.240   4.550   9.696  2.7636 -0.7865  0.0754
 2645SOL    HW219569   0.174   4.468   9.799 -0.1279  0.6930 -1.1296
 2646SOL     OW19570   1.052   1.386   1.969 -0.0375 -0.4391 -0.3322
 2646SOL    HW119571   1.079   1.336   1.893 -1.7458 -1.4459 -0.2731
 2646SOL    HW219572   1.064   1.322   2.039 -0.1506 -0.6506 -0.5070
 2647SOL     OW19573   0.414   1.512   4.437  0.2512 -0.4620 -0.2010
 2647SOL    HW119574   0.372   1.541   4.356  4.1645  3.1864 -0.9531
 2647SOL    HW219575   0.458   1.594   4.462  1.1014 -0.6736 -0.9868
 2648SOL     OW19576   1.900   0.532   8.220 -0.5015  0.2393 -0.0470
 2648SOL    HW119577   1.857   0.492   8.296 -1.0631 -2.6775 -1.9307
 2648SOL    HW219578   1.858   0.617   8.218 -0.9940  0.0661  2.3975
 2649SOL     OW19579   3.742   1.008   9.059 -0.4959 -0.0947 -0.1690
 2649SOL    HW119580   3.662   1.030   9.011 -0.4042  0.8723  0.1140
 2649SOL    HW219581   3.783   1.093   9.077  1.4157 -1.1746  0.6535
 2650SOL     OW19582   0.649   2.408   3.454 -0.5521  0.3684 -0.0608
 2650SOL    HW119583   0.733   2.449   3.476 -0.8850  1.6416 -1.1512
 2650SOL    HW219584   0.617   2.393   3.543 -1.2596  0.5768 -0.2843
 2651SOL     OW19585   1.234   3.304   4.153  1.1189  0.1436  0.0052
 2651SOL    HW119586   1.329   3.305   4.143  1.1744  0.3796  0.5699
 2651SOL    HW219587   1.239   3.357   4.232  0.2242  1.0878 -0.5821
 2652SOL     OW19588   1.650   3.415   6.808 -0.2543  0.3273 -0.3885
 2652SOL    HW119589   1.678   3.431   6.718 -0.8971 -0.5096 -0.7457
 2652SOL    HW219590   1.693   3.487   6.854  2.0423 -0.4511 -1.3286
 2653SOL     OW19591   0.844   4.315   8.703 -0.7112 -0.8489 -0.2935
 2653SOL    HW119592   0.807   4.399   8.729  0.3324 -0.1020 -1.2385
 2653SOL    HW219593   0.936   4.336   8.692 -0.8050 -0.3020 -0.0231
 2654SOL     OW19594   1.869   4.450   9.894  0.0484 -0.1332 -0.3276
 2654SOL    HW119595   1.954   4.408   9.903  0.0952  0.1004  0.3502
 2654SOL    HW219596   1.858   4.487   9.982  0.2630  0.4966 -0.5707
 2655SOL     OW19597   2.095   0.961   5.908  0.0620  0.3782  0.4819
 2655SOL    HW119598   2.164   0.929   5.966  0.5006 -1.0357 -0.8088
 2655SOL    HW219599   2.081   0.878   5.862  0.3086 -0.1209  1.3145
 2656SOL     OW19600   4.355   4.484  13.121 -0.3883 -0.1095  0.1004
 2656SOL    HW119601   4.261   4.469  13.115 -0.3673 -1.2698  2.6179
 2656SOL    HW219602   4.391   4.416  13.178  2.1189  0.2910 -0.9923
 2657SOL     OW19603   1.975   2.300   3.166  0.2392  0.4465 -0.2902
 2657SOL    HW119604   1.994   2.301   3.072  0.3800 -0.9436 -0.2786
 2657SOL    HW219605   1.955   2.392   3.183 -0.7918  0.8231 -3.4829
 2658SOL     OW19606   4.053   3.828  10.873 -0.0985 -0.1656  0.3361
 2658SOL    HW119607   4.068   3.891  10.803  0.8382 -1.1858 -0.3760
 2658SOL    HW219608   4.145   3.819  10.897  0.4540 -0.5971 -1.9296
 2659SOL     OW19609   3.854   1.415  11.759  0.7330 -0.3877  0.0373
 2659SOL    HW119610   3.866   1.337  11.814  0.3179  0.5926  1.5398
 2659SOL    HW219611   3.766   1.404  11.724  0.9311  0.6888 -0.7869
 2660SOL     OW19612   1.626   1.175   4.407  0.0607 -0.2865  0.4098
 2660SOL    HW119613   1.624   1.107   4.474  2.0986  0.2601  1.0513
 2660SOL    HW219614   1.537   1.195   4.379  0.6800 -0.6458 -1.7760
 2661SOL     OW19615   4.072   4.408   9.072  0.6946 -0.2913 -0.2583
 2661SOL    HW119616   4.153   4.386   9.025  0.5465 -0.3492 -0.4860
 2661SOL    HW219617   4.093   4.400   9.165  0.6462  0.2664 -0.2032
 2662SOL     OW19618   2.070   1.940   0.158 -0.5417 -0.2422 -0.1055
 2662SOL    HW119619   2.064   1.991   0.239 -1.3186 -0.1590 -0.2123
 2662SOL    HW219620   1.984   1.898   0.162 -1.5734  1.7484 -1.3600
 2663SOL     OW19621   4.182   1.965   8.061 -0.3779 -0.5188 -0.0133
 2663SOL    HW119622   4.253   1.963   8.126 -0.1625 -2.0225 -0.3016
 2663SOL    HW219623   4.129   2.041   8.085  0.7187  0.5165 -0.8324
 2664SOL     OW19624   2.011   3.982   5.663  0.2176  0.6303  0.1579
 2664SOL    HW119625   1.978   3.975   5.753  1.8561  0.6115  0.7620
 2664SOL    HW219626   2.033   3.897   5.626 -2.2932 -0.5512  1.4058
 2665SOL     OW19627   1.032   2.479   0.999 -0.1716 -0.2315 -0.1987
 2665SOL    HW119628   0.963   2.513   1.055 -0.3135  0.2193 -0.6496
 2665SOL    HW219629   1.030   2.389   1.031 -0.2184  0.1346  0.8026
 2666SOL     OW19630   2.876   1.286   4.700  0.3054  0.3026  0.4155
 2666SOL    HW119631   2.923   1.303   4.618  0.1308 -0.2739  0.1916
 2666SOL    HW219632   2.807   1.351   4.692 -1.8815 -1.9607  0.9588
 2667SOL     OW19633   0.680   3.923   4.623  0.1966 -0.6097  0.2820
 2667SOL    HW119634   0.759   3.872   4.641 -0.2464 -0.5753  2.2202
 2667SOL    HW219635   0.706   3.958   4.537 -0.9959  0.2228  0.2616
 2668SOL     OW19636   0.501   3.893  12.975  0.3018  0.1890 -0.1801
 2668SOL    HW119637   0.544   3.928  13.053  0.4455  1.4372 -0.8088
 2668SOL    HW219638   0.443   3.966  12.952 -0.2323 -1.0852 -2.9196
 2669SOL     OW19639   0.604   1.423   5.881  0.3669  0.3751 -0.0109
 2669SOL    HW119640   0.699   1.409   5.889  0.0863 -1.6596 -0.2978
 2669SOL    HW219641   0.565   1.346   5.922  0.3303 -0.4323 -1.5714
 2670SOL     OW19642   0.041   0.903   3.682  0.2320  0.5133  1.3685
 2670SOL    HW119643   0.016   0.986   3.722  0.9635  1.1925  0.4255
 2670SOL    HW219644   0.074   0.933   3.597 -0.8057  0.3252  0.9038
 2671SOL     OW19645   2.510   1.926   6.547 -0.0896 -0.2829 -0.7677
 2671SOL    HW119646   2.598   1.959   6.533  0.5816 -2.0368 -0.6738
 2671SOL    HW219647   2.522   1.833   6.529  0.5860 -0.1260 -1.1159
 2672SOL     OW19648   0.075   0.655   7.103  0.4308  0.2612 -0.2768
 2672SOL    HW119649   4.725   0.671   7.138  1.5185  2.0775  1.6989
 2672SOL    HW219650   0.124   0.701   7.172  1.6729 -0.5526 -0.6407
 2673SOL     OW19651   2.124   0.735  17.660 -0.0532  0.4265  0.2984
 2673SOL    HW119652   2.081   0.815  17.631  2.1929  1.0687 -1.2920
 2673SOL    HW219653   2.208   0.734  17.613 -0.4535 -2.4394 -0.3490
 2674SOL     OW19654   0.462   2.326   8.130 -0.1613  0.0221  0.4422
 2674SOL    HW119655   0.525   2.269   8.085  0.6695 -0.9214  2.8196
 2674SOL    HW219656   0.387   2.268   8.116 -0.9839  0.9790  0.9210
 2675SOL     OW19657   1.373   2.428   5.492 -0.1296 -0.2783 -0.4319
 2675SOL    HW119658   1.356   2.367   5.419 -2.1328  1.1688 -1.1641
 2675SOL    HW219659   1.290   2.475   5.490 -0.6861 -1.2061  1.1855
 2676SOL     OW19660   0.561   0.817   7.913 -0.5812 -0.0227  0.2918
 2676SOL    HW119661   0.636   0.790   7.966 -0.7994  1.5645  1.4312
 2676SOL    HW219662   0.501   0.835   7.985  0.0150 -1.0775  1.0429
 2677SOL     OW19663   1.957   1.987   1.391 -0.0205 -0.4015 -0.5560
 2677SOL    HW119664   2.021   1.917   1.378 -0.8390 -0.9017 -1.9997
 2677SOL    HW219665   1.944   2.009   1.298  2.6636  0.6216 -0.6652
 2678SOL     OW19666   1.900   3.494   5.644 -0.1960 -0.6478 -0.1433
 2678SOL    HW119667   1.958   3.435   5.692  0.8167  2.1827  2.0825
 2678SOL    HW219668   1.844   3.433   5.594 -0.4730 -0.8607  0.4189
 2679SOL     OW19669   1.456   3.857   2.654 -0.1946 -0.1444  0.6485
 2679SOL    HW119670   1.541   3.901   2.649  1.1338 -2.6342  1.4473
 2679SOL    HW219671   1.418   3.888   2.572  0.2335  1.1043  0.9250
 2680SOL     OW19672   1.339   4.433   7.749  0.1937  0.0175 -0.2277
 2680SOL    HW119673   1.349   4.450   7.655 -1.6316  3.3652  0.1664
 2680SOL    HW219674   1.252   4.392   7.746  0.3796 -0.3551 -0.5659
 2681SOL     OW19675   4.385   1.472  17.738  0.0432 -0.3034  0.0018
 2681SOL    HW119676   4.293   1.493   0.002 -0.2022 -1.2103 -0.2663
 2681SOL    HW219677   4.416   1.548  17.688 -0.4004 -0.8180 -1.0592
 2682SOL     OW19678   2.456   3.028  16.913 -0.4087 -0.2467  0.1338
 2682SOL    HW119679   2.389   3.032  16.844 -0.1209 -2.2890 -0.2866
 2682SOL    HW219680   2.440   2.937  16.939 -0.9558 -0.2420 -0.1895
 2683SOL     OW19681   0.751   0.201   9.309 -0.1022  0.1608  0.5411
 2683SOL    HW119682   0.678   0.176   9.253 -0.3426  1.9588  0.0577
 2683SOL    HW219683   0.806   0.235   9.238 -0.7941  0.6277  0.2295
 2684SOL     OW19684   3.051   0.233  12.852  0.1882 -0.7599 -0.2417
 2684SOL    HW119685   3.108   0.307  12.831 -1.7397  0.5755 -0.7303
 2684SOL    HW219686   2.982   0.245  12.788  2.4463  0.4308 -2.4470
 2685SOL     OW19687   0.491   0.788   2.517  0.3820 -0.0657  0.0295
 2685SOL    HW119688   0.405   0.785   2.558  0.5766  0.5616  0.4821
 2685SOL    HW219689   0.523   0.874   2.543  2.2492  0.0851 -2.7290
 2686SOL     OW19690   1.328   0.680   9.343  0.0477  0.4013  0.2845
 2686SOL    HW119691   1.280   0.645   9.268 -0.2279  0.6372  0.3454
 2686SOL    HW219692   1.323   0.776   9.338 -3.0340  0.2771  0.9212
 2687SOL     OW19693   0.876   0.063   0.053  0.7104  0.7356 -0.7556
 2687SOL    HW119694   0.813   0.108   0.109  0.9136  1.2380 -0.9336
 2687SOL    HW219695   0.820   0.048  17.728  2.5622  0.4993 -2.0830
 2688SOL     OW19696   1.557   3.338   7.956 -0.1469 -0.6388 -0.4994
 2688SOL    HW119697   1.527   3.301   8.039 -0.5795  1.3866  0.2542
 2688SOL    HW219698   1.475   3.367   7.915 -0.7370 -2.4431 -0.5792
 2689SOL     OW19699   4.493   0.269  16.422 -0.0617 -0.0765 -0.3804
 2689SOL    HW119700   4.448   0.343  16.463 -0.8285  0.7657 -2.7524
 2689SOL    HW219701   4.571   0.272  16.478 -0.2616  0.7979 -0.1525
 2690SOL     OW19702   3.933   4.618   6.581 -0.2163  0.0053 -0.0250
 2690SOL    HW119703   3.981   4.574   6.651 -0.4816 -0.6119 -0.2226
 2690SOL    HW219704   3.851   4.623   6.631  0.4283 -2.4909  1.2752
 2691SOL     OW19705   2.773   1.045   4.609 -0.0383 -0.0469 -0.5204
 2691SOL    HW119706   2.812   1.113   4.664  0.8448 -1.0495  0.0807
 2691SOL    HW219707   2.699   1.098   4.577 -0.7141  0.1057  1.3033
 2692SOL     OW19708   3.094   0.738   8.171  0.2376 -0.1416 -0.4606
 2692SOL    HW119709   3.076   0.690   8.090 -1.0080 -0.0820 -0.2248
 2692SOL    HW219710   3.069   0.830   8.161 -0.9353 -0.4224 -0.1425
 2693SOL     OW19711   3.218   4.363   2.778 -0.3425 -0.2082  0.4077
 2693SOL    HW119712   3.200   4.398   2.865 -0.1426 -0.4806  0.5572
 2693SOL    HW219713   3.198   4.433   2.717 -0.3889 -0.6861 -0.1241
 2694SOL     OW19714   2.156   2.292   4.550  0.1056  0.0133  0.9694
 2694SOL    HW119715   2.155   2.376   4.597  1.0628  0.7025 -0.2568
 2694SOL    HW219716   2.196   2.237   4.618  2.0555  2.3311  1.6770
 2695SOL     OW19717   2.077   3.264   6.200  0.8343 -0.3831 -0.5921
 2695SOL    HW119718   1.993   3.283   6.158  0.9864  1.7498  0.0243
 2695SOL    HW219719   2.095   3.347   6.244 -1.4096 -0.6222  0.7688
 2696SOL     OW19720   1.253   4.241  10.341  0.5831  0.5488  0.6193
 2696SOL    HW119721   1.274   4.331  10.316 -0.1635  1.2336  2.4191
 2696SOL    HW219722   1.250   4.194  10.258  2.0201  2.2098 -0.3760
 2697SOL     OW19723   0.621   1.363   9.588 -0.4682 -0.1905  0.0973
 2697SOL    HW119724   0.714   1.386   9.583 -0.2218 -0.6780  2.5035
 2697SOL    HW219725   0.597   1.386   9.498  2.7984 -1.5245 -1.1113
 2698SOL     OW19726   1.929   1.739   5.224  0.1827  0.4652 -0.2397
 2698SOL    HW119727   1.984   1.817   5.221 -0.4809  0.7585 -4.1786
 2698SOL    HW219728   1.902   1.745   5.316 -1.6946 -1.6060 -0.6395
 2699SOL     OW19729   2.219   3.834   8.307  0.0587  0.6354 -0.0462
 2699SOL    HW119730   2.221   3.743   8.277  0.4542  0.0521  1.7745
 2699SOL    HW219731   2.314   3.849   8.314  0.6436 -1.9857 -2.5275
 2700SOL     OW19732   3.165   3.946   7.480 -0.7029 -0.3131 -0.1565
 2700SOL    HW119733   3.101   3.932   7.410 -1.4662 -0.4166  0.5672
 2700SOL    HW219734   3.148   3.869   7.535  0.1415 -1.1188 -1.0294
 2701SOL     OW19735   4.167   1.822   3.130 -0.0033 -0.2229  0.3152
 2701SOL    HW119736   4.180   1.784   3.043  0.1319 -1.3722  0.8380
 2701SOL    HW219737   4.194   1.913   3.126  0.9166 -0.6206 -2.0766
 2702SOL     OW19738   1.538   1.302   6.218 -0.0020 -0.2909  0.0239
 2702SOL    HW119739   1.526   1.304   6.123  1.6439  1.9571 -0.1238
 2702SOL    HW219740   1.509   1.391   6.239 -2.2058 -0.5447 -1.8681
 2703SOL     OW19741   3.895   1.484  13.028  0.1112  0.0330 -0.1863
 2703SOL    HW119742   3.869   1.565  13.071 -2.8426 -0.4931 -0.9920
 2703SOL    HW219743   3.975   1.455  13.072 -0.3024  1.1916  1.3630
 2704SOL     OW19744   0.477   4.072  16.727  0.0107  0.1913  0.1056
 2704SOL    HW119745   0.486   4.107  16.638 -0.0203  1.7441  0.7219
 2704SOL    HW219746   0.541   4.001  16.715 -0.2981 -0.6815  3.7255
 2705SOL     OW19747   1.497   2.399   4.418  0.3373 -0.0154 -0.1992
 2705SOL    HW119748   1.583   2.360   4.431  0.4939  0.0991 -0.9028
 2705SOL    HW219749   1.451   2.340   4.477  1.1623  0.1093  0.5653
 2706SOL     OW19750   3.695   4.737   7.048  0.6684 -0.5957  0.2845
 2706SOL    HW119751   3.679   0.093   7.051  1.0383 -0.4456 -2.4996
 2706SOL    HW219752   3.787   4.730   7.075  1.6688  0.8057 -2.7750
 2707SOL     OW19753   4.076   0.440   5.938  0.3824  0.0257  0.0959
 2707SOL    HW119754   4.125   0.358   5.928  1.1827  0.3277  1.5231
 2707SOL    HW219755   4.131   0.485   6.002 -1.6848  0.2730  1.6754
 2708SOL     OW19756   3.870   4.097   7.915 -0.5676  0.2507 -0.4528
 2708SOL    HW119757   3.900   4.169   7.859 -1.0345 -0.1692 -1.2314
 2708SOL    HW219758   3.780   4.078   7.889 -1.1165 -1.0249  2.4144
 2709SOL     OW19759   4.371   3.375   6.807  0.1188  0.2009 -0.3231
 2709SOL    HW119760   4.389   3.334   6.892 -0.1498  1.3319  0.2836
 2709SOL    HW219761   4.345   3.295   6.762 -1.5492  0.3296  0.3784
 2710SOL     OW19762   3.518   3.260   0.116 -0.3003  0.3425 -0.3510
 2710SOL    HW119763   3.609   3.255   0.145 -0.2508 -0.2753 -0.6074
 2710SOL    HW219764   3.498   3.175   0.076 -1.9190  0.5012  0.1203
 2711SOL     OW19765   0.013   1.442   3.366 -0.3907 -0.3403 -0.2044
 2711SOL    HW119766   4.658   1.465   3.363 -0.3123 -0.1046 -0.6788
 2711SOL    HW219767   0.044   1.517   3.417 -1.3297 -0.1375  0.0793
 2712SOL     OW19768   2.054   4.421   5.119 -0.5531 -0.0873 -0.4446
 2712SOL    HW119769   2.114   4.495   5.132 -0.7889  0.4361 -2.2979
 2712SOL    HW219770   1.987   4.460   5.063 -0.9631  2.1062  1.5566
 2713SOL     OW19771   4.671   0.392   9.505 -0.0599 -0.4370  0.1545
 2713SOL    HW119772   0.020   0.373   9.469  0.5760  1.0500  0.9088
 2713SOL    HW219773   4.623   0.311   9.523  0.1638  0.1282  3.2276
 2714SOL     OW19774   4.410   2.400   7.868 -0.6739 -0.4882 -0.0533
 2714SOL    HW119775   4.486   2.438   7.912 -1.5872  1.2094  0.0447
 2714SOL    HW219776   4.433   2.308   7.880  0.2526  0.0400  2.1660
 2715SOL     OW19777   0.239   2.130   8.135 -0.4215 -0.5218  0.2233
 2715SOL    HW119778   0.234   2.083   8.052  1.7557 -0.9322  0.3196
 2715SOL    HW219779   0.232   2.051   8.189 -0.7336 -1.1738 -0.7759
 2716SOL     OW19780   4.525   3.422   1.161 -0.2932 -0.2418 -0.4489
 2716SOL    HW119781   4.457   3.364   1.195  0.0609 -1.1816 -1.3174
 2716SOL    HW219782   4.605   3.383   1.196 -1.9878 -2.7391  0.5978
 2717SOL     OW19783   4.326   0.988   3.546  0.3782 -0.5699  0.3108
 2717SOL    HW119784   4.301   1.013   3.635  0.1429  1.3344 -0.2981
 2717SOL    HW219785   4.309   0.894   3.555 -0.3375 -0.3033  1.8622
 2718SOL     OW19786   3.232   2.690   7.193 -0.5035 -0.0229  0.2611
 2718SOL    HW119787   3.257   2.780   7.172 -2.1342  0.9911  2.6598
 2718SOL    HW219788   3.230   2.656   7.103 -2.1669  1.7179 -0.3553
 2719SOL     OW19789   1.446   2.234  13.394 -0.1682  0.1287  0.4618
 2719SOL    HW119790   1.494   2.216  13.313  0.6997 -0.6470  1.1567
 2719SOL    HW219791   1.377   2.168  13.384 -0.1883  0.1768  0.2805
 2720SOL     OW19792   0.636   3.659   8.653 -0.4136  0.7234 -0.5220
 2720SOL    HW119793   0.619   3.566   8.672  0.1350  0.5197 -1.0467
 2720SOL    HW219794   0.722   3.647   8.613 -0.2950 -1.3181  0.3237
 2721SOL     OW19795   0.246   2.173  17.162  0.2557 -0.3111 -0.2286
 2721SOL    HW119796   0.169   2.189  17.108  2.7798 -1.6427 -4.2433
 2721SOL    HW219797   0.212   2.201  17.247 -0.3219 -0.7361 -0.3213
 2722SOL     OW19798   1.180   1.389   6.285  0.1930 -0.0865  0.0164
 2722SOL    HW119799   1.141   1.375   6.371  0.4663  1.2159  0.3576
 2722SOL    HW219800   1.146   1.474   6.259 -3.4297 -1.0606  1.6141
 2723SOL     OW19801   2.462   3.910  15.852 -0.2609 -0.1304  0.1217
 2723SOL    HW119802   2.502   3.897  15.938 -0.7788 -0.8090  0.2595
 2723SOL    HW219803   2.434   4.001  15.866  1.8386  0.6232 -0.4889
 2724SOL     OW19804   0.636   2.301   1.406  0.6505  0.0559  0.1272
 2724SOL    HW119805   0.561   2.322   1.462  1.5603  1.8493  0.6419
 2724SOL    HW219806   0.667   2.225   1.455 -0.6651 -1.9504 -2.1313
 2725SOL     OW19807   3.430   2.156   3.975  0.1135  0.0015 -0.0246
 2725SOL    HW119808   3.513   2.202   3.975 -0.8605  1.7355 -0.0963
 2725SOL    HW219809   3.369   2.221   4.010  0.6799  0.4177  0.1784
 2726SOL     OW19810   4.728   1.622   9.253  0.3463 -0.1365 -0.1687
 2726SOL    HW119811   0.001   1.717   9.257  0.4040 -0.1190 -0.7177
 2726SOL    HW219812   0.020   1.611   9.163  0.3057 -1.6292  0.0052
 2727SOL     OW19813   2.761   1.045   2.326 -0.3792 -0.1347  0.5314
 2727SOL    HW119814   2.831   0.982   2.343 -0.1992 -0.2296 -0.5388
 2727SOL    HW219815   2.757   1.050   2.230 -1.8025 -2.7958  0.4841
 2728SOL     OW19816   3.882   3.049   2.924  0.6987 -0.6562 -0.1277
 2728SOL    HW119817   3.888   3.115   2.856 -0.5192 -1.0097 -0.5661
 2728SOL    HW219818   3.810   2.995   2.890  1.2279 -1.8768  0.6582
 2729SOL     OW19819   2.258   3.554   6.696  0.6734  0.1954 -0.6122
 2729SOL    HW119820   2.321   3.617   6.660 -1.9942  2.7619 -0.7516
 2729SOL    HW219821   2.251   3.498   6.619  1.0088 -0.2374 -0.3315
 2730SOL     OW19822   0.063   2.419  11.230  0.5020  0.9316 -0.2532
 2730SOL    HW119823   4.715   2.462  11.229  0.1521  0.2701  1.2159
 2730SOL    HW219824   0.041   2.339  11.183  0.9488  0.6979 -0.0622
 2731SOL     OW19825   0.987   3.557   5.822  0.0368  0.2127 -0.4581
 2731SOL    HW119826   1.000   3.465   5.800  0.4315  0.4075 -1.0597
 2731SOL    HW219827   0.930   3.583   5.749  0.8110  2.1937 -0.3651
 2732SOL     OW19828   4.585   1.072   6.929 -0.2469  0.3820 -0.0642
 2732SOL    HW119829   4.678   1.052   6.937 -0.5878 -0.5282  1.6890
 2732SOL    HW219830   4.543   1.020   6.998  2.0650 -2.7652 -1.0158
 2733SOL     OW19831   3.919   0.517   5.701 -0.0160 -0.7504  0.0461
 2733SOL    HW119832   4.004   0.530   5.659  0.5998  0.6769  1.7265
 2733SOL    HW219833   3.954   0.512   5.790  1.9423 -0.7958 -0.7345
 2734SOL     OW19834   0.991   2.916   7.616 -0.2367 -0.2854 -0.4730
 2734SOL    HW119835   1.015   2.926   7.524 -0.3299 -0.4632 -0.5167
 2734SOL    HW219836   1.078   2.895   7.650 -1.2664  0.5087  2.6547
 2735SOL     OW19837   1.686   3.648   7.164  0.0005 -0.0846  0.1350
 2735SOL    HW119838   1.733   3.652   7.081 -0.2098  1.7762  0.1048
 2735SOL    HW219839   1.743   3.598   7.223 -0.7671  0.7428  1.5893
 2736SOL     OW19840   0.004   2.194  12.758 -0.0570 -0.5962  0.5125
 2736SOL    HW119841   4.650   2.186  12.735  0.5609 -0.6850 -1.8824
 2736SOL    HW219842   0.021   2.288  12.766 -2.6494 -0.0460 -0.5718
 2737SOL     OW19843   2.229   2.090   7.165 -0.4964  0.3012  0.2032
 2737SOL    HW119844   2.252   2.178   7.134 -3.5803  0.6906 -0.9997
 2737SOL    HW219845   2.311   2.046   7.143 -1.3645 -0.4487 -1.5222
 2738SOL     OW19846   4.561   0.798  12.413  0.4281  0.2399  0.4410
 2738SOL    HW119847   4.630   0.812  12.478  0.5052 -1.8985  0.8449
 2738SOL    HW219848   4.501   0.747  12.467  0.5995  0.9091  1.2625
 2739SOL     OW19849   4.475   2.316   9.848 -0.2451 -1.1947  0.1626
 2739SOL    HW119850   4.434   2.402   9.837  4.7366  1.5276  3.1305
 2739SOL    HW219851   4.535   2.332   9.920 -1.4671  1.6087  0.5639
 2740SOL     OW19852   3.189   0.634   8.418  0.0093 -0.1388  0.0482
 2740SOL    HW119853   3.171   0.648   8.325 -0.9985  1.7977  0.5274
 2740SOL    HW219854   3.097   0.634   8.447  0.3065 -3.5755  0.9390
 2741SOL     OW19855   0.132   3.170   3.089 -0.0461  0.0114  0.0347
 2741SOL    HW119856   0.040   3.147   3.080 -0.5371  1.6389  1.0570
 2741SOL    HW219857   0.142   3.144   3.181 -1.9308  0.3828  0.3380
 2742SOL     OW19858   1.227   3.146   9.499 -0.3640 -0.4225  0.1900
 2742SOL    HW119859   1.239   3.084   9.427 -1.6804  0.3909 -0.7213
 2742SOL    HW219860   1.317   3.161   9.527 -0.0613 -0.0618 -1.0127
 2743SOL     OW19861   2.567   4.085  15.057 -0.1821  0.9264  0.1074
 2743SOL    HW119862   2.568   4.075  15.152 -1.2983  0.4261  0.0629
 2743SOL    HW219863   2.497   4.148  15.041 -1.9278 -0.8271  0.8720
 2744SOL     OW19864   0.015   0.410  17.403 -0.5617 -0.5190  0.1644
 2744SOL    HW119865   4.721   0.461  17.477 -0.2038 -1.9526  1.3007
 2744SOL    HW219866   0.025   0.325  17.446 -1.8090 -0.4298  0.6390
 2745SOL     OW19867   4.027   1.239   6.714 -0.1751  0.0673 -0.4808
 2745SOL    HW119868   4.016   1.324   6.757  0.6935 -0.0995  0.0832
 2745SOL    HW219869   3.937   1.208   6.720 -0.4857  1.5408  2.4727
 2746SOL     OW19870   1.727   1.652   9.604  0.2788  0.4681 -0.1783
 2746SOL    HW119871   1.657   1.616   9.549 -1.2154 -0.6683  2.4552
 2746SOL    HW219872   1.768   1.708   9.539  2.3779  1.7223  2.2420
 2747SOL     OW19873   4.277   4.258   4.755  0.1580  0.6096  0.1805
 2747SOL    HW119874   4.320   4.244   4.839  0.1848  1.9866  0.3933
 2747SOL    HW219875   4.349   4.287   4.699  0.1470 -0.1992 -0.2520
 2748SOL     OW19876   0.144   4.477  14.614  0.4974  0.4369  0.4929
 2748SOL    HW119877   0.133   4.382  14.619 -0.2487  0.4923 -0.0717
 2748SOL    HW219878   0.208   4.508  14.678 -0.9202  0.2083  2.0293
 2749SOL     OW19879   1.155   1.618   7.586  0.2495  0.2788 -0.5124
 2749SOL    HW119880   1.188   1.556   7.521  0.4086 -1.5705  1.3288
 2749SOL    HW219881   1.102   1.561   7.642  0.6981 -1.2528 -1.6295
 2750SOL     OW19882   4.581   2.023   7.022 -0.6555  0.1886  0.5404
 2750SOL    HW119883   4.545   2.066   7.099  1.0473  0.7087  1.0396
 2750SOL    HW219884   4.636   2.096   6.993 -0.3769 -0.5686 -0.8534
 2751SOL     OW19885   1.816   1.755   1.726 -0.3850  0.1136  0.8330
 2751SOL    HW119886   1.829   1.849   1.711  2.4074 -0.5479 -0.9310
 2751SOL    HW219887   1.721   1.747   1.724 -0.4330  0.5694  1.3333
 2752SOL     OW19888   2.815   2.750   5.727  0.0623 -0.3119 -0.8511
 2752SOL    HW119889   2.906   2.721   5.725  0.2810  0.2572  0.8991
 2752SOL    HW219890   2.798   2.776   5.818  0.8733  0.8719 -1.0379
 2753SOL     OW19891   4.629   2.703   3.509 -0.2226  0.2336  0.5598
 2753SOL    HW119892   4.654   2.697   3.417  1.1203 -1.0893  1.0276
 2753SOL    HW219893   4.714   2.730   3.542  1.3663 -0.5205 -2.8819
 2754SOL     OW19894   3.481   1.150  17.136 -0.0071 -0.0967 -0.4793
 2754SOL    HW119895   3.529   1.085  17.085  2.4741  0.3344  1.2834
 2754SOL    HW219896   3.541   1.224  17.130  0.5972 -0.3442  2.4282
 2755SOL     OW19897   2.391   1.720   4.822  0.2343  0.0504 -0.1007
 2755SOL    HW119898   2.485   1.709   4.833  0.1947  1.2203  1.3724
 2755SOL    HW219899   2.357   1.648   4.768  0.6753  0.3667 -0.8032
 2756SOL     OW19900   2.196   0.634   4.748  0.7183 -0.4330 -0.0115
 2756SOL    HW119901   2.248   0.671   4.818  0.5476  2.9961 -1.6911
 2756SOL    HW219902   2.251   0.654   4.672 -1.0826  1.3916 -0.8503
 2757SOL     OW19903   3.795   0.417   2.840  0.0187  0.2077 -0.0105
 2757SOL    HW119904   3.882   0.455   2.832  0.1061  0.3278  1.5747
 2757SOL    HW219905   3.799   0.354   2.768  0.2524  0.3668 -0.1344
 2758SOL     OW19906   2.902   4.199   5.551  0.4050  0.4015  0.4567
 2758SOL    HW119907   2.853   4.278   5.531 -1.5021 -0.9402 -0.2036
 2758SOL    HW219908   2.829   4.144   5.580  0.6932 -0.2890 -0.1458
 2759SOL     OW19909   1.645   4.698   0.787 -0.0523  0.0968 -0.6346
 2759SOL    HW119910   1.561   4.726   0.823 -0.6052  0.5336 -2.2378
 2759SOL    HW219911   1.628   4.638   0.715  0.2953 -2.5744  1.5349
 2760SOL     OW19912   3.812   0.328   5.069 -0.0199 -0.2194 -0.2212
 2760SOL    HW119913   3.852   0.320   5.156  0.4417 -1.3177 -0.5332
 2760SOL    HW219914   3.855   0.408   5.039  1.0252 -1.0690 -0.9663
 2761SOL     OW19915   4.157   0.479   0.727  0.1533 -0.0464  0.2008
 2761SOL    HW119916   4.202   0.563   0.721  0.9177 -0.3485  1.8824
 2761SOL    HW219917   4.076   0.502   0.772  0.5144  1.5455  0.0333
 2762SOL     OW19918   3.878   2.366   4.266 -0.5776 -0.2284 -0.0772
 2762SOL    HW119919   3.843   2.428   4.201 -1.1951 -1.8975 -1.3327
 2762SOL    HW219920   3.847   2.412   4.344 -0.0559  0.0757 -0.0532
 2763SOL     OW19921   0.431   4.291   3.331  0.5946  0.2027  0.1386
 2763SOL    HW119922   0.521   4.277   3.301  1.0100  2.0127  0.5559
 2763SOL    HW219923   0.389   4.281   3.246 -0.4728  1.0333  0.5812
 2764SOL     OW19924   0.004   4.319   2.668 -0.1176  0.7386  0.7639
 2764SOL    HW119925   4.712   4.257   2.735  0.2056 -0.1414  0.0951
 2764SOL    HW219926   4.663   4.369   2.646  0.6720  1.5689 -0.1654
 2765SOL     OW19927   1.643   2.264   8.277 -0.3767 -0.2696  0.1987
 2765SOL    HW119928   1.637   2.241   8.370 -1.6700 -0.1374  0.1410
 2765SOL    HW219929   1.641   2.178   8.236  3.6905 -0.1908 -0.1514
 2766SOL     OW19930   1.986   3.835   4.817 -0.6897  0.0837  0.4065
 2766SOL    HW119931   1.955   3.751   4.853  0.1831 -0.5518 -0.3150
 2766SOL    HW219932   1.930   3.836   4.740 -0.9145 -1.7158  0.5335
 2767SOL     OW19933   4.292   1.414   5.784  0.2870  0.1096  0.5514
 2767SOL    HW119934   4.338   1.372   5.711  1.0305  2.5377 -0.3571
 2767SOL    HW219935   4.325   1.362   5.858  0.2900  0.7008  0.9675
 2768SOL     OW19936   2.593   2.877   1.123 -0.0373  0.4785 -0.2447
 2768SOL    HW119937   2.668   2.830   1.085 -1.3309 -1.0523 -0.9204
 2768SOL    HW219938   2.518   2.830   1.087 -0.2424  0.4380  0.2357
 2769SOL     OW19939   2.077   2.981   1.947  0.6053 -0.4396 -0.2159
 2769SOL    HW119940   2.055   3.068   1.979  2.4331  0.7334 -2.1352
 2769SOL    HW219941   1.996   2.959   1.902 -0.2847 -1.4554  1.8917
 2770SOL     OW19942   0.645   4.641  12.319 -0.1020  0.5514  0.1180
 2770SOL    HW119943   0.622   4.566  12.374  0.1062  1.1418  1.0068
 2770SOL    HW219944   0.584   4.636  12.246  0.7244 -0.2818 -0.5294
 2771SOL     OW19945   0.929   3.116   3.984 -0.5216 -0.0547 -0.8883
 2771SOL    HW119946   0.877   3.057   3.930 -1.4024  0.1534 -0.2632
 2771SOL    HW219947   0.964   3.056   4.049  0.3496  0.4622 -0.8764
 2772SOL     OW19948   1.361   1.015   7.187 -0.0419  0.3064 -0.0764
 2772SOL    HW119949   1.427   1.033   7.120 -0.8710  0.2009 -0.9231
 2772SOL    HW219950   1.294   1.080   7.162 -0.0220  0.0648 -0.7699
 2773SOL     OW19951   1.629   0.150   1.431 -0.1310 -0.5227 -0.4931
 2773SOL    HW119952   1.642   0.093   1.356 -0.9117 -0.5480 -0.6164
 2773SOL    HW219953   1.556   0.205   1.402 -0.4159  0.0305  1.2165
 2774SOL     OW19954   0.474   1.325  17.247 -0.4174 -0.7872  0.2875
 2774SOL    HW119955   0.384   1.356  17.256 -1.5419 -3.8216 -0.5488
 2774SOL    HW219956   0.518   1.402  17.211  0.9090 -0.8263  1.7791
 2775SOL     OW19957   1.046   1.842   6.269  0.1686  0.1864 -0.1403
 2775SOL    HW119958   1.023   1.751   6.291 -1.5148  0.2043 -1.8239
 2775SOL    HW219959   0.993   1.852   6.190  0.3411  0.1049 -0.2665
 2776SOL     OW19960   0.313   0.360  15.903 -0.1330  0.0239 -0.0517
 2776SOL    HW119961   0.245   0.417  15.939 -0.5311 -1.1894  1.1029
 2776SOL    HW219962   0.267   0.286  15.864 -0.9941  0.5632 -0.0527
 2777SOL     OW19963   0.427   0.071   8.587  0.1831 -0.1104  0.0297
 2777SOL    HW119964   0.333   0.062   8.603  0.3586  1.8951  2.1778
 2777SOL    HW219965   0.472   0.055   8.670 -0.4804  0.8155  0.5658
 2778SOL     OW19966   0.994   0.989   6.518  0.1515 -0.8591  0.3547
 2778SOL    HW119967   0.959   0.915   6.469 -1.3187 -0.3156  0.5833
 2778SOL    HW219968   1.049   0.955   6.588  0.0796  0.7252  1.1690
 2779SOL     OW19969   0.692   0.335   2.176 -0.1067 -0.1295 -0.8328
 2779SOL    HW119970   0.769   0.393   2.171  0.1327 -0.2681  1.1975
 2779SOL    HW219971   0.664   0.357   2.265  1.3448  0.8751 -0.6158
 2780SOL     OW19972   2.235   2.092   6.043 -0.2507  0.1735 -0.5198
 2780SOL    HW119973   2.171   2.092   6.114 -0.3915 -0.3773 -0.6479
 2780SOL    HW219974   2.271   2.006   6.064 -0.2147  0.4954  0.7910
 2781SOL     OW19975   4.028   2.281  10.554  0.4221 -0.8266  0.2292
 2781SOL    HW119976   4.058   2.259  10.642  1.5263  1.4551  0.4111
 2781SOL    HW219977   3.933   2.272  10.561  0.4860 -1.8760 -0.2218
 2782SOL     OW19978   4.291   1.084  12.823 -0.8733 -0.4210 -0.7026
 2782SOL    HW119979   4.290   1.100  12.918  0.9782  0.2944 -0.8013
 2782SOL    HW219980   4.321   0.993  12.822 -0.0777 -0.1744  0.6823
 2783SOL     OW19981   1.836   0.293   0.206  0.2793  0.3004 -0.1849
 2783SOL    HW119982   1.872   0.256   0.286  0.9961  1.2329 -0.0879
 2783SOL    HW219983   1.822   0.223   0.142  1.9458  1.6363 -2.0056
 2784SOL     OW19984   3.972   1.549   1.251 -0.2017  0.0691 -0.0586
 2784SOL    HW119985   3.916   1.586   1.319  1.2197  3.8716 -0.9920
 2784SOL    HW219986   3.950   1.456   1.245 -0.3343  0.1971 -1.4688
 2785SOL     OW19987   4.623   2.384   5.126 -0.2085  0.1293 -0.2476
 2785SOL    HW119988   4.636   2.414   5.216  0.5358 -1.7394  0.2532
 2785SOL    HW219989   4.710   2.354   5.103 -0.2014 -2.2545  2.8940
 2786SOL     OW19990   1.966   2.259   0.196  0.2455 -0.0961 -0.0055
 2786SOL    HW119991   2.047   2.300   0.225 -0.4394  0.8403  0.6130
 2786SOL    HW219992   1.966   2.168   0.226  0.7594  0.0936  0.5666
 2787SOL     OW19993   1.774   2.675   5.831  0.2605 -0.4024 -0.4813
 2787SOL    HW119994   1.703   2.629   5.877 -0.3995  1.3828  0.2835
 2787SOL    HW219995   1.759   2.647   5.741 -1.8613 -0.8272  0.0107
 2788SOL     OW19996   3.567   4.021   2.906  0.2684 -0.5521  0.1565
 2788SOL    HW119997   3.544   3.940   2.953 -2.2191 -1.1811 -2.1205
 2788SOL    HW219998   3.503   4.079   2.949  0.1410 -0.0956 -0.6599
 2789SOL     OW19999   2.755   4.055   1.562  0.2753  0.3918  0.1810
 2789SOL    HW120000   2.699   4.005   1.622 -1.4463  2.2646  0.1254
 2789SOL    HW220001   2.822   3.987   1.568 -1.1445 -0.9705  0.5103
 2790SOL     OW20002   0.070   3.953   7.046  0.3253  0.1728 -0.3044
 2790SOL    HW120003   0.131   3.977   6.977  1.1578  0.3089  0.4818
 2790SOL    HW220004   0.070   3.858   7.029  2.0766  0.2891 -0.8845
 2791SOL     OW20005   4.600   3.955   4.040  0.4059 -0.0456  0.6962
 2791SOL    HW120006   4.517   3.926   4.003  2.3320 -1.7213 -2.3579
 2791SOL    HW220007   4.582   3.950   4.134  0.5969  1.4505  0.8122
 2792SOL     OW20008   2.110   4.375  15.595  0.5230  0.3917 -0.5279
 2792SOL    HW120009   2.168   4.438  15.638  0.3429 -0.0979  0.4611
 2792SOL    HW220010   2.026   4.385  15.640 -0.0125  1.1105 -1.7152
 2793SOL     OW20011   4.467   0.171   4.818  0.2055  0.2854 -0.1858
 2793SOL    HW120012   4.464   0.223   4.898  0.0072  0.7415 -0.4845
 2793SOL    HW220013   4.383   0.191   4.776  0.6583  1.4962 -0.5292
 2794SOL     OW20014   3.637   1.132   8.338  0.5495  0.3434 -0.4724
 2794SOL    HW120015   3.729   1.123   8.363 -0.2986  0.1893  2.4816
 2794SOL    HW220016   3.647   1.134   8.242  1.4593 -1.4246 -0.4080
 2795SOL     OW20017   1.003   4.139   6.372  1.0209  0.7227 -0.2828
 2795SOL    HW120018   0.977   4.134   6.463  0.5011 -1.8260 -0.5679
 2795SOL    HW220019   1.002   4.234   6.365 -2.1596  0.4709 -3.1978
 2796SOL     OW20020   2.046   3.697   8.515  0.3541  0.2918  0.5848
 2796SOL    HW120021   2.043   3.774   8.459 -0.0364 -0.9159 -1.0531
 2796SOL    HW220022   2.107   3.639   8.470 -1.9226 -0.6864 -1.2272
 2797SOL     OW20023   1.147   3.631   5.034  0.6155  0.4546  0.3263
 2797SOL    HW120024   1.071   3.628   5.092 -0.7866  0.8659 -1.4868
 2797SOL    HW220025   1.115   3.584   4.957 -2.0393 -0.8951  2.2283
 2798SOL     OW20026   0.354   2.438   9.129 -0.3722 -0.3930  0.0651
 2798SOL    HW120027   0.329   2.487   9.207 -1.8233  1.8706 -1.8006
 2798SOL    HW220028   0.308   2.482   9.057 -0.5194 -0.0466  0.3730
 2799SOL     OW20029   4.468   1.995   0.439  0.0584  0.1802  0.6366
 2799SOL    HW120030   4.488   1.922   0.380  0.2960  1.3130 -0.6844
 2799SOL    HW220031   4.552   2.024   0.475  1.8107 -1.4017 -2.2324
 2800SOL     OW20032   2.139   1.663   0.099  0.1314 -0.1043  0.0940
 2800SOL    HW120033   2.115   1.748   0.136  2.7122  0.8021 -0.3807
 2800SOL    HW220034   2.231   1.663   0.124  0.0696  0.5480  0.3143
 2801SOL     OW20035   0.852   4.075   4.131  0.1354 -0.3472  0.0916
 2801SOL    HW120036   0.913   4.041   4.066 -0.5332  1.2565 -1.3852
 2801SOL    HW220037   0.770   4.082   4.083  0.5582 -3.6940 -1.0872
 2802SOL     OW20038   0.743   1.760  11.778  0.7159  0.9830 -0.6496
 2802SOL    HW120039   0.743   1.793  11.868  0.3352  0.8882 -0.6144
 2802SOL    HW220040   0.654   1.786  11.755  0.2063  0.8736  1.2625
 2803SOL     OW20041   2.651   4.476   8.260 -0.0523  0.4221  0.6561
 2803SOL    HW120042   2.628   4.415   8.190  0.5083  1.3241 -0.3081
 2803SOL    HW220043   2.610   4.442   8.340 -0.0673  1.6965  1.1934
 2804SOL     OW20044   3.589   0.307   5.232 -0.4296  0.0949 -0.5715
 2804SOL    HW120045   3.655   0.318   5.163  0.5564  1.4161  0.5924
 2804SOL    HW220046   3.601   0.216   5.257  2.4846  0.4039 -0.8423
 2805SOL     OW20047   2.947   2.485   9.276  0.4916  0.0294  0.0395
 2805SOL    HW120048   2.937   2.412   9.215 -0.3708  0.7776 -0.7177
 2805SOL    HW220049   2.914   2.442   9.355 -0.9175 -0.1232 -0.6308
 2806SOL     OW20050   0.401   1.670   4.820 -0.0912 -0.0245 -0.0517
 2806SOL    HW120051   0.335   1.711   4.876  0.1145  1.5768 -0.9725
 2806SOL    HW220052   0.357   1.586   4.833 -2.0652  0.6087 -2.6090
 2807SOL     OW20053   0.625   2.800   5.898 -0.0796 -0.5061 -0.4254
 2807SOL    HW120054   0.702   2.840   5.939 -1.2467  1.6160 -0.2902
 2807SOL    HW220055   0.663   2.741   5.832  0.1504  2.3224 -2.8305
 2808SOL     OW20056   2.196   0.881  12.423 -0.1346  0.8349  0.0867
 2808SOL    HW120057   2.241   0.941  12.483 -0.7633  0.8876  0.5126
 2808SOL    HW220058   2.120   0.925  12.386 -2.2013 -0.5364  2.6943
 2809SOL     OW20059   3.633   1.868  10.604  0.2584  0.0587  0.2702
 2809SOL    HW120060   3.579   1.796  10.571 -1.4205  1.6547 -0.4485
 2809SOL    HW220061   3.661   1.916  10.527  1.1421  0.2421  0.7068
 2810SOL     OW20062   1.100   0.375   6.847  0.2671  0.3835  0.1093
 2810SOL    HW120063   1.038   0.398   6.777 -2.2363  1.8571  2.7704
 2810SOL    HW220064   1.055   0.307   6.898  0.7961  0.8375  1.1989
 2811SOL     OW20065   0.711   4.159   1.814  0.3331  0.1438  0.0066
 2811SOL    HW120066   0.677   4.139   1.902 -0.9504 -1.7953 -0.9197
 2811SOL    HW220067   0.730   4.251   1.830  0.1609  0.2328 -0.2894
 2812SOL     OW20068   2.398   1.602   5.521 -0.1022 -0.0169 -0.3143
 2812SOL    HW120069   2.423   1.581   5.611  1.8552 -0.0068 -0.8671
 2812SOL    HW220070   2.306   1.578   5.530 -0.3317 -0.0509 -2.8599
 2813SOL     OW20071   3.792   2.861  17.320 -0.6165  0.3780 -0.1311
 2813SOL    HW120072   3.856   2.791  17.328 -1.8666 -0.4207  2.6345
 2813SOL    HW220073   3.744   2.839  17.240  2.3139 -1.4764 -1.3912
 2814SOL     OW20074   3.630   3.218   6.387 -0.4428 -1.1079 -0.2416
 2814SOL    HW120075   3.638   3.312   6.369 -0.9767 -0.8181  1.0160
 2814SOL    HW220076   3.681   3.204   6.467 -0.3224  2.3758  0.2919
 2815SOL     OW20077   0.707   3.811   1.961  0.2725  0.2199  0.3215
 2815SOL    HW120078   0.787   3.812   1.909 -1.1519 -1.7940 -1.9578
 2815SOL    HW220079   0.698   3.905   1.974  2.6529  0.0811  2.8644
 2816SOL     OW20080   1.282   2.571   5.791 -0.4291  0.1135  0.5370
 2816SOL    HW120081   1.198   2.593   5.751 -0.0230 -0.4266 -0.6109
 2816SOL    HW220082   1.255   2.515   5.863 -0.2061  2.2226  2.2550
 2817SOL     OW20083   3.316   1.201  10.039  0.4065 -0.4940  0.4580
 2817SOL    HW120084   3.221   1.211  10.050  0.1025 -3.1426  0.2474
 2817SOL    HW220085   3.331   1.259   9.965 -1.6652  0.4486  0.7653
 2818SOL     OW20086   3.526   3.825   2.664 -0.0088  1.0444 -0.2102
 2818SOL    HW120087   3.469   3.902   2.671  1.3604  1.9806  0.6662
 2818SOL    HW220088   3.596   3.851   2.604  1.4229  2.0084  1.8658
 2819SOL     OW20089   2.488   1.165   8.708  0.4135  0.4320 -0.0718
 2819SOL    HW120090   2.470   1.215   8.787  0.9326 -0.0315  0.3398
 2819SOL    HW220091   2.407   1.189   8.664  1.7340  1.7971 -1.7492
 2820SOL     OW20092   3.126   2.369   3.137  0.3041  0.8171 -0.5733
 2820SOL    HW120093   3.204   2.343   3.186  0.3063 -0.1782 -1.0999
 2820SOL    HW220094   3.119   2.464   3.136  1.7819  0.9306  0.1375
 2821SOL     OW20095   0.866   4.076   6.622 -0.2310  0.5232 -0.2851
 2821SOL    HW120096   0.779   4.038   6.634 -0.9017  2.7856  2.0675
 2821SOL    HW220097   0.857   4.169   6.643 -2.2010  0.4263 -0.6548
 2822SOL     OW20098   1.823   1.271   0.353  0.0790  0.8044 -0.2211
 2822SOL    HW120099   1.901   1.270   0.408 -1.4011 -0.0101  1.8429
 2822SOL    HW220100   1.853   1.323   0.278  1.5953 -1.1693 -0.9651
 2823SOL     OW20101   1.111   3.825   6.952 -0.0967 -0.3560  0.0491
 2823SOL    HW120102   1.123   3.739   6.912  1.0593 -0.2214  0.1013
 2823SOL    HW220103   1.127   3.873   6.870  0.2319 -0.9279 -0.2220
 2824SOL     OW20104   0.455   2.009   6.172 -0.9151  0.2158 -0.0211
 2824SOL    HW120105   0.533   2.024   6.224 -1.1999  0.1644  0.4169
 2824SOL    HW220106   0.389   2.024   6.239 -0.8456 -0.3892  0.1847
 2825SOL     OW20107   0.158   1.893   8.267  0.3907 -0.3238 -0.2167
 2825SOL    HW120108   0.144   1.802   8.293  0.0741 -0.0538  0.5575
 2825SOL    HW220109   0.173   1.877   8.174  1.8545  1.3768 -0.2602
 2826SOL     OW20110   2.474   3.689   2.474  0.3410  0.7715 -0.3734
 2826SOL    HW120111   2.477   3.593   2.484  0.4341  0.8434  0.3299
 2826SOL    HW220112   2.449   3.712   2.564 -1.7604  1.2491 -1.0829
 2827SOL     OW20113   3.371   3.238   5.327  0.3558  0.0927  0.5077
 2827SOL    HW120114   3.446   3.186   5.357 -0.2673 -2.5105 -2.4342
 2827SOL    HW220115   3.302   3.182   5.361  2.3527 -2.4049  0.4643
 2828SOL     OW20116   2.938   1.554   7.233  0.0282 -0.5833 -0.3911
 2828SOL    HW120117   2.922   1.461   7.251 -1.5995 -0.0708  0.9184
 2828SOL    HW220118   3.029   1.565   7.206  0.3132 -3.3861 -0.5941
 2829SOL     OW20119   1.875   1.906   2.524  0.0003 -0.1977  0.0386
 2829SOL    HW120120   1.963   1.942   2.518  0.2088 -0.9392 -1.4603
 2829SOL    HW220121   1.873   1.847   2.600 -1.3264 -1.1672 -0.7463
 2830SOL     OW20122   0.024   1.302  12.616  0.0248 -0.0003 -0.0915
 2830SOL    HW120123   0.083   1.238  12.574  2.8490  1.7263  1.2722
 2830SOL    HW220124   0.085   1.376  12.608 -0.3455  0.1669 -1.4661
 2831SOL     OW20125   4.720   0.475   6.144 -0.4852 -0.1764 -0.0740
 2831SOL    HW120126   0.058   0.421   6.127 -1.0377 -0.8999 -0.2482
 2831SOL    HW220127   4.709   0.458   6.237 -0.8199 -0.5803 -0.1878
 2832SOL     OW20128   1.120   0.387   1.709  0.7267  0.4861  0.1691
 2832SOL    HW120129   1.211   0.359   1.720  0.1855 -0.7924  1.3913
 2832SOL    HW220130   1.129   0.479   1.734  2.1764  0.1884  0.7869
 2833SOL     OW20131   2.390   2.397   7.835 -0.1239  0.2553  0.1513
 2833SOL    HW120132   2.312   2.446   7.811 -0.3379 -0.1959 -0.0714
 2833SOL    HW220133   2.435   2.364   7.757 -1.1547  0.9868 -0.7458
 2834SOL     OW20134   4.351   1.545  10.212  0.0320  0.8574 -0.6544
 2834SOL    HW120135   4.349   1.540  10.308  1.5943  0.3050 -0.6528
 2834SOL    HW220136   4.431   1.597  10.203  1.8342 -1.7241  0.5298
 2835SOL     OW20137   1.954   2.093  17.692 -0.3155 -0.0586  0.2242
 2835SOL    HW120138   1.956   2.040  17.613 -0.7697 -3.6009  2.5582
 2835SOL    HW220139   2.028   2.053  17.738  2.0387  3.8752 -0.1460
 2836SOL     OW20140   2.205   2.037   2.707 -0.0460  0.6051 -0.1238
 2836SOL    HW120141   2.274   2.100   2.726  1.1737 -0.4611 -0.9758
 2836SOL    HW220142   2.221   2.013   2.616  0.7220 -1.6051  0.6022
 2837SOL     OW20143   1.263   1.209   6.081 -0.4293  0.4151  0.1924
 2837SOL    HW120144   1.347   1.255   6.077  0.3904 -1.2710 -1.8356
 2837SOL    HW220145   1.221   1.269   6.142 -1.2805  0.2683 -0.2482
 2838SOL     OW20146   1.216   3.383   3.717 -0.2034 -0.0457 -1.1666
 2838SOL    HW120147   1.254   3.434   3.789 -0.3214 -1.2132 -0.2802
 2838SOL    HW220148   1.161   3.449   3.674  1.1318  0.2385 -2.4088
 2839SOL     OW20149   1.140   0.725   6.608  0.1459 -0.3121 -0.5692
 2839SOL    HW120150   1.053   0.697   6.635 -0.2636  1.5668  0.0866
 2839SOL    HW220151   1.181   0.717   6.694  1.6968  1.6288 -1.1164
 2840SOL     OW20152   1.357   1.891   5.245 -0.2862  0.3136  0.7019
 2840SOL    HW120153   1.271   1.932   5.236 -1.0238 -1.6187 -1.1249
 2840SOL    HW220154   1.408   1.964   5.280 -0.7122  2.5379 -3.2709
 2841SOL     OW20155   3.868   3.694   2.408  0.2540  0.7198 -0.3705
 2841SOL    HW120156   3.940   3.699   2.471  0.0288 -0.6015 -0.0213
 2841SOL    HW220157   3.913   3.649   2.337 -2.6401 -1.3118 -0.9354
 2842SOL     OW20158   1.690   4.674   7.130  0.1972 -0.1951 -0.4843
 2842SOL    HW120159   1.666   4.586   7.100  0.0286 -0.2962 -0.0454
 2842SOL    HW220160   1.767   4.686   7.074  1.2429 -1.6599  0.6505
 2843SOL     OW20161   3.895   3.047   7.769  0.4718  0.2666 -0.4359
 2843SOL    HW120162   3.903   2.998   7.851 -2.3216 -0.5297 -0.6143
 2843SOL    HW220163   3.824   2.998   7.728 -0.2741  0.7317  0.2889
 2844SOL     OW20164   0.039   1.171   0.554 -0.4748  0.1505  0.3028
 2844SOL    HW120165   4.712   1.227   0.594 -1.5162  0.7307 -2.1781
 2844SOL    HW220166   0.037   1.097   0.614  0.6079  0.7951  1.1502
 2845SOL     OW20167   2.808   1.952   7.765 -0.4158 -0.5249  0.2700
 2845SOL    HW120168   2.776   2.036   7.732  0.7371 -0.7549 -1.3928
 2845SOL    HW220169   2.728   1.908   7.794  0.0092 -2.5354 -1.6217
 2846SOL     OW20170   4.310   1.100   1.939 -0.2755 -0.1569  0.1185
 2846SOL    HW120171   4.322   1.080   1.846  0.1427 -1.5987  0.4719
 2846SOL    HW220172   4.217   1.118   1.935 -0.5998 -1.5143  1.5392
 2847SOL     OW20173   3.759   1.657   1.105  0.1283  0.0717 -0.0662
 2847SOL    HW120174   3.840   1.620   1.141  0.5494 -0.1123 -1.2024
 2847SOL    HW220175   3.798   1.744   1.106 -1.0247  0.6170 -1.9094
 2848SOL     OW20176   1.658   2.184   7.893 -0.4300  0.0195  0.6679
 2848SOL    HW120177   1.637   2.120   7.825  0.9176  0.6287 -0.3033
 2848SOL    HW220178   1.659   2.136   7.976 -0.1845  1.3833  1.4548
 2849SOL     OW20179   3.565   4.637   4.897 -0.3070  0.3119  0.1007
 2849SOL    HW120180   3.617   4.676   4.968  0.8507 -1.1490  0.0652
 2849SOL    HW220181   3.643   4.618   4.844  0.1099  0.8285  0.5208
 2850SOL     OW20182   2.352   0.873   6.709  0.3617 -0.0015 -0.6474
 2850SOL    HW120183   2.280   0.848   6.767 -0.3555  2.3009 -0.5518
 2850SOL    HW220184   2.417   0.807   6.732 -1.2467 -1.2835  0.2147
 2851SOL     OW20185   3.270   3.244   2.129 -0.9561  0.3036  0.8763
 2851SOL    HW120186   3.270   3.153   2.158  0.7071 -0.6912 -2.2605
 2851SOL    HW220187   3.339   3.244   2.063 -1.5520 -0.8161  0.2497
 2852SOL     OW20188   2.735   2.419   3.254  0.1032 -0.0761 -0.2602
 2852SOL    HW120189   2.804   2.370   3.299  0.0470  0.3542  0.2887
 2852SOL    HW220190   2.777   2.502   3.231  2.2427 -1.2673 -0.7321
 2853SOL     OW20191   3.902   4.299   9.965 -0.4640 -0.6060  0.0915
 2853SOL    HW120192   3.819   4.295   9.917  0.1270 -1.2839 -0.8791
 2853SOL    HW220193   3.936   4.380   9.927 -3.2508  0.3054 -0.5349
 2854SOL     OW20194   1.066   0.220   7.502  0.0208  0.3548 -0.1224
 2854SOL    HW120195   0.973   0.223   7.480  0.5516  1.2527 -2.2938
 2854SOL    HW220196   1.070   0.178   7.588  1.7857  1.6047  0.4003
 2855SOL     OW20197   3.303   2.990   2.453 -0.2629  0.1249 -0.3833
 2855SOL    HW120198   3.366   2.933   2.498 -1.4029 -0.4177  0.4996
 2855SOL    HW220199   3.334   3.073   2.488  0.6566 -0.2524 -0.2783
 2856SOL     OW20200   2.101   2.351   1.105  0.2289  0.4209  0.4024
 2856SOL    HW120201   2.043   2.363   1.030  1.3074 -2.1892 -0.8359
 2856SOL    HW220202   2.090   2.429   1.159  2.5333 -0.1092  1.6369
 2857SOL     OW20203   4.355   3.117   6.717 -0.8279  0.3589 -0.4928
 2857SOL    HW120204   4.439   3.094   6.675 -0.3392  0.5065  0.4145
 2857SOL    HW220205   4.292   3.082   6.653  1.8806 -0.6722 -2.6118
 2858SOL     OW20206   1.811   3.947  11.815  0.2622  0.9485  0.1957
 2858SOL    HW120207   1.729   3.903  11.790  0.3061  0.3976  1.0244
 2858SOL    HW220208   1.825   4.011  11.746 -3.5157  0.2084 -1.2694
 2859SOL     OW20209   0.342   3.560   6.607  0.4115 -0.2226 -0.2096
 2859SOL    HW120210   0.311   3.577   6.696  0.4758  3.5311 -0.8757
 2859SOL    HW220211   0.271   3.595   6.552  0.7132  0.5629 -0.0960
 2860SOL     OW20212   2.461   1.446   1.618  0.2538 -0.0042  0.5819
 2860SOL    HW120213   2.394   1.513   1.632  0.1590  0.2013 -0.8656
 2860SOL    HW220214   2.416   1.364   1.640  0.9718  0.0968  2.4901
 2861SOL     OW20215   1.650   0.047  15.602 -0.5203  0.1190 -0.3422
 2861SOL    HW120216   1.617   0.132  15.574  0.5028 -0.3067 -2.8004
 2861SOL    HW220217   1.745   0.058  15.595 -0.1771 -1.4738  1.7361
 2862SOL     OW20218   3.515   3.107  14.035  0.1607  0.3990 -0.5504
 2862SOL    HW120219   3.488   3.183  14.086  1.0676  1.5040 -1.7028
 2862SOL    HW220220   3.442   3.102  13.972  0.3599 -2.1240 -0.5502
 2863SOL     OW20221   0.473   4.144  12.592 -0.1418  0.1130 -0.0871
 2863SOL    HW120222   0.378   4.153  12.584 -0.3406 -0.3089  1.7305
 2863SOL    HW220223   0.505   4.224  12.635 -2.0423 -0.0118  1.5858
 2864SOL     OW20224   2.053   1.714   3.150  0.1684 -0.5792  0.3635
 2864SOL    HW120225   2.020   1.802   3.171 -3.4193 -2.0171  0.8476
 2864SOL    HW220226   2.147   1.717   3.135  0.2613 -1.1871  0.8679
 2865SOL     OW20227   0.327   2.340   6.857  0.1983  0.4819 -0.3092
 2865SOL    HW120228   0.291   2.329   6.945  0.2988 -1.7267 -0.5461
 2865SOL    HW220229   0.359   2.252   6.838 -0.9120 -0.0425  0.2397
 2866SOL     OW20230   3.085   1.255   3.045  0.2635 -0.2918 -0.2556
 2866SOL    HW120231   3.091   1.170   3.001 -0.1078 -0.7266  0.5456
 2866SOL    HW220232   3.014   1.284   2.988  0.4939 -0.1902 -0.4931
 2867SOL     OW20233   3.447   1.116  13.834  0.2325 -0.3089 -0.0681
 2867SOL    HW120234   3.424   1.198  13.790  1.8050 -0.3742 -1.0007
 2867SOL    HW220235   3.364   1.080  13.867  0.1206 -1.9209 -2.1198
 2868SOL     OW20236   1.647   1.493   6.767  0.1063  0.8047  0.3692
 2868SOL    HW120237   1.699   1.425   6.725 -0.3905  0.4740  0.3004
 2868SOL    HW220238   1.635   1.541   6.685  0.1745 -2.6565 -1.6573
 2869SOL     OW20239   1.903   4.118   2.987  0.1026  0.1242  0.1610
 2869SOL    HW120240   1.952   4.174   2.927  0.5837  0.2504  0.6669
 2869SOL    HW220241   1.939   4.036   2.952  0.0363 -0.0847  0.5785
 2870SOL     OW20242   0.895   1.262   0.697 -0.2580  0.9974  0.1120
 2870SOL    HW120243   0.938   1.188   0.739 -0.7179 -0.3827 -1.8370
 2870SOL    HW220244   0.934   1.253   0.610 -1.2912 -1.2819 -0.1275
 2871SOL     OW20245   1.510   4.557   1.486  0.0650  0.1800 -0.0098
 2871SOL    HW120246   1.604   4.567   1.498  0.2814 -0.0102 -1.5491
 2871SOL    HW220247   1.471   4.606   1.558  2.1938  2.2462 -0.2540
 2872SOL     OW20248   3.675   0.393  11.593  0.3064 -0.4760  0.9154
 2872SOL    HW120249   3.762   0.382  11.556 -0.1340  1.4142 -0.6753
 2872SOL    HW220250   3.621   0.357  11.523  0.9360 -0.0600  0.2196
 2873SOL     OW20251   2.819   4.215   7.305  0.3015  0.5229 -0.5247
 2873SOL    HW120252   2.913   4.207   7.323 -0.2444 -0.7158  1.8139
 2873SOL    HW220253   2.802   4.304   7.276  1.0002  0.0523 -2.3662
 2874SOL     OW20254   4.360   1.837  13.626 -0.1127  0.3908  0.2578
 2874SOL    HW120255   4.293   1.813  13.689 -0.2719  0.9447  0.3049
 2874SOL    HW220256   4.393   1.755  13.590  1.8471  1.6884 -0.9227
 2875SOL     OW20257   2.844   3.583   2.917 -0.0589 -0.2383 -0.3649
 2875SOL    HW120258   2.804   3.497   2.905  2.1138 -1.3952  0.6270
 2875SOL    HW220259   2.863   3.608   2.827 -1.3267 -0.9635 -0.8360
 2876SOL     OW20260   1.901   1.699  11.177 -0.1176 -0.4097 -0.0536
 2876SOL    HW120261   1.882   1.608  11.154  1.2804 -1.3932  2.7826
 2876SOL    HW220262   1.836   1.736  11.116  0.7371  1.6986  0.3202
 2877SOL     OW20263   4.158   0.109   2.927 -0.1705  0.1710 -0.0108
 2877SOL    HW120264   4.132   0.029   2.972  2.1552 -0.2986  0.5001
 2877SOL    HW220265   4.166   0.059   2.846 -3.6041 -0.6458  0.1494
 2878SOL     OW20266   3.743   4.358   9.280  0.4338 -0.4607 -0.0605
 2878SOL    HW120267   3.647   4.353   9.272  0.4641  0.1631 -0.7604
 2878SOL    HW220268   3.775   4.282   9.233  0.3331  0.6128 -1.8462
 2879SOL     OW20269   4.446   0.261   9.242  0.3355  0.5335  0.1394
 2879SOL    HW120270   4.459   0.219   9.327 -2.4968  1.0312  0.7963
 2879SOL    HW220271   4.520   0.217   9.200  0.8580  1.2427  0.3157
 2880SOL     OW20272   0.638   1.753   4.931 -0.9045 -0.0966  0.0192
 2880SOL    HW120273   0.563   1.708   4.893 -0.6951 -0.1540 -0.3283
 2880SOL    HW220274   0.617   1.843   4.906 -0.0329 -0.0010 -0.3720
 2881SOL     OW20275   3.579   4.066   9.429 -0.3022  0.0995  0.2391
 2881SOL    HW120276   3.486   4.061   9.452 -0.4424  0.9728 -0.1560
 2881SOL    HW220277   3.601   3.981   9.390 -0.0429 -1.3943  3.5476
 2882SOL     OW20278   2.055   2.018   3.155 -0.0454 -0.4019 -0.4296
 2882SOL    HW120279   2.020   2.100   3.190  1.0842 -0.4273  0.7414
 2882SOL    HW220280   2.037   2.025   3.061  0.2682 -1.4318 -0.5644
 2883SOL     OW20281   4.548   0.372   2.880 -0.4272  0.1073 -0.2555
 2883SOL    HW120282   4.538   0.395   2.787  0.6806 -0.7664 -0.5955
 2883SOL    HW220283   4.638   0.404   2.887  0.5662 -2.6105 -0.6015
 2884SOL     OW20284   1.198   1.991   9.381 -0.6986  1.4173 -0.3812
 2884SOL    HW120285   1.202   2.074   9.334  1.1794  1.3371 -0.3389
 2884SOL    HW220286   1.156   2.011   9.465 -0.8305 -0.4534  0.0212
 2885SOL     OW20287   2.162   3.360  12.936  0.4553  0.5755 -0.2914
 2885SOL    HW120288   2.073   3.327  12.927 -0.6975  3.6953 -0.3752
 2885SOL    HW220289   2.219   3.286  12.958 -0.7863 -0.2428  0.1069
 2886SOL     OW20290   1.495   2.898   9.597  0.9719  0.6873  0.2403
 2886SOL    HW120291   1.501   2.804   9.583 -0.8959  0.9765 -2.4570
 2886SOL    HW220292   1.576   2.915   9.646 -0.5453  2.7958  2.0665
 2887SOL     OW20293   1.340   3.799  10.042 -0.0957  0.2188  0.7382
 2887SOL    HW120294   1.345   3.813  10.137  2.1147 -0.0563  0.6667
 2887SOL    HW220295   1.392   3.875  10.016  1.6577 -1.9071 -1.9502
 2888SOL     OW20296   3.572   4.005   9.801  0.2165 -0.2833  0.5704
 2888SOL    HW120297   3.498   4.049   9.843  1.0455  1.8209 -0.2014
 2888SOL    HW220298   3.631   4.079   9.795 -0.5339  0.4002  1.5051
 2889SOL     OW20299   0.423   1.388   3.113  0.2599 -0.3157 -0.4335
 2889SOL    HW120300   0.497   1.362   3.168 -0.8340 -1.9939  0.2539
 2889SOL    HW220301   0.470   1.447   3.054  0.5308 -0.1248 -0.0195
 2890SOL     OW20302   0.668   1.674  10.197 -0.4572  0.2641  0.1385
 2890SOL    HW120303   0.610   1.748  10.213 -1.6860 -0.3637 -1.4661
 2890SOL    HW220304   0.751   1.715  10.223 -0.8005 -0.6147  2.6818
 2891SOL     OW20305   0.777   0.596   3.761 -0.3094 -0.6995 -0.1737
 2891SOL    HW120306   0.800   0.505   3.777 -0.3313 -0.3603  1.7720
 2891SOL    HW220307   0.694   0.583   3.715 -0.5117  0.9612 -0.2726
 2892SOL     OW20308   3.963   2.778   7.835 -0.1101 -0.1676  0.0399
 2892SOL    HW120309   3.994   2.859   7.876 -1.7056  0.9159 -0.8995
 2892SOL    HW220310   4.030   2.722   7.873 -0.1803 -0.0149  0.3891
 2893SOL     OW20311   3.769   3.008   8.565 -1.0761 -0.4839 -0.0022
 2893SOL    HW120312   3.745   3.045   8.480 -0.5231  0.4369  0.2467
 2893SOL    HW220313   3.687   3.015   8.614 -1.0571  1.5321 -0.2916
 2894SOL     OW20314   2.854   0.478   2.820 -0.0055 -0.2586 -0.6593
 2894SOL    HW120315   2.866   0.408   2.884 -2.2131 -0.4130 -0.4070
 2894SOL    HW220316   2.760   0.482   2.800  0.0580 -1.0531 -1.1107
 2895SOL     OW20317   1.339   4.077   1.233 -0.4007  0.5363 -0.4795
 2895SOL    HW120318   1.419   4.067   1.284  0.5735 -0.8934 -2.3099
 2895SOL    HW220319   1.315   4.161   1.272 -1.8048  0.3881 -1.0047
 2896SOL     OW20320   1.010   1.076   2.012  0.2196 -0.0963  0.1016
 2896SOL    HW120321   0.975   1.102   1.927  0.9612 -1.3422 -0.5816
 2896SOL    HW220322   0.936   1.015   2.022  0.2756  0.0507  1.4658
 2897SOL     OW20323   4.379   3.180   0.419 -0.3453  0.5789  0.5957
 2897SOL    HW120324   4.465   3.203   0.455 -0.4886  0.5625  0.9542
 2897SOL    HW220325   4.392   3.103   0.364  1.9827  0.5287  1.2205
 2898SOL     OW20326   0.635   4.371   4.651  0.4726 -0.2431  0.2626
 2898SOL    HW120327   0.700   4.332   4.593 -0.9194 -2.1364 -0.0344
 2898SOL    HW220328   0.574   4.297   4.656 -0.0471  0.2669  1.4517
 2899SOL     OW20329   0.149   3.145   7.583 -0.1099  0.1292  0.1607
 2899SOL    HW120330   0.173   3.114   7.495  0.2272  1.8557 -0.3661
 2899SOL    HW220331   0.083   3.214   7.580 -0.7138 -0.4183  0.9977
 2900SOL     OW20332   3.118   0.944   3.339  0.2643 -0.2064  0.7354
 2900SOL    HW120333   3.132   0.914   3.428  0.7070  2.3779  1.5401
 2900SOL    HW220334   3.042   0.999   3.359 -1.4713 -2.5343  0.5264
 2901SOL     OW20335   2.400   2.823   7.392 -0.0328  0.2787  0.0522
 2901SOL    HW120336   2.383   2.917   7.397  0.9269  0.3902  1.1958
 2901SOL    HW220337   2.327   2.790   7.444 -0.8615  3.6867  1.0704
 2902SOL     OW20338   2.031   3.756   0.595 -0.1474  0.3789 -0.1416
 2902SOL    HW120339   2.121   3.771   0.625  0.4870 -1.9278 -0.8854
 2902SOL    HW220340   1.984   3.798   0.667 -1.4819  2.0961 -2.0217
 2903SOL     OW20341   3.056   2.077   3.042  0.6020 -0.3240  0.1612
 2903SOL    HW120342   3.045   2.165   3.078 -1.5592 -0.4198 -0.2760
 2903SOL    HW220343   3.090   2.023   3.113 -0.3807 -0.0350  0.8391
 2904SOL     OW20344   3.711   3.025  16.358 -0.7531 -0.3422 -0.4278
 2904SOL    HW120345   3.766   3.085  16.307 -0.4663 -1.4962 -1.4672
 2904SOL    HW220346   3.730   2.949  16.305 -1.4547 -0.1377 -0.9718
 2905SOL     OW20347   0.376   4.582   5.834  0.3803  0.5892  0.2173
 2905SOL    HW120348   0.460   4.626   5.819  1.7665 -1.5195  1.8329
 2905SOL    HW220349   0.311   4.646   5.805 -0.3246 -0.0167  0.4662
 2906SOL     OW20350   3.939   3.851   6.961 -0.0719  0.1638 -0.4125
 2906SOL    HW120351   3.874   3.802   6.911 -0.2270  0.1500 -0.1923
 2906SOL    HW220352   3.878   3.880   7.028 -0.2240 -1.6321  0.2252
 2907SOL     OW20353   3.124   3.163   3.287  0.3187  0.3650  0.3006
 2907SOL    HW120354   3.063   3.236   3.293 -0.8822 -0.6341  0.4121
 2907SOL    HW220355   3.187   3.206   3.230 -0.7312  1.0879 -0.3029
 2908SOL     OW20356   0.623   3.483   5.874 -0.2402  0.4212  0.1460
 2908SOL    HW120357   0.542   3.439   5.848 -0.7339  1.9666 -0.9720
 2908SOL    HW220358   0.601   3.527   5.956 -1.3929 -1.7599  0.9991
 2909SOL     OW20359   4.355   0.686   5.786  0.5684 -0.0841  0.2300
 2909SOL    HW120360   4.270   0.722   5.811  0.4700 -1.0804  1.3378
 2909SOL    HW220361   4.379   0.767   5.741  0.3739 -1.3049 -2.0690
 2910SOL     OW20362   3.474   0.423   2.525  0.2002  0.0552 -0.1076
 2910SOL    HW120363   3.512   0.340   2.555  1.6898  0.6322 -0.4405
 2910SOL    HW220364   3.435   0.452   2.608 -1.3119 -2.6160  0.1119
 2911SOL     OW20365   2.681   3.317   1.851 -0.3251 -0.0753 -0.2118
 2911SOL    HW120366   2.756   3.376   1.864 -0.3049 -0.4283  1.2524
 2911SOL    HW220367   2.680   3.291   1.759 -1.5821 -0.8334  0.0307
 2912SOL     OW20368   2.536   0.245   6.910  0.2087  0.5047 -0.2278
 2912SOL    HW120369   2.455   0.217   6.953  0.6554 -0.6368 -0.1396
 2912SOL    HW220370   2.509   0.336   6.897 -2.6962 -0.1479  1.1392
 2913SOL     OW20371   2.587   0.792  14.948 -0.4360  0.1372 -0.2115
 2913SOL    HW120372   2.673   0.763  14.977 -1.4475 -1.2197  1.4465
 2913SOL    HW220373   2.567   0.861  15.010 -1.2799  0.1523 -0.4910
 2914SOL     OW20374   3.561   1.093   5.133 -0.4223  0.5629 -0.2018
 2914SOL    HW120375   3.584   1.005   5.101  0.1897  0.7198 -0.1962
 2914SOL    HW220376   3.610   1.147   5.071  0.0287  0.9903  0.5229
 2915SOL     OW20377   0.139   3.691   2.031 -0.5143  0.2211  0.3878
 2915SOL    HW120378   0.184   3.743   1.964  0.5730 -0.7420  0.3673
 2915SOL    HW220379   0.126   3.610   1.982 -1.2484  1.1506 -0.9751
 2916SOL     OW20380   0.005   3.675   7.003  0.2991  0.1993  0.1922
 2916SOL    HW120381   4.650   3.674   6.979  0.1431 -2.2193  0.9357
 2916SOL    HW220382   0.019   3.584   7.028  2.2627  0.5140  0.2513
 2917SOL     OW20383   2.108   2.001   5.790 -0.1860  0.0901 -0.0890
 2917SOL    HW120384   2.128   2.071   5.853  2.4815 -1.6118  0.9669
 2917SOL    HW220385   2.097   2.047   5.707  2.7917  0.9923 -0.0051
 2918SOL     OW20386   3.351   2.963   2.759 -0.7232 -0.1911 -0.1023
 2918SOL    HW120387   3.332   2.909   2.836 -0.5720  0.1403  0.1666
 2918SOL    HW220388   3.263   2.991   2.735  0.0943  0.0183 -2.8362
 2919SOL     OW20389   2.168   3.498   4.544 -0.2882  0.0567 -0.4576
 2919SOL    HW120390   2.095   3.510   4.483 -1.5637  0.4260  1.1044
 2919SOL    HW220391   2.144   3.413   4.582 -0.8254 -0.3320 -1.6490
 2920SOL     OW20392   0.370   4.553   8.079 -0.4525  0.2337 -0.2482
 2920SOL    HW120393   0.428   4.605   8.134 -3.1869  1.1337  1.7602
 2920SOL    HW220394   0.355   4.474   8.131 -2.4028  0.8900  0.2023
 2921SOL     OW20395   3.307   1.733   4.091  0.3941 -0.1524 -0.6872
 2921SOL    HW120396   3.251   1.808   4.114 -2.2992 -2.3155 -0.1938
 2921SOL    HW220397   3.304   1.743   3.996 -1.1992  1.2598 -0.4976
 2922SOL     OW20398   1.230   4.599   9.569  0.0847  0.2502 -0.3656
 2922SOL    HW120399   1.154   4.590   9.627  0.0702  1.6132 -0.1730
 2922SOL    HW220400   1.201   4.673   9.516  1.9120  0.6376 -0.8250
 2923SOL     OW20401   3.465   2.647   4.324  0.8614 -0.4571 -0.0872
 2923SOL    HW120402   3.388   2.692   4.290  0.0327 -3.0926 -1.6839
 2923SOL    HW220403   3.473   2.574   4.262  0.5729 -1.0777  0.6152
 2924SOL     OW20404   4.641   0.968   5.113 -0.0862 -0.3712  0.0099
 2924SOL    HW120405   4.700   0.921   5.054  0.3970  0.4304 -0.1539
 2924SOL    HW220406   4.613   1.044   5.061 -0.4105  0.3806  1.2881
 2925SOL     OW20407   3.819   3.797  10.974 -0.0129 -0.0531  0.5994
 2925SOL    HW120408   3.814   3.702  10.962 -1.6410  0.2801 -1.4028
 2925SOL    HW220409   3.906   3.814  10.938 -0.0679  0.6820  0.8046
 2926SOL     OW20410   4.282   1.049   3.889  0.0088 -0.0209  0.1472
 2926SOL    HW120411   4.242   0.964   3.908  1.6737 -0.9743 -0.6429
 2926SOL    HW220412   4.199   1.096   3.875  0.0191 -0.2846 -0.8077
 2927SOL     OW20413   1.614   3.509   3.718 -0.3987  0.3000 -0.1537
 2927SOL    HW120414   1.622   3.422   3.759 -0.2092  1.0152  1.3220
 2927SOL    HW220415   1.524   3.531   3.742 -1.2096 -0.6951 -2.2351
 2928SOL     OW20416   2.348   4.618   1.194  0.2275  0.0681 -0.2861
 2928SOL    HW120417   2.368   4.686   1.258  0.7112  1.2255 -1.6640
 2928SOL    HW220418   2.331   4.669   1.115 -0.4290 -1.4495 -1.1329
 2929SOL     OW20419   4.542   1.732   5.550  0.0180 -0.7533 -0.4122
 2929SOL    HW120420   4.563   1.754   5.641  2.2287  1.7050 -1.5119
 2929SOL    HW220421   4.612   1.672   5.524  0.5849 -0.0444 -0.5469
 2930SOL     OW20422   3.125   0.016   9.449 -0.2096 -0.0517  0.1262
 2930SOL    HW120423   3.124   0.056   9.537 -0.1055  0.8605 -0.2858
 2930SOL    HW220424   3.199   0.065   9.413  1.2257 -1.1590  1.5527
 2931SOL     OW20425   3.116   0.374   3.527  0.2975  0.5016  0.1776
 2931SOL    HW120426   3.161   0.453   3.557  0.6258  1.1555 -1.9885
 2931SOL    HW220427   3.103   0.402   3.436  2.5514 -0.5748 -0.4518
 2932SOL     OW20428   0.396   1.312   5.280 -0.2625  0.0178 -0.3316
 2932SOL    HW120429   0.336   1.240   5.300  0.7605 -0.1384  2.2276
 2932SOL    HW220430   0.444   1.275   5.206  0.5408  1.3148 -0.4726
 2933SOL     OW20431   4.575   0.891   0.370 -0.4702  0.4289  0.2222
 2933SOL    HW120432   4.603   0.982   0.375 -0.4046  0.4645 -0.6817
 2933SOL    HW220433   4.484   0.901   0.343 -0.9957 -1.5583  1.2239
 2934SOL     OW20434   3.878   2.049   3.405  0.2650  0.4351 -0.0222
 2934SOL    HW120435   3.875   2.134   3.362  1.8103  0.9977  0.9566
 2934SOL    HW220436   3.960   2.064   3.453  0.2716 -3.3263  1.1565
 2935SOL     OW20437   3.123   4.705   3.100 -0.2855  0.0296 -0.4468
 2935SOL    HW120438   3.139   0.025   3.174 -0.5740  0.7169 -0.9295
 2935SOL    HW220439   3.122   0.023   3.023  1.1641  2.3322  1.2230
 2936SOL     OW20440   4.161   2.734   4.182 -0.1981  0.1352 -0.2428
 2936SOL    HW120441   4.220   2.672   4.140 -1.5117 -0.7951 -0.7360
 2936SOL    HW220442   4.111   2.765   4.107 -0.5352  0.2914  0.0466
 2937SOL     OW20443   3.640   4.594   1.658 -0.3632  0.0061 -0.0543
 2937SOL    HW120444   3.716   4.553   1.699 -0.3804 -0.4927 -0.5116
 2937SOL    HW220445   3.652   4.582   1.564 -0.7275  0.6529 -0.1821
 2938SOL     OW20446   3.242   1.255   7.290  0.5777  0.1023 -0.0525
 2938SOL    HW120447   3.316   1.312   7.269  0.5293 -0.6456 -2.3646
 2938SOL    HW220448   3.249   1.187   7.222 -0.2187 -1.9080  1.8823
 2939SOL     OW20449   4.427   0.791   3.202 -0.1340  0.1737 -0.1707
 2939SOL    HW120450   4.510   0.836   3.215 -0.4284  1.2262 -1.9393
 2939SOL    HW220451   4.444   0.708   3.246 -0.9864 -0.2585 -0.6511
 2940SOL     OW20452   3.647   3.853   9.237 -0.0738  0.1777  0.2541
 2940SOL    HW120453   3.650   3.911   9.161 -0.7240 -0.7732 -0.5087
 2940SOL    HW220454   3.559   3.817   9.222 -0.5018  1.3757 -0.1508
 2941SOL     OW20455   1.231   1.675   2.437 -0.2641  0.1960 -0.0199
 2941SOL    HW120456   1.199   1.585   2.426  0.9205 -0.2751  0.4274
 2941SOL    HW220457   1.323   1.674   2.414 -0.5624 -1.3143 -1.2069
 2942SOL     OW20458   0.041   0.571   6.590 -0.3038  0.1826  0.0810
 2942SOL    HW120459   4.738   0.639   6.641 -0.5066 -0.1355  0.3409
 2942SOL    HW220460   4.719   0.553   6.518 -0.0698  1.5855 -0.4602
 2943SOL     OW20461   2.793   3.998   7.979 -0.1999 -0.3728 -0.3404
 2943SOL    HW120462   2.724   4.042   7.929 -1.1148 -2.0131 -0.5035
 2943SOL    HW220463   2.822   4.069   8.036 -3.1961  0.8942 -0.4189
 2944SOL     OW20464   1.509   4.062   5.098 -0.0705 -0.4079 -0.1604
 2944SOL    HW120465   1.469   4.148   5.111 -0.7063 -0.8709  0.9518
 2944SOL    HW220466   1.522   4.040   5.191  0.1189 -0.5162 -0.2117
 2945SOL     OW20467   2.776   0.662   7.827 -0.8253  0.4413  0.2427
 2945SOL    HW120468   2.718   0.738   7.818  0.3095  1.1816 -0.9995
 2945SOL    HW220469   2.725   0.605   7.884 -0.3325 -0.0496  0.1891
 2946SOL     OW20470   0.254   1.465   1.924  0.1654 -0.6368 -0.3703
 2946SOL    HW120471   0.171   1.506   1.903  1.8430  1.6844 -2.4214
 2946SOL    HW220472   0.234   1.389   1.980  0.7568  0.5447  1.4669
 2947SOL     OW20473   0.394   1.161   5.613  0.3706 -0.3389 -0.0611
 2947SOL    HW120474   0.390   1.098   5.685  0.0912  3.2504  3.0265
 2947SOL    HW220475   0.471   1.129   5.564 -0.8900 -2.8679 -0.4003
 2948SOL     OW20476   0.186   0.100   3.858 -0.1686 -0.2744  0.0964
 2948SOL    HW120477   0.259   0.096   3.796 -1.6209 -1.1942 -1.5565
 2948SOL    HW220478   0.159   0.191   3.856  0.4869 -0.0936 -0.4888
 2949SOL     OW20479   0.887   0.141   2.570 -0.1384 -0.6238 -0.0117
 2949SOL    HW120480   0.957   0.076   2.571  1.5802  1.1721 -2.8853
 2949SOL    HW220481   0.920   0.214   2.517  3.1313 -0.2818  2.5113
 2950SOL     OW20482   0.505   3.678  15.674  0.0991  0.1155  0.2526
 2950SOL    HW120483   0.456   3.688  15.592 -0.5001  1.4404  0.7841
 2950SOL    HW220484   0.476   3.760  15.713  0.9602  0.3766  0.3307
 2951SOL     OW20485   0.524   3.657   0.667 -0.1612  0.3092 -0.4183
 2951SOL    HW120486   0.468   3.593   0.623 -0.5666 -0.4286  1.1701
 2951SOL    HW220487   0.517   3.626   0.758  1.1281  3.2788  0.7210
 2952SOL     OW20488   4.531   0.586   4.015 -0.4725  0.1857 -0.8930
 2952SOL    HW120489   4.512   0.658   4.075 -1.3652  0.0283 -0.9906
 2952SOL    HW220490   4.496   0.628   3.937 -0.7513  0.3732 -0.6687
 2953SOL     OW20491   4.494   3.380   2.905  0.3023 -0.1765  0.0925
 2953SOL    HW120492   4.506   3.301   2.957 -0.3813 -0.0469  0.4397
 2953SOL    HW220493   4.568   3.434   2.932 -0.8905  0.0328  2.8915
 2954SOL     OW20494   3.043   3.946   4.757  0.0841 -0.3850 -0.3849
 2954SOL    HW120495   3.057   3.878   4.823  0.0259  2.0880  2.1727
 2954SOL    HW220496   3.006   3.896   4.684  0.8356  0.3765 -1.2778
 2955SOL     OW20497   1.471   3.875   2.931 -0.1007 -0.2290 -0.4103
 2955SOL    HW120498   1.497   3.965   2.950 -2.3590  0.0124  1.4592
 2955SOL    HW220499   1.443   3.876   2.839 -2.3505 -0.7986  0.2675
 2956SOL     OW20500   4.124   0.953   8.124 -0.2498 -0.6136  0.5476
 2956SOL    HW120501   4.121   0.882   8.060 -0.9632  0.1062 -0.2054
 2956SOL    HW220502   4.205   0.999   8.100 -0.3938  0.2040  1.6329
 2957SOL     OW20503   0.913   0.185   0.599  0.0390  0.0965 -0.2868
 2957SOL    HW120504   0.940   0.273   0.626  0.1685 -0.2854  0.8514
 2957SOL    HW220505   0.818   0.191   0.610  0.1079 -0.4247  0.6489
 2958SOL     OW20506   3.508   0.927   3.563 -0.7769 -0.3508  0.1957
 2958SOL    HW120507   3.584   0.879   3.531 -1.7178 -1.2952 -0.6462
 2958SOL    HW220508   3.444   0.882   3.507 -0.4068  2.6086 -2.6205
 2959SOL     OW20509   4.094   2.347   5.769 -0.0900 -0.5929  0.2937
 2959SOL    HW120510   4.146   2.408   5.718 -1.5939 -0.2720 -0.8470
 2959SOL    HW220511   4.167   2.306   5.817  0.8045  0.0321 -0.5534
 2960SOL     OW20512   4.417   1.656   4.172 -0.5779  0.8704  0.0280
 2960SOL    HW120513   4.421   1.715   4.246 -0.1921  1.3216 -0.3532
 2960SOL    HW220514   4.348   1.595   4.197  0.7069 -1.4265 -1.9413
 2961SOL     OW20515   2.965   1.410   7.595  0.1049 -0.1162 -0.5426
 2961SOL    HW120516   2.914   1.491   7.604  0.5267  0.1278 -0.3408
 2961SOL    HW220517   3.012   1.405   7.678 -1.6494 -2.1352  0.3088
 2962SOL     OW20518   0.152   0.118   4.786  0.0627 -0.0615 -0.1056
 2962SOL    HW120519   0.244   0.102   4.809 -0.3910 -0.1162  1.7152
 2962SOL    HW220520   0.127   0.057   4.717  0.8686 -0.7767  0.2262
 2963SOL     OW20521   3.499   1.023   7.121 -0.1273  0.1905 -0.6117
 2963SOL    HW120522   3.404   1.010   7.117 -0.1870  1.0824 -1.9755
 2963SOL    HW220523   3.507   1.053   7.212 -2.0933  2.0998 -1.0866
 2964SOL     OW20524   0.562   0.478   8.042 -0.4934  0.0122  0.5190
 2964SOL    HW120525   0.554   0.478   7.947 -1.2876 -1.6102  0.5875
 2964SOL    HW220526   0.483   0.528   8.061 -1.0623  0.2656 -2.4342
 2965SOL     OW20527   2.596   1.315   2.178  0.3038 -0.0681  0.1156
 2965SOL    HW120528   2.624   1.253   2.110 -2.0141  0.0598 -0.9924
 2965SOL    HW220529   2.516   1.350   2.138  0.0531  0.0835  0.7584
 2966SOL     OW20530   4.420   1.827   4.430  0.3464  0.8524  0.2734
 2966SOL    HW120531   4.328   1.837   4.454  0.1909 -0.6842  0.3102
 2966SOL    HW220532   4.440   1.920   4.419 -0.8815  1.1344  0.4161
 2967SOL     OW20533   3.865   1.320   6.119  0.0589  0.3375 -0.0430
 2967SOL    HW120534   3.800   1.250   6.109  0.3783 -0.0031  0.2737
 2967SOL    HW220535   3.869   1.334   6.214  0.7761 -0.5433  0.0512
 2968SOL     OW20536   1.706   3.971  12.085  0.8569 -0.2649 -0.0412
 2968SOL    HW120537   1.695   3.877  12.099 -0.1423 -0.1093  0.2120
 2968SOL    HW220538   1.699   3.981  11.990 -1.2989  0.3455  0.1722
 2969SOL     OW20539   0.605   1.591  11.500 -0.4951  0.0453  0.2607
 2969SOL    HW120540   0.576   1.507  11.464 -1.1286  0.4918 -0.2672
 2969SOL    HW220541   0.699   1.570  11.502 -0.6482 -0.4662  2.2379
 2970SOL     OW20542   2.528   1.723  10.711 -0.4222 -0.4063  0.0833
 2970SOL    HW120543   2.451   1.769  10.677  0.1182  0.1662 -0.3851
 2970SOL    HW220544   2.584   1.792  10.747  0.9367 -0.4421 -1.9878
 2971SOL     OW20545   4.590   2.167   5.472  0.0852 -1.1880 -0.2078
 2971SOL    HW120546   4.642   2.144   5.549  1.4411  1.3395 -0.3453
 2971SOL    HW220547   4.611   2.098   5.410 -1.2375 -2.0149  0.2754
 2972SOL     OW20548   3.697   4.051   0.155 -0.3220  0.0808 -0.4128
 2972SOL    HW120549   3.727   4.113   0.222 -1.5867 -0.7054  0.9000
 2972SOL    HW220550   3.762   3.981   0.153 -2.1951 -1.7103  0.4473
 2973SOL     OW20551   3.805   0.686  11.503  0.7452  0.2166  0.4004
 2973SOL    HW120552   3.740   0.629  11.543  1.7109 -0.3670  1.1195
 2973SOL    HW220553   3.876   0.680  11.567  1.1390 -1.1283 -0.1578
 2974SOL     OW20554   3.196   2.769   1.617 -0.3800  0.3680 -0.2672
 2974SOL    HW120555   3.184   2.777   1.712  0.9076  1.5252 -0.2023
 2974SOL    HW220556   3.184   2.858   1.584  2.5704  1.5362  1.7643
 2975SOL     OW20557   0.652   0.257  16.477  0.2979  0.3305 -0.2008
 2975SOL    HW120558   0.718   0.307  16.430  0.1573  1.1196  0.4544
 2975SOL    HW220559   0.669   0.279  16.568 -1.0408  3.6435 -0.7545
 2976SOL     OW20560   0.157   4.709   1.981 -0.3436  0.8547 -0.7011
 2976SOL    HW120561   0.146   0.053   1.934  1.1884  1.0747 -0.6964
 2976SOL    HW220562   0.066   4.696   2.008 -0.0901  0.2889 -0.1188
 2977SOL     OW20563   2.988   2.479   6.154 -0.0266  0.0927  0.0112
 2977SOL    HW120564   2.915   2.447   6.102 -0.5310  1.1901  0.0559
 2977SOL    HW220565   2.961   2.450   6.241  0.5847  0.0095  0.1784
 2978SOL     OW20566   1.607   2.953   5.487 -0.2202 -0.2471 -0.3003
 2978SOL    HW120567   1.661   3.025   5.519 -2.0129  1.5362 -1.3056
 2978SOL    HW220568   1.675   2.887   5.473  0.8053  0.8088 -0.3221
 2979SOL     OW20569   3.935   0.366  12.299  0.1874  0.3949  0.0331
 2979SOL    HW120570   3.917   0.452  12.262  0.5711  0.1539 -0.7201
 2979SOL    HW220571   3.853   0.318  12.294  0.7832 -0.6831  0.5851
 2980SOL     OW20572   0.488   2.638   6.859 -0.1936  0.1648  0.0368
 2980SOL    HW120573   0.443   2.571   6.806  1.8373 -0.1560 -1.2625
 2980SOL    HW220574   0.575   2.648   6.820  0.2966  0.7168  1.3035
 2981SOL     OW20575   4.222   3.750  10.258  0.5663 -0.3195  0.3744
 2981SOL    HW120576   4.242   3.831  10.306  1.2922  0.6401 -1.5278
 2981SOL    HW220577   4.152   3.712  10.309  0.9906 -0.9471  0.4914
 2982SOL     OW20578   2.490   2.831   3.174 -0.1783  0.1011  0.4665
 2982SOL    HW120579   2.396   2.848   3.182 -0.1854  0.1806  0.2197
 2982SOL    HW220580   2.499   2.797   3.085 -0.5124  0.6561  0.2197
 2983SOL     OW20581   1.711   3.045   9.702  1.1490  0.3749 -0.5292
 2983SOL    HW120582   1.713   3.092   9.785 -2.6795 -0.5208  0.0995
 2983SOL    HW220583   1.801   3.025   9.676  1.3463  0.4472  0.1029
 2984SOL     OW20584   4.712   3.345   6.964 -0.1102 -0.1502  0.6370
 2984SOL    HW120585   4.650   3.278   6.935 -1.6486 -0.3839  4.4921
 2984SOL    HW220586   4.737   3.311   7.050  2.5633  3.3816  1.2917
 2985SOL     OW20587   4.107   2.319   4.157 -0.0329 -0.3528 -0.2300
 2985SOL    HW120588   4.034   2.351   4.210  0.0258 -1.1626  0.3475
 2985SOL    HW220589   4.142   2.255   4.219  0.8914  0.6644  0.2913
 2986SOL     OW20590   2.769   3.441   3.685  0.0302 -0.2814 -0.7807
 2986SOL    HW120591   2.790   3.357   3.725 -1.1587  0.4713  1.4560
 2986SOL    HW220592   2.842   3.448   3.624 -0.6870 -4.4788 -2.0730
 2987SOL     OW20593   2.650   1.111  16.989 -0.6070  0.2420 -0.5893
 2987SOL    HW120594   2.656   1.030  17.040 -3.0468  0.0950 -0.5361
 2987SOL    HW220595   2.720   1.160  17.030 -0.3049 -0.2360 -0.5397
 2988SOL     OW20596   3.385   1.774   4.953  0.6444 -0.0164 -0.2011
 2988SOL    HW120597   3.395   1.866   4.976 -1.2656  0.4483 -1.2648
 2988SOL    HW220598   3.469   1.734   4.978  0.5700 -0.7621 -1.1201
 2989SOL     OW20599   0.558   4.090  13.543  0.1551  0.1771 -0.2962
 2989SOL    HW120600   0.606   4.119  13.621  0.7420 -1.0808 -0.1889
 2989SOL    HW220601   0.485   4.151  13.545  0.3433  0.3779  0.7451
 2990SOL     OW20602   4.262   2.808   9.029  0.4384 -0.0215  0.2294
 2990SOL    HW120603   4.357   2.800   9.040  0.4506  0.0780  0.1979
 2990SOL    HW220604   4.225   2.747   9.093  2.1502 -2.2739 -0.9207
 2991SOL     OW20605   4.595   4.315   6.465  0.2511  0.2474 -0.1012
 2991SOL    HW120606   4.569   4.344   6.378  0.1473 -0.6112 -0.3605
 2991SOL    HW220607   4.524   4.349   6.520  1.1415  0.4227  0.9354
 2992SOL     OW20608   4.637   1.537   5.895  0.0391  0.7417  0.5579
 2992SOL    HW120609   4.725   1.535   5.931 -0.0432 -1.1511  0.6488
 2992SOL    HW220610   4.642   1.470   5.827  0.5779  1.6681 -0.3201
 2993SOL     OW20611   1.233   4.362   8.927 -0.0850  0.3077 -0.2292
 2993SOL    HW120612   1.308   4.421   8.930 -0.4768  0.7575  0.9162
 2993SOL    HW220613   1.238   4.345   8.833  1.0013 -0.1142 -0.0953
 2994SOL     OW20614   4.381   1.665   1.336  0.1586  0.4975 -0.6770
 2994SOL    HW120615   4.465   1.681   1.293  1.6159 -0.2506  1.9318
 2994SOL    HW220616   4.373   1.752   1.376 -2.2616  0.2970 -0.7259
 2995SOL     OW20617   0.646   0.831   4.356  0.0081 -0.4178  0.3225
 2995SOL    HW120618   0.725   0.800   4.400 -0.0589 -1.2044 -0.1074
 2995SOL    HW220619   0.631   0.762   4.291 -0.5661 -1.4784  1.5808
 2996SOL     OW20620   1.633   4.385  15.940  0.2952 -0.2517 -0.1802
 2996SOL    HW120621   1.672   4.457  15.990 -0.6088  1.8041 -2.3942
 2996SOL    HW220622   1.539   4.402  15.945  0.2467  0.0088 -1.7244
 2997SOL     OW20623   1.847   3.556   7.414 -0.0413 -0.5902  0.0894
 2997SOL    HW120624   1.909   3.576   7.484  0.2546  0.5894 -0.5087
 2997SOL    HW220625   1.820   3.469   7.441  2.1095 -0.7843  1.6113
 2998SOL     OW20626   3.908   1.451   3.101 -0.0463  0.3771 -0.3822
 2998SOL    HW120627   3.868   1.446   3.188  0.1698  1.1510 -0.2405
 2998SOL    HW220628   3.836   1.474   3.041  0.6740 -0.1746 -1.4621
 2999SOL     OW20629   3.130   4.552   5.072 -0.2807  0.1051 -0.3591
 2999SOL    HW120630   3.199   4.617   5.061 -0.0436 -0.3398 -1.5004
 2999SOL    HW220631   3.087   4.575   5.155 -0.0467 -1.3755  0.1623
 3000SOL     OW20632   3.124   1.907   4.234 -0.0470  0.1082  0.2554
 3000SOL    HW120633   3.165   1.860   4.306 -1.8513  0.2825  1.3875
 3000SOL    HW220634   3.035   1.888   4.264 -0.5959  2.7887  0.3457
 3001SOL     OW20635   1.547   2.000  16.561  0.0631  0.1324 -0.1240
 3001SOL    HW120636   1.578   1.916  16.529  2.7338  1.8243 -2.0036
 3001SOL    HW220637   1.457   1.974  16.578  0.1863 -1.0218 -1.2459
 3002SOL     OW20638   0.914   2.177   1.369  0.1011 -0.2657 -0.2147
 3002SOL    HW120639   0.980   2.146   1.431 -1.1005 -1.8083  0.2928
 3002SOL    HW220640   0.838   2.139   1.415  0.5602  0.3457  1.0688
 3003SOL     OW20641   4.040   4.578   0.098  0.0059 -0.0807  0.4926
 3003SOL    HW120642   3.997   4.660   0.076  1.4859  0.4607 -0.4217
 3003SOL    HW220643   4.008   4.530   0.021 -0.1595  1.3422 -0.3168
 3004SOL     OW20644   1.293   1.916   6.280  0.3634  0.8451 -0.3238
 3004SOL    HW120645   1.316   1.904   6.372  0.2806 -0.2278 -0.4414
 3004SOL    HW220646   1.198   1.915   6.284  0.4195  0.9308  0.8184
 3005SOL     OW20647   2.661   2.813   4.350 -0.3036  0.1383 -0.1015
 3005SOL    HW120648   2.645   2.719   4.338  0.5037 -0.0141 -0.0009
 3005SOL    HW220649   2.727   2.827   4.282 -1.9694  2.7765 -1.1497
 3006SOL     OW20650   4.611   1.840   6.155 -0.1649  0.0280  0.0515
 3006SOL    HW120651   4.661   1.905   6.105  0.9379 -1.5134 -0.8482
 3006SOL    HW220652   4.535   1.833   6.097 -0.4302  1.3002  0.2310
 3007SOL     OW20653   0.739   0.672   0.195  0.5913  0.0145 -0.0098
 3007SOL    HW120654   0.804   0.698   0.130 -0.1502  0.6082 -0.5256
 3007SOL    HW220655   0.659   0.712   0.161 -0.8388 -1.1894  1.9837
 3008SOL     OW20656   3.332   4.546  15.329  0.6011  0.0181 -0.0578
 3008SOL    HW120657   3.251   4.563  15.282 -1.5183 -0.2891  3.5512
 3008SOL    HW220658   3.325   4.453  15.349  1.9700 -0.6311 -2.5215
 3009SOL     OW20659   3.006   4.597   3.336  0.1155  0.2874 -0.5371
 3009SOL    HW120660   3.063   4.524   3.357 -0.9252 -0.3601  0.0652
 3009SOL    HW220661   3.045   4.622   3.252  2.4956 -0.8753  0.2303
 3010SOL     OW20662   2.059   0.369   3.292 -0.1980 -0.5615  0.1785
 3010SOL    HW120663   2.101   0.372   3.378 -0.9106 -0.1179  0.5124
 3010SOL    HW220664   1.999   0.295   3.296 -1.0799  0.2889  2.6232
 3011SOL     OW20665   0.657   1.434   7.952  0.2387  0.1951  0.0860
 3011SOL    HW120666   0.678   1.427   7.859  0.1325  2.5336 -0.1227
 3011SOL    HW220667   0.652   1.341   7.974 -1.1962  0.8383  2.5511
 3012SOL     OW20668   3.991   0.153  13.695  0.0242  0.3295 -0.4872
 3012SOL    HW120669   3.914   0.210  13.692 -0.4433 -0.1754  1.8671
 3012SOL    HW220670   4.064   0.209  13.723 -0.0507 -0.4103  1.1800
 3013SOL     OW20671   4.320   2.318   0.872 -0.4749 -0.3111 -0.0396
 3013SOL    HW120672   4.400   2.287   0.914  0.4939 -1.2388 -2.6219
 3013SOL    HW220673   4.346   2.317   0.781 -0.0914 -1.5056  0.0905
 3014SOL     OW20674   1.001   4.059   3.886 -0.0239  0.0670 -0.0544
 3014SOL    HW120675   0.935   4.036   3.821  0.4335 -0.1762 -0.4280
 3014SOL    HW220676   0.968   4.142   3.921 -1.8970 -0.5886 -0.2901
 3015SOL     OW20677   2.595   3.582  14.945 -0.5850  0.0168  0.8684
 3015SOL    HW120678   2.679   3.547  14.915 -0.4702  1.2063 -0.1657
 3015SOL    HW220679   2.590   3.674  14.921  1.6332 -0.8951 -3.0900
 3016SOL     OW20680   3.003   4.062   6.957  0.2146  0.1090 -0.6355
 3016SOL    HW120681   3.023   4.155   6.973  0.8222  0.1923 -1.8787
 3016SOL    HW220682   3.088   4.022   6.941  0.6361  0.2892  1.0578
 3017SOL     OW20683   1.007   1.958   0.190 -0.3485  0.4359  0.4386
 3017SOL    HW120684   1.087   1.912   0.213 -0.7665 -0.2087  0.5957
 3017SOL    HW220685   1.012   1.950   0.095  1.9077 -4.1045  0.9596
 3018SOL     OW20686   4.444   4.064   6.732  0.0925  0.0257  0.1694
 3018SOL    HW120687   4.353   4.038   6.715 -0.5078  0.7405  2.3507
 3018SOL    HW220688   4.439   4.071   6.827 -0.1980  2.9678 -0.0657
 3019SOL     OW20689   2.898   0.949   8.406 -0.5032 -0.1770  0.0685
 3019SOL    HW120690   2.951   0.973   8.329 -1.2964  0.4255 -0.2861
 3019SOL    HW220691   2.912   0.854   8.402  1.8015  0.1684 -0.0076
 3020SOL     OW20692   4.394   0.218   6.557  0.1664 -0.2779  0.0522
 3020SOL    HW120693   4.479   0.177   6.544  0.5557  0.8123 -0.8201
 3020SOL    HW220694   4.335   0.143   6.559  1.0272 -0.9541 -0.2141
 3021SOL     OW20695   2.489   2.667   7.871 -0.0795 -0.4601 -0.1089
 3021SOL    HW120696   2.562   2.665   7.933 -2.5159 -0.4727  2.7600
 3021SOL    HW220697   2.529   2.637   7.790  0.8243 -0.3790  0.3128
 3022SOL     OW20698   3.435   2.288   9.335 -0.4048  0.1299  0.1990
 3022SOL    HW120699   3.381   2.280   9.256 -1.3092 -0.8655  0.9062
 3022SOL    HW220700   3.496   2.214   9.331 -0.4077  0.1143  0.4196
 3023SOL     OW20701   1.508   3.886   7.086 -0.0817  0.1290 -0.1974
 3023SOL    HW120702   1.535   3.796   7.104 -2.9120 -0.3409  1.8296
 3023SOL    HW220703   1.567   3.937   7.142  1.2211 -1.2679 -0.2952
 3024SOL     OW20704   2.802   4.733  12.739 -0.2379 -0.5723  0.2193
 3024SOL    HW120705   2.835   0.085  12.732  0.8942 -0.8883  1.5945
 3024SOL    HW220706   2.866   4.692  12.796  0.9654 -1.3199 -1.7072
 3025SOL     OW20707   3.543   2.787   1.609  0.2558  0.1263  0.3723
 3025SOL    HW120708   3.629   2.747   1.623  0.7873  0.5299 -1.8218
 3025SOL    HW220709   3.483   2.712   1.604  2.5438 -1.5914 -0.9676
 3026SOL     OW20710   2.175   3.559   1.789  0.3737  0.1745 -0.0708
 3026SOL    HW120711   2.267   3.567   1.812  0.3416 -2.0677  0.8269
 3026SOL    HW220712   2.172   3.465   1.774  1.4395 -0.0485  1.1643
 3027SOL     OW20713   3.075   3.174   7.036 -0.2970  0.2579  0.2013
 3027SOL    HW120714   3.054   3.088   7.073 -0.1870  0.2507  0.2458
 3027SOL    HW220715   3.153   3.157   6.984  1.5036 -0.9100  3.2929
 3028SOL     OW20716   3.258   3.107   7.922  0.2624  0.0746 -0.3545
 3028SOL    HW120717   3.333   3.152   7.882 -0.1845  1.8402  0.7925
 3028SOL    HW220718   3.215   3.190   7.942  0.5991 -0.0297  0.7914
 3029SOL     OW20719   1.316   3.875   1.880  0.6762  0.6123 -0.0001
 3029SOL    HW120720   1.410   3.890   1.891  1.3687 -1.3905 -3.2646
 3029SOL    HW220721   1.283   3.933   1.949 -2.8396 -0.6071 -0.6606
 3030SOL     OW20722   1.114   3.027   6.308  0.5664 -0.3654  0.3410
 3030SOL    HW120723   1.125   3.080   6.229 -0.0458  0.5995  0.9073
 3030SOL    HW220724   1.157   3.079   6.376 -0.9011 -0.3601  1.2773
 3031SOL     OW20725   0.643   2.682   4.771 -0.1571  0.0417 -0.0284
 3031SOL    HW120726   0.693   2.679   4.690 -1.3171  1.6385 -0.8232
 3031SOL    HW220727   0.698   2.630   4.829 -0.7502  0.0427  0.5390
 3032SOL     OW20728   1.179   2.250   9.571 -0.7208  0.1999 -0.3791
 3032SOL    HW120729   1.148   2.268   9.660  0.7321  1.2782 -0.0954
 3032SOL    HW220730   1.099   2.208   9.539 -1.2962  2.7948 -2.2682
 3033SOL     OW20731   1.073   4.159   2.419 -0.0228 -0.2382 -0.4634
 3033SOL    HW120732   1.108   4.223   2.481  1.8194 -1.4969 -0.2137
 3033SOL    HW220733   1.040   4.093   2.480  0.5621  0.6393  0.8146
 3034SOL     OW20734   3.361   3.436   8.541 -0.3217  0.1400 -0.3141
 3034SOL    HW120735   3.388   3.512   8.488 -0.4502  0.5973  0.2715
 3034SOL    HW220736   3.331   3.492   8.613  0.8668  0.8803 -0.3886
 3035SOL     OW20737   2.318   1.903   8.802  0.4303 -0.4864  0.2345
 3035SOL    HW120738   2.395   1.848   8.789  0.2559 -0.0765 -2.4812
 3035SOL    HW220739   2.333   1.979   8.747  1.9023 -1.6230 -0.9404
 3036SOL     OW20740   4.531   0.964  10.042 -0.0548 -0.1923 -0.2254
 3036SOL    HW120741   4.472   1.039  10.048 -2.6296 -2.4889  2.5796
 3036SOL    HW220742   4.559   0.972   9.950 -0.6854  1.6729 -0.2718
 3037SOL     OW20743   1.593   2.973   7.750 -0.0266 -0.3737 -0.0355
 3037SOL    HW120744   1.661   2.948   7.688  0.9572  1.4869  0.2794
 3037SOL    HW220745   1.603   2.910   7.821  0.1386 -0.6696 -0.3225
 3038SOL     OW20746   3.031   3.787   7.267  0.1416 -0.2810 -0.2381
 3038SOL    HW120747   3.040   3.763   7.175  0.5998  0.4724 -0.3934
 3038SOL    HW220748   2.968   3.721   7.294  0.7669 -0.7670  0.0429
 3039SOL     OW20749   2.085   0.186   9.093  0.2883 -0.3489  0.2598
 3039SOL    HW120750   2.173   0.158   9.069  0.3853 -1.8853  2.4417
 3039SOL    HW220751   2.072   0.262   9.036  1.5531 -0.9102 -0.7593
 3040SOL     OW20752   4.392   4.052   0.328  0.4363  0.0126  0.4026
 3040SOL    HW120753   4.417   4.119   0.392 -1.2402  1.8569 -0.8674
 3040SOL    HW220754   4.473   4.000   0.330  1.7812  2.1700  2.5150
 3041SOL     OW20755   4.018   2.300   4.973  0.1986  0.0878  0.0794
 3041SOL    HW120756   4.045   2.220   4.928  1.5353  1.1014 -0.9384
 3041SOL    HW220757   4.101   2.321   5.016  0.3731  0.9631 -0.6728
 3042SOL     OW20758   4.601   4.726   2.275 -0.2680  0.0439 -0.9806
 3042SOL    HW120759   4.509   0.014   2.267  0.0137  1.1808 -0.4663
 3042SOL    HW220760   4.608   0.035   2.358 -2.9586 -3.1323  1.0617
 3043SOL     OW20761   0.134   3.040   6.019 -0.2466 -0.2547 -0.0560
 3043SOL    HW120762   0.130   3.130   6.052 -2.9892 -0.5997  0.5369
 3043SOL    HW220763   0.195   2.994   6.076  0.3659  0.4243 -0.1575
 3044SOL     OW20764   4.277   0.283  12.021  0.4035  0.2721 -0.0107
 3044SOL    HW120765   4.317   0.216  11.965 -0.5956  1.0485 -1.6691
 3044SOL    HW220766   4.270   0.336  11.942 -0.1797  0.9834  0.5258
 3045SOL     OW20767   1.078   2.221   1.987 -0.4418  0.5685  0.0173
 3045SOL    HW120768   1.004   2.161   1.977  0.3800 -1.0092  3.5130
 3045SOL    HW220769   1.056   2.251   2.075 -1.8707  0.3717 -0.2775
 3046SOL     OW20770   0.203   0.614   4.787  0.2974 -0.3067  0.3980
 3046SOL    HW120771   0.166   0.586   4.703 -0.8565 -0.5695  0.9974
 3046SOL    HW220772   0.175   0.544   4.845 -0.6537  1.0505  1.5827
 3047SOL     OW20773   0.329   1.351   6.426 -0.2432 -0.0831 -0.2856
 3047SOL    HW120774   0.312   1.321   6.337  1.2460  0.5671 -0.7870
 3047SOL    HW220775   0.338   1.445   6.410  0.5440 -0.1569 -0.2888
 3048SOL     OW20776   3.747   2.945   6.307 -0.6606 -0.4887  0.7896
 3048SOL    HW120777   3.801   3.024   6.303 -1.5101  0.1101  1.4302
 3048SOL    HW220778   3.677   2.984   6.255  0.6935  1.8552  0.7332
 3049SOL     OW20779   0.940   2.358  13.053 -0.0910  0.2071 -0.5184
 3049SOL    HW120780   0.859   2.399  13.081 -0.4955  0.0493 -1.4981
 3049SOL    HW220781   0.920   2.268  13.081 -1.2472 -0.0378 -2.1957
 3050SOL     OW20782   2.571   0.865   0.117  0.0334 -0.4211  0.4698
 3050SOL    HW120783   2.574   0.943   0.061 -0.6355 -0.5560  0.2460
 3050SOL    HW220784   2.652   0.824   0.088  0.4410 -0.5364  1.7554
 3051SOL     OW20785   3.880   3.648   3.822 -0.0412  0.7962  0.6070
 3051SOL    HW120786   3.864   3.592   3.898 -2.4558  2.3529  1.2737
 3051SOL    HW220787   3.872   3.590   3.746 -0.6764 -1.2856  2.2424
 3052SOL     OW20788   4.337   3.317   8.393  0.3582  0.7919  0.5516
 3052SOL    HW120789   4.282   3.344   8.319 -0.2843  0.9347  1.0882
 3052SOL    HW220790   4.307   3.227   8.403  1.0693  0.5024  0.1035
 3053SOL     OW20791   2.014   4.300  12.053  0.2364 -0.3224 -0.8036
 3053SOL    HW120792   2.014   4.214  12.010  0.9491 -0.2030 -1.0400
 3053SOL    HW220793   2.106   4.288  12.077  0.4044  2.3733 -0.1504
 3054SOL     OW20794   3.794   3.673   6.528  0.4616  0.2125  0.1565
 3054SOL    HW120795   3.714   3.703   6.485  0.1101 -0.7127  0.1764
 3054SOL    HW220796   3.851   3.750   6.520 -0.4466  0.6566 -1.8705
 3055SOL     OW20797   0.764   1.505  10.010  0.4301  0.3812  0.3004
 3055SOL    HW120798   0.749   1.437  10.076  1.7203  1.1446  1.4007
 3055SOL    HW220799   0.716   1.577  10.050 -0.4293 -0.9034  1.6027
 3056SOL     OW20800   0.997   2.161   3.083 -0.0412  0.1078  0.1585
 3056SOL    HW120801   0.983   2.071   3.053 -2.8765  0.9334 -0.9847
 3056SOL    HW220802   1.090   2.170   3.063  0.4290  1.5525  2.9720
 3057SOL     OW20803   1.372   2.734   5.590 -0.5422  0.0389 -0.2463
 3057SOL    HW120804   1.425   2.696   5.519 -1.0650 -0.1163 -0.5504
 3057SOL    HW220805   1.372   2.656   5.645  0.2795  0.1622 -0.0694
 3058SOL     OW20806   1.688   2.679   3.909  0.0475  0.3883  0.0157
 3058SOL    HW120807   1.751   2.611   3.934  0.5419  0.2058 -1.7295
 3058SOL    HW220808   1.705   2.683   3.815  1.4369 -0.1883  0.2333
 3059SOL     OW20809   0.027   1.243   3.576  0.1707  0.1067 -0.1952
 3059SOL    HW120810   0.031   1.311   3.508 -0.4806 -0.2570 -0.5898
 3059SOL    HW220811   4.677   1.216   3.551 -0.3118  1.5295 -0.0509
 3060SOL     OW20812   4.153   0.188   9.049 -0.1779 -0.0230  0.6037
 3060SOL    HW120813   4.170   0.272   9.092 -0.7133 -0.7626  2.2383
 3060SOL    HW220814   4.220   0.183   8.980  1.6455 -1.5326  2.4869
 3061SOL     OW20815   2.314   3.797   5.301 -0.0029 -0.2367  0.1941
 3061SOL    HW120816   2.229   3.771   5.266  0.4814 -0.4754 -0.7807
 3061SOL    HW220817   2.291   3.855   5.374 -1.7240  0.2007 -0.7013
 3062SOL     OW20818   4.569   4.396   6.194 -0.0758 -0.1277 -0.0532
 3062SOL    HW120819   4.496   4.343   6.163 -1.0859  0.5902  1.1123
 3062SOL    HW220820   4.643   4.340   6.169 -0.5502 -0.7761 -0.0001
 3063SOL     OW20821   2.850   4.201   9.005  0.2951 -0.3945  0.1922
 3063SOL    HW120822   2.884   4.256   8.935 -3.7946  2.0752  0.1861
 3063SOL    HW220823   2.771   4.168   8.963  1.6027 -0.1077 -2.5115
 3064SOL     OW20824   1.045   1.935   5.444  0.3369  0.2260 -0.2660
 3064SOL    HW120825   1.120   1.930   5.504  1.1139  1.1776 -1.1443
 3064SOL    HW220826   0.980   1.959   5.510  3.2221  0.8697  2.3674
 3065SOL     OW20827   1.241   0.935   2.873 -0.1904 -0.0446  0.0041
 3065SOL    HW120828   1.175   0.998   2.845  0.7800  0.3713 -1.3224
 3065SOL    HW220829   1.221   0.919   2.965  1.3411 -2.2607 -0.0401
 3066SOL     OW20830   2.650   2.727  13.753 -0.2401 -0.2844 -0.4259
 3066SOL    HW120831   2.641   2.809  13.704 -0.1461 -0.2959 -0.4626
 3066SOL    HW220832   2.672   2.767  13.836  3.6177 -1.7338 -0.7445
 3067SOL     OW20833   3.831   2.772  16.020  0.0855  0.4020 -0.1409
 3067SOL    HW120834   3.824   2.729  15.934 -1.8309 -0.6871  0.5565
 3067SOL    HW220835   3.752   2.826  16.010  0.2057  0.3786 -1.2940
 3068SOL     OW20836   3.709   1.782  13.851  0.2974  0.3652 -0.0966
 3068SOL    HW120837   3.790   1.763  13.897  1.0987 -0.1157 -1.7231
 3068SOL    HW220838   3.653   1.710  13.881 -1.7940  1.6438 -0.8514
 3069SOL     OW20839   2.972   0.572  12.893 -0.1175 -0.1497 -0.7433
 3069SOL    HW120840   3.062   0.545  12.873  0.8528  1.9512  0.8126
 3069SOL    HW220841   2.927   0.552  12.811  0.8797 -1.4314 -0.9653
 3070SOL     OW20842   3.604   0.081   1.340  0.4534 -0.3285  0.7384
 3070SOL    HW120843   3.538   0.089   1.271 -0.9359 -1.8310  1.8767
 3070SOL    HW220844   3.596   4.725   1.359 -0.9166  0.0285  1.9156
 3071SOL     OW20845   3.627   3.690   7.228  0.0891  0.4172 -0.2701
 3071SOL    HW120846   3.563   3.667   7.296 -1.0216 -2.0967 -2.1543
 3071SOL    HW220847   3.575   3.708   7.150  1.7899  1.6184 -1.1366
 3072SOL     OW20848   3.702   4.573  17.187 -0.0541 -0.2756  0.1609
 3072SOL    HW120849   3.781   4.547  17.235 -0.5188  0.6103  1.4089
 3072SOL    HW220850   3.726   4.666  17.179 -0.5390 -0.1142  0.5532
 3073SOL     OW20851   2.776   1.978  12.042  0.0986  0.1299  0.6645
 3073SOL    HW120852   2.822   1.907  12.085  1.3103 -0.6906 -1.9440
 3073SOL    HW220853   2.851   2.038  12.046 -0.6227  1.1041 -0.1942
 3074SOL     OW20854   4.597   4.197  17.286 -0.0900  0.2824  0.0907
 3074SOL    HW120855   4.518   4.154  17.317  0.7745  0.1282  2.0580
 3074SOL    HW220856   4.610   4.257  17.360  1.3962 -1.2893  1.0912
 3075SOL     OW20857   0.565   2.572   3.275  0.2266  0.2640  0.3180
 3075SOL    HW120858   0.653   2.568   3.238 -0.2672  0.5582 -0.9164
 3075SOL    HW220859   0.574   2.514   3.350 -0.3069  1.5975  1.4022
 3076SOL     OW20860   4.337   0.808   4.624 -0.0697 -0.1504 -0.0426
 3076SOL    HW120861   4.365   0.865   4.552 -0.8422  1.2929  0.8165
 3076SOL    HW220862   4.246   0.837   4.632  0.0234 -0.3003  1.4316
 3077SOL     OW20863   0.015   2.641   5.971  0.1228 -0.6585  0.2557
 3077SOL    HW120864   0.046   2.692   5.895 -0.7225 -1.0104 -0.3188
 3077SOL    HW220865   4.712   2.568   5.925 -3.8457  1.4162  0.5166
 3078SOL     OW20866   3.744   1.802   5.938  0.3942  0.5350 -0.1594
 3078SOL    HW120867   3.707   1.843   6.016 -0.1616  1.1446 -0.7354
 3078SOL    HW220868   3.674   1.820   5.875  0.8647  1.3098 -0.4584
 3079SOL     OW20869   4.041   1.938   9.376  0.0873  0.3909 -0.4412
 3079SOL    HW120870   4.101   1.956   9.449  2.1025  0.7370 -2.1667
 3079SOL    HW220871   4.056   1.845   9.360 -1.4989  0.2832 -1.2955
 3080SOL     OW20872   2.360   0.771   6.458 -0.3821  0.3407 -0.5036
 3080SOL    HW120873   2.435   0.831   6.457 -0.9461  1.0371 -1.2096
 3080SOL    HW220874   2.321   0.796   6.541  1.9777  1.3855  0.2825
 3081SOL     OW20875   2.435   0.575   6.744 -0.0892 -0.0826  0.1584
 3081SOL    HW120876   2.481   0.587   6.661 -1.2795 -2.1113 -0.8028
 3081SOL    HW220877   2.369   0.508   6.726 -1.0174  0.1343  2.6908
 3082SOL     OW20878   4.649   2.089   1.329 -0.2147  0.5276  0.5971
 3082SOL    HW120879   4.730   2.044   1.352  0.6491  1.3932 -0.7723
 3082SOL    HW220880   4.664   2.168   1.381  2.5883  1.8320 -2.2064
 3083SOL     OW20881   4.338   1.017   0.665  0.8281 -0.8014  0.4385
 3083SOL    HW120882   4.284   1.020   0.744  1.0984 -0.7763  0.6202
 3083SOL    HW220883   4.288   1.075   0.608  0.3928 -1.7846 -0.1926
 3084SOL     OW20884   3.040   3.811  10.240 -0.5743  0.0782  0.7072
 3084SOL    HW120885   2.991   3.799  10.322 -0.7069  2.0246  0.9112
 3084SOL    HW220886   3.005   3.729  10.206 -0.1944  0.3326 -0.2901
 3085SOL     OW20887   2.047   4.522  14.763 -0.3116 -0.4631  0.6892
 3085SOL    HW120888   1.991   4.505  14.688 -0.8806  0.3773  0.9255
 3085SOL    HW220889   2.016   4.458  14.826  1.0823 -1.1165  0.7027
 3086SOL     OW20890   2.075   3.718   5.570  0.3711  0.1798  0.7166
 3086SOL    HW120891   2.143   3.706   5.637  1.3064 -1.1407 -0.4547
 3086SOL    HW220892   2.008   3.652   5.588  0.7579 -1.2414 -2.9866
 3087SOL     OW20893   1.113   1.631  14.060  0.7193  0.4337  0.6032
 3087SOL    HW120894   1.155   1.552  14.026 -1.5806 -0.4088 -0.2238
 3087SOL    HW220895   1.135   1.697  13.995 -2.7373 -0.5409 -1.5356
 3088SOL     OW20896   0.251   3.253   7.253  0.7460 -0.3546 -0.1442
 3088SOL    HW120897   0.305   3.214   7.184  0.5752 -1.9587  0.6296
 3088SOL    HW220898   0.163   3.225   7.229  1.1901 -1.5272 -0.4058
 3089SOL     OW20899   4.576   2.049   7.928 -0.1261 -0.7347 -0.1543
 3089SOL    HW120900   4.557   1.979   7.865  0.8280 -2.2619  1.2709
 3089SOL    HW220901   4.650   2.091   7.884 -0.6495  0.2313 -0.1287
 3090SOL     OW20902   0.962   3.147  13.868  0.1432 -0.4435  0.0598
 3090SOL    HW120903   1.056   3.163  13.871  0.1123 -0.6068  2.1990
 3090SOL    HW220904   0.923   3.234  13.877  2.4730  0.5461  0.7016
 3091SOL     OW20905   0.572   1.666   2.149 -0.5257  0.2981 -0.3768
 3091SOL    HW120906   0.558   1.597   2.084 -0.6248  0.6587 -0.7435
 3091SOL    HW220907   0.505   1.646   2.215  0.0299 -3.3084 -0.8878
 3092SOL     OW20908   2.330   4.083   1.857 -0.2615  0.0288 -0.7360
 3092SOL    HW120909   2.272   4.013   1.885  1.8240  0.5281  4.7422
 3092SOL    HW220910   2.298   4.158   1.907  0.8108 -0.1855  0.2594
 3093SOL     OW20911   0.799   1.170   9.344  0.7831  0.0815 -0.0438
 3093SOL    HW120912   0.822   1.212   9.261  1.5985  0.6736  0.4960
 3093SOL    HW220913   0.707   1.197   9.342  0.1026 -2.2162  0.3003
 3094SOL     OW20914   3.232   3.152   6.510  0.0267  0.0645  0.5056
 3094SOL    HW120915   3.299   3.120   6.449  0.4807  1.8619  0.0802
 3094SOL    HW220916   3.161   3.089   6.499 -2.5924  3.2153 -0.4304
 3095SOL     OW20917   0.130   0.948   2.442  0.4898  0.0092  0.1361
 3095SOL    HW120918   0.051   0.924   2.393 -0.3155 -0.5858  1.7300
 3095SOL    HW220919   0.097   0.963   2.530 -0.2683 -2.1400  0.2166
 3096SOL     OW20920   3.473   3.631  10.357 -0.3924  0.1722  0.1066
 3096SOL    HW120921   3.396   3.592  10.399 -0.9978  0.7114 -0.5057
 3096SOL    HW220922   3.540   3.566  10.377  0.8404  2.1918  2.5586
 3097SOL     OW20923   2.439   1.466  11.904 -0.5266  0.0235 -0.1461
 3097SOL    HW120924   2.496   1.465  11.827 -2.7103 -0.3342 -1.7635
 3097SOL    HW220925   2.503   1.423  11.961 -0.1676  1.1488  0.3155
 3098SOL     OW20926   1.025   4.444   8.341 -0.0117  0.6350 -0.1127
 3098SOL    HW120927   1.080   4.516   8.308  1.3213 -1.2286 -1.9726
 3098SOL    HW220928   0.978   4.428   8.259 -0.6416 -0.3775  0.4496
 3099SOL     OW20929   1.671   1.696   7.638 -0.0632  0.2086 -0.1022
 3099SOL    HW120930   1.629   1.636   7.700 -0.1176 -0.8230 -1.1362
 3099SOL    HW220931   1.598   1.727   7.584  0.4228 -1.8051 -1.9241
 3100SOL     OW20932   1.586   3.775   7.398 -0.1780  0.0871 -0.1780
 3100SOL    HW120933   1.645   3.748   7.468 -1.0761  3.4603  1.9044
 3100SOL    HW220934   1.602   3.719   7.322  0.0465 -0.1377  0.0390
 3101SOL     OW20935   1.371   1.850   3.025  0.5788  0.2189  0.2092
 3101SOL    HW120936   1.346   1.798   3.101 -0.2022  0.2753 -0.0150
 3101SOL    HW220937   1.451   1.880   3.069  0.1358 -1.9309  2.4591
 3102SOL     OW20938   2.924   3.744  10.521  0.3465  0.3799  0.4173
 3102SOL    HW120939   3.000   3.774  10.571  0.4856  1.1304 -0.2498
 3102SOL    HW220940   2.847   3.765  10.574 -0.0922  0.1395 -0.1270
 3103SOL     OW20941   4.633   3.126   5.671  0.4399  0.1639  0.0802
 3103SOL    HW120942   4.616   3.086   5.586  1.5018 -2.3650  1.0547
 3103SOL    HW220943   4.647   3.047   5.723 -1.0815 -1.2643 -1.7032
 3104SOL     OW20944   0.843   4.395   5.287 -0.3765 -0.5848 -0.0320
 3104SOL    HW120945   0.861   4.305   5.314 -1.2995 -1.1922 -1.4732
 3104SOL    HW220946   0.861   4.408   5.194  1.3397 -0.4857  0.3112
 3105SOL     OW20947   3.489   3.645   6.051 -0.1478 -0.3841  0.6186
 3105SOL    HW120948   3.469   3.574   6.112 -0.1909 -0.6683  0.2719
 3105SOL    HW220949   3.419   3.702   6.081  1.8223  1.6903  1.2620
 3106SOL     OW20950   0.029   4.531   3.272  0.4064  0.0212  0.5525
 3106SOL    HW120951   0.065   4.547   3.185  1.3884  2.4601  1.4092
 3106SOL    HW220952   4.674   4.521   3.250  0.5241  1.9683 -0.8934
 3107SOL     OW20953   1.097   0.576   3.698  0.4750  0.2379  0.3087
 3107SOL    HW120954   1.089   0.612   3.786  0.5758 -0.0609  0.4420
 3107SOL    HW220955   1.180   0.528   3.710  0.0437 -0.6503 -0.2926
 3108SOL     OW20956   3.119   2.628   2.852 -0.4469 -0.2381 -0.0305
 3108SOL    HW120957   3.034   2.585   2.841 -1.6649  2.5189 -1.2189
 3108SOL    HW220958   3.176   2.552   2.841  1.1851  1.2152 -1.5327
 3109SOL     OW20959   1.363   3.536   7.571 -0.2778 -0.1337 -0.4361
 3109SOL    HW120960   1.438   3.596   7.564  1.4332 -2.0756  1.0158
 3109SOL    HW220961   1.361   3.501   7.482 -0.5165  2.2778 -1.3736
 3110SOL     OW20962   3.435   0.669   2.394 -0.0905 -0.2410 -0.2951
 3110SOL    HW120963   3.412   0.712   2.476  1.2968  1.0018 -0.5499
 3110SOL    HW220964   3.444   0.580   2.428 -3.1218 -0.4206  0.0212
 3111SOL     OW20965   1.424   1.444  16.926  0.3921  0.0553  0.0646
 3111SOL    HW120966   1.442   1.406  17.012 -0.7503  2.4924  1.3759
 3111SOL    HW220967   1.515   1.456  16.899  0.3817  0.3135  0.1398
 3112SOL     OW20968   3.518   2.412   1.719  0.1804 -0.3242  0.2077
 3112SOL    HW120969   3.496   2.455   1.636 -1.2183  0.0403  0.7756
 3112SOL    HW220970   3.447   2.348   1.719 -0.0256 -0.1016 -0.0723
 3113SOL     OW20971   4.172   1.100   8.604  0.0174  0.2292  0.1853
 3113SOL    HW120972   4.151   1.073   8.693 -2.0478  2.6947  0.4367
 3113SOL    HW220973   4.254   1.058   8.579 -1.9037 -3.0489 -0.6177
 3114SOL     OW20974   3.734   4.002   7.625  0.0408 -0.4296 -0.1817
 3114SOL    HW120975   3.828   4.003   7.641  0.2292 -0.3415 -1.2964
 3114SOL    HW220976   3.727   3.908   7.606  0.2239 -0.5913  0.5629
 3115SOL     OW20977   3.653   3.047   2.434 -0.3807  0.3944  0.4007
 3115SOL    HW120978   3.595   3.092   2.372  0.7003  1.7839  0.3971
 3115SOL    HW220979   3.643   3.099   2.513 -1.1580  1.1949 -0.2331
 3116SOL     OW20980   0.809   3.030  16.553 -0.2868 -0.5322 -0.2614
 3116SOL    HW120981   0.715   3.041  16.569 -0.8829  0.9663 -4.5271
 3116SOL    HW220982   0.841   3.105  16.604  1.1401 -0.5711 -1.1025
 3117SOL     OW20983   4.599   3.414   0.484  0.4354  0.1150 -0.1552
 3117SOL    HW120984   4.621   3.329   0.522  1.1360  0.4397  0.1748
 3117SOL    HW220985   4.539   3.450   0.550  1.2944 -3.2849  2.5062
 3118SOL     OW20986   0.931   0.323   5.448  0.3110 -0.1738 -0.4814
 3118SOL    HW120987   0.965   0.241   5.410 -1.5940 -1.2110  0.0113
 3118SOL    HW220988   0.953   0.300   5.538 -0.3930 -1.7211 -0.6883
 3119SOL     OW20989   3.898   4.659   2.835  0.4752  0.0028 -0.2223
 3119SOL    HW120990   3.848   4.577   2.831 -1.2888  1.0464  0.7437
 3119SOL    HW220991   3.969   4.633   2.894 -1.2644 -3.3666  0.4264
 3120SOL     OW20992   3.962   2.375   3.558 -0.1298  0.3200  0.2079
 3120SOL    HW120993   3.955   2.280   3.547  2.1207 -0.0037  1.4977
 3120SOL    HW220994   4.047   2.377   3.602 -0.3231  2.3362  0.5037
 3121SOL     OW20995   0.388   0.385   1.308  0.1361 -0.2497  0.6163
 3121SOL    HW120996   0.348   0.358   1.391 -0.5015 -0.3332  0.2855
 3121SOL    HW220997   0.336   0.338   1.242 -1.7767  0.6255  1.4935
 3122SOL     OW20998   0.566   4.030  13.224  0.3952 -0.0043 -0.3607
 3122SOL    HW120999   0.598   3.967  13.289  1.3282 -1.5889 -2.3686
 3122SOL    HW221000   0.633   4.099  13.223 -0.0265  0.4011 -0.7640
 3123SOL     OW21001   2.857   1.771   8.087  0.4371 -0.0979 -0.7993
 3123SOL    HW121002   2.773   1.780   8.041  1.3011 -0.5987 -2.4699
 3123SOL    HW221003   2.864   1.677   8.103  0.2806 -0.0807 -0.6177
 3124SOL     OW21004   0.305   1.142   3.678 -0.1365  0.3511  0.2729
 3124SOL    HW121005   0.355   1.215   3.642 -0.2354 -0.3252 -1.2451
 3124SOL    HW221006   0.214   1.147   3.649 -0.0793  0.5373  0.1249
 3125SOL     OW21007   3.379   0.383   0.784 -0.5252  0.4569  0.8541
 3125SOL    HW121008   3.456   0.326   0.770 -0.6466  1.0229 -2.1137
 3125SOL    HW221009   3.306   0.322   0.772 -0.2840  0.2726  0.2937
 3126SOL     OW21010   2.981   0.549  14.821 -0.3678  0.7383  0.3654
 3126SOL    HW121011   3.010   0.462  14.792 -2.5646  0.9383 -2.3998
 3126SOL    HW221012   3.003   0.601  14.743  3.6581 -0.2442  0.8109
 3127SOL     OW21013   2.643   0.030   5.090 -0.2865  0.8492 -0.5511
 3127SOL    HW121014   2.550   0.010   5.096 -0.5071  1.7063 -1.0923
 3127SOL    HW221015   2.650   0.008   4.997  0.0789 -1.2580 -0.0117
 3128SOL     OW21016   0.274   0.539   6.285  0.1416  0.8468 -0.6039
 3128SOL    HW121017   0.204   0.600   6.309 -0.2337  0.1625  0.0472
 3128SOL    HW221018   0.338   0.565   6.350 -2.4697  3.2140  1.0050
 3129SOL     OW21019   4.042   3.631   9.499 -0.0280 -0.2467 -0.4612
 3129SOL    HW121020   3.998   3.634   9.414 -0.9268 -1.3003 -0.0299
 3129SOL    HW221021   3.971   3.626   9.562  0.2337 -2.7287 -0.3566
 3130SOL     OW21022   4.417   3.507   0.670  0.4866 -0.1939  0.5939
 3130SOL    HW121023   4.394   3.502   0.762  1.2077  0.2043  0.7977
 3130SOL    HW221024   4.448   3.596   0.652 -1.9780  1.1958  3.3812
 3131SOL     OW21025   3.834   3.576  16.966 -0.2846 -0.0447 -0.3744
 3131SOL    HW121026   3.756   3.540  17.009  0.4806  1.2778  2.1313
 3131SOL    HW221027   3.904   3.569  17.031 -0.9858  0.5615  0.4389
 3132SOL     OW21028   1.254   3.339  13.806  0.2086  0.6642  0.1503
 3132SOL    HW121029   1.209   3.420  13.785 -0.3767  0.2895 -0.0286
 3132SOL    HW221030   1.214   3.279  13.743  1.0172  2.8439 -2.4489
 3133SOL     OW21031   1.948   2.049   1.107  0.4039  0.1324 -0.2222
 3133SOL    HW121032   2.002   2.127   1.113  1.5154 -0.6444 -0.1952
 3133SOL    HW221033   1.866   2.082   1.069 -0.4054  1.6484  2.8490
 3134SOL     OW21034   2.408   3.356   7.836  0.1426 -0.3795 -0.0262
 3134SOL    HW121035   2.354   3.316   7.904  0.3074 -0.5704 -0.0040
 3134SOL    HW221036   2.452   3.277   7.804  1.5609  0.5698 -0.4143
 3135SOL     OW21037   0.375   2.326  10.381  0.0193 -0.1561  0.2786
 3135SOL    HW121038   0.449   2.355  10.435  1.7708  0.0884 -2.2445
 3135SOL    HW221039   0.300   2.367  10.423  0.2719  0.1800  0.4082
 3136SOL     OW21040   4.264   0.022   7.850 -0.4162 -0.0303  0.0289
 3136SOL    HW121041   4.330   4.704   7.891 -0.0367  0.4655  0.1116
 3136SOL    HW221042   4.311   0.106   7.852  0.2938 -0.3642 -2.9268
 3137SOL     OW21043   1.328   4.500   2.526  0.1436 -0.1043  0.1560
 3137SOL    HW121044   1.333   4.406   2.513 -0.8514 -0.4503  2.1942
 3137SOL    HW221045   1.319   4.538   2.439 -0.8185 -1.1807 -0.2061
 3138SOL     OW21046   1.379   0.686   2.425 -0.1737 -0.0226 -0.2395
 3138SOL    HW121047   1.385   0.712   2.517 -0.2430  0.9525 -0.5064
 3138SOL    HW221048   1.319   0.752   2.390  1.4169  0.4055 -2.1465
 3139SOL     OW21049   0.475   3.780   3.232 -0.2241  0.7489 -0.0933
 3139SOL    HW121050   0.386   3.752   3.256  0.8053 -0.9104  1.7645
 3139SOL    HW221051   0.448   3.851   3.174 -3.7024 -0.5109 -0.0478
 3140SOL     OW21052   4.117   2.146   3.528 -0.8097 -0.5706 -0.5331
 3140SOL    HW121053   4.174   2.109   3.596  0.1091 -0.1694 -1.0855
 3140SOL    HW221054   4.188   2.190   3.481  0.7145  0.3525  2.5856
 3141SOL     OW21055   2.799   1.427   3.669 -0.3796 -0.1692  0.2454
 3141SOL    HW121056   2.750   1.357   3.625 -0.5188  1.5319 -2.2982
 3141SOL    HW221057   2.728   1.463   3.722 -1.5993  0.0418 -1.4981
 3142SOL     OW21058   1.010   1.296  11.716  0.1550 -0.0851 -0.6687
 3142SOL    HW121059   1.100   1.324  11.732 -0.3846  0.2926  1.7009
 3142SOL    HW221060   1.009   1.264  11.625 -3.9973  0.7285 -0.9109
 3143SOL     OW21061   1.414   1.658   4.087 -0.3395  0.1303 -0.3613
 3143SOL    HW121062   1.499   1.619   4.105 -0.2636 -0.3501 -1.7420
 3143SOL    HW221063   1.360   1.612   4.151 -0.0142  0.8092  0.3988
 3144SOL     OW21064   1.193   0.981   8.644  0.1655  0.2348 -0.2302
 3144SOL    HW121065   1.134   1.037   8.694 -0.1082 -0.0547 -0.2258
 3144SOL    HW221066   1.271   0.985   8.700  1.2421 -0.8746 -1.6317
 3145SOL     OW21067   2.741   3.202   3.136  0.1960 -0.6232  0.5447
 3145SOL    HW121068   2.782   3.269   3.191  1.6806 -0.1787 -1.1002
 3145SOL    HW221069   2.742   3.238   3.047  0.4400  1.1834  1.2854
 3146SOL     OW21070   0.349   3.607  17.344  0.2354  0.6906 -0.4095
 3146SOL    HW121071   0.266   3.648  17.367 -1.0495 -1.6738 -0.8075
 3146SOL    HW221072   0.393   3.672  17.290  0.0780  3.6063  3.0120
 3147SOL     OW21073   1.088   3.522  17.546 -0.2450 -0.0940  0.0783
 3147SOL    HW121074   1.020   3.587  17.563 -0.6761 -0.6235  0.3924
 3147SOL    HW221075   1.131   3.525  17.631  1.5247  2.0008 -0.8984
 3148SOL     OW21076   0.663   3.595   3.341  0.2527 -0.8861  0.5306
 3148SOL    HW121077   0.591   3.656   3.330  2.3887  1.6317  0.5518
 3148SOL    HW221078   0.734   3.655   3.365 -0.7663  1.3701 -2.1490
 3149SOL     OW21079   2.927   1.771   6.908 -0.4753  0.2145 -0.3847
 3149SOL    HW121080   2.867   1.838   6.876 -0.2026  1.2027  1.1902
 3149SOL    HW221081   2.975   1.819   6.976 -1.0515  2.1249 -1.3252
 3150SOL     OW21082   0.513   0.701  14.514 -0.3445 -0.1407  0.5019
 3150SOL    HW121083   0.507   0.712  14.609 -0.6667 -0.0872  0.4757
 3150SOL    HW221084   0.425   0.733  14.492 -1.1475 -1.7727  1.3108
 3151SOL     OW21085   2.860   2.035   0.752 -0.1895  0.7575  0.5784
 3151SOL    HW121086   2.812   2.081   0.821 -1.2095 -0.3495  0.6069
 3151SOL    HW221087   2.807   2.056   0.676 -1.3537 -4.0708  0.0490
 3152SOL     OW21088   0.618   0.883   4.878 -0.5846 -0.1255 -0.2713
 3152SOL    HW121089   0.675   0.886   4.801 -0.9446  1.9363 -0.4561
 3152SOL    HW221090   0.563   0.812   4.846 -1.0599  0.0166  0.2287
 3153SOL     OW21091   4.129   0.209   6.775  0.3430  0.0933  0.1166
 3153SOL    HW121092   4.078   0.231   6.697 -1.0722  0.0033  1.0295
 3153SOL    HW221093   4.219   0.210   6.742 -0.0135  0.5545 -0.8389
 3154SOL     OW21094   0.226   3.875  10.123  0.1021  0.2263 -0.1870
 3154SOL    HW121095   0.218   3.930  10.045 -0.4607  0.4796  0.0550
 3154SOL    HW221096   0.301   3.829  10.084  1.9726  3.2217 -0.0907
 3155SOL     OW21097   2.856   0.358   5.345 -0.1871  0.3520  0.0300
 3155SOL    HW121098   2.950   0.365   5.362  0.0715 -1.9883 -0.4892
 3155SOL    HW221099   2.811   0.421   5.401 -0.0312 -0.5137  1.1391
 3156SOL     OW21100   3.374   3.096   5.903 -0.2529  0.4517  0.4278
 3156SOL    HW121101   3.360   3.181   5.862 -2.1445 -0.1097 -0.0655
 3156SOL    HW221102   3.424   3.051   5.835  1.0727  2.2799  0.1973
 3157SOL     OW21103   2.119   0.650  15.238 -0.2177  0.3335  0.2905
 3157SOL    HW121104   2.057   0.665  15.166 -0.5321 -1.7217  0.1268
 3157SOL    HW221105   2.111   0.555  15.241  0.3705  0.3838  3.5834
 3158SOL     OW21106   1.739   4.507   2.758  0.1827 -0.8610 -0.2258
 3158SOL    HW121107   1.652   4.548   2.759 -0.3357 -1.9126 -1.8575
 3158SOL    HW221108   1.740   4.437   2.823  2.2419 -0.8073 -0.1964
 3159SOL     OW21109   4.313   4.598   1.737  0.0390  0.0305  0.1147
 3159SOL    HW121110   4.406   4.621   1.737 -0.3323  1.5417  1.5088
 3159SOL    HW221111   4.276   4.675   1.694  0.7655  0.0706 -0.4402
 3160SOL     OW21112   2.739   2.170   3.804  0.4379  0.3968 -0.5023
 3160SOL    HW121113   2.805   2.113   3.842  0.1233 -0.0693 -0.6506
 3160SOL    HW221114   2.719   2.214   3.886  0.6963  1.9074 -1.2472
 3161SOL     OW21115   4.522   3.079  16.248 -0.7867 -0.3999 -0.1306
 3161SOL    HW121116   4.582   3.153  16.261 -1.1487  0.0819 -1.1905
 3161SOL    HW221117   4.546   3.058  16.158 -1.1429  1.1914 -0.5925
 3162SOL     OW21118   3.638   0.408   7.839  0.1889  0.6096 -0.3221
 3162SOL    HW121119   3.600   0.439   7.921 -0.4364 -0.2721 -0.2753
 3162SOL    HW221120   3.625   0.314   7.853  0.1278  0.3367 -2.2783
 3163SOL     OW21121   3.911   0.078   0.393 -0.2334 -0.6377  0.3419
 3163SOL    HW121122   3.991   0.067   0.444  0.0911  1.2192  0.2507
 3163SOL    HW221123   3.862   4.735   0.403  0.8235 -1.1450  1.3923
 3164SOL     OW21124   4.166   1.695   9.372  0.1513 -0.1065  0.1531
 3164SOL    HW121125   4.162   1.696   9.468 -0.7555 -0.3634  0.1124
 3164SOL    HW221126   4.256   1.668   9.354 -0.0082 -1.2469  1.0504
 3165SOL     OW21127   4.355   0.284   3.039  0.0659 -0.1232 -0.1518
 3165SOL    HW121128   4.300   0.227   2.986 -2.3296  0.5760  1.6099
 3165SOL    HW221129   4.416   0.320   2.975  0.8578 -0.7904  0.2240
 3166SOL     OW21130   1.117   1.716   3.402 -0.4183 -0.2796  0.4886
 3166SOL    HW121131   1.022   1.705   3.410 -0.7342  1.7403 -0.4505
 3166SOL    HW221132   1.123   1.805   3.367  1.1790 -0.6470 -0.1640
 3167SOL     OW21133   4.480   2.068   5.992  0.2553 -0.1531  0.3975
 3167SOL    HW121134   4.434   2.049   6.073  1.7425  0.8820  1.4680
 3167SOL    HW221135   4.561   2.104   6.029  0.7704 -0.6192 -0.2558
 3168SOL     OW21136   0.577   3.551   8.317 -0.2031  0.2638 -0.5473
 3168SOL    HW121137   0.563   3.495   8.241  0.2874  0.6252 -0.9035
 3168SOL    HW221138   0.497   3.537   8.369 -2.0337 -1.0033 -3.7525
 3169SOL     OW21139   0.256   3.481  11.880  0.3565  0.0831  0.1363
 3169SOL    HW121140   0.349   3.468  11.861 -0.0704  0.0318 -1.8875
 3169SOL    HW221141   0.243   3.433  11.962 -1.3142 -1.8017 -1.2178
 3170SOL     OW21142   1.602   1.661  15.706 -0.2496 -0.0370 -0.1783
 3170SOL    HW121143   1.538   1.606  15.751  1.0739 -1.1336  0.4029
 3170SOL    HW221144   1.538   1.673  15.636  0.3171  0.8070 -0.5498
 3171SOL     OW21145   4.697   3.306   9.380 -0.2320  0.1177 -0.4284
 3171SOL    HW121146   4.609   3.282   9.410 -0.0948 -0.6725 -0.6641
 3171SOL    HW221147   4.722   3.214   9.367  2.6217  0.7645  0.4445
 3172SOL     OW21148   2.132   4.657   8.545  0.3357 -0.8195  0.0290
 3172SOL    HW121149   2.137   0.014   8.556 -0.9479 -0.8252  0.6629
 3172SOL    HW221150   2.060   4.634   8.604 -1.0275 -0.6260 -1.5540
 3173SOL     OW21151   4.522   4.562   9.583  0.1127 -0.3413  0.2445
 3173SOL    HW121152   4.510   4.629   9.651  0.3840  1.3006 -1.3146
 3173SOL    HW221153   4.443   4.587   9.535 -0.7775 -2.1894  0.7743
 3174SOL     OW21154   2.815   0.531  13.320  0.5067 -0.0978 -0.1033
 3174SOL    HW121155   2.795   0.575  13.403 -2.2176 -1.1619 -0.1803
 3174SOL    HW221156   2.796   0.595  13.251 -0.3563  0.7033  0.8802
 3175SOL     OW21157   1.069   0.416   3.161  0.4465  0.1641  0.0753
 3175SOL    HW121158   1.082   0.376   3.247 -0.6697 -2.9086 -1.2018
 3175SOL    HW221159   1.143   0.476   3.152  1.3426 -0.9062  0.4372
 3176SOL     OW21160   0.930   1.568   2.703  0.3925 -0.0308 -0.3275
 3176SOL    HW121161   0.868   1.575   2.776 -1.3184 -1.9534 -1.6040
 3176SOL    HW221162   0.907   1.489   2.654 -1.1195 -0.5132  1.1334
 3177SOL     OW21163   0.379   1.082   4.395  0.5550  0.7474  0.2131
 3177SOL    HW121164   0.398   1.025   4.470 -1.5246  1.5094  1.3106
 3177SOL    HW221165   0.417   1.167   4.419  0.8119  1.2858 -2.0721
 3178SOL     OW21166   4.325   2.181   7.421  0.3330 -0.0642  0.0164
 3178SOL    HW121167   4.333   2.170   7.516 -0.0461  0.8459  0.1595
 3178SOL    HW221168   4.235   2.212   7.412  0.7416  1.0020 -0.3953
 3179SOL     OW21169   1.209   3.018   9.234 -0.2581 -0.2874  0.1298
 3179SOL    HW121170   1.285   2.961   9.243 -0.8823 -0.6614  2.8804
 3179SOL    HW221171   1.200   3.020   9.139  2.2921  0.6412 -0.0996
 3180SOL     OW21172   4.226   0.716  11.849  0.0971  0.6373  0.0650
 3180SOL    HW121173   4.281   0.793  11.841 -0.9920  1.4406  0.2940
 3180SOL    HW221174   4.289   0.647  11.869 -0.8663 -0.3208 -0.1298
 3181SOL     OW21175   0.055   2.212   9.481 -0.1771  0.2834  0.6810
 3181SOL    HW121176   0.044   2.143   9.546 -0.0264  1.2119  1.6939
 3181SOL    HW221177   0.008   2.284   9.522 -1.0122  0.6868 -0.9542
 3182SOL     OW21178   1.625   2.898  13.073 -0.2909 -0.2228 -0.1300
 3182SOL    HW121179   1.583   2.973  13.116  0.9578 -0.7423  1.9755
 3182SOL    HW221180   1.709   2.893  13.118  0.1184 -1.5422 -1.0489
 3183SOL     OW21181   2.842   2.231  10.939  0.3596 -0.5635 -0.0560
 3183SOL    HW121182   2.834   2.288  11.015  2.2056  0.1407 -0.3948
 3183SOL    HW221183   2.775   2.169  10.966  0.7295 -0.6491  0.6645
 3184SOL     OW21184   3.382   4.464   3.442  0.2068  0.6181  0.6620
 3184SOL    HW121185   3.301   4.434   3.483  1.3211 -1.5162  1.2894
 3184SOL    HW221186   3.365   4.421   3.358  1.2380  0.5760  0.4772
 3185SOL     OW21187   1.273   3.298   5.863  0.1088 -0.4649 -0.0748
 3185SOL    HW121188   1.265   3.380   5.912 -0.1614 -1.0521  0.8700
 3185SOL    HW221189   1.366   3.275   5.872  0.1421  0.7567  2.7458
 3186SOL     OW21190   0.896   4.452   3.718  0.0044 -0.1355  0.0654
 3186SOL    HW121191   0.845   4.464   3.638 -0.0417  3.2943  0.6045
 3186SOL    HW221192   0.922   4.543   3.733 -1.2863  0.2375  0.0911
 3187SOL     OW21193   4.232   2.855   0.697 -0.3118  0.0777  0.3665
 3187SOL    HW121194   4.258   2.943   0.726 -2.5241  1.4911 -1.9301
 3187SOL    HW221195   4.232   2.869   0.602 -0.4974 -0.6113  0.2626
 3188SOL     OW21196   2.981   4.548   3.620 -0.3691 -0.0178 -0.5287
 3188SOL    HW121197   3.015   4.634   3.595  0.7384 -0.5073 -0.6992
 3188SOL    HW221198   3.057   4.494   3.600  0.4623  0.0798  2.3856
 3189SOL     OW21199   1.611   4.279  14.557  0.5612 -0.5785 -0.0496
 3189SOL    HW121200   1.530   4.285  14.609  0.5034 -0.8253 -0.1075
 3189SOL    HW221201   1.663   4.216  14.607  3.0814  0.6012 -1.2161
 3190SOL     OW21202   2.250   0.422   5.527 -0.3839 -0.1404  0.2421
 3190SOL    HW121203   2.233   0.342   5.576 -0.6005  0.6822  1.4918
 3190SOL    HW221204   2.345   0.433   5.534 -0.5473  0.8490  0.7986
 3191SOL     OW21205   3.429   4.185  12.202  0.3941  0.6868  0.5935
 3191SOL    HW121206   3.356   4.213  12.147  1.1238 -0.4060 -0.9023
 3191SOL    HW221207   3.428   4.091  12.188  2.1472  0.6951  0.4020
 3192SOL     OW21208   1.206   1.045   4.965  0.0966  0.0364 -0.0336
 3192SOL    HW121209   1.131   1.071   5.019 -3.3114 -1.1194 -4.1825
 3192SOL    HW221210   1.167   0.974   4.914  2.3344 -2.0783  1.2283
 3193SOL     OW21211   1.255   2.204  12.378  0.2759 -0.2156  0.4553
 3193SOL    HW121212   1.249   2.242  12.465  0.7073  2.1649 -0.5410
 3193SOL    HW221213   1.163   2.183  12.362  0.5043 -0.4920 -0.4940
 3194SOL     OW21214   1.643   1.433   8.490 -0.1278  0.4725 -0.4535
 3194SOL    HW121215   1.636   1.349   8.443  0.5479 -1.0416  2.1368
 3194SOL    HW221216   1.694   1.482   8.425 -0.4872  0.1961 -0.9478
 3195SOL     OW21217   1.276   0.476   5.206 -0.0247  0.2055 -0.2746
 3195SOL    HW121218   1.315   0.392   5.181 -2.4576 -0.9916 -0.0195
 3195SOL    HW221219   1.331   0.539   5.160  0.1047  0.0025 -0.3956
 3196SOL     OW21220   0.387   3.847   8.203 -0.2313 -0.8298  0.0885
 3196SOL    HW121221   0.433   3.914   8.153 -0.8480  0.1879  0.8876
 3196SOL    HW221222   0.441   3.841   8.281 -1.7105 -0.3457  1.1537
 3197SOL     OW21223   4.382   3.690   5.127 -0.3388  0.0707  0.8699
 3197SOL    HW121224   4.392   3.652   5.039 -1.8725 -0.4157  0.9183
 3197SOL    HW221225   4.384   3.784   5.108  2.3380 -0.3369 -0.9015
 3198SOL     OW21226   4.051   1.763   7.415  0.5028 -0.3344 -0.1234
 3198SOL    HW121227   4.049   1.857   7.435 -2.5498 -1.1321  3.2391
 3198SOL    HW221228   4.083   1.724   7.496 -0.2417  0.2947  0.4780
 3199SOL     OW21229   1.254   3.709   3.029 -0.9567 -0.6191  0.0157
 3199SOL    HW121230   1.324   3.774   3.021  1.0059 -2.6736  0.5443
 3199SOL    HW221231   1.285   3.630   2.985 -3.7167 -1.2819 -0.7560
 3200SOL     OW21232   2.061   2.034   2.171  0.1530  0.3671  0.0489
 3200SOL    HW121233   2.116   1.967   2.129  0.6475  1.0998 -0.4606
 3200SOL    HW221234   2.001   2.056   2.100  0.4645  0.1685 -0.2771
 3201SOL     OW21235   2.275   0.558   7.606  0.0203 -0.4786  0.4355
 3201SOL    HW121236   2.367   0.567   7.580 -0.2027  0.7271  0.0219
 3201SOL    HW221237   2.280   0.534   7.698  1.9946  3.2718  1.3319
 3202SOL     OW21238   3.590   3.673   2.342  0.0855  0.1089 -0.6290
 3202SOL    HW121239   3.683   3.674   2.364 -0.4389  0.7923  1.5904
 3202SOL    HW221240   3.571   3.763   2.316 -2.0229 -0.8453 -2.4024
 3203SOL     OW21241   1.700   3.411   1.416  0.3084  0.2752  0.5795
 3203SOL    HW121242   1.685   3.318   1.397 -2.9308  1.1617 -1.2146
 3203SOL    HW221243   1.790   3.414   1.448  0.9061 -0.6682 -0.9965
 3204SOL     OW21244   3.028   0.909   4.050  0.1023 -0.4361  0.6590
 3204SOL    HW121245   2.947   0.862   4.068 -0.6999  1.4428  1.9647
 3204SOL    HW221246   3.076   0.861   3.982 -0.5352  0.3686 -0.3619
 3205SOL     OW21247   0.371   3.715   7.574 -0.2942  0.0260  0.3474
 3205SOL    HW121248   0.333   3.748   7.493  0.4671  0.6601  0.2536
 3205SOL    HW221249   0.461   3.746   7.585  0.1542 -0.7685 -1.0720
 3206SOL     OW21250   0.620   1.803   4.026  0.4753 -0.5282 -0.8013
 3206SOL    HW121251   0.648   1.740   4.092 -0.9366  0.2568  0.5404
 3206SOL    HW221252   0.555   1.752   3.977  0.5388 -2.7178  1.4154
 3207SOL     OW21253   0.951   0.195   4.651 -0.2351 -0.2669  0.0484
 3207SOL    HW121254   1.015   0.212   4.582 -0.1060 -1.3624 -0.1097
 3207SOL    HW221255   0.995   0.121   4.691 -0.1069 -0.2075  0.0169
 3208SOL     OW21256   0.677   4.564  16.163 -0.4969 -0.1902 -0.2814
 3208SOL    HW121257   0.751   4.530  16.212  0.0720 -0.1734 -1.1299
 3208SOL    HW221258   0.671   4.652  16.202 -0.4359 -0.8274  1.1627
 3209SOL     OW21259   0.312   4.305   5.388 -0.2486 -0.3425 -0.2122
 3209SOL    HW121260   0.290   4.328   5.298  2.0314  0.0381 -0.6499
 3209SOL    HW221261   0.380   4.240   5.377  0.0947 -0.0798  0.3284
 3210SOL     OW21262   3.030   1.243  16.694 -0.2891  0.1653  0.0039
 3210SOL    HW121263   2.977   1.189  16.636  0.3050 -1.6173  1.1130
 3210SOL    HW221264   3.094   1.179  16.725  0.7754 -0.0698 -2.7204
 3211SOL     OW21265   1.059   0.862  12.081  0.3734 -0.1131  0.0068
 3211SOL    HW121266   1.131   0.799  12.091  0.9065  0.1542 -2.0583
 3211SOL    HW221267   0.991   0.797  12.101  1.0231 -0.7664  0.1065
 3212SOL     OW21268   3.644   1.104   2.431  0.3241  0.2290 -0.1110
 3212SOL    HW121269   3.550   1.084   2.431  0.2310  0.6571  1.5126
 3212SOL    HW221270   3.681   1.022   2.398  0.3667  0.6798 -1.1774
 3213SOL     OW21271   3.984   3.180   5.798 -0.0348 -0.6074 -0.5800
 3213SOL    HW121272   3.894   3.208   5.811 -0.2765 -0.1694 -3.2340
 3213SOL    HW221273   4.012   3.257   5.747 -0.0515 -0.7032 -0.7349
 3214SOL     OW21274   1.458   0.406   6.961 -0.2761  0.1188  0.4176
 3214SOL    HW121275   1.534   0.391   7.017 -0.9511 -1.1382  1.0049
 3214SOL    HW221276   1.432   0.318   6.934  4.2339 -1.0999  0.2229
 3215SOL     OW21277   2.245   0.192  15.929 -0.1296  0.0034  0.2031
 3215SOL    HW121278   2.273   0.252  15.998 -3.5723  2.6589 -0.7079
 3215SOL    HW221279   2.287   0.214  15.847 -2.4238 -2.6897 -1.6964
 3216SOL     OW21280   2.022   4.078   3.984  0.3760 -0.2780 -0.2907
 3216SOL    HW121281   2.104   4.037   4.012  0.4754 -0.3358 -0.6637
 3216SOL    HW221282   2.033   4.168   4.014 -3.2281  0.3102 -0.7004
 3217SOL     OW21283   3.408   2.077   3.633  0.2670  0.0005  0.3593
 3217SOL    HW121284   3.428   2.037   3.548 -0.6454 -0.8146  0.5252
 3217SOL    HW221285   3.479   2.140   3.644  1.8733 -2.0298  1.6807
 3218SOL     OW21286   1.919   3.167   4.298 -0.4904  1.1288  0.0728
 3218SOL    HW121287   2.003   3.149   4.257 -0.2494 -0.8470  1.4274
 3218SOL    HW221288   1.942   3.259   4.311  2.9910  0.3154 -0.2870
 3219SOL     OW21289   4.159   0.513  11.536  0.2705 -0.6343  0.2546
 3219SOL    HW121290   4.237   0.462  11.512 -0.8442 -1.3814 -1.7762
 3219SOL    HW221291   4.171   0.601  11.499  0.0877 -0.3493  0.8757
 3220SOL     OW21292   3.450   2.429   4.512 -0.2660  0.6134 -0.6269
 3220SOL    HW121293   3.420   2.505   4.462  2.1488  0.8028 -1.7731
 3220SOL    HW221294   3.543   2.449   4.507 -0.0087 -0.3857  0.2468
 3221SOL     OW21295   3.139   2.346  12.112 -0.9563 -0.1853 -0.6227
 3221SOL    HW121296   3.151   2.366  12.205  0.9171 -0.4240 -0.8148
 3221SOL    HW221297   3.077   2.273  12.115 -0.9548 -0.1720 -0.2737
 3222SOL     OW21298   3.904   1.257   9.106  0.1598  0.0903 -0.1299
 3222SOL    HW121299   3.960   1.311   9.162 -0.0781  0.3354 -0.1262
 3222SOL    HW221300   3.898   1.306   9.024  1.3282  1.6191  0.6957
 3223SOL     OW21301   0.199   2.105  14.865  0.1484  0.2152 -0.1543
 3223SOL    HW121302   0.103   2.110  14.862  0.1690 -1.0172 -2.7702
 3223SOL    HW221303   0.208   2.113  14.960  2.3862  1.0408 -0.4437
 3224SOL     OW21304   1.957   4.167   8.196 -0.3200  0.0331 -0.2569
 3224SOL    HW121305   2.029   4.201   8.249 -2.2482  3.2411  0.3415
 3224SOL    HW221306   1.973   4.201   8.108  0.4987 -1.9621 -0.8682
 3225SOL     OW21307   1.663   1.416   2.635 -0.1538  0.1455  0.1107
 3225SOL    HW121308   1.602   1.407   2.562 -0.2978  0.4019  0.1991
 3225SOL    HW221309   1.644   1.503   2.670 -0.0569 -0.3329  1.3817
 3226SOL     OW21310   1.617   0.910  14.313  0.2748 -0.4034  0.6981
 3226SOL    HW121311   1.600   0.908  14.219  1.6372 -1.1110  0.4554
 3226SOL    HW221312   1.565   0.835  14.342  0.0504 -1.5803 -2.6539
 3227SOL     OW21313   1.131   3.572  13.808  0.0084 -0.5655 -0.4808
 3227SOL    HW121314   1.054   3.551  13.861  2.0647  1.0007  3.1630
 3227SOL    HW221315   1.144   3.666  13.823  0.6613 -0.8319  0.6848
 3228SOL     OW21316   2.239   0.233  13.860  1.0804 -0.0671 -0.5443
 3228SOL    HW121317   2.221   0.279  13.942  1.4026 -1.5844  0.3761
 3228SOL    HW221318   2.297   0.163  13.889 -0.4403 -0.3466  1.8369
 3229SOL     OW21319   2.731   3.635   2.032  0.1726 -0.1907  0.2141
 3229SOL    HW121320   2.748   3.725   2.060 -0.0451  0.0414 -0.3936
 3229SOL    HW221321   2.685   3.583   2.097  0.7529 -0.0849  0.7041
 3230SOL     OW21322   1.933   1.701  16.523 -0.1770 -0.2221  0.0990
 3230SOL    HW121323   2.003   1.730  16.465 -1.2898  0.1418 -1.0723
 3230SOL    HW221324   1.951   1.607  16.535 -0.5386 -0.2170  0.7088
 3231SOL     OW21325   2.806   2.747   5.445 -0.3637 -0.0636 -0.3406
 3231SOL    HW121326   2.842   2.674   5.494 -2.0066 -0.7971 -0.2202
 3231SOL    HW221327   2.879   2.763   5.385  1.6271 -3.4170  1.2376
 3232SOL     OW21328   2.794   3.457  12.261 -0.3478 -0.1956  0.0656
 3232SOL    HW121329   2.756   3.543  12.274  0.4361  0.0427  0.8016
 3232SOL    HW221330   2.728   3.409  12.211 -0.2928  0.2433 -0.4226
 3233SOL     OW21331   0.515   4.733   8.848 -0.0807 -0.0078 -0.3447
 3233SOL    HW121332   0.425   0.025   8.856  0.3797  1.6012 -1.1726
 3233SOL    HW221333   0.516   4.686   8.931 -0.7036  0.4813 -0.0697
 3234SOL     OW21334   2.522   1.320  14.600  0.2433 -0.1332 -0.4187
 3234SOL    HW121335   2.519   1.383  14.672 -1.3249  0.6668 -1.1851
 3234SOL    HW221336   2.434   1.334  14.564  0.5154  0.9647 -0.6468
 3235SOL     OW21337   3.475   4.137  14.510 -0.2902  0.1258 -0.6298
 3235SOL    HW121338   3.518   4.055  14.534 -0.6656  0.2313  0.4114
 3235SOL    HW221339   3.403   4.113  14.452 -1.7169  0.6426  0.9093
 3236SOL     OW21340   2.264   2.349  13.207 -0.1146  0.2762 -0.4142
 3236SOL    HW121341   2.343   2.310  13.169  1.8118 -0.1503  3.9914
 3236SOL    HW221342   2.306   2.416  13.260 -2.3209  2.0957 -0.9528
 3237SOL     OW21343   3.807   3.024   3.831 -0.8883 -1.0702 -0.1855
 3237SOL    HW121344   3.774   3.029   3.921  1.1593 -0.6300  0.5436
 3237SOL    HW221345   3.815   3.118   3.813  0.2702 -1.4181 -1.4802
 3238SOL     OW21346   0.245   3.533  12.311  0.4859 -0.7700 -0.1899
 3238SOL    HW121347   0.306   3.604  12.328  2.2025 -2.0266 -1.0764
 3238SOL    HW221348   0.242   3.496  12.399  0.7860  1.0311  0.5760
 3239SOL     OW21349   0.579   3.730   9.384  0.2498 -0.3762  0.1178
 3239SOL    HW121350   0.487   3.739   9.410  0.2203 -1.0629  0.2608
 3239SOL    HW221351   0.581   3.788   9.308  1.0943  0.2559  0.6186
 3240SOL     OW21352   3.378   4.225   6.894  0.2239  0.3333 -0.7262
 3240SOL    HW121353   3.469   4.236   6.920  0.9414 -1.4661 -2.4517
 3240SOL    HW221354   3.377   4.301   6.835  0.2385  1.0957  0.2588
 3241SOL     OW21355   0.732   0.754  16.536  0.3954  0.2340 -0.1699
 3241SOL    HW121356   0.663   0.804  16.580  1.2866  1.2592  0.0699
 3241SOL    HW221357   0.701   0.667  16.561 -1.4274  0.1239 -2.8570
 3242SOL     OW21358   2.271   2.009   9.054  0.0862  0.3029 -0.0581
 3242SOL    HW121359   2.291   1.986   8.964  2.8322  0.5953  0.4607
 3242SOL    HW221360   2.220   1.932   9.079 -1.6365  1.9227  1.4784
 3243SOL     OW21361   1.860   4.650  15.922 -0.2232  0.0439  0.7605
 3243SOL    HW121362   1.783   4.696  15.956 -0.6366 -0.9664  1.1778
 3243SOL    HW221363   1.876   4.590  15.995 -1.4776 -1.1930  0.0206
 3244SOL     OW21364   0.695   4.470   7.308 -0.3514  0.1489 -0.3895
 3244SOL    HW121365   0.725   4.557   7.335  3.1359 -0.3907 -2.4311
 3244SOL    HW221366   0.690   4.433   7.396  1.0721 -0.4669 -0.5637
 3245SOL     OW21367   2.862   0.786   5.797 -0.0844  0.9101 -0.4657
 3245SOL    HW121368   2.823   0.759   5.714 -1.5095  0.6445  0.3001
 3245SOL    HW221369   2.842   0.880   5.806  0.9147  1.0018  0.7762
 3246SOL     OW21370   1.589   2.265  13.622  0.5185 -0.0727  0.1233
 3246SOL    HW121371   1.545   2.257  13.537  2.5360 -0.9397 -0.8428
 3246SOL    HW221372   1.511   2.272  13.676 -0.3473  0.9224 -1.2398
 3247SOL     OW21373   0.529   2.402  14.726 -0.6261 -0.8123 -0.4057
 3247SOL    HW121374   0.531   2.329  14.663  3.0832 -2.8398  2.0713
 3247SOL    HW221375   0.620   2.432  14.730 -1.2936  1.1353  0.0183
 3248SOL     OW21376   2.558   0.676   8.922 -0.5259 -0.3156 -0.1409
 3248SOL    HW121377   2.574   0.763   8.885 -1.7315 -1.0179 -2.3057
 3248SOL    HW221378   2.483   0.654   8.867 -1.0519  0.6849  0.1888
 3249SOL     OW21379   3.397   1.676   6.237 -0.3619  0.1212  0.0683
 3249SOL    HW121380   3.425   1.585   6.229  0.9556  0.6840 -1.6710
 3249SOL    HW221381   3.344   1.681   6.317 -1.9939 -1.1299 -0.9460
 3250SOL     OW21382   3.639   3.008   2.061  0.3297  0.0688 -0.0807
 3250SOL    HW121383   3.602   3.051   2.137  1.5223 -1.1438  1.1942
 3250SOL    HW221384   3.728   2.980   2.081  0.4530  0.0701 -0.6069
 3251SOL     OW21385   4.316   3.357   1.542 -0.3376  0.0473  0.5128
 3251SOL    HW121386   4.313   3.421   1.613  0.4516 -1.1434  1.6319
 3251SOL    HW221387   4.234   3.310   1.557  0.9721 -2.4957 -0.3419
 3252SOL     OW21388   2.853   1.269  17.117  0.1349  1.0344 -0.0902
 3252SOL    HW121389   2.897   1.242  17.198 -1.9407 -0.7552  0.4376
 3252SOL    HW221390   2.911   1.312  17.054 -1.3615  0.7104 -1.7052
 3253SOL     OW21391   3.572   2.806   7.163 -0.3217  0.4690  0.3290
 3253SOL    HW121392   3.596   2.881   7.109 -2.3471  1.8368  1.3141
 3253SOL    HW221393   3.537   2.751   7.092 -0.3039  1.0382 -0.1215
 3254SOL     OW21394   4.111   0.812   5.820 -0.0684 -0.0019  0.7567
 3254SOL    HW121395   4.138   0.895   5.860  2.7095 -0.1244 -0.8300
 3254SOL    HW221396   4.037   0.793   5.878 -0.2065  2.0556  1.2752
 3255SOL     OW21397   4.310   0.728   0.678  0.0109 -0.6596  0.0011
 3255SOL    HW121398   4.345   0.814   0.656  1.3550 -1.3238 -0.4848
 3255SOL    HW221399   4.322   0.676   0.599 -2.4113 -2.4429  0.8105
 3256SOL     OW21400   1.864   3.692   0.990  0.4572  0.0435  0.0200
 3256SOL    HW121401   1.772   3.665   0.999  0.9297 -1.5638  0.1560
 3256SOL    HW221402   1.909   3.645   1.061 -0.9676 -2.9789 -1.0756
 3257SOL     OW21403   2.507   0.530   6.448  0.2708 -0.2224 -0.2951
 3257SOL    HW121404   2.589   0.565   6.414 -0.2265 -0.8366 -2.0908
 3257SOL    HW221405   2.450   0.583   6.393 -1.5519  1.1815  2.9203
 3258SOL     OW21406   4.690   0.785   6.761  0.7232  0.1535  0.2338
 3258SOL    HW121407   4.732   0.838   6.829  0.1754  2.0439 -0.8977
 3258SOL    HW221408   4.619   0.738   6.803  0.6470 -0.2841 -0.4009
 3259SOL     OW21409   2.583   2.093  10.995 -0.2266  0.0575 -0.0480
 3259SOL    HW121410   2.606   2.071  11.085  0.6455 -1.0975 -0.5429
 3259SOL    HW221411   2.498   2.053  10.976 -0.6516 -0.2373  2.5456
 3260SOL     OW21412   4.075   1.801   5.481 -0.6743 -0.2763  0.0513
 3260SOL    HW121413   4.078   1.751   5.562 -1.6258  0.2006  0.3864
 3260SOL    HW221414   4.167   1.815   5.461 -0.5021  0.1003  1.1268
 3261SOL     OW21415   2.480   4.040  12.748  0.4119  0.1034  0.0186
 3261SOL    HW121416   2.529   4.121  12.763  0.2564 -0.1167  1.6931
 3261SOL    HW221417   2.542   3.984  12.794  2.0862  1.9863  0.0787
 3262SOL     OW21418   0.330   3.914   0.988 -0.2541 -0.2777 -0.4607
 3262SOL    HW121419   0.265   3.920   1.058  3.3890 -0.3006  2.9400
 3262SOL    HW221420   0.411   3.908   1.039 -1.7917  0.6861  2.1154
 3263SOL     OW21421   2.590   0.309   0.241 -0.1117  0.5041 -0.3603
 3263SOL    HW121422   2.536   0.232   0.225  1.2015 -0.3204 -0.8150
 3263SOL    HW221423   2.603   0.300   0.335 -3.5000 -0.1997  0.0357
 3264SOL     OW21424   1.494   0.798  14.937 -0.0366 -0.2227 -0.9150
 3264SOL    HW121425   1.504   0.756  14.852  5.9815  1.1109 -0.8720
 3264SOL    HW221426   1.531   0.884  14.917  2.3727 -1.2806 -1.0852
 3265SOL     OW21427   2.477   0.895  14.715 -0.2890 -0.4548 -0.6393
 3265SOL    HW121428   2.493   0.845  14.795  0.6961  0.1884 -0.4243
 3265SOL    HW221429   2.568   0.901  14.684 -0.3209  0.9083 -0.4439
 3266SOL     OW21430   3.324   3.729   4.478  0.0662 -0.1117  0.5887
 3266SOL    HW121431   3.410   3.727   4.437 -0.2222  0.5052 -0.0459
 3266SOL    HW221432   3.268   3.696   4.408 -0.0894 -1.4466  1.3475
 3267SOL     OW21433   3.891   2.529  14.782 -0.5239 -0.0874  0.2855
 3267SOL    HW121434   3.939   2.605  14.814  0.0874 -0.0969 -0.6106
 3267SOL    HW221435   3.915   2.546  14.690 -1.0285  2.3122  0.5964
 3268SOL     OW21436   4.285   4.518   1.022 -0.3492  0.4109  0.0615
 3268SOL    HW121437   4.379   4.536   1.019 -0.5148  1.1278 -0.9116
 3268SOL    HW221438   4.249   4.596   1.063  0.2842  0.8989 -0.3100
 3269SOL     OW21439   2.772   1.150  14.956 -0.7550  0.5735  0.2499
 3269SOL    HW121440   2.773   1.145  15.052  1.6307 -1.5111  0.1192
 3269SOL    HW221441   2.856   1.190  14.934 -0.2415 -0.1976  0.8096
 3270SOL     OW21442   3.286   1.211   0.525  0.2288 -0.1879  0.0764
 3270SOL    HW121443   3.331   1.191   0.607 -2.0965 -0.0342  1.3910
 3270SOL    HW221444   3.212   1.268   0.545  0.4865 -0.5305  1.9174
 3271SOL     OW21445   3.963   2.512   3.308 -0.3435  0.0813 -0.4558
 3271SOL    HW121446   3.964   2.459   3.387 -0.1303 -0.9252 -1.1239
 3271SOL    HW221447   3.980   2.598   3.347  1.2357 -0.5429  0.2241
 3272SOL     OW21448   3.039   0.042  10.176 -0.0804  0.0053 -0.9094
 3272SOL    HW121449   3.041   0.117  10.117 -0.3352  2.0977  1.7293
 3272SOL    HW221450   3.120   0.047  10.227  0.3307  0.7197 -1.6355
 3273SOL     OW21451   2.955   4.486  10.234 -1.0948  0.1885 -0.4795
 3273SOL    HW121452   2.884   4.474  10.172 -0.6990 -1.1152 -0.6661
 3273SOL    HW221453   2.987   4.570  10.199 -0.1515 -1.5315 -3.7324
 3274SOL     OW21454   4.274   1.907   7.799  0.3994 -0.1581  0.6144
 3274SOL    HW121455   4.342   1.864   7.851  0.2737 -2.1278 -0.8355
 3274SOL    HW221456   4.214   1.929   7.870  1.7637 -0.7686  1.9551
 3275SOL     OW21457   1.614   4.502  15.622 -0.0622 -0.0155  0.1918
 3275SOL    HW121458   1.605   4.597  15.613 -0.7838 -0.0126  0.8525
 3275SOL    HW221459   1.615   4.492  15.717  1.1149  2.2095  0.4149
 3276SOL     OW21460   2.158   0.732   8.300 -0.6132  0.4060 -0.0339
 3276SOL    HW121461   2.089   0.791   8.269 -0.7508  0.2662  0.0081
 3276SOL    HW221462   2.128   0.716   8.390  0.2326 -0.8611  0.0135
 3277SOL     OW21463   0.836   2.671   0.205 -0.7573  0.0228 -0.1482
 3277SOL    HW121464   0.793   2.756   0.206  0.6067  0.7331 -1.1100
 3277SOL    HW221465   0.848   2.654   0.112  0.7434  2.9856 -0.4924
 3278SOL     OW21466   4.470   0.650   6.522 -0.1560 -0.4578  0.3361
 3278SOL    HW121467   4.443   0.561   6.545 -0.8484 -0.8515 -2.0221
 3278SOL    HW221468   4.421   0.707   6.581  0.4657 -0.3735  0.7790
 3279SOL     OW21469   0.757   2.080   5.323 -0.2949 -0.1062  0.4102
 3279SOL    HW121470   0.791   2.043   5.405  2.1198 -0.7879 -0.8960
 3279SOL    HW221471   0.664   2.060   5.334  0.2689 -0.9221  3.8344
 3280SOL     OW21472   1.878   1.308   4.829 -0.1064 -0.3836  0.2509
 3280SOL    HW121473   1.785   1.315   4.850 -0.3060  0.2157 -0.8544
 3280SOL    HW221474   1.896   1.395   4.866  1.9274 -1.6708  2.3158
 3281SOL     OW21475   3.875   4.363   5.464  0.1812 -0.2178 -0.1802
 3281SOL    HW121476   3.870   4.455   5.489  0.6767 -0.0277 -0.7997
 3281SOL    HW221477   3.962   4.332   5.488  0.2684  0.9360  1.0181
 3282SOL     OW21478   1.772   2.621   8.116  0.0479  0.2063 -0.4090
 3282SOL    HW121479   1.830   2.634   8.191 -3.0477 -1.5157  2.2733
 3282SOL    HW221480   1.693   2.607   8.167 -0.3577 -1.7660 -1.5691
 3283SOL     OW21481   1.968   3.558  15.916 -0.6526  0.5128  0.1594
 3283SOL    HW121482   1.966   3.510  15.833  0.8616  0.6245  0.0487
 3283SOL    HW221483   2.051   3.605  15.912  0.4945 -1.5922 -1.0884
 3284SOL     OW21484   3.103   1.668   9.934  0.3475 -0.5110 -0.1185
 3284SOL    HW121485   3.149   1.745   9.900 -1.9347  0.8210 -0.1436
 3284SOL    HW221486   3.019   1.676   9.888 -0.0434 -0.1226  0.6676
 3285SOL     OW21487   1.914   1.607   7.561 -0.5108 -0.3515  0.2082
 3285SOL    HW121488   1.943   1.680   7.506  2.1192 -0.8525  0.9266
 3285SOL    HW221489   1.826   1.637   7.582 -0.4383 -1.6866  2.4460
 3286SOL     OW21490   3.476   2.466   8.936  0.1593  0.2596 -0.7916
 3286SOL    HW121491   3.443   2.386   8.977  2.1058 -0.3275 -0.3650
 3286SOL    HW221492   3.397   2.516   8.957  1.7816  1.2935  2.8254
 3287SOL     OW21493   3.703   3.366  10.339  0.1339 -0.5441  0.4941
 3287SOL    HW121494   3.723   3.387  10.248 -1.1233 -1.7054 -0.0643
 3287SOL    HW221495   3.717   3.271  10.343  0.3416 -0.6524 -2.4400
 3288SOL     OW21496   2.296   3.405   8.811  0.2196  0.0516 -0.2946
 3288SOL    HW121497   2.342   3.472   8.861 -0.4516  0.5786 -0.3868
 3288SOL    HW221498   2.321   3.335   8.872  1.4808 -0.1972 -1.0832
 3289SOL     OW21499   2.564   3.649   4.288 -0.2215  0.1375  0.2917
 3289SOL    HW121500   2.523   3.615   4.208 -0.5067  0.7350  0.1855
 3289SOL    HW221501   2.494   3.675   4.347 -0.7083  0.6704 -0.5314
 3290SOL     OW21502   3.636   2.809   5.881 -0.2198 -0.0027 -0.3978
 3290SOL    HW121503   3.619   2.719   5.908  1.0694 -0.3610 -0.7875
 3290SOL    HW221504   3.725   2.829   5.907 -0.1830  0.8408 -1.1752
 3291SOL     OW21505   0.427   4.658   7.723 -0.4189 -0.3836  0.5104
 3291SOL    HW121506   0.518   4.648   7.751 -0.7400 -2.7694  0.7364
 3291SOL    HW221507   0.376   4.613   7.791 -1.8529 -0.1964 -0.4441
 3292SOL     OW21508   1.143   1.697   3.793 -0.1967 -0.2112 -0.3743
 3292SOL    HW121509   1.120   1.772   3.738  0.1855  1.0581  1.1887
 3292SOL    HW221510   1.230   1.667   3.767 -1.1856 -0.5246 -3.3418
 3293SOL     OW21511   0.643   1.946   4.464 -0.1544 -0.4571  0.1497
 3293SOL    HW121512   0.731   1.915   4.442 -0.6301 -0.9124 -1.1349
 3293SOL    HW221513   0.629   2.033   4.428 -1.4018 -0.4908  0.5631
 3294SOL     OW21514   1.045   2.272  10.324 -0.4650 -0.1597  0.1701
 3294SOL    HW121515   0.996   2.278  10.242 -0.6921 -1.0560  0.2380
 3294SOL    HW221516   1.100   2.195  10.310  0.9786  0.8983  0.0264
 3295SOL     OW21517   1.392   2.188   9.802 -0.4681 -0.2133  0.2861
 3295SOL    HW121518   1.304   2.150   9.800  0.7167 -2.8805 -0.8541
 3295SOL    HW221519   1.371   2.280   9.819 -1.1755 -0.6627  1.8198
 3296SOL     OW21520   2.588   0.513   2.792 -0.6692 -0.0672  0.1700
 3296SOL    HW121521   2.502   0.555   2.790 -0.0846  1.0719 -1.1012
 3296SOL    HW221522   2.553   0.434   2.751 -3.0262  1.1168 -0.1189
 3297SOL     OW21523   1.426   2.887   8.838  0.3367  0.2631 -0.8558
 3297SOL    HW121524   1.497   2.920   8.894  2.5016 -0.5503 -3.1396
 3297SOL    HW221525   1.433   2.949   8.766 -1.3497  1.8497  0.3398
 3298SOL     OW21526   4.329   3.660   3.856  0.1645 -0.1826 -0.1994
 3298SOL    HW121527   4.424   3.658   3.846  0.2144 -2.7292  0.6361
 3298SOL    HW221528   4.317   3.580   3.908 -1.9770  0.2689 -0.0035
 3299SOL     OW21529   3.872   0.246   0.028 -0.3724  0.2264  0.5820
 3299SOL    HW121530   3.841   0.164   0.065  0.1412 -0.9943 -1.6675
 3299SOL    HW221531   3.873   0.209  17.691  0.1043  0.2501  0.5745
 3300SOL     OW21532   2.351   2.436   2.732 -0.3219  0.2429 -0.3835
 3300SOL    HW121533   2.269   2.407   2.693 -0.7178 -1.3100  1.6200
 3300SOL    HW221534   2.389   2.351   2.751  0.1157  0.7133  0.8750
 3301SOL     OW21535   0.421   0.360   1.773 -0.5816  0.0566 -0.9550
 3301SOL    HW121536   0.503   0.310   1.774 -0.2227  0.6698  0.1492
 3301SOL    HW221537   0.439   0.451   1.794 -0.1574  0.2260 -2.1101
 3302SOL     OW21538   1.679   1.387   5.225 -0.5055 -0.5356 -0.7159
 3302SOL    HW121539   1.588   1.415   5.221  0.5797  2.9929 -0.7501
 3302SOL    HW221540   1.690   1.343   5.309  0.7751 -1.2630 -1.2603
 3303SOL     OW21541   3.269   1.748   4.411  0.2609 -0.9360 -0.1549
 3303SOL    HW121542   3.308   1.780   4.493 -1.1096 -2.0921  0.9357
 3303SOL    HW221543   3.247   1.657   4.433 -0.7569  0.0045  2.7774
 3304SOL     OW21544   2.853   0.249  12.682 -0.4958 -0.1475 -0.4819
 3304SOL    HW121545   2.814   0.335  12.697  1.5548  0.8015 -0.5345
 3304SOL    HW221546   2.855   0.258  12.586 -0.2379  0.0384 -0.4599
 3305SOL     OW21547   0.255   0.349   0.750  0.1649 -0.3619 -0.0407
 3305SOL    HW121548   0.225   0.438   0.770  2.0916  0.6854 -1.8638
 3305SOL    HW221549   0.293   0.363   0.663 -0.1859  0.3465 -0.0805
 3306SOL     OW21550   0.889   1.927   7.220 -0.5677  0.8254  0.1840
 3306SOL    HW121551   0.907   1.856   7.158  2.4727  1.0667  0.7909
 3306SOL    HW221552   0.974   1.933   7.264 -0.3549  0.4036 -0.1611
 3307SOL     OW21553   0.583   4.493   4.886 -0.2518  0.3016  0.0656
 3307SOL    HW121554   0.492   4.470   4.865 -0.9062  0.9673  2.1502
 3307SOL    HW221555   0.603   4.457   4.800  0.6359  1.0718 -0.0467
 3308SOL     OW21556   3.170   4.378   5.935 -0.1971 -0.1577  0.4036
 3308SOL    HW121557   3.095   4.419   5.977  1.1698  2.3685  0.3777
 3308SOL    HW221558   3.158   4.418   5.849 -1.4872 -0.0835  0.6199
 3309SOL     OW21559   0.637   0.784   6.618 -0.1536  0.5106  0.4097
 3309SOL    HW121560   0.679   0.832   6.547  2.0872 -1.2739  0.5492
 3309SOL    HW221561   0.546   0.795   6.591  0.0606 -2.4393 -1.4799
 3310SOL     OW21562   3.417   0.756   8.052  0.2656 -0.0110 -1.0239
 3310SOL    HW121563   3.386   0.674   8.012 -0.0334  0.0579 -0.9378
 3310SOL    HW221564   3.365   0.752   8.132  4.2238  2.7419  1.6284
 3311SOL     OW21565   0.310   3.169  11.319  0.3649 -0.4710  0.0973
 3311SOL    HW121566   0.295   3.252  11.275  0.2173 -0.4274  0.2310
 3311SOL    HW221567   0.261   3.115  11.257  2.3017 -1.9814 -0.1254
 3312SOL     OW21568   1.302   1.168   8.989 -0.7414 -0.7218 -0.3917
 3312SOL    HW121569   1.329   1.195   9.077 -1.1915  0.8851 -0.7419
 3312SOL    HW221570   1.328   1.076   8.997 -1.9478 -1.0437 -0.2574
 3313SOL     OW21571   4.373   4.725  12.996  0.8594  0.0797 -0.7222
 3313SOL    HW121572   4.298   4.717  13.055 -0.3723  0.6608 -2.2098
 3313SOL    HW221573   4.401   4.634  12.994 -0.0093 -0.1571 -1.7310
 3314SOL     OW21574   3.734   2.217   7.074  0.1136  0.1769  0.3000
 3314SOL    HW121575   3.717   2.311   7.062 -0.0505  0.0868 -0.1565
 3314SOL    HW221576   3.737   2.206   7.169 -1.8595  1.6386  0.5377
 3315SOL     OW21577   1.786   1.182   8.876  0.0092 -0.3694 -0.1923
 3315SOL    HW121578   1.804   1.144   8.961  1.0293 -0.0785 -0.2710
 3315SOL    HW221579   1.859   1.149   8.824  1.1147  0.0206  1.1119
 3316SOL     OW21580   2.638   4.592  15.934  0.8307  0.3313  0.2884
 3316SOL    HW121581   2.558   4.629  15.895  0.0937 -1.6886 -0.0765
 3316SOL    HW221582   2.676   4.558  15.854 -2.6031 -1.6561 -0.5150
 3317SOL     OW21583   3.589   0.153   3.261 -0.5993 -0.2417 -0.7070
 3317SOL    HW121584   3.660   0.212   3.237  1.2172 -0.9929  2.7684
 3317SOL    HW221585   3.644   0.082   3.296 -1.5175 -0.7966 -0.3772
 3318SOL     OW21586   2.079   0.032   3.416 -0.0969 -0.4083  0.0071
 3318SOL    HW121587   2.070   0.127   3.415 -0.5301 -0.4315  1.8367
 3318SOL    HW221588   2.026   0.003   3.490 -1.0918  0.0573 -0.5262
 3319SOL     OW21589   4.538   2.122   4.324 -0.3490  0.2168 -0.5144
 3319SOL    HW121590   4.508   2.117   4.415 -1.2821 -0.8273 -0.8723
 3319SOL    HW221591   4.620   2.074   4.325 -1.1767 -1.1684  0.2241
 3320SOL     OW21592   2.490   2.265   8.086  0.3473  0.4303  0.4887
 3320SOL    HW121593   2.429   2.289   8.016  0.6243 -0.9383 -0.2261
 3320SOL    HW221594   2.472   2.335   8.148  0.5610  0.6386  0.3157
 3321SOL     OW21595   2.183   3.208   9.235 -0.5348 -0.4005 -0.1600
 3321SOL    HW121596   2.115   3.272   9.213  2.0996  2.5306  0.1491
 3321SOL    HW221597   2.183   3.191   9.330 -1.2919  2.6342  0.4050
 3322SOL     OW21598   3.473   2.663   6.379 -0.3188  0.4591  0.4687
 3322SOL    HW121599   3.542   2.597   6.375 -1.2722 -0.5274  0.3535
 3322SOL    HW221600   3.465   2.690   6.288  0.5008  0.8788  0.5225
 3323SOL     OW21601   2.186   1.522  17.059  1.0415  0.5532  0.2579
 3323SOL    HW121602   2.257   1.575  17.095  1.7398  1.3639 -2.3033
 3323SOL    HW221603   2.154   1.486  17.141  3.8995 -0.5772  0.8979
 3324SOL     OW21604   4.726   3.270   6.066  0.0542 -0.4978  0.9646
 3324SOL    HW121605   4.651   3.306   6.018 -0.1026 -1.4950  0.4723
 3324SOL    HW221606   0.028   3.344   6.112  0.6522 -0.1329 -0.1507
 3325SOL     OW21607   1.787   3.604  14.870 -0.2486 -0.4016  0.0152
 3325SOL    HW121608   1.779   3.665  14.943  1.3953 -1.9359  1.4816
 3325SOL    HW221609   1.878   3.619  14.845 -0.9750  2.6051 -0.8916
 3326SOL     OW21610   2.851   0.799  12.130 -0.0147  0.0197  0.4073
 3326SOL    HW121611   2.762   0.766  12.146 -0.4414  0.9948 -0.0028
 3326SOL    HW221612   2.849   0.818  12.037  0.4189  1.6565  0.7308
 3327SOL     OW21613   2.439   3.885   9.957 -0.5430 -0.2560 -0.2814
 3327SOL    HW121614   2.389   3.808   9.930 -0.4752 -1.5826  3.2845
 3327SOL    HW221615   2.512   3.842  10.001 -2.4525 -0.1186  2.9999
 3328SOL     OW21616   3.178   0.049   2.841  0.5510 -0.9542 -0.2553
 3328SOL    HW121617   3.157   4.736   2.763 -0.9554 -0.6095 -0.0846
 3328SOL    HW221618   3.194   0.139   2.811 -1.4101 -0.3019  0.6405
 3329SOL     OW21619   1.563   4.281   3.696  0.0960 -0.0283 -0.4901
 3329SOL    HW121620   1.649   4.281   3.737 -0.6541 -0.9421  1.1099
 3329SOL    HW221621   1.544   4.191   3.668  1.7996 -1.3737  2.6279
 3330SOL     OW21622   1.499   2.144   5.297  0.0908 -0.0825  0.4637
 3330SOL    HW121623   1.446   2.224   5.292 -0.2014 -0.4095 -1.4968
 3330SOL    HW221624   1.516   2.128   5.390  1.0256 -2.2031 -0.0724
 3331SOL     OW21625   3.507   2.533   3.741  0.3655  0.0069 -0.5923
 3331SOL    HW121626   3.501   2.620   3.702 -2.5408 -0.3815 -1.0679
 3331SOL    HW221627   3.488   2.553   3.832 -0.8958 -1.3982 -0.5453
 3332SOL     OW21628   3.502   4.342   1.905  0.4631 -0.0971 -0.0870
 3332SOL    HW121629   3.575   4.391   1.869 -0.2170  1.5842  0.7938
 3332SOL    HW221630   3.522   4.251   1.882  0.7178 -0.4822  1.6302
 3333SOL     OW21631   0.513   2.984   9.649  0.1765  0.6615  0.1128
 3333SOL    HW121632   0.468   2.995   9.565 -0.0153  0.8721  0.2404
 3333SOL    HW221633   0.601   2.959   9.621 -0.8098 -0.4940 -1.8695
 3334SOL     OW21634   3.134   1.488   8.688  0.1774  0.3882  0.1901
 3334SOL    HW121635   3.187   1.505   8.610 -1.9289  1.0252 -1.0873
 3334SOL    HW221636   3.203   1.485   8.754  0.7042 -1.3866 -0.4418
 3335SOL     OW21637   4.374   3.570   4.872  0.2249 -0.2734  0.1768
 3335SOL    HW121638   4.407   3.480   4.875  0.3647 -0.1701  1.9551
 3335SOL    HW221639   4.287   3.557   4.833 -0.2812  0.0101  1.2193
 3336SOL     OW21640   0.253   1.698  10.963 -0.1076 -0.3717  0.1714
 3336SOL    HW121641   0.331   1.744  10.931  0.4834 -1.6718 -0.2195
 3336SOL    HW221642   0.186   1.762  10.937  0.2264 -0.2932 -0.5046
 3337SOL     OW21643   1.238   2.079   1.799  0.1825  0.1791 -0.3085
 3337SOL    HW121644   1.226   2.156   1.854  0.4072  0.6631 -0.9347
 3337SOL    HW221645   1.205   2.114   1.716 -0.4770  0.6549  0.1499
 3338SOL     OW21646   2.450   3.095   1.766 -0.5606 -0.1105  0.9595
 3338SOL    HW121647   2.418   3.037   1.696  1.4309  1.9073 -1.5962
 3338SOL    HW221648   2.485   3.166   1.712  0.5716 -0.4968  1.1927
 3339SOL     OW21649   4.401   2.567   4.483  0.2774  0.1171  0.2554
 3339SOL    HW121650   4.312   2.563   4.449  0.0490 -0.6056  0.9371
 3339SOL    HW221651   4.442   2.512   4.415 -0.0433 -1.1695  1.1009
 3340SOL     OW21652   0.194   2.548   1.894  0.2259 -1.0414  0.3435
 3340SOL    HW121653   0.259   2.490   1.934 -1.2475 -1.5683  1.9971
 3340SOL    HW221654   0.134   2.565   1.967  0.1095 -3.4596  0.8227
 3341SOL     OW21655   0.249   0.476   2.419  0.4600  0.2382 -0.0874
 3341SOL    HW121656   0.199   0.444   2.344  0.8801 -0.6148 -0.0023
 3341SOL    HW221657   0.334   0.496   2.379  1.1475  0.4088  1.4597
 3342SOL     OW21658   0.382   2.793   8.219 -0.2481  0.5810  0.2302
 3342SOL    HW121659   0.384   2.804   8.124  1.2821  0.2368  0.2135
 3342SOL    HW221660   0.324   2.718   8.232 -1.3641  1.5476  0.7314
 3343SOL     OW21661   2.806   1.907   3.384 -0.4638 -0.8717  0.4501
 3343SOL    HW121662   2.829   1.834   3.441  1.2687 -0.1034  0.7503
 3343SOL    HW221663   2.888   1.955   3.369 -0.2855 -1.3192  0.0150
 3344SOL     OW21664   4.690   1.933   4.632 -0.0985 -0.9014  0.0155
 3344SOL    HW121665   4.728   1.846   4.648  2.0277 -0.2029 -1.2564
 3344SOL    HW221666   4.718   1.943   4.542 -0.3907  1.6259  0.2220
 3345SOL     OW21667   4.365   4.691   8.724  0.1095 -0.7038  0.3612
 3345SOL    HW121668   4.355   4.596   8.717 -1.8885 -0.4440 -0.1381
 3345SOL    HW221669   4.426   4.704   8.797 -0.9456 -1.7410  1.4212
 3346SOL     OW21670   2.792   0.635   1.744  0.1163  0.1838 -0.0362
 3346SOL    HW121671   2.803   0.630   1.839 -0.6884  0.7841  0.0883
 3346SOL    HW221672   2.740   0.555   1.736  1.4181 -0.5683 -0.8770
 3347SOL     OW21673   3.330   0.388   4.742 -0.1533 -0.1205 -0.2802
 3347SOL    HW121674   3.242   0.406   4.708  0.0906 -1.7262 -1.7421
 3347SOL    HW221675   3.314   0.350   4.828  0.4372  0.4748  0.0928
 3348SOL     OW21676   2.451   4.572   4.297  0.2325  0.4286 -0.3508
 3348SOL    HW121677   2.388   4.626   4.345 -1.4241 -1.5931 -0.2849
 3348SOL    HW221678   2.456   4.624   4.217  0.5889 -0.8033 -1.1273
 3349SOL     OW21679   0.339   4.444  17.709 -0.4921  0.0542  0.4998
 3349SOL    HW121680   0.428   4.468  17.736 -0.0435  0.5292 -1.3641
 3349SOL    HW221681   0.315   4.384   0.028 -1.9877  0.1467  0.0618
 3350SOL     OW21682   3.203   3.944   2.453  0.9470 -0.0837  0.7199
 3350SOL    HW121683   3.266   4.004   2.414  0.2630  1.2823  1.6970
 3350SOL    HW221684   3.226   3.966   2.544  1.0272  1.3474  0.3601
 3351SOL     OW21685   2.223   4.318  14.644 -0.1815 -0.1362 -0.0714
 3351SOL    HW121686   2.134   4.284  14.635  0.2160 -1.7383  2.1583
 3351SOL    HW221687   2.204   4.411  14.627 -0.9216 -0.3461 -0.4069
 3352SOL     OW21688   3.953   3.376  15.337 -0.4163 -0.0217 -0.3132
 3352SOL    HW121689   3.887   3.316  15.370 -0.7825 -0.4986 -1.9346
 3352SOL    HW221690   4.016   3.367  15.409 -0.0139  0.0386 -0.6566
 3353SOL     OW21691   0.131   4.603   5.051 -0.3291  0.2760 -0.2397
 3353SOL    HW121692   0.079   4.682   5.058  0.0999  0.5519 -0.1683
 3353SOL    HW221693   0.204   4.622   5.110 -0.6542  0.6192  0.0484
 3354SOL     OW21694   2.478   0.567   1.460  0.4541 -0.1660  0.2146
 3354SOL    HW121695   2.442   0.562   1.372  0.8628 -0.6294  0.0738
 3354SOL    HW221696   2.402   0.595   1.511  0.9287 -0.6087  1.1860
 3355SOL     OW21697   1.543   3.606  11.459 -0.8213  0.5823 -0.4610
 3355SOL    HW121698   1.617   3.666  11.454  0.8520 -1.2780  1.9164
 3355SOL    HW221699   1.484   3.646  11.395  0.6264  3.7503  0.1879
 3356SOL     OW21700   1.486   4.171   7.441  0.3390 -0.2129  0.5635
 3356SOL    HW121701   1.393   4.156   7.458 -0.2130 -0.0883 -2.4042
 3356SOL    HW221702   1.486   4.263   7.413 -0.0292 -0.5641 -0.5853
 3357SOL     OW21703   1.211   3.613   6.806 -0.8275  0.1098 -0.2061
 3357SOL    HW121704   1.174   3.534   6.766 -1.8789 -0.6185  2.1917
 3357SOL    HW221705   1.244   3.663   6.732 -0.6429 -1.0775 -0.9285
 3358SOL     OW21706   4.493   3.707   4.455  0.2156  0.1022  0.3625
 3358SOL    HW121707   4.502   3.728   4.548  0.7343 -1.1552  0.5986
 3358SOL    HW221708   4.398   3.699   4.442  0.9090 -3.0168 -2.6681
 3359SOL     OW21709   0.954   2.199   8.810  0.4422 -0.3244  0.0588
 3359SOL    HW121710   0.860   2.216   8.798  0.5610  0.6640  0.4927
 3359SOL    HW221711   0.997   2.238   8.734 -1.3466 -0.6435 -1.1261
 3360SOL     OW21712   0.144   0.250   1.843 -0.4111 -0.3017 -0.4826
 3360SOL    HW121713   0.232   0.285   1.831 -0.2608 -0.0130  1.3577
 3360SOL    HW221714   0.114   0.320   1.902  0.5634 -0.0813 -0.2324
 3361SOL     OW21715   1.647   1.623   7.262 -0.4505  0.2030 -0.0456
 3361SOL    HW121716   1.719   1.644   7.203  1.1629  1.5512  2.3664
 3361SOL    HW221717   1.686   1.683   7.326  2.9020 -1.6613 -0.3875
 3362SOL     OW21718   0.158   2.744   5.252 -0.3658 -0.0222  0.0881
 3362SOL    HW121719   0.187   2.685   5.321  0.6153  0.4968  0.1090
 3362SOL    HW221720   0.238   2.774   5.210 -0.3360 -2.6531 -1.7709
 3363SOL     OW21721   1.353   2.630   8.788 -0.4533  0.1472  0.2101
 3363SOL    HW121722   1.371   2.724   8.782  0.0936 -0.0134 -0.7374
 3363SOL    HW221723   1.399   2.607   8.868  0.5181 -0.1417 -0.4423
 3364SOL     OW21724   4.032   3.682   7.464  0.0914 -0.3305 -0.1599
 3364SOL    HW121725   4.085   3.744   7.514 -0.6293  2.5284 -2.9678
 3364SOL    HW221726   3.976   3.740   7.413 -0.4730  0.6513  1.5541
 3365SOL     OW21727   3.292   3.534   8.247 -0.1091  0.4623  0.0862
 3365SOL    HW121728   3.216   3.588   8.226  0.2861  0.9955  0.0160
 3365SOL    HW221729   3.367   3.591   8.269 -0.9944  1.1921  1.2121
 3366SOL     OW21730   2.591   3.870   8.878 -0.1602 -0.3123 -0.3644
 3366SOL    HW121731   2.566   3.866   8.785 -1.4404 -2.0206  0.0261
 3366SOL    HW221732   2.686   3.861   8.875 -0.1852 -0.1022 -2.0736
 3367SOL     OW21733   4.715   1.070   5.933 -0.2063  0.0684  0.2057
 3367SOL    HW121734   0.071   1.084   5.931 -0.0412 -0.8607  1.8222
 3367SOL    HW221735   4.701   0.999   5.869 -1.9972  1.9446 -1.4663
 3368SOL     OW21736   3.289   3.350  12.772  0.3282  0.1290  0.1212
 3368SOL    HW121737   3.236   3.273  12.792 -2.5786  2.1542  0.1586
 3368SOL    HW221738   3.279   3.403  12.851 -1.0393 -1.5300  1.0660
 3369SOL     OW21739   0.813   3.781  14.413 -0.4217 -0.0740 -0.2767
 3369SOL    HW121740   0.742   3.717  14.418  0.1777 -0.7322 -0.1354
 3369SOL    HW221741   0.885   3.728  14.447 -1.3607 -1.4552 -0.4339
 3370SOL     OW21742   0.154   1.280   2.100 -1.0110  0.4998  0.0226
 3370SOL    HW121743   0.065   1.294   2.131 -1.9811 -0.5883 -2.2928
 3370SOL    HW221744   0.155   1.188   2.076 -0.6427  0.3373  0.6931
 3371SOL     OW21745   0.350   3.331   0.848 -0.6206 -0.2240 -0.0106
 3371SOL    HW121746   0.255   3.323   0.842 -0.3548 -3.7883  0.4692
 3371SOL    HW221747   0.388   3.248   0.819  2.4343  1.0195  0.4007
 3372SOL     OW21748   4.185   2.570   4.727 -0.5900 -0.1338  0.0596
 3372SOL    HW121749   4.233   2.585   4.645  2.6492 -1.5224  1.7195
 3372SOL    HW221750   4.097   2.548   4.695 -0.7688  1.6549 -0.6832
 3373SOL     OW21751   4.563   0.251  12.424  0.2337 -0.1471  0.0583
 3373SOL    HW121752   4.589   0.343  12.428 -1.2114  0.2935 -1.0284
 3373SOL    HW221753   4.527   0.242  12.336  0.9145  1.4995 -0.3743
 3374SOL     OW21754   1.000   1.678   5.957  0.4623  0.3300  0.0888
 3374SOL    HW121755   0.961   1.618   6.020 -0.3965  1.4996  0.6860
 3374SOL    HW221756   1.093   1.673   5.977  0.4737 -0.5563 -0.1976
 3375SOL     OW21757   4.381   4.643   6.192 -0.1071  0.7453  0.1391
 3375SOL    HW121758   4.398   4.609   6.104 -0.6329  0.2473  0.2301
 3375SOL    HW221759   4.472   4.640   6.220 -0.5203  2.5644  1.6822
 3376SOL     OW21760   3.077   2.016   7.924 -0.1711  0.7523 -0.3072
 3376SOL    HW121761   2.994   1.968   7.932  0.4840 -0.1763  1.0551
 3376SOL    HW221762   3.042   2.097   7.888 -1.6832 -0.0645 -0.6792
 3377SOL     OW21763   3.532   1.635   2.582  0.3610  0.2664  0.1752
 3377SOL    HW121764   3.510   1.686   2.660  0.3304 -1.3171  1.1987
 3377SOL    HW221765   3.456   1.577   2.576  1.1908 -1.0074  2.2311
 3378SOL     OW21766   3.398   3.619   2.135 -0.1213 -0.3577  0.2464
 3378SOL    HW121767   3.472   3.624   2.196  0.2423  0.8073 -0.2952
 3378SOL    HW221768   3.329   3.666   2.183  1.5638  0.9331  1.4121
 3379SOL     OW21769   0.968   1.577   4.726 -0.5509  0.4500 -0.2754
 3379SOL    HW121770   0.931   1.652   4.774  0.0750  1.4100 -1.2832
 3379SOL    HW221771   1.014   1.626   4.658  0.3889  0.6337  0.4938
 3380SOL     OW21772   2.710   1.124   2.768  0.4853  0.6217 -0.2493
 3380SOL    HW121773   2.717   1.147   2.675  0.4280 -1.1145 -0.6868
 3380SOL    HW221774   2.727   1.030   2.766 -2.5406  0.0364  1.4256
 3381SOL     OW21775   2.375   4.099   8.514  0.4193 -0.2106  0.2095
 3381SOL    HW121776   2.437   4.030   8.536 -1.1231 -0.5698  3.4080
 3381SOL    HW221777   2.340   4.116   8.602 -1.0848 -0.0628 -0.4104
 3382SOL     OW21778   3.644   3.255   5.190  0.0259 -0.6421 -0.2121
 3382SOL    HW121779   3.681   3.270   5.278  0.8981  0.5882 -0.7804
 3382SOL    HW221780   3.718   3.216   5.145  2.2709  1.3642  1.6960
 3383SOL     OW21781   3.861   3.968   2.360 -0.1814 -0.0747 -0.2480
 3383SOL    HW121782   3.863   3.969   2.264  1.4284  0.0893 -0.2063
 3383SOL    HW221783   3.846   3.876   2.383  0.6507 -0.3778 -0.9360
 3384SOL     OW21784   2.495   1.938   7.207  0.1762  0.5273 -0.8383
 3384SOL    HW121785   2.530   1.849   7.209  1.2742  0.9771 -0.0049
 3384SOL    HW221786   2.575   1.989   7.192  0.9430  0.1539  1.9123
 3385SOL     OW21787   3.437   0.971   9.867  0.1055 -0.5996 -0.1882
 3385SOL    HW121788   3.474   1.009   9.787 -1.1296  1.3753  0.1836
 3385SOL    HW221789   3.514   0.975   9.923  0.2450 -0.0346 -0.4158
 3386SOL     OW21790   0.568   0.295   3.859  0.3911  0.4828 -0.2946
 3386SOL    HW121791   0.483   0.320   3.822  1.6066  1.0943 -2.6534
 3386SOL    HW221792   0.612   0.273   3.777  0.7838  1.4909 -0.3408
 3387SOL     OW21793   1.992   1.729   8.348  0.3474  0.1409 -0.8794
 3387SOL    HW121794   1.910   1.684   8.368  2.3851 -2.5025  1.5581
 3387SOL    HW221795   1.961   1.783   8.275 -2.5258 -0.2298  0.0629
 3388SOL     OW21796   2.212   3.002   8.450  0.1140 -0.4156 -0.9586
 3388SOL    HW121797   2.128   2.965   8.421 -0.7549 -0.1812  1.2020
 3388SOL    HW221798   2.261   2.921   8.463 -1.4468 -1.2468 -0.2224
 3389SOL     OW21799   3.116   2.835   1.887 -0.0439 -0.0799 -0.2051
 3389SOL    HW121800   3.161   2.868   1.965 -0.8279  0.1640  0.1494
 3389SOL    HW221801   3.036   2.887   1.896  0.1782 -0.0496  1.6508
 3390SOL     OW21802   4.393   0.411  12.783 -0.3546 -0.3492  0.2172
 3390SOL    HW121803   4.414   0.321  12.806  2.5407 -0.0195 -1.1160
 3390SOL    HW221804   4.298   0.403  12.776 -0.3404 -2.8103  2.6884
 3391SOL     OW21805   4.305   0.780   9.594  0.3969  0.1824 -0.9229
 3391SOL    HW121806   4.332   0.691   9.614 -2.2270  0.5959  4.5770
 3391SOL    HW221807   4.287   0.765   9.502  0.7155  0.5819 -1.0503
 3392SOL     OW21808   2.075   0.898  12.742 -0.7166  0.2333 -0.1463
 3392SOL    HW121809   2.070   0.840  12.818 -1.2368  0.8365  0.2797
 3392SOL    HW221810   2.032   0.976  12.778  1.2147  1.0070  0.4717
 3393SOL     OW21811   1.685   2.379   7.443  0.0882  0.2114  0.3539
 3393SOL    HW121812   1.630   2.378   7.520  0.3586 -2.8755  0.5216
 3393SOL    HW221813   1.775   2.370   7.475  0.3781  2.5339  0.1764
 3394SOL     OW21814   1.389   1.854  16.109  0.3519 -0.3733 -0.1983
 3394SOL    HW121815   1.298   1.825  16.120 -0.4214  2.8573  1.8185
 3394SOL    HW221816   1.377   1.942  16.144  0.0839 -0.0641 -1.0531
 3395SOL     OW21817   0.429   0.393   4.659 -0.0491  0.1260  0.4993
 3395SOL    HW121818   0.483   0.318   4.634 -0.5153  0.6829 -2.2025
 3395SOL    HW221819   0.369   0.398   4.585 -0.9641 -1.3383  1.1427
 3396SOL     OW21820   1.648   3.896   7.728 -0.4620  0.7986 -0.3975
 3396SOL    HW121821   1.650   3.823   7.666  2.6751  0.6967 -0.1928
 3396SOL    HW221822   1.696   3.964   7.681  1.4824  0.5123  1.1626
 3397SOL     OW21823   3.174   4.190   7.403  0.0682 -0.1998  0.0379
 3397SOL    HW121824   3.119   4.215   7.477 -0.2911 -2.4079  0.5122
 3397SOL    HW221825   3.166   4.095   7.412 -2.3854 -0.2893 -3.0753
 3398SOL     OW21826   3.556   3.780   0.244 -0.3738 -0.5892  0.0101
 3398SOL    HW121827   3.498   3.843   0.200 -1.1767 -0.7239  0.8549
 3398SOL    HW221828   3.544   3.711   0.179 -1.2372 -0.0666 -0.3920
 3399SOL     OW21829   2.957   3.250   8.320 -0.3082  0.4778 -0.2475
 3399SOL    HW121830   2.977   3.308   8.393 -3.5417 -0.6039  1.5098
 3399SOL    HW221831   2.932   3.311   8.250 -0.1800 -3.1850 -3.5132
 3400SOL     OW21832   1.891   4.412  15.767  0.0615  0.7443  0.6004
 3400SOL    HW121833   1.827   4.446  15.705  0.0802 -0.9250 -0.3203
 3400SOL    HW221834   1.885   4.476  15.838 -1.8787  1.0472  0.1521
 3401SOL     OW21835   1.277   3.585   9.502 -0.2019 -0.1648  0.1809
 3401SOL    HW121836   1.323   3.628   9.575  0.1900 -1.5070  0.7133
 3401SOL    HW221837   1.311   3.616   9.418  0.3642 -1.0957  0.0727
 3402SOL     OW21838   1.955   0.220   7.494 -0.3874  0.1386 -0.6425
 3402SOL    HW121839   1.962   0.153   7.562  1.6849  0.9872 -0.0253
 3402SOL    HW221840   1.878   0.194   7.443 -0.0047 -1.4060 -0.4536
 3403SOL     OW21841   3.267   3.544  10.137  0.3735  0.2809 -0.1891
 3403SOL    HW121842   3.214   3.582  10.207 -2.5447 -0.2784 -2.0845
 3403SOL    HW221843   3.197   3.495  10.094  0.2736  1.8823 -1.8348
 3404SOL     OW21844   0.149   2.221   0.435 -0.2439 -0.0365  0.0772
 3404SOL    HW121845   0.159   2.283   0.507  0.1957  2.4898 -2.1679
 3404SOL    HW221846   0.207   2.265   0.374  1.7506 -0.7952  1.3996
 3405SOL     OW21847   4.310   3.558   1.728  0.3857 -0.4598  0.1140
 3405SOL    HW121848   4.382   3.609   1.765  0.5885  0.0162 -0.9698
 3405SOL    HW221849   4.242   3.599   1.782  0.3919 -0.3745  0.0566
 3406SOL     OW21850   0.252   3.988   2.266 -0.1606  0.2044 -0.1731
 3406SOL    HW121851   0.199   4.064   2.243  2.1876  1.6535 -0.6909
 3406SOL    HW221852   0.250   4.003   2.361 -1.0511 -0.2048 -0.1224
 3407SOL     OW21853   1.361   0.078   0.911 -0.4527 -0.1833  0.3616
 3407SOL    HW121854   1.395   0.121   0.833  1.5167  1.1518  1.9469
 3407SOL    HW221855   1.311   0.151   0.945 -1.6967 -1.4547  1.2585
 3408SOL     OW21856   3.829   3.670  16.139 -0.4019  0.0217  0.0450
 3408SOL    HW121857   3.792   3.696  16.223  1.7996  1.8515  0.4496
 3408SOL    HW221858   3.792   3.735  16.080  0.6484 -0.0567 -0.7184
 3409SOL     OW21859   0.689   0.975   1.371  0.0569  0.1528  0.6028
 3409SOL    HW121860   0.676   1.005   1.461 -0.8339  0.7042  0.2854
 3409SOL    HW221861   0.780   1.000   1.357  0.0819 -0.5962 -0.6294
 3410SOL     OW21862   1.232   1.939   8.953  0.2576  0.3816 -0.3277
 3410SOL    HW121863   1.224   1.894   9.038 -2.4199 -0.9197 -1.2861
 3410SOL    HW221864   1.153   1.905   8.911  0.0174  0.3314  0.1590
 3411SOL     OW21865   0.679   3.981   8.538 -0.5566  0.0413 -0.2320
 3411SOL    HW121866   0.595   4.025   8.547  0.7361  2.3548  0.6063
 3411SOL    HW221867   0.664   3.931   8.458 -1.3204  0.0345 -0.0788
 3412SOL     OW21868   1.982   3.927   1.327 -0.5480 -0.8334 -0.2648
 3412SOL    HW121869   2.046   3.990   1.359 -3.1974  1.7480 -0.0195
 3412SOL    HW221870   1.906   3.985   1.324  1.0358  1.3092  0.7510
 3413SOL     OW21871   0.063   3.990   3.305  0.1939 -0.1094 -0.1665
 3413SOL    HW121872   0.104   4.068   3.342  1.2235 -1.4295  1.4996
 3413SOL    HW221873   0.136   3.927   3.309 -1.3497 -1.6773  3.3088
 3414SOL     OW21874   3.784   4.244   0.325  0.1792  0.0003 -0.1168
 3414SOL    HW121875   3.838   4.202   0.392 -1.0815 -0.0418  0.8744
 3414SOL    HW221876   3.701   4.250   0.372  0.1839  0.2380 -0.1380
 3415SOL     OW21877   2.754   1.307   3.970 -0.1677  0.2725  0.5308
 3415SOL    HW121878   2.714   1.260   4.043  0.1390  1.1745  1.2858
 3415SOL    HW221879   2.776   1.239   3.906  1.8046  1.7958 -0.4004
 3416SOL     OW21880   4.337   3.108  10.847  0.5084 -0.0733  0.0382
 3416SOL    HW121881   4.307   3.173  10.783  2.7341  1.9972  1.0947
 3416SOL    HW221882   4.327   3.158  10.928  2.0870 -1.1163  0.8672
 3417SOL     OW21883   3.411   4.503   4.342 -0.4069 -0.1599 -0.1758
 3417SOL    HW121884   3.400   4.573   4.277  1.5969 -0.3005 -0.6708
 3417SOL    HW221885   3.451   4.547   4.417  0.7512 -1.5043  0.0133
 3418SOL     OW21886   1.278   1.868   7.614  0.5584  0.1221  0.3718
 3418SOL    HW121887   1.214   1.939   7.624  1.8976  1.2288  1.0322
 3418SOL    HW221888   1.225   1.790   7.633  3.6744 -2.2514 -0.7139
 3419SOL     OW21889   1.389   4.490   9.374  0.4241 -0.0151 -0.5183
 3419SOL    HW121890   1.365   4.546   9.448 -0.5753 -3.4349  1.7295
 3419SOL    HW221891   1.329   4.506   9.301 -0.9585 -0.6607  0.4774
 3420SOL     OW21892   0.944   3.912   4.978  0.0525  0.7287  0.2072
 3420SOL    HW121893   1.033   3.885   4.955 -0.3938 -0.3683 -0.2447
 3420SOL    HW221894   0.916   3.958   4.899  0.9873 -1.1695 -1.2203
 3421SOL     OW21895   3.051   4.257  15.097  0.2229 -0.3849  0.0731
 3421SOL    HW121896   2.989   4.229  15.030  2.4591  0.3341 -2.2942
 3421SOL    HW221897   2.997   4.245  15.176  2.5195 -0.4588  1.6417
 3422SOL     OW21898   0.545   3.428   2.344  0.5681  0.0727 -0.7158
 3422SOL    HW121899   0.479   3.481   2.388  0.8242 -1.1518  1.1783
 3422SOL    HW221900   0.613   3.491   2.320 -0.1715  0.3142 -2.1586
 3423SOL     OW21901   2.367   0.379   7.235 -0.2745  0.2596 -0.2864
 3423SOL    HW121902   2.328   0.363   7.150 -0.8522 -0.2032  0.0678
 3423SOL    HW221903   2.289   0.384   7.289 -0.3514  2.4951 -0.5971
 3424SOL     OW21904   3.138   0.324  16.124  0.2176  0.3309  0.5864
 3424SOL    HW121905   3.209   0.388  16.125 -1.0773  1.7156  3.1861
 3424SOL    HW221906   3.143   0.271  16.044 -1.6403  0.4521  0.3670
 3425SOL     OW21907   4.114   0.569   9.748  0.1496 -0.5901  0.1175
 3425SOL    HW121908   4.142   0.497   9.803  1.5344  0.8096  1.2392
 3425SOL    HW221909   4.152   0.550   9.662  2.5988  2.6357  0.4839
 3426SOL     OW21910   3.155   2.286   9.367  0.2799 -0.3994  0.4219
 3426SOL    HW121911   3.247   2.311   9.369 -0.2120  1.1687  3.5326
 3426SOL    HW221912   3.122   2.360   9.418 -4.5479 -1.5027 -1.0697
 3427SOL     OW21913   1.059   1.267   0.500 -0.1259 -0.7976 -0.0146
 3427SOL    HW121914   1.012   1.258   0.417  1.0126 -0.1638 -0.7293
 3427SOL    HW221915   1.150   1.238   0.491  0.0192  0.3928 -2.1419
 3428SOL     OW21916   4.150   1.856  16.880  0.2117 -0.6310  0.6333
 3428SOL    HW121917   4.228   1.894  16.920 -0.8768  1.3379  0.9261
 3428SOL    HW221918   4.119   1.941  16.848  0.7196 -0.0721  1.6123
 3429SOL     OW21919   0.429   3.938   2.969  0.2145 -0.3572  0.3330
 3429SOL    HW121920   0.501   3.912   2.911  0.0645 -0.1561  0.0618
 3429SOL    HW221921   0.350   3.918   2.921 -0.1781  1.9652  0.0140
 3430SOL     OW21922   2.749   0.672   8.215 -0.1900 -0.3511  0.0896
 3430SOL    HW121923   2.701   0.622   8.149  0.9360 -0.0235 -0.9755
 3430SOL    HW221924   2.778   0.747   8.162  0.2481  0.9422  2.1632
 3431SOL     OW21925   0.803   1.053   3.286  0.7154  0.4648  0.2226
 3431SOL    HW121926   0.776   0.971   3.327 -0.7816  0.6487 -0.4022
 3431SOL    HW221927   0.794   1.115   3.358 -0.9971 -1.8849  2.0050
 3432SOL     OW21928   2.337   1.445   2.071 -0.0936  0.2945 -0.3928
 3432SOL    HW121929   2.253   1.432   2.027 -0.8895 -0.2872  1.2910
 3432SOL    HW221930   2.350   1.540   2.070 -0.4588  0.3732  2.9098
 3433SOL     OW21931   1.365   0.251   1.770 -0.3097 -0.3345 -0.5034
 3433SOL    HW121932   1.447   0.221   1.731  0.9306  0.2038  1.6961
 3433SOL    HW221933   1.408   0.313   1.828 -1.8838  0.1827  0.0908
 3434SOL     OW21934   0.114   4.018  17.283 -0.5589  0.2934  0.0984
 3434SOL    HW121935   0.101   3.943  17.225 -0.1223 -1.4462  2.2437
 3434SOL    HW221936   0.028   4.061  17.285 -0.3767  0.6941 -0.6116
 3435SOL     OW21937   2.365   3.260  17.061 -0.0687  0.2545 -0.2474
 3435SOL    HW121938   2.284   3.209  17.053 -0.3191  0.6670 -0.3225
 3435SOL    HW221939   2.416   3.208  16.999 -0.7204 -0.4995 -0.1489
 3436SOL     OW21940   1.770   4.119   5.060 -0.0349  0.6259 -0.0789
 3436SOL    HW121941   1.767   4.188   4.993 -2.0371  1.1982  0.5994
 3436SOL    HW221942   1.677   4.097   5.054 -0.0061  0.1839  1.2344
 3437SOL     OW21943   3.405   3.949   8.179  0.5102  0.2649 -0.1637
 3437SOL    HW121944   3.345   4.006   8.131  0.2344  0.1320  0.0225
 3437SOL    HW221945   3.464   3.919   8.110 -0.3662 -1.9039  0.0156
 3438SOL     OW21946   3.290   2.077   1.453  0.2308 -0.0159  0.2314
 3438SOL    HW121947   3.230   2.077   1.379 -1.1859 -1.9438  1.3875
 3438SOL    HW221948   3.246   2.011   1.506 -0.3982  1.0309  0.9980
 3439SOL     OW21949   4.521   0.463   8.701  0.2067 -0.3932 -0.3013
 3439SOL    HW121950   4.479   0.378   8.711  0.3988 -0.7098 -2.3342
 3439SOL    HW221951   4.498   0.490   8.612  0.2723 -1.3421 -0.6114
 3440SOL     OW21952   2.159   2.544   3.686  0.2668  0.0946  0.3726
 3440SOL    HW121953   2.254   2.532   3.692  0.3025  0.5383  0.7258
 3440SOL    HW221954   2.147   2.639   3.681 -1.1603 -0.1629 -0.9109
 3441SOL     OW21955   0.819   0.836   3.902  1.0232  0.2413  0.1537
 3441SOL    HW121956   0.820   0.758   3.847 -1.2448 -0.1313  0.6400
 3441SOL    HW221957   0.726   0.844   3.924  1.5449  0.2252  2.4021
 3442SOL     OW21958   3.488   1.860   8.033 -0.5724 -0.8617 -0.0355
 3442SOL    HW121959   3.418   1.925   8.029  1.3414  1.2225  0.3380
 3442SOL    HW221960   3.556   1.914   8.072 -1.0852 -0.0195 -0.3192
 3443SOL     OW21961   2.597   1.462  11.670  0.3161 -0.0905  0.2013
 3443SOL    HW121962   2.563   1.498  11.588  0.1610 -0.0577  0.2818
 3443SOL    HW221963   2.681   1.427  11.639  0.8645 -0.5853  2.2304
 3444SOL     OW21964   3.594   3.083   4.301 -0.6523  0.1719 -0.1729
 3444SOL    HW121965   3.575   3.010   4.359 -0.1406  0.1028 -0.0964
 3444SOL    HW221966   3.564   3.041   4.220  0.0455 -0.2610 -0.2002
 3445SOL     OW21967   2.928   0.029   1.766  0.5560 -0.3725  0.3862
 3445SOL    HW121968   2.939   4.710   1.842 -0.6286 -2.4337 -1.0030
 3445SOL    HW221969   3.021   0.040   1.747  0.6377 -0.3509  0.8047
 3446SOL     OW21970   1.803   0.242  12.355 -0.1401  0.1879  0.1018
 3446SOL    HW121971   1.805   0.336  12.372  1.7977  0.6022 -2.5999
 3446SOL    HW221972   1.829   0.212  12.443 -1.0530 -1.5281 -0.2192
 3447SOL     OW21973   0.388   0.602   5.026  0.0358 -0.4230  0.3194
 3447SOL    HW121974   0.410   0.510   5.009 -2.9868 -0.7893 -1.6694
 3447SOL    HW221975   0.420   0.649   4.950 -2.6977  0.7059 -0.1479
 3448SOL     OW21976   0.849   1.284   6.340  0.3317 -0.3277 -0.2298
 3448SOL    HW121977   0.911   1.226   6.385 -0.7876 -1.4047 -0.0949
 3448SOL    HW221978   0.840   1.248   6.252 -1.4077  0.5545 -0.3944
 3449SOL     OW21979   4.430   1.003  12.302  0.6158  0.6318 -0.0620
 3449SOL    HW121980   4.492   1.063  12.343  1.3981 -1.1857  1.3979
 3449SOL    HW221981   4.482   0.927  12.328  1.4373  0.7987 -1.2199
 3450SOL     OW21982   4.430   0.773   4.203  0.3153 -0.3602  0.1190
 3450SOL    HW121983   4.507   0.772   4.260  0.6746 -0.3359 -0.3635
 3450SOL    HW221984   4.393   0.857   4.230 -3.8579 -2.5121  1.0456
 3451SOL     OW21985   4.678   4.008   5.886  0.2204 -0.5059 -0.4408
 3451SOL    HW121986   4.600   4.058   5.909 -0.8634 -0.7711 -3.5427
 3451SOL    HW221987   4.707   4.069   5.818  0.4409 -0.3778 -0.2338
 3452SOL     OW21988   4.580   4.625   1.704  0.5461  0.3397 -0.2408
 3452SOL    HW121989   4.617   4.543   1.737 -0.5762  0.4020  1.1617
 3452SOL    HW221990   4.656   4.681   1.689  0.6240  0.2834 -0.0583
 3453SOL     OW21991   0.068   2.569   6.381 -0.1030  0.2920 -0.9222
 3453SOL    HW121992   0.163   2.572   6.396 -0.6239 -0.6640  2.4764
 3453SOL    HW221993   0.039   2.648   6.427 -0.9012 -0.6855  0.2528
 3454SOL     OW21994   2.530   1.604   7.692 -0.2089 -0.2909  0.6158
 3454SOL    HW121995   2.626   1.597   7.698 -0.1119  0.4538 -0.1034
 3454SOL    HW221996   2.523   1.636   7.602  0.6565 -1.1755  0.2359
 3455SOL     OW21997   1.585   4.505   6.903  0.5717  1.0683  0.6098
 3455SOL    HW121998   1.595   4.596   6.876  1.8212  0.8434  0.2841
 3455SOL    HW221999   1.641   4.472   6.832  0.3615  1.4848  0.2560
 3456SOL     OW22000   0.643   3.170   4.425  0.5058 -0.0075  0.2397
 3456SOL    HW122001   0.670   3.260   4.410 -1.8307  0.7967  0.7870
 3456SOL    HW222002   0.549   3.181   4.415  0.8051  1.2233 -1.0782
 3457SOL     OW22003   1.043   3.680  16.690 -0.1170  0.2671  0.4956
 3457SOL    HW122004   1.091   3.761  16.677  1.4625 -0.5114  1.4315
 3457SOL    HW222005   1.019   3.689  16.783 -0.5263  1.2209  0.2981
 3458SOL     OW22006   4.613   3.110   2.265  0.9132  0.4306 -0.1271
 3458SOL    HW122007   4.702   3.130   2.294  1.4247 -2.4801  0.3529
 3458SOL    HW222008   4.613   3.022   2.303  2.0325  0.7275  0.5722
 3459SOL     OW22009   4.199   0.395   0.274  0.2586  0.0856 -0.7954
 3459SOL    HW122010   4.154   0.328   0.223 -1.2840  2.0939 -2.1175
 3459SOL    HW222011   4.288   0.362   0.285 -0.9006 -3.1784 -1.2045
 3460SOL     OW22012   0.028   2.988   8.121 -0.4949  0.0990 -0.1657
 3460SOL    HW122013   4.697   3.028   8.069 -0.1804 -0.9420 -1.3850
 3460SOL    HW222014   0.005   2.895   8.119  0.6396 -0.2312  1.4682
 3461SOL     OW22015   4.713   3.412   4.719  0.1288  0.0529  0.0629
 3461SOL    HW122016   4.633   3.374   4.757 -1.0868  2.9510  0.4151
 3461SOL    HW222017   0.020   3.330   4.699 -0.4534  0.0665 -1.2481
 3462SOL     OW22018   0.628   0.511   6.369 -0.3189  0.0208 -0.4996
 3462SOL    HW122019   0.591   0.459   6.439 -0.7586  0.5348 -0.3470
 3462SOL    HW222020   0.694   0.448   6.342 -0.5864 -1.1657  1.6770
 3463SOL     OW22021   0.497   1.072   3.376 -0.0723  0.0797  0.3297
 3463SOL    HW122022   0.415   1.120   3.366 -0.3427 -0.3769  0.3435
 3463SOL    HW222023   0.538   1.120   3.447  1.0048 -0.2500 -0.0534
 3464SOL     OW22024   2.309   1.449   2.881 -0.2479  0.2040 -0.2049
 3464SOL    HW122025   2.219   1.417   2.888 -1.2470  3.0874  0.3887
 3464SOL    HW222026   2.359   1.377   2.920  0.9837  0.5627 -1.1060
 3465SOL     OW22027   4.276   4.394   9.852  0.2514 -0.2374  0.1722
 3465SOL    HW122028   4.370   4.382   9.843  0.1892 -0.9162  0.4735
 3465SOL    HW222029   4.265   4.467   9.914  0.8796  0.6474 -0.7526
 3466SOL     OW22030   2.546   3.672   8.472  0.5572  0.4792  0.2468
 3466SOL    HW122031   2.596   3.622   8.408 -0.1391  1.2264 -0.8852
 3466SOL    HW222032   2.497   3.606   8.521  0.8910 -0.7529 -1.0876
 3467SOL     OW22033   2.961   0.386   9.770 -0.5669  0.6676  0.4931
 3467SOL    HW122034   2.942   0.332   9.694 -0.2819  0.0536  0.8572
 3467SOL    HW222035   2.886   0.445   9.771  0.0914  1.5220  0.4731
 3468SOL     OW22036   3.055   0.449   7.751  0.1601  0.2234 -0.0467
 3468SOL    HW122037   3.121   0.402   7.801 -0.7746 -1.4172 -0.3519
 3468SOL    HW222038   3.040   0.376   7.691 -2.0315  1.5155 -1.0931
 3469SOL     OW22039   1.732   1.675   8.415 -0.1576  0.0697  0.7915
 3469SOL    HW122040   1.750   1.679   8.509 -0.4704 -3.1325  0.9833
 3469SOL    HW222041   1.640   1.702   8.408 -0.3391 -1.1731 -1.4775
 3470SOL     OW22042   3.184   0.337  13.446  1.1162 -0.4073 -0.3352
 3470SOL    HW122043   3.260   0.322  13.391 -0.1432  1.1741 -2.5173
 3470SOL    HW222044   3.212   0.298  13.529 -0.0327 -2.4437 -0.8992
 3471SOL     OW22045   0.466   3.309   7.434  0.1045 -0.0503  0.1276
 3471SOL    HW122046   0.431   3.336   7.518  1.1948 -0.4903  0.7224
 3471SOL    HW222047   0.388   3.300   7.379  0.8337  2.0753 -1.2543
 3472SOL     OW22048   3.705   2.247   3.992  0.3572 -0.3076 -0.3431
 3472SOL    HW122049   3.769   2.184   3.957  0.0860 -0.4642 -0.5515
 3472SOL    HW222050   3.759   2.323   4.014  1.2358 -1.2978  0.8779
 3473SOL     OW22051   3.937   1.405   4.022  0.0086 -0.1479  0.6076
 3473SOL    HW122052   3.898   1.492   4.027 -0.3950 -0.3321  0.6630
 3473SOL    HW222053   3.872   1.359   4.076  0.0581 -1.5634 -0.5364
 3474SOL     OW22054   3.966   4.414   2.630  0.1948 -0.2138 -0.4914
 3474SOL    HW122055   3.921   4.375   2.555  0.4135 -0.6458 -0.3989
 3474SOL    HW222056   4.056   4.415   2.598 -0.0046 -2.0048 -1.1099
 3475SOL     OW22057   4.307   0.506   8.437  0.9055  0.1361  1.2219
 3475SOL    HW122058   4.274   0.511   8.347  1.1858  1.3132  1.1932
 3475SOL    HW222059   4.352   0.424   8.416 -0.4235  0.1312 -1.7008
 3476SOL     OW22060   0.962   4.720  14.632 -0.1080 -0.3130  0.4289
 3476SOL    HW122061   0.989   4.716  14.723  0.0079 -0.9547  0.3711
 3476SOL    HW222062   0.912   4.642  14.607  2.1476 -1.8896  0.8411
 3477SOL     OW22063   2.503   2.632   2.387 -0.5203 -0.3941  0.5320
 3477SOL    HW122064   2.449   2.560   2.352  0.3049  0.0952 -1.7133
 3477SOL    HW222065   2.517   2.687   2.310  0.0856 -1.8333 -0.3864
 3478SOL     OW22066   4.173   1.840   4.842 -0.0611  0.2024  0.4709
 3478SOL    HW122067   4.137   1.929   4.845  1.3872  0.7946  0.2706
 3478SOL    HW222068   4.257   1.857   4.883  0.9103  1.6037 -2.0686
 3479SOL     OW22069   0.663   2.921   6.694 -0.3671 -0.0191  0.0351
 3479SOL    HW122070   0.748   2.962   6.678  0.4191 -1.4474  0.5539
 3479SOL    HW222071   0.599   2.989   6.713 -0.0784  0.6238 -1.2868
 3480SOL     OW22072   1.880   2.453   4.676  0.6077 -0.5286 -0.1614
 3480SOL    HW122073   1.917   2.393   4.742  0.0072  0.1027  0.7511
 3480SOL    HW222074   1.952   2.512   4.659 -0.6256  0.8440 -0.6070
 3481SOL     OW22075   2.864   2.933   4.685  0.0147 -0.1481 -0.2089
 3481SOL    HW122076   2.794   2.869   4.671 -0.5193  0.5503 -0.6841
 3481SOL    HW222077   2.820   3.000   4.738  0.2448 -0.3655  0.2635
 3482SOL     OW22078   0.428   2.136   7.450 -0.2109 -0.1642  0.4382
 3482SOL    HW122079   0.405   2.225   7.424 -2.5334  0.0727  3.2780
 3482SOL    HW222080   0.488   2.115   7.379 -2.2306 -1.4871 -0.8807
 3483SOL     OW22081   1.884   1.033   2.561 -0.0511  0.1363  0.5262
 3483SOL    HW122082   1.938   0.957   2.583  0.2820 -0.0992 -1.0884
 3483SOL    HW222083   1.806   0.996   2.519 -0.4129  0.7296  0.6855
 3484SOL     OW22084   1.128   3.291  11.451 -0.2690  0.0634 -0.3450
 3484SOL    HW122085   1.150   3.379  11.420 -0.6111 -0.0197 -0.8311
 3484SOL    HW222086   1.170   3.287  11.537  0.6642 -0.1849 -0.8207
 3485SOL     OW22087   2.171   4.020   4.851  0.1917 -0.6425 -0.0723
 3485SOL    HW122088   2.101   3.955   4.849  1.1207 -1.6204 -0.6731
 3485SOL    HW222089   2.197   4.008   4.942  0.1638 -0.6263 -0.0619
 3486SOL     OW22090   1.886   4.437  14.564 -0.0657  0.3629  0.1398
 3486SOL    HW122091   1.791   4.433  14.554 -0.0691  0.5950  0.0830
 3486SOL    HW222092   1.908   4.351  14.600  0.4055 -0.2104 -1.4994
 3487SOL     OW22093   0.243   3.149   5.336 -0.2396 -0.0962 -0.2809
 3487SOL    HW122094   0.159   3.177   5.372  0.0021  2.1667 -1.4443
 3487SOL    HW222095   0.251   3.183   5.247  0.7470  1.4083  0.3640
 3488SOL     OW22096   1.400   1.581   1.984 -0.2924 -0.4081 -0.5229
 3488SOL    HW122097   1.326   1.637   1.961  1.8531  2.7893  0.3327
 3488SOL    HW222098   1.358   1.509   2.032  1.1534 -0.3654  0.8017
 3489SOL     OW22099   3.596   2.288  13.699  0.0750  0.3407  0.8733
 3489SOL    HW122100   3.643   2.212  13.732  3.2516  0.9171 -2.2551
 3489SOL    HW222101   3.506   2.275  13.729  0.2750 -2.5751  0.2265
 3490SOL     OW22102   0.525   2.416   4.044  0.0971 -0.3974 -0.0166
 3490SOL    HW122103   0.522   2.347   4.111  0.5313  0.4022  0.8236
 3490SOL    HW222104   0.598   2.462   4.085  0.5586 -1.5658  0.4981
 3491SOL     OW22105   1.248   1.647  16.982  0.0651  0.0457 -0.3102
 3491SOL    HW122106   1.327   1.663  17.034 -0.5991 -0.7018  0.9298
 3491SOL    HW222107   1.287   1.574  16.934 -0.2119 -1.3636  1.6217
 3492SOL     OW22108   0.875   3.050   6.607 -0.0460 -0.1800 -0.0777
 3492SOL    HW122109   0.848   3.117   6.544 -2.5568 -1.2015 -0.0959
 3492SOL    HW222110   0.938   3.103   6.657  1.6205 -2.2995  0.0475
 3493SOL     OW22111   2.866   2.930   3.111  0.1830  0.1313  0.4039
 3493SOL    HW122112   2.799   2.994   3.134 -0.8968 -0.2655 -1.7107
 3493SOL    HW222113   2.866   2.948   3.017  0.4555  0.4435  0.4639
 3494SOL     OW22114   0.728   0.302   7.028  0.3597 -0.9242  0.5925
 3494SOL    HW122115   0.732   0.345   7.113 -2.3110 -0.1224  0.3287
 3494SOL    HW222116   0.702   0.372   6.968  2.4185 -1.6095 -1.1402
 3495SOL     OW22117   4.290   3.497   9.502  0.7466 -0.3355  0.2406
 3495SOL    HW122118   4.279   3.526   9.593 -1.5938  0.3133 -0.2501
 3495SOL    HW222119   4.208   3.526   9.464  1.7407  0.6990 -1.1000
 3496SOL     OW22120   4.186   1.064  15.727  0.5404  0.1160 -0.2289
 3496SOL    HW122121   4.208   1.039  15.637 -1.0798  0.8511 -0.8351
 3496SOL    HW222122   4.093   1.044  15.714  0.2913  1.3683 -0.4153
 3497SOL     OW22123   1.910   4.582   4.000  0.1854 -0.1293 -0.3560
 3497SOL    HW122124   1.848   4.516   4.031  0.5458 -1.6696 -2.9024
 3497SOL    HW222125   1.947   4.540   3.922  0.1611 -2.3791  0.8432
 3498SOL     OW22126   0.051   1.261  11.400 -0.0099 -0.0639 -0.3911
 3498SOL    HW122127   4.711   1.206  11.395  1.8301 -2.6215 -1.0058
 3498SOL    HW222128   0.031   1.328  11.466  0.8847  0.4315 -0.6250
 3499SOL     OW22129   2.555   4.410   2.624 -0.3115  0.6620  0.0666
 3499SOL    HW122130   2.524   4.346   2.560 -0.2340  2.4227 -1.7409
 3499SOL    HW222131   2.577   4.349   2.694  0.0283  1.0113  0.2680
 3500SOL     OW22132   2.354   3.252   9.031  0.1794 -0.5218  0.0924
 3500SOL    HW122133   2.422   3.260   9.097 -0.5571  0.6362  0.7042
 3500SOL    HW222134   2.277   3.225   9.080 -1.0461  1.4206 -0.7931
 3501SOL     OW22135   0.655   1.471  12.491  0.8145 -0.2442 -0.0613
 3501SOL    HW122136   0.674   1.480  12.397 -0.9230 -1.8126 -0.5704
 3501SOL    HW222137   0.747   1.458  12.514 -0.1583 -1.0058  3.3160
 3502SOL     OW22138   2.918   1.742  12.107 -0.3382 -0.7487  0.3441
 3502SOL    HW122139   2.942   1.664  12.056 -3.4138  1.0350 -3.8778
 3502SOL    HW222140   3.000   1.763  12.151 -1.9515  4.2714  0.9455
 3503SOL     OW22141   4.551   4.535   8.380  0.7191  0.5150  0.0951
 3503SOL    HW122142   4.631   4.584   8.361  1.1563 -0.7742 -1.3824
 3503SOL    HW222143   4.585   4.478   8.449  0.5368 -3.8451 -3.4201
 3504SOL     OW22144   4.445   3.539   2.296  0.3232 -0.1774  0.3134
 3504SOL    HW122145   4.457   3.507   2.207 -0.1049 -1.1029  0.5961
 3504SOL    HW222146   4.402   3.624   2.279  0.8337 -0.2139 -1.1590
 3505SOL     OW22147   0.359   3.484   0.516 -0.3344  0.2942  0.2393
 3505SOL    HW122148   0.324   3.403   0.553  0.4517 -0.8801 -1.6356
 3505SOL    HW222149   0.275   3.531   0.508 -0.4105  0.6604  3.0015
 3506SOL     OW22150   3.152   1.614   8.360  0.5690  0.3067  0.4503
 3506SOL    HW122151   3.103   1.532   8.348  2.1647 -0.1785 -2.6543
 3506SOL    HW222152   3.106   1.666   8.294 -0.5423  0.6967  1.5131
 3507SOL     OW22153   2.417   3.146   4.954  0.6382  0.2076  0.3370
 3507SOL    HW122154   2.356   3.208   4.914  3.1452  0.6266 -2.8613
 3507SOL    HW222155   2.442   3.197   5.031  2.7444 -1.6757  0.9138
 3508SOL     OW22156   4.703   4.459   4.431 -0.4821 -0.0599 -0.3857
 3508SOL    HW122157   0.018   4.515   4.375 -0.3609 -0.3664 -0.5758
 3508SOL    HW222158   4.620   4.471   4.384 -2.1544 -0.9673  2.2743
 3509SOL     OW22159   4.330   1.939   8.579  0.2956 -0.0003 -0.1652
 3509SOL    HW122160   4.245   1.935   8.623 -0.3551  0.2557 -1.4130
 3509SOL    HW222161   4.374   2.002   8.636  1.5163 -1.3101  0.3728
 3510SOL     OW22162   4.300   2.794   6.050  0.0971  0.2077 -0.1429
 3510SOL    HW122163   4.363   2.860   6.079  0.8738 -0.7543  0.3293
 3510SOL    HW222164   4.244   2.793   6.127 -0.2806 -0.1248 -0.4233
 3511SOL     OW22165   3.528   3.911   2.238 -0.4401  0.0941  0.1089
 3511SOL    HW122166   3.464   3.888   2.170  1.3126  1.1190 -1.8954
 3511SOL    HW222167   3.489   3.995   2.262 -0.3225  0.4465 -0.9151
 3512SOL     OW22168   1.440   3.378  11.307  0.2972  0.8677 -0.1977
 3512SOL    HW122169   1.510   3.439  11.329  2.0589 -1.7410  1.4362
 3512SOL    HW222170   1.479   3.297  11.340  0.0035  1.3516  1.2995
 3513SOL     OW22171   0.883   1.801  14.378  0.0339  0.0439  0.3831
 3513SOL    HW122172   0.952   1.850  14.423  1.3170 -0.0626 -1.4916
 3513SOL    HW222173   0.803   1.820  14.426  0.4651  2.8619 -0.0080
 3514SOL     OW22174   2.921   0.365   3.734  0.2969 -0.5618  0.4163
 3514SOL    HW122175   2.983   0.358   3.661  0.2021 -1.4525  0.4149
 3514SOL    HW222176   2.949   0.442   3.782  0.9324  0.4648 -1.6101
 3515SOL     OW22177   1.439   3.482   5.599 -0.3666  0.4051  0.0222
 3515SOL    HW122178   1.496   3.407   5.583  0.0173  0.5257  0.8231
 3515SOL    HW222179   1.358   3.468   5.551 -0.3787  0.7262 -0.0510
 3516SOL     OW22180   0.295   2.167   8.867  0.9595 -0.2607 -0.0550
 3516SOL    HW122181   0.267   2.167   8.959 -2.4350 -0.5400 -1.0863
 3516SOL    HW222182   0.259   2.081   8.846  0.9755 -0.8783  2.4038
 3517SOL     OW22183   1.576   3.254   3.071 -0.2096 -0.1469  0.3438
 3517SOL    HW122184   1.538   3.184   3.125 -1.3214  0.1855 -0.0164
 3517SOL    HW222185   1.660   3.276   3.111 -1.1323 -0.2809  2.3456
 3518SOL     OW22186   2.496   4.395   9.831 -0.8008  0.1308 -0.3665
 3518SOL    HW122187   2.413   4.417   9.874 -0.1607 -0.6721  1.2676
 3518SOL    HW222188   2.500   4.302   9.854  0.1713 -0.1854 -1.8085
 3519SOL     OW22189   4.568   0.105  17.188 -0.6910 -0.0364 -0.2607
 3519SOL    HW122190   4.602   0.088  17.100  0.9330 -0.7075  0.4831
 3519SOL    HW222191   4.596   0.027  17.236 -0.1207 -0.1267 -0.7353
 3520SOL     OW22192   3.369   1.557   4.667  0.0121 -0.3395  0.3280
 3520SOL    HW122193   3.323   1.501   4.604  0.5408 -1.0425  0.5740
 3520SOL    HW222194   3.322   1.539   4.748 -0.8893  1.2609  0.1837
 3521SOL     OW22195   4.336   0.702   0.103 -0.5191 -0.0890 -0.2438
 3521SOL    HW122196   4.306   0.757   0.175  1.3609  0.6233  0.0090
 3521SOL    HW222197   4.282   0.728   0.028 -0.1556  0.2593 -0.3858
 3522SOL     OW22198   2.189   1.986   2.397  0.0432 -0.1169 -0.0733
 3522SOL    HW122199   2.167   1.914   2.338  0.9823  0.3961 -1.0490
 3522SOL    HW222200   2.168   2.062   2.343  1.6346  0.0056 -0.5250
 3523SOL     OW22201   2.674   2.760  16.109  0.1422 -0.0096  0.1762
 3523SOL    HW122202   2.661   2.741  16.202 -1.8781  0.5412 -0.0094
 3523SOL    HW222203   2.581   2.754  16.089  0.1216 -2.0391  0.9151
 3524SOL     OW22204   1.197   0.296   2.185  0.4495  0.2972  0.3530
 3524SOL    HW122205   1.121   0.280   2.242  0.0035  0.8352 -0.0920
 3524SOL    HW222206   1.224   0.209   2.156  0.8109  0.9280 -1.2072
 3525SOL     OW22207   2.666   1.560   9.733 -0.1467  0.6721  0.0635
 3525SOL    HW122208   2.732   1.620   9.765 -1.8976  1.7504  1.6569
 3525SOL    HW222209   2.655   1.503   9.809  1.4791 -0.2553 -0.3869
 3526SOL     OW22210   2.676   2.440   9.395  0.1723  0.0715 -0.2158
 3526SOL    HW122211   2.701   2.361   9.349  1.2849  0.2216  0.1416
 3526SOL    HW222212   2.645   2.484   9.315 -1.0285 -1.6365 -0.6727
 3527SOL     OW22213   2.182   2.499   4.285 -0.3170 -0.2553 -0.0006
 3527SOL    HW122214   2.229   2.422   4.317 -0.9720  0.0303  1.7020
 3527SOL    HW222215   2.115   2.470   4.224 -1.2279  0.2195  0.7636
 3528SOL     OW22216   4.033   1.146  13.437 -0.6402  0.0990  0.1298
 3528SOL    HW122217   4.001   1.059  13.410 -0.5966 -0.0659  0.6034
 3528SOL    HW222218   3.988   1.194  13.368 -0.6924  0.2405  0.2632
 3529SOL     OW22219   4.507   0.698  16.365 -0.1279 -0.1213  0.4834
 3529SOL    HW122220   4.597   0.674  16.344  0.8330  2.9313  1.1239
 3529SOL    HW222221   4.451   0.630  16.326  3.1425 -2.5352  0.0453
 3530SOL     OW22222   2.805   0.688   5.573  0.3053 -0.1671 -0.2645
 3530SOL    HW122223   2.898   0.702   5.591  0.2972  1.6329 -1.6492
 3530SOL    HW222224   2.806   0.734   5.489 -1.0417  0.3454 -0.0008
 3531SOL     OW22225   1.437   0.095   9.446 -0.1742  0.5022 -0.4549
 3531SOL    HW122226   1.410   0.125   9.533 -0.0915  1.1871 -0.6644
 3531SOL    HW222227   1.515   0.149   9.432  0.9617 -1.3888 -1.3941
 3532SOL     OW22228   3.288   1.943   7.759 -0.0494 -0.4605  0.4786
 3532SOL    HW122229   3.347   1.902   7.822 -1.1799 -2.1983  0.4335
 3532SOL    HW222230   3.203   1.948   7.803  0.4710 -0.5724  1.5046
 3533SOL     OW22231   2.498   3.244   9.864  0.4522 -0.3107 -0.6709
 3533SOL    HW122232   2.514   3.298   9.942  1.3479 -0.1360 -0.9773
 3533SOL    HW222233   2.441   3.179   9.904 -0.0010  1.0172  0.8857
 3534SOL     OW22234   4.139   4.302   0.424  1.0080  0.3488  0.0987
 3534SOL    HW122235   4.203   4.348   0.478 -0.2461  1.9796  0.1736
 3534SOL    HW222236   4.062   4.348   0.456  0.8147 -0.3151  0.5882
 3535SOL     OW22237   2.809   3.213  11.087 -0.3595 -0.4987  0.3665
 3535SOL    HW122238   2.856   3.287  11.048 -1.0620 -0.5573 -0.5884
 3535SOL    HW222239   2.840   3.145  11.028  1.7713  1.4699 -0.7729
 3536SOL     OW22240   2.203   1.441  11.293 -0.6311 -0.1832  0.2160
 3536SOL    HW122241   2.232   1.448  11.202 -0.1887 -0.7057  0.3109
 3536SOL    HW222242   2.134   1.506  11.297  1.0766  1.6898 -0.9580
 3537SOL     OW22243   0.030   4.432  15.648  0.4961  0.1801 -0.1886
 3537SOL    HW122244   4.734   4.381  15.574  0.0809 -0.2078  0.2763
 3537SOL    HW222245   4.730   4.518  15.633  2.0797  1.3424  2.4341
 3538SOL     OW22246   2.378   2.538  13.369 -0.3408 -0.0987 -0.5292
 3538SOL    HW122247   2.415   2.521  13.455  2.4364 -2.1467 -2.1094
 3538SOL    HW222248   2.334   2.621  13.383 -0.9509 -0.6872  1.0668
 3539SOL     OW22249   0.536   3.514   0.935 -0.2525  0.1660  0.0514
 3539SOL    HW122250   0.456   3.467   0.911  0.5109 -0.4432 -1.2882
 3539SOL    HW222251   0.607   3.457   0.906  1.0145  0.3061  2.9059
 3540SOL     OW22252   1.463   1.294  16.062 -0.2659 -0.1110  0.1119
 3540SOL    HW122253   1.466   1.208  16.020 -1.2097 -0.1022  0.0170
 3540SOL    HW222254   1.502   1.344  15.990  1.4937 -0.2204  0.9875
 3541SOL     OW22255   3.881   2.555   4.071 -0.7468 -0.2094 -0.2844
 3541SOL    HW122256   3.950   2.621   4.063 -1.6841  0.6337 -1.4404
 3541SOL    HW222257   3.863   2.534   3.979  0.2564 -1.5679 -0.1719
 3542SOL     OW22258   0.907   3.445  10.252 -0.1265 -0.4183  0.9837
 3542SOL    HW122259   0.993   3.484  10.270  0.8843 -1.9617 -0.5700
 3542SOL    HW222260   0.846   3.513  10.281  1.3493  1.4944 -0.4483
 3543SOL     OW22261   0.290   1.741   9.256  0.5034  0.1856  0.4422
 3543SOL    HW122262   0.205   1.785   9.258 -0.6654 -2.0973  1.4069
 3543SOL    HW222263   0.285   1.669   9.193  0.6790  1.0497 -0.5595
 3544SOL     OW22264   3.157   1.663   1.669 -0.0372 -0.1087 -0.3906
 3544SOL    HW122265   3.146   1.758   1.676 -0.0563 -0.0172 -1.5247
 3544SOL    HW222266   3.252   1.657   1.681 -0.4588 -1.4564  2.2091
 3545SOL     OW22267   0.889   2.509   9.574 -0.1898 -0.4319  0.0368
 3545SOL    HW122268   0.968   2.531   9.623 -0.6672 -1.7227  1.3673
 3545SOL    HW222269   0.903   2.570   9.501  0.2046 -1.2898 -0.6053
 3546SOL     OW22270   3.423   0.922   2.226  0.1803  0.0583 -0.0358
 3546SOL    HW122271   3.453   0.843   2.270 -1.4392 -0.2270  0.5471
 3546SOL    HW222272   3.504   0.957   2.188  1.4065 -0.1814  2.3773
 3547SOL     OW22273   0.635   0.219  15.311 -0.2586  0.3625  0.0444
 3547SOL    HW122274   0.688   0.208  15.232 -1.7986  0.9048 -1.0605
 3547SOL    HW222275   0.705   0.220  15.377  1.2952  1.3884 -1.6137
 3548SOL     OW22276   4.199   4.020  10.700  0.6917  0.6676  0.7492
 3548SOL    HW122277   4.164   4.098  10.742  0.8368  1.3620 -0.4148
 3548SOL    HW222278   4.293   4.038  10.704  0.8924 -0.7143  2.4174
 3549SOL     OW22279   3.182   3.384   6.002  0.4697  0.1477 -0.6484
 3549SOL    HW122280   3.163   3.477   5.991  1.1335  0.2391 -0.9866
 3549SOL    HW222281   3.203   3.370   5.909  1.2621 -0.2799 -0.4041
 3550SOL     OW22282   3.614   0.470   8.128  0.3708  0.9823 -0.2769
 3550SOL    HW122283   3.600   0.564   8.146  1.3152  0.9953  0.3816
 3550SOL    HW222284   3.589   0.432   8.213  0.9320  1.1395 -0.0375
 3551SOL     OW22285   3.914   0.781   5.985  0.1763  0.0988 -0.0677
 3551SOL    HW122286   3.823   0.767   5.958  0.4332 -0.6910 -0.5238
 3551SOL    HW222287   3.897   0.856   6.042 -1.1027 -0.2765  0.0553
 3552SOL     OW22288   0.837   1.184  10.391 -0.2150  0.9965 -0.1714
 3552SOL    HW122289   0.833   1.137  10.474  3.8660  0.5761 -0.2025
 3552SOL    HW222290   0.833   1.112  10.328 -0.8660 -0.5816  1.6927
 3553SOL     OW22291   0.075   2.645   7.360  0.2697  0.5662 -0.3967
 3553SOL    HW122292   0.023   2.633   7.439  0.8587 -0.5191 -0.1781
 3553SOL    HW222293   0.006   2.674   7.300  0.0012 -0.5185 -0.6223
 3554SOL     OW22294   4.404   1.735   2.800  0.1910  0.2279  0.2712
 3554SOL    HW122295   4.317   1.775   2.800  0.6623  1.2185 -3.1059
 3554SOL    HW222296   4.370   1.647   2.816  2.9210 -1.0297 -0.7733
 3555SOL     OW22297   1.334   4.342   1.352 -0.3060  0.1300  0.1254
 3555SOL    HW122298   1.256   4.354   1.406 -0.2049 -4.0862  1.2138
 3555SOL    HW222299   1.391   4.399   1.403 -1.7201  0.8169  0.9279
 3556SOL     OW22300   2.171   4.430   1.315  0.1804  0.1432  0.1534
 3556SOL    HW122301   2.094   4.482   1.293  0.2912  0.9520  1.7276
 3556SOL    HW222302   2.241   4.476   1.270 -1.9660  1.1503 -2.1827
 3557SOL     OW22303   2.884   4.681  17.629  0.4682 -0.7965  0.3479
 3557SOL    HW122304   2.916   4.596  17.659 -2.9563 -2.6185 -1.1724
 3557SOL    HW222305   2.797   4.663  17.595  0.0043  1.7260  0.1551
 3558SOL     OW22306   2.493   0.364   4.300 -0.1814 -0.7126  0.7608
 3558SOL    HW122307   2.406   0.328   4.286 -0.6309 -0.7085  3.6257
 3558SOL    HW222308   2.549   0.293   4.267  1.0012  0.1928  0.8001
 3559SOL     OW22309   0.302   1.588   4.128 -0.3233 -0.0804 -0.0263
 3559SOL    HW122310   0.314   1.628   4.042  1.0398  2.5479  1.3837
 3559SOL    HW222311   0.319   1.498   4.101 -1.6112 -0.2983 -0.0916
 3560SOL     OW22312   3.460   2.512  17.020 -0.0829  0.3394 -0.2254
 3560SOL    HW122313   3.410   2.431  17.032 -2.5386  1.6478 -1.8720
 3560SOL    HW222314   3.521   2.487  16.950  1.9672 -0.0312  1.6798
 3561SOL     OW22315   3.962   3.836   8.873 -0.9107  0.7915 -0.8421
 3561SOL    HW122316   4.038   3.798   8.830 -1.6811 -0.7284 -0.8927
 3561SOL    HW222317   3.983   3.807   8.962  0.0125  2.4253 -0.5350
 3562SOL     OW22318   2.311   0.596   7.986 -0.3850 -0.9820 -0.1499
 3562SOL    HW122319   2.218   0.577   7.975 -0.5667 -0.3683  0.3319
 3562SOL    HW222320   2.332   0.550   8.067 -0.0238  1.1417  0.9560
 3563SOL     OW22321   2.804   0.761  15.248  0.0685 -0.3777  0.1764
 3563SOL    HW122322   2.747   0.838  15.246 -2.1628 -2.1028 -1.4519
 3563SOL    HW222323   2.837   0.764  15.158  2.1491 -2.7890  0.8605
 3564SOL     OW22324   2.016   1.698   6.443  0.0238  0.0486 -0.4000
 3564SOL    HW122325   2.101   1.692   6.487 -0.5012 -0.4160  0.5556
 3564SOL    HW222326   1.970   1.624   6.483  1.8715 -1.2021 -0.5778
 3565SOL     OW22327   3.756   2.625  13.997  0.4698  0.8610 -0.2252
 3565SOL    HW122328   3.842   2.598  13.964  0.3955 -0.8509  0.9840
 3565SOL    HW222329   3.772   2.686  14.069 -0.8154  1.6686 -0.6243
 3566SOL     OW22330   2.616   4.440   4.005  0.4850  0.1944  0.2005
 3566SOL    HW122331   2.565   4.502   4.057 -0.7976  0.8937 -1.8778
 3566SOL    HW222332   2.649   4.494   3.934  0.7859 -0.7993 -0.4049
 3567SOL     OW22333   2.844   4.475   2.319 -0.3523 -0.1492 -0.0165
 3567SOL    HW122334   2.842   4.570   2.330 -1.8976 -0.2857  0.9811
 3567SOL    HW222335   2.795   4.452   2.398  0.8788  0.4443  0.9187
 3568SOL     OW22336   3.596   2.202  16.772 -0.1518 -0.0453 -0.0480
 3568SOL    HW122337   3.540   2.125  16.788 -0.3303 -0.3710 -2.2937
 3568SOL    HW222338   3.539   2.251  16.713 -1.3600 -2.2018 -0.7027
 3569SOL     OW22339   4.393   0.438   6.722  0.1236  0.5063 -0.1260
 3569SOL    HW122340   4.471   0.430   6.776 -2.5261 -1.3439  3.4589
 3569SOL    HW222341   4.395   0.364   6.661  1.1187  0.0813  0.4351
 3570SOL     OW22342   1.936   0.611  11.335 -0.4125 -0.4173 -0.7642
 3570SOL    HW122343   1.975   0.578  11.254  1.7033 -2.2920  0.9991
 3570SOL    HW222344   2.009   0.665  11.364 -0.7586 -0.2798 -0.1446
 3571SOL     OW22345   2.236   3.000   3.978 -0.7278  0.0525  0.0628
 3571SOL    HW122346   2.308   2.943   3.951 -3.5739 -2.3306 -2.4460
 3571SOL    HW222347   2.171   2.930   3.968  1.5213 -1.4459 -3.9551
 3572SOL     OW22348   3.800   0.423   9.595 -0.2082  0.1550  0.5445
 3572SOL    HW122349   3.838   0.457   9.514 -1.8175 -0.2781 -0.3897
 3572SOL    HW222350   3.715   0.466   9.594 -0.6875 -0.7668  1.4901
 3573SOL     OW22351   3.587   0.104   9.612 -0.1405 -0.5240  0.2776
 3573SOL    HW122352   3.598   0.165   9.539  0.2520 -2.3095 -1.1367
 3573SOL    HW222353   3.588   0.172   9.680  0.3910  1.6410 -1.9067
 3574SOL     OW22354   2.460   2.210   2.821 -0.5287  0.5677  0.0533
 3574SOL    HW122355   2.502   2.240   2.901 -0.0292  2.2282 -0.8237
 3574SOL    HW222356   2.525   2.199   2.751  0.3628  0.1443  0.9469
 3575SOL     OW22357   3.693   2.911  13.421 -0.5016  0.1766  0.6359
 3575SOL    HW122358   3.617   2.930  13.365  0.2875  0.7317 -0.2373
 3575SOL    HW222359   3.649   2.843  13.472  0.4964 -0.9485 -0.0179
 3576SOL     OW22360   3.792   2.176  15.670 -0.5854  0.0707  0.5379
 3576SOL    HW122361   3.819   2.164  15.579  0.9373 -0.2835  1.0413
 3576SOL    HW222362   3.713   2.226  15.647 -0.4054 -0.4005 -1.1093
 3577SOL     OW22363   2.066   1.500   8.123  0.0242  0.4385  0.1232
 3577SOL    HW122364   2.055   1.586   8.165 -0.3879  0.5828 -0.2851
 3577SOL    HW222365   2.051   1.519   8.030 -0.6414 -1.4328 -0.1481
 3578SOL     OW22366   4.008   3.587   2.217  0.2586 -0.1898  0.3866
 3578SOL    HW122367   4.010   3.571   2.123 -0.7551 -0.1147  0.3518
 3578SOL    HW222368   4.066   3.515   2.242  1.3971  0.8037  0.6024
 3579SOL     OW22369   0.157   2.249  17.430 -0.3176 -0.8859 -0.0914
 3579SOL    HW122370   0.168   2.344  17.426 -0.0031 -0.9010  0.4460
 3579SOL    HW222371   0.244   2.225  17.463  0.5924 -1.6128 -2.9373
 3580SOL     OW22372   2.028   2.333   3.789 -0.2031 -0.2807 -0.0353
 3580SOL    HW122373   1.987   2.314   3.704 -1.0835 -1.8938  0.7455
 3580SOL    HW222374   2.059   2.423   3.781 -1.6436  0.2433  0.2365
 3581SOL     OW22375   3.531   1.192   7.337 -0.2948 -0.0730  0.4979
 3581SOL    HW122376   3.545   1.153   7.423 -1.2339 -0.4744  0.4713
 3581SOL    HW222377   3.608   1.159   7.291 -0.2420  0.4457  0.2101
 3582SOL     OW22378   3.724   1.456   7.898  0.2806  0.3038  0.1164
 3582SOL    HW122379   3.707   1.476   7.989  0.0556 -0.3889  0.2306
 3582SOL    HW222380   3.813   1.483   7.875  0.0222 -0.9063 -2.4044
 3583SOL     OW22381   3.025   4.153   8.594 -0.5409 -0.5418 -0.3082
 3583SOL    HW122382   3.027   4.211   8.670 -1.3392  1.0222 -1.4765
 3583SOL    HW222383   3.075   4.203   8.529  1.3105 -1.3227  0.5250
 3584SOL     OW22384   2.956   2.298   3.379 -0.3507 -0.3919  0.0402
 3584SOL    HW122385   2.984   2.209   3.359 -1.5165 -0.5751 -0.8041
 3584SOL    HW222386   3.021   2.345   3.328 -0.5080 -1.4753 -1.1709
 3585SOL     OW22387   4.102   2.737   3.452  0.8436  0.1682  0.1849
 3585SOL    HW122388   4.136   2.798   3.387 -1.3045  2.9110  1.6602
 3585SOL    HW222389   4.056   2.795   3.512 -0.5169  0.3332 -1.0049
 3586SOL     OW22390   2.922   3.197  11.678 -0.2974 -0.2152  0.0702
 3586SOL    HW122391   2.929   3.165  11.768  1.9235  0.8383  0.2579
 3586SOL    HW222392   2.876   3.281  11.683 -0.7245 -0.2585 -2.9360
 3587SOL     OW22393   3.856   0.346   7.692 -0.0043 -0.5030 -0.8850
 3587SOL    HW122394   3.891   0.421   7.644  2.6016 -0.5569  0.8957
 3587SOL    HW222395   3.779   0.381   7.737 -0.1769 -2.1326  0.0845
 3588SOL     OW22396   2.928   4.156  11.789  0.0563 -0.3785 -0.5016
 3588SOL    HW122397   2.843   4.151  11.833  0.4364  0.0660  0.2841
 3588SOL    HW222398   2.907   4.110  11.708  0.3523 -0.1300 -0.7180
 3589SOL     OW22399   2.001   0.268   7.917  0.5796  0.2751  0.6117
 3589SOL    HW122400   2.036   0.317   7.843  0.0845  0.4520  0.4996
 3589SOL    HW222401   2.075   0.267   7.978  1.0906 -0.4386 -0.0242
 3590SOL     OW22402   3.715   0.209  10.012 -0.4780  0.9328 -0.4262
 3590SOL    HW122403   3.695   0.201  10.105 -1.0598  0.8500 -0.5601
 3590SOL    HW222404   3.765   0.291  10.000  0.6419  0.1697 -1.0048
 3591SOL     OW22405   4.265   4.367   1.829 -0.2947  0.0104  0.7788
 3591SOL    HW122406   4.207   4.328   1.764  0.8632  1.1177 -0.9384
 3591SOL    HW222407   4.287   4.451   1.788  0.4123 -0.8540 -0.6314
 3592SOL     OW22408   0.382   1.765  15.111  0.0086 -0.3189  0.0650
 3592SOL    HW122409   0.458   1.803  15.068 -0.5226  2.4418  1.5576
 3592SOL    HW222410   0.348   1.838  15.162 -0.6535  0.1013 -0.9547
 3593SOL     OW22411   2.182   0.427   6.319  0.2204  0.0105  0.3482
 3593SOL    HW122412   2.168   0.396   6.229 -1.6490  2.0197 -0.0259
 3593SOL    HW222413   2.134   0.355   6.360 -0.9692  0.0101 -1.0337
 3594SOL     OW22414   3.298   4.058  13.586  0.4014  0.1954  0.1296
 3594SOL    HW122415   3.391   4.048  13.563  0.0932  0.8768 -1.4605
 3594SOL    HW222416   3.299   3.996  13.659  0.2017 -1.1248 -0.9845
 3595SOL     OW22417   3.310   4.143   6.563 -0.0005 -0.0891 -0.5110
 3595SOL    HW122418   3.383   4.090   6.595  0.7047  1.0451 -0.2714
 3595SOL    HW222419   3.326   4.223   6.612 -2.4812  1.2447 -1.8586
 3596SOL     OW22420   4.678   0.578  17.631  0.4570  0.4635  0.1502
 3596SOL    HW122421   4.601   0.633  17.613  0.5507  0.0937 -1.3658
 3596SOL    HW222422   4.732   0.639  17.682 -0.1150 -1.3512  2.9064
 3597SOL     OW22423   3.957   3.417   7.237  0.1825 -0.1851 -0.0297
 3597SOL    HW122424   3.906   3.364   7.298  1.5954 -1.2687  0.2070
 3597SOL    HW222425   4.042   3.421   7.281 -0.1404 -0.8192  0.6568
 3598SOL     OW22426   1.515   1.085   8.421  0.3105  0.0630 -0.4047
 3598SOL    HW122427   1.609   1.077   8.438  0.0905  0.6794  1.0858
 3598SOL    HW222428   1.506   1.163   8.367  1.8466  0.1577 -0.5448
 3599SOL     OW22429   0.498   0.576  12.976  0.1492 -0.1125 -0.0762
 3599SOL    HW122430   0.546   0.658  12.989  0.3003 -0.0816 -0.8223
 3599SOL    HW222431   0.568   0.513  12.990 -0.4604 -0.5907  0.7828
 3600SOL     OW22432   0.961   0.357   3.482  0.3220  0.1442  0.2951
 3600SOL    HW122433   1.025   0.355   3.554  0.9004 -0.8714 -0.2495
 3600SOL    HW222434   0.984   0.270   3.450  0.1427  0.3317 -0.3470
 3601SOL     OW22435   0.644   0.176  13.051  0.1278 -0.1096 -0.3820
 3601SOL    HW122436   0.574   0.227  13.091 -0.4309 -1.5510  0.4760
 3601SOL    HW222437   0.670   0.241  12.985  0.9385 -0.3354 -0.2892
 3602SOL     OW22438   0.548   2.915   2.490  0.5398  0.0389  0.2603
 3602SOL    HW122439   0.571   3.006   2.472 -1.9977  0.7287  0.5520
 3602SOL    HW222440   0.474   2.931   2.547 -0.6112 -2.8428 -0.4437
 3603SOL     OW22441   4.348   4.160  12.925  0.8240  0.5706  0.2210
 3603SOL    HW122442   4.252   4.159  12.928  0.7892  1.3450 -0.5813
 3603SOL    HW222443   4.378   4.078  12.884 -1.0290  2.1497 -4.3422
 3604SOL     OW22444   0.166   3.755   1.694  0.2463  0.3688  0.2360
 3604SOL    HW122445   0.247   3.767   1.744  0.0816 -0.2223  0.6510
 3604SOL    HW222446   0.118   3.826   1.735 -1.9435 -1.5354  0.9703
 3605SOL     OW22447   1.418   1.720  14.001 -0.1564  0.1017  0.0759
 3605SOL    HW122448   1.392   1.632  14.026 -0.1694  0.2396  0.5438
 3605SOL    HW222449   1.343   1.755  13.952 -1.3984 -0.9858  1.1923
 3606SOL     OW22450   2.258   1.268   1.691  0.7042 -0.0965 -0.2852
 3606SOL    HW122451   2.186   1.282   1.754 -1.2111 -0.5654 -2.3623
 3606SOL    HW222452   2.227   1.193   1.640  0.4517  1.2792 -2.1523
 3607SOL     OW22453   1.272   4.693   8.762  0.1203 -0.2248  0.6089
 3607SOL    HW122454   1.295   4.653   8.846  0.8862  0.7368  0.8587
 3607SOL    HW222455   1.342   4.686   8.698  0.5477 -1.4364  1.2182
 3608SOL     OW22456   3.152   4.430   5.659  0.3768 -0.3016 -0.4420
 3608SOL    HW122457   3.239   4.471   5.651 -0.1351  0.6670 -1.1803
 3608SOL    HW222458   3.173   4.345   5.620  1.4165 -0.4042  0.3217
 3609SOL     OW22459   2.974   4.271   0.884  0.1420 -0.1433 -0.0459
 3609SOL    HW122460   2.882   4.292   0.867  0.3735  2.5887  2.0904
 3609SOL    HW222461   2.973   4.243   0.975  0.4924  1.3297  0.4063
 3610SOL     OW22462   2.146   3.131   5.224  0.2777  0.0785  0.1822
 3610SOL    HW122463   2.142   3.083   5.142  2.4685 -1.1316  0.8012
 3610SOL    HW222464   2.240   3.147   5.226  0.4590 -0.8593 -0.9512
 3611SOL     OW22465   2.026   1.924   9.823  0.6154  0.7330 -0.0194
 3611SOL    HW122466   2.020   1.841   9.871 -0.6710  0.5583 -0.4658
 3611SOL    HW222467   2.083   1.901   9.749 -1.2296 -0.8959 -0.9386
 3612SOL     OW22468   4.565   4.288   2.337 -0.1896  0.0132 -0.2610
 3612SOL    HW122469   4.559   4.337   2.419  0.5346  0.4905 -0.4943
 3612SOL    HW222470   4.479   4.302   2.299 -1.0383 -0.4326  1.4843
 3613SOL     OW22471   2.588   3.078  10.793 -0.1863 -0.0188  0.0787
 3613SOL    HW122472   2.591   3.071  10.888 -2.2098  2.2852  0.3129
 3613SOL    HW222473   2.552   2.991  10.775  1.6113 -0.7626  0.1310
 3614SOL     OW22474   2.703   3.838   0.287  0.4092  0.1380 -0.0444
 3614SOL    HW122475   2.677   3.784   0.361 -0.6676 -0.3596 -0.7752
 3614SOL    HW222476   2.734   3.769   0.229 -0.7431  0.8111 -1.4828
 3615SOL     OW22477   4.436   0.951  11.285 -0.1680  0.3330  0.3028
 3615SOL    HW122478   4.488   0.966  11.206  0.3971 -1.6447  0.3083
 3615SOL    HW222479   4.460   1.024  11.342 -0.8615  1.4937 -0.8972
 3616SOL     OW22480   0.888   2.770   8.553  0.4078 -0.0358 -0.3772
 3616SOL    HW122481   0.873   2.682   8.518 -1.9488  0.7512 -1.3526
 3616SOL    HW222482   0.808   2.780   8.606 -0.3660 -1.4863 -1.2804
 3617SOL     OW22483   0.190   1.565   2.792 -0.0167  0.0492  0.1571
 3617SOL    HW122484   0.166   1.472   2.789  1.7498 -0.3358 -1.5302
 3617SOL    HW222485   0.106   1.606   2.769  0.0312  0.0230 -0.0587
 3618SOL     OW22486   2.086   4.308   2.824 -0.0730 -0.2955 -0.0948
 3618SOL    HW122487   2.057   4.399   2.830  1.9773  0.2699  1.1551
 3618SOL    HW222488   2.137   4.320   2.745  0.2203  0.5001  0.2121
 3619SOL     OW22489   1.246   1.468  12.904 -0.1538 -0.1516  0.1857
 3619SOL    HW122490   1.326   1.436  12.863 -0.0960  1.1903 -0.7538
 3619SOL    HW222491   1.260   1.455  12.998 -0.0363  0.8951  0.3090
 3620SOL     OW22492   3.890   4.192   9.114 -0.5884  0.3165  0.3421
 3620SOL    HW122493   3.936   4.144   9.182 -2.0958 -1.6829 -0.0615
 3620SOL    HW222494   3.943   4.272   9.106  0.1774 -0.2463 -0.2019
 3621SOL     OW22495   1.211   1.020   6.827 -0.2658 -1.0329 -0.1173
 3621SOL    HW122496   1.246   0.931   6.821  1.4069 -0.3434 -0.6229
 3621SOL    HW222497   1.291   1.071   6.825 -0.7689 -0.2593 -0.5346
 3622SOL     OW22498   4.599   0.011   3.761  0.0183 -0.6059  0.2813
 3622SOL    HW122499   4.679   4.707   3.791  0.2753  0.2990  0.8615
 3622SOL    HW222500   4.600   4.700   3.679  3.2161 -0.3032  0.1428
 3623SOL     OW22501   1.868   1.141   3.385  0.3168  0.0981 -0.2688
 3623SOL    HW122502   1.929   1.188   3.442  0.5060 -1.2901  0.6874
 3623SOL    HW222503   1.872   1.194   3.305 -0.7031 -0.4316 -0.6679
 3624SOL     OW22504   3.583   0.335   6.048  0.0466  0.0705 -0.1522
 3624SOL    HW122505   3.670   0.323   6.087  0.3082  1.5927 -0.2714
 3624SOL    HW222506   3.546   0.355   6.134 -2.6673 -2.1823 -0.8145
 3625SOL     OW22507   3.786   1.186   6.736 -0.0814 -0.5040 -0.0882
 3625SOL    HW122508   3.738   1.268   6.736 -1.1471 -1.1477 -2.5467
 3625SOL    HW222509   3.708   1.131   6.742  0.2617 -0.9308  0.5346
 3626SOL     OW22510   3.654   3.412  11.276 -0.2701 -0.1167 -0.0356
 3626SOL    HW122511   3.588   3.345  11.295 -1.1718  0.0413 -2.7222
 3626SOL    HW222512   3.661   3.478  11.345 -2.9482 -2.4321  2.4694
 3627SOL     OW22513   4.340   2.305   4.728  0.0154 -0.1217 -0.1078
 3627SOL    HW122514   4.292   2.354   4.661 -0.8432 -1.1289 -0.2131
 3627SOL    HW222515   4.373   2.385   4.769 -1.5181  1.3825 -1.8153
 3628SOL     OW22516   4.629   1.887   3.491  0.1891 -0.3275  0.0759
 3628SOL    HW122517   4.591   1.912   3.407  0.1884 -1.2883 -0.2080
 3628SOL    HW222518   4.593   1.957   3.546  1.4789  0.7943 -0.5011
 3629SOL     OW22519   0.965   2.984   0.092  0.3328  0.3951  0.0766
 3629SOL    HW122520   1.007   2.930   0.159 -4.3866 -0.7458  2.1059
 3629SOL    HW222521   0.877   3.000   0.126 -0.0565  0.0785 -0.7626
 3630SOL     OW22522   3.396   1.529  10.868  0.2167  0.5137  0.2219
 3630SOL    HW122523   3.463   1.475  10.826 -1.2599  0.3601 -1.9424
 3630SOL    HW222524   3.378   1.578  10.788 -2.8966 -1.6186 -0.3934
 3631SOL     OW22525   3.155   1.883   0.087  0.3178  0.0921 -0.0129
 3631SOL    HW122526   3.238   1.886   0.135 -0.3127  1.9077  0.9596
 3631SOL    HW222527   3.117   1.965   0.118 -3.3405 -1.6814  0.1536
 3632SOL     OW22528   2.729   1.027   5.167 -0.5859  0.4279 -0.1919
 3632SOL    HW122529   2.732   0.989   5.079 -1.1129 -0.3482  0.1164
 3632SOL    HW222530   2.637   1.014   5.191 -0.0764  1.3745  2.2259
 3633SOL     OW22531   2.924   3.383   9.998 -0.3637 -0.4222 -0.2628
 3633SOL    HW122532   2.881   3.318   9.943 -0.9801 -0.6501  0.4970
 3633SOL    HW222533   2.970   3.430   9.928  0.2599 -0.0059  0.4210
 3634SOL     OW22534   0.293   0.458  16.634 -0.5347 -0.2196 -0.0721
 3634SOL    HW122535   0.219   0.491  16.583  0.2014  2.4810  0.6189
 3634SOL    HW222536   0.300   0.369  16.598 -3.7443 -1.2286  1.7307
 3635SOL     OW22537   0.496   4.484   2.504 -0.4833  0.3790  0.2598
 3635SOL    HW122538   0.470   4.475   2.596 -0.9314  0.1892  0.1158
 3635SOL    HW222539   0.568   4.422   2.506 -0.3838  0.3936 -3.4063
 3636SOL     OW22540   2.388   4.132  14.170  0.1408  0.4912 -0.4362
 3636SOL    HW122541   2.414   4.195  14.237  1.5775 -1.6710  1.0301
 3636SOL    HW222542   2.293   4.145  14.176  0.1384  0.4511 -0.3751
 3637SOL     OW22543   2.412   4.084   7.045  0.2115  0.6344 -0.2600
 3637SOL    HW122544   2.486   4.033   7.079  0.5841  1.3891  0.0597
 3637SOL    HW222545   2.340   4.050   7.097  0.1198 -1.3216 -1.6860
 3638SOL     OW22546   4.181   3.180   6.022  0.5020  0.0051  0.3436
 3638SOL    HW122547   4.129   3.125   5.964 -1.3097  1.2650  0.7569
 3638SOL    HW222548   4.126   3.259   6.025  2.0791  1.0805  0.9675
 3639SOL     OW22549   2.001   1.117  12.883  0.3073 -0.3859 -0.0811
 3639SOL    HW122550   2.062   1.178  12.841 -1.7353  2.0312  0.5426
 3639SOL    HW222551   1.969   1.165  12.959 -0.6242  1.4996 -1.6793
 3640SOL     OW22552   1.496   2.545  13.730  0.1279 -0.1142  0.4107
 3640SOL    HW122553   1.530   2.635  13.726 -0.2585  0.0266  0.2566
 3640SOL    HW222554   1.476   2.533  13.637 -0.3187  0.4751  0.4274
 3641SOL     OW22555   2.338   0.662   0.928  0.0870  0.4977  0.1405
 3641SOL    HW122556   2.354   0.756   0.938  2.3826  0.2645 -1.4270
 3641SOL    HW222557   2.375   0.660   0.841  2.0895  0.2105  1.0077
 3642SOL     OW22558   4.725   1.408   7.534  0.0735  0.2079  0.5107
 3642SOL    HW122559   0.058   1.467   7.511  1.4491 -2.1279 -1.2514
 3642SOL    HW222560   0.038   1.327   7.535 -0.3190 -0.0526 -1.8097
 3643SOL     OW22561   2.859   1.882   4.292 -0.4617  0.2465  0.2845
 3643SOL    HW122562   2.880   1.897   4.384  1.3875 -0.4648 -0.0122
 3643SOL    HW222563   2.786   1.822   4.303  0.7714 -1.4657 -0.8381
 3644SOL     OW22564   3.693   2.920   2.788  0.5730 -0.5309 -0.9778
 3644SOL    HW122565   3.642   2.916   2.707  0.7447 -0.2320 -1.0994
 3644SOL    HW222566   3.641   2.861   2.843  1.1404  1.2422  1.4496
 3645SOL     OW22567   0.999   0.100  12.732  0.1859  0.7570 -0.9553
 3645SOL    HW122568   1.044   0.168  12.682  1.7388  0.5676  0.1787
 3645SOL    HW222569   1.039   0.019  12.699  0.0395  1.1099 -1.9838
 3646SOL     OW22570   2.979   2.629   3.630  0.1821 -0.2488 -0.2897
 3646SOL    HW122571   2.901   2.683   3.617  0.5204  0.4451  0.5966
 3646SOL    HW222572   2.938   2.543   3.627  0.0363 -0.1518 -1.0097
 3647SOL     OW22573   3.415   4.644   7.646  0.2437 -0.2624  0.0657
 3647SOL    HW122574   3.510   4.654   7.638  0.1726  0.3968  0.0609
 3647SOL    HW222575   3.406   4.554   7.616 -1.0397 -0.0450 -0.2074
 3648SOL     OW22576   0.705   4.333   0.263  0.3944  0.0207  0.5011
 3648SOL    HW122577   0.626   4.279   0.252  1.9269 -2.1049 -0.0203
 3648SOL    HW222578   0.667   4.405   0.313 -0.0096 -1.1786  1.9234
 3649SOL     OW22579   3.368   2.289  12.329  0.3188 -0.3778 -0.3398
 3649SOL    HW122580   3.364   2.216  12.391  0.0422 -0.6119 -0.6367
 3649SOL    HW222581   3.349   2.367  12.382  1.2714 -0.7543  0.5654
 3650SOL     OW22582   3.049   1.487  12.079  0.5010  0.5589  0.2574
 3650SOL    HW122583   3.037   1.427  12.152 -0.6312  1.1068  0.5051
 3650SOL    HW222584   3.055   1.419  12.011  2.1531  2.8132 -1.8580
 3651SOL     OW22585   0.000   3.893   4.282  0.0552  0.2102  0.3852
 3651SOL    HW122586   4.714   3.808   4.318  0.5226  0.2886  0.8900
 3651SOL    HW222587   0.073   3.869   4.225 -0.5671  0.7711 -0.6547
 3652SOL     OW22588   4.638   0.089   2.797  0.4823 -0.0447 -0.3590
 3652SOL    HW122589   4.600   0.025   2.856 -0.0860 -0.3562 -1.0675
 3652SOL    HW222590   4.697   0.142   2.851  0.2543 -1.1925  1.0184
 3653SOL     OW22591   3.437   0.963  13.588  0.8430  0.0633  0.1376
 3653SOL    HW122592   3.482   1.036  13.632  0.3346  1.9589 -2.4778
 3653SOL    HW222593   3.424   0.907  13.664  2.4950 -0.4460  0.0559
 3654SOL     OW22594   1.471   2.402   3.534 -0.7774 -0.0219 -0.3668
 3654SOL    HW122595   1.455   2.415   3.627  1.0820 -0.7570  0.0511
 3654SOL    HW222596   1.412   2.328   3.520  1.7407 -1.6814 -2.1948
 3655SOL     OW22597   3.992   1.557   5.341 -0.9048  0.7508 -0.1872
 3655SOL    HW122598   3.996   1.616   5.266  0.8443  0.1045 -0.6276
 3655SOL    HW222599   4.043   1.609   5.403 -0.2243  2.8323 -2.5116
 3656SOL     OW22600   0.843   2.978   9.792 -0.3728 -0.0708 -0.2429
 3656SOL    HW122601   0.801   3.064   9.787 -1.3625 -0.5815 -0.7692
 3656SOL    HW222602   0.919   3.015   9.748  0.7412 -3.0439 -0.8456
 3657SOL     OW22603   4.054   1.091  16.239  0.1887 -0.0175  0.2633
 3657SOL    HW122604   4.053   1.096  16.334  1.5107  0.6190  0.2376
 3657SOL    HW222605   3.966   1.059  16.218 -0.8974  2.4060  1.2100
 3658SOL     OW22606   1.818   2.940   7.572  0.0192  0.3811  0.2129
 3658SOL    HW122607   1.876   2.988   7.512  0.4613 -0.8766 -0.3568
 3658SOL    HW222608   1.885   2.925   7.639 -0.8537  0.3869  1.0937
 3659SOL     OW22609   3.785   0.067   3.764 -0.4456 -0.4335 -0.2099
 3659SOL    HW122610   3.768   0.076   3.670  0.6209 -1.7531 -0.5363
 3659SOL    HW222611   3.786   4.711   3.780  0.0768 -0.4488 -0.3051
 3660SOL     OW22612   1.031   1.063   5.727  0.7903  0.1717 -0.5251
 3660SOL    HW122613   0.941   1.046   5.753  0.8577  0.7646  0.0995
 3660SOL    HW222614   1.047   1.012   5.648  0.0802 -2.9069  1.3246
 3661SOL     OW22615   3.305   2.180  13.547  0.3291  0.5210 -0.2067
 3661SOL    HW122616   3.317   2.231  13.628  0.8722 -1.2788  0.8371
 3661SOL    HW222617   3.355   2.099  13.556 -0.2620  0.1770 -0.0389
 3662SOL     OW22618   3.278   0.429   5.892 -0.0478 -0.5764 -0.0079
 3662SOL    HW122619   3.209   0.439   5.827 -0.0928 -1.9903 -0.1578
 3662SOL    HW222620   3.330   0.358   5.855 -0.0162 -0.4588 -0.1923
 3663SOL     OW22621   0.133   2.607   0.338 -1.0542  0.7156 -0.2535
 3663SOL    HW122622   0.152   2.542   0.405 -0.7050 -0.4489 -1.4870
 3663SOL    HW222623   0.111   2.561   0.257 -1.0335  0.9219 -0.3753
 3664SOL     OW22624   3.909   3.769  12.923  0.2781  0.6335  0.5006
 3664SOL    HW122625   3.918   3.823  12.844 -1.9833  1.1262  0.5879
 3664SOL    HW222626   3.822   3.737  12.901 -0.5110  2.2114  1.4129
 3665SOL     OW22627   1.902   3.949  15.867 -0.5037 -0.4270  0.6861
 3665SOL    HW122628   1.861   4.028  15.904 -2.6987 -1.2172 -0.0766
 3665SOL    HW222629   1.994   3.978  15.868 -0.1666 -1.3498 -2.6234
 3666SOL     OW22630   4.668   1.445   6.479 -0.3950  0.4538  0.5639
 3666SOL    HW122631   4.620   1.499   6.542 -0.1807  0.6671  0.5443
 3666SOL    HW222632   4.621   1.471   6.400 -0.9399  0.1475  0.7893
 3667SOL     OW22633   3.971   1.659  11.795  0.4907  0.6577  0.4961
 3667SOL    HW122634   3.925   1.575  11.791 -0.8409  1.2934  2.5046
 3667SOL    HW222635   3.911   1.724  11.759  0.2182 -1.1068 -2.3235
 3668SOL     OW22636   1.583   1.967  12.651  0.3184  0.1675  0.0556
 3668SOL    HW122637   1.598   2.039  12.591 -0.8775 -0.0463 -0.5065
 3668SOL    HW222638   1.592   2.011  12.736  0.0397  0.6290 -0.1524
 3669SOL     OW22639   0.582   4.150   7.722 -0.5538  0.4280 -0.0465
 3669SOL    HW122640   0.511   4.192   7.770  0.0449  1.5682 -0.1449
 3669SOL    HW222641   0.543   4.064   7.710 -0.1864  0.3315 -0.5308
 3670SOL     OW22642   2.998   3.663   5.144  0.2321  0.4042  0.4352
 3670SOL    HW122643   3.051   3.660   5.224 -1.2087 -0.6430  1.3313
 3670SOL    HW222644   3.044   3.734   5.098  1.1013  0.4850  1.4211
 3671SOL     OW22645   4.278   1.543  15.099 -0.3989  0.4732 -0.6738
 3671SOL    HW122646   4.288   1.620  15.155 -2.7509 -0.8663  1.6063
 3671SOL    HW222647   4.186   1.519  15.116  0.4341 -4.1252 -2.5856
 3672SOL     OW22648   4.548   1.154   3.991  0.4245 -0.7335  0.1471
 3672SOL    HW122649   4.520   1.237   4.030  1.4996 -0.5892  0.6051
 3672SOL    HW222650   4.468   1.126   3.947 -0.1925  0.7087  0.3358
 3673SOL     OW22651   1.797   1.687   5.924 -0.4067  0.1638  0.4829
 3673SOL    HW122652   1.887   1.699   5.893 -0.2479 -2.5619 -0.0846
 3673SOL    HW222653   1.813   1.670   6.017  4.5650  1.1203 -0.2118
 3674SOL     OW22654   1.275   1.343   6.879  0.7572 -0.3997 -0.4689
 3674SOL    HW122655   1.201   1.391   6.841  1.3539 -0.1063 -1.2651
 3674SOL    HW222656   1.337   1.409   6.912 -1.5860  0.9019  1.3456
 3675SOL     OW22657   1.744   0.665   5.483  0.4151  0.5305 -0.0518
 3675SOL    HW122658   1.650   0.667   5.500  0.0712 -0.6548 -1.8268
 3675SOL    HW222659   1.774   0.756   5.480  1.4110  0.1465 -1.9653
 3676SOL     OW22660   2.467   4.456   7.326 -0.1031  0.3615  0.0214
 3676SOL    HW122661   2.442   4.442   7.234 -0.4830 -3.5728  0.7400
 3676SOL    HW222662   2.398   4.519   7.347 -0.5265 -0.0269 -0.2275
 3677SOL     OW22663   0.121   0.588   2.623  0.4361  0.4263  0.9031
 3677SOL    HW122664   0.171   0.564   2.546  0.7374 -2.6682  2.0378
 3677SOL    HW222665   0.114   0.503   2.668  1.0362 -0.1967 -0.1833
 3678SOL     OW22666   3.688   4.268   9.769  0.6022  0.0980  0.4421
 3678SOL    HW122667   3.623   4.338   9.769  0.2972 -0.1854  1.0258
 3678SOL    HW222668   3.731   4.294   9.687  1.1534 -0.4359  0.5589
 3679SOL     OW22669   3.384   0.510  16.076 -0.2648 -0.0412  0.1403
 3679SOL    HW122670   3.310   0.571  16.074 -1.0605 -1.0470 -1.7954
 3679SOL    HW222671   3.438   0.569  16.128  0.5402  1.0114 -1.9151
 3680SOL     OW22672   0.760   4.631   1.521  0.3795  0.4014  0.0853
 3680SOL    HW122673   0.704   4.560   1.551 -0.0329  1.0136  0.7767
 3680SOL    HW222674   0.850   4.598   1.529 -0.0265 -0.6489  0.3240
 3681SOL     OW22675   3.958   4.192   7.077  0.7167  0.2878  0.5009
 3681SOL    HW122676   4.009   4.271   7.060  2.6275 -0.8018  1.1384
 3681SOL    HW222677   3.936   4.184   6.984 -1.4137 -2.8305  1.2701
 3682SOL     OW22678   2.916   2.194   2.820 -0.4133 -0.0098 -0.0978
 3682SOL    HW122679   2.912   2.150   2.735  0.6185  0.8817 -0.6137
 3682SOL    HW222680   2.972   2.131   2.866  0.8258 -0.4351 -2.1909
 3683SOL     OW22681   3.245   2.283   8.231 -0.7027  0.3911  0.3741
 3683SOL    HW122682   3.259   2.374   8.205 -0.3828  0.0977 -0.4719
 3683SOL    HW222683   3.247   2.256   8.139 -0.2343  2.4225 -0.2143
 3684SOL     OW22684   3.403   3.988   5.900 -0.0637  0.2151 -1.2636
 3684SOL    HW122685   3.408   4.083   5.884  0.7070  0.4926  0.5792
 3684SOL    HW222686   3.318   3.965   5.862  0.2457 -0.0414 -1.7947
 3685SOL     OW22687   1.988   4.035   8.627 -0.1817  0.1405  0.1391
 3685SOL    HW122688   2.069   4.079   8.652  0.8608 -2.3993  1.1843
 3685SOL    HW222689   1.922   4.057   8.692 -0.9412 -0.1390 -0.5439
 3686SOL     OW22690   2.730   1.425   2.986 -0.2690 -0.2348  0.6645
 3686SOL    HW122691   2.754   1.492   2.921 -1.5866 -1.4411 -1.0483
 3686SOL    HW222692   2.711   1.500   3.043 -1.4442 -0.0125 -0.0393
 3687SOL     OW22693   1.600   3.611   0.414  0.3416  0.0643 -0.1342
 3687SOL    HW122694   1.616   3.691   0.465  0.5440  0.8387 -1.4083
 3687SOL    HW222695   1.633   3.545   0.475 -0.9920 -1.0874 -0.6594
 3688SOL     OW22696   2.078   0.676   5.871 -0.3950  0.4209 -0.6303
 3688SOL    HW122697   2.164   0.635   5.879 -1.1600 -0.8241  1.1684
 3688SOL    HW222698   2.061   0.663   5.778  2.9840 -0.1880 -1.1622
 3689SOL     OW22699   1.429   0.121   2.849  0.1651  0.6015  0.3101
 3689SOL    HW122700   1.336   0.099   2.836  0.6408 -1.0449 -0.2543
 3689SOL    HW222701   1.410   0.182   2.921 -1.8735  1.7082 -1.1368
 3690SOL     OW22702   4.580   2.379   6.631 -0.0154  0.1661  0.2563
 3690SOL    HW122703   4.547   2.290   6.634 -0.4048  0.3273  0.6592
 3690SOL    HW222704   4.549   2.414   6.547 -1.5665 -0.0658  0.7405
 3691SOL     OW22705   2.977   1.200   4.101 -0.7805 -0.3042  0.2930
 3691SOL    HW122706   2.895   1.211   4.053 -0.3070  0.7555 -0.2797
 3691SOL    HW222707   3.008   1.113   4.075  0.7297 -0.1792  1.6109
 3692SOL     OW22708   3.150   1.527   3.121  0.2983  0.2695  0.5087
 3692SOL    HW122709   3.111   1.595   3.066  0.2875 -2.2082 -2.5444
 3692SOL    HW222710   3.122   1.447   3.075  2.2077 -0.6956  1.0380
 3693SOL     OW22711   0.185   2.922   7.396  0.3461  0.4716  0.2946
 3693SOL    HW122712   0.233   2.919   7.479  0.7253 -0.2229  0.0403
 3693SOL    HW222713   0.200   2.830   7.374 -1.0548  0.6535 -1.3980
 3694SOL     OW22714   0.336   2.682   8.737  0.4322  0.4895  0.1343
 3694SOL    HW122715   0.260   2.696   8.681 -0.5870 -0.7099  1.2246
 3694SOL    HW222716   0.319   2.590   8.757  3.0554 -0.3176 -1.2602
 3695SOL     OW22717   1.071   1.864   7.892  0.0823  0.8171  0.2246
 3695SOL    HW122718   0.983   1.873   7.854  0.0496  0.4422  0.2077
 3695SOL    HW222719   1.074   1.947   7.939  2.1072  0.6036  0.4734
 3696SOL     OW22720   2.464   1.504   5.767 -0.7635 -0.2127  0.1165
 3696SOL    HW122721   2.559   1.519   5.764 -0.2782 -3.6639 -1.9289
 3696SOL    HW222722   2.456   1.430   5.827  1.3594  0.0801  0.7546
 3697SOL     OW22723   0.539   2.239   8.728 -0.2148 -0.5859  0.8115
 3697SOL    HW122724   0.561   2.189   8.649  1.7066  1.4014  0.1037
 3697SOL    HW222725   0.448   2.216   8.747 -0.2850 -1.2272 -0.3218
 3698SOL     OW22726   2.889   0.073   1.471 -0.8557  0.4889 -0.3647
 3698SOL    HW122727   2.889   0.067   1.566  1.5442  1.6834 -0.2822
 3698SOL    HW222728   2.864   4.722   1.447 -1.4442 -0.5087  3.9369
 3699SOL     OW22729   3.055   2.624   3.222  0.5714  0.7222  0.3656
 3699SOL    HW122730   3.093   2.710   3.240  1.2296  0.6683 -0.7689
 3699SOL    HW222731   2.967   2.643   3.189  0.8105  0.4690 -0.4122
 3700SOL     OW22732   2.366   3.335   3.634 -0.4274  0.4867  0.3575
 3700SOL    HW122733   2.427   3.271   3.670 -1.0695 -0.7004 -0.6498
 3700SOL    HW222734   2.290   3.304   3.683 -0.8611  0.0287 -0.6030
 3701SOL     OW22735   1.809   1.234  16.072 -0.4972 -0.1017  0.0970
 3701SOL    HW122736   1.845   1.250  15.984 -0.5882  0.6440  0.1991
 3701SOL    HW222737   1.809   1.315  16.122 -0.7531  0.6416 -1.0980
 3702SOL     OW22738   3.374   0.556  10.734  0.1212  0.1903  0.1498
 3702SOL    HW122739   3.283   0.531  10.750  0.4149 -0.3730  0.9403
 3702SOL    HW222740   3.393   0.474  10.688  1.0162  0.0612  0.7635
 3703SOL     OW22741   4.642   0.041   7.945  0.1326 -0.6664  0.1584
 3703SOL    HW122742   4.655   0.134   7.959 -1.5053 -0.4191  0.0267
 3703SOL    HW222743   4.705   0.012   7.880  0.0807  0.5404 -0.4298
 3704SOL     OW22744   4.482   3.259   3.283 -0.1830 -0.3291 -0.2920
 3704SOL    HW122745   4.473   3.346   3.322 -1.8465 -1.0136  0.8360
 3704SOL    HW222746   4.520   3.209   3.355 -0.2883 -1.1797 -0.8225
 3705SOL     OW22747   4.097   4.035  10.010 -0.3340  0.2178  0.8382
 3705SOL    HW122748   4.076   4.056   9.919  0.4789  2.2798  1.1388
 3705SOL    HW222749   4.010   4.037  10.049 -1.4776  0.4705 -1.7039
 3706SOL     OW22750   1.080   3.027   1.841  0.8930 -0.1994 -0.4822
 3706SOL    HW122751   1.015   2.956   1.839 -2.1006  2.4874  0.7435
 3706SOL    HW222752   1.140   2.989   1.905  0.7513  0.6767  0.1663
 3707SOL     OW22753   2.448   1.910   6.807 -0.8650 -0.2094 -0.2408
 3707SOL    HW122754   2.444   1.933   6.714 -1.2266 -4.9485 -1.3781
 3707SOL    HW222755   2.417   1.988   6.854  0.0089  0.5359 -0.8883
 3708SOL     OW22756   0.875   0.755  15.332 -0.5368  0.4111 -0.3757
 3708SOL    HW122757   0.958   0.710  15.315 -0.1462  0.6243  1.0392
 3708SOL    HW222758   0.849   0.772  15.241 -2.3577  0.0028  0.0703
 3709SOL     OW22759   2.773   1.311   0.709  0.3335 -0.0149  0.2269
 3709SOL    HW122760   2.715   1.386   0.696 -2.9789 -2.3948  1.4126
 3709SOL    HW222761   2.795   1.342   0.797  3.1889 -0.1704 -0.4171
 3710SOL     OW22762   4.438   3.499  14.211 -0.1452 -0.1967 -0.0262
 3710SOL    HW122763   4.445   3.405  14.192  0.3179 -0.1698 -0.0041
 3710SOL    HW222764   4.370   3.503  14.277  0.5670  0.2753  0.6683
 3711SOL     OW22765   3.150   4.460   9.942  0.2510 -0.0270  0.4174
 3711SOL    HW122766   3.165   4.447   9.848 -1.1856  0.9364  0.0668
 3711SOL    HW222767   3.066   4.504   9.941 -0.4643 -1.3840  1.1088
 3712SOL     OW22768   2.321   1.471   4.684  0.4883 -0.5424  0.3995
 3712SOL    HW122769   2.244   1.416   4.669  1.0215 -1.3706  0.7349
 3712SOL    HW222770   2.376   1.462   4.607 -0.2071 -2.1805  0.0995
 3713SOL     OW22771   4.198   0.062   8.502  0.4437 -0.8759 -0.8063
 3713SOL    HW122772   4.248   0.045   8.582  0.7914  0.0290 -0.8300
 3713SOL    HW222773   4.188   4.706   8.487 -4.4826 -0.6542  1.0499
 3714SOL     OW22774   4.704   1.644   4.532  0.5377  0.2729 -0.3467
 3714SOL    HW122775   4.621   1.687   4.514 -0.3742 -2.7272 -3.3054
 3714SOL    HW222776   4.710   1.590   4.453 -1.0138 -1.3980  0.6700
 3715SOL     OW22777   1.067   0.150  10.456  0.3609 -0.4412  0.3643
 3715SOL    HW122778   1.065   0.170  10.549 -2.7029  0.7252  0.0601
 3715SOL    HW222779   1.162   0.153  10.442  0.4272 -0.6510  0.7662
 3716SOL     OW22780   3.340   2.920   6.716 -0.2576  0.0843  0.9306
 3716SOL    HW122781   3.428   2.912   6.680 -1.1823 -0.2492 -1.2246
 3716SOL    HW222782   3.300   2.949   6.634 -0.6115 -0.1231  1.0262
 3717SOL     OW22783   4.640   4.353   8.599 -0.5550  0.4284  0.2071
 3717SOL    HW122784   4.721   4.339   8.648  0.6332 -1.8509 -2.4037
 3717SOL    HW222785   4.637   4.278   8.539  1.0749  0.5135  0.0130
 3718SOL     OW22786   3.581   1.574   4.460  0.1702 -0.0293  0.0263
 3718SOL    HW122787   3.548   1.565   4.371 -1.1999 -1.0815  0.6283
 3718SOL    HW222788   3.507   1.551   4.516  0.0150  0.7331  0.1348
 3719SOL     OW22789   3.669   0.573   3.023 -0.1461  0.3372 -0.4609
 3719SOL    HW122790   3.704   0.503   2.968 -2.3783 -1.7181  0.7439
 3719SOL    HW222791   3.689   0.644   2.963 -0.2607  0.7806  0.0244
 3720SOL     OW22792   0.467   0.244   5.661 -0.2091 -0.1773 -0.3669
 3720SOL    HW122793   0.433   0.160   5.692  0.4103  0.4574  2.0365
 3720SOL    HW222794   0.423   0.265   5.578 -1.8694 -1.1584  0.2587
 3721SOL     OW22795   1.730   4.581   0.449 -0.0865 -0.3805  0.7101
 3721SOL    HW122796   1.648   4.545   0.484  0.9353 -3.1638  0.1985
 3721SOL    HW222797   1.716   4.566   0.356 -2.6599  0.7092  0.9204
 3722SOL     OW22798   0.982   0.804   6.175  0.4624 -0.1133  0.0780
 3722SOL    HW122799   1.019   0.769   6.256  0.2728  0.0495  0.2339
 3722SOL    HW222800   1.049   0.867   6.146  0.6882 -1.0779 -1.5246
 3723SOL     OW22801   2.688   0.778   1.536  0.3776  0.4618 -0.4055
 3723SOL    HW122802   2.615   0.723   1.504 -0.4890  2.5298 -1.9770
 3723SOL    HW222803   2.719   0.724   1.609  0.8220  0.3675 -0.6643
 3724SOL     OW22804   4.034   0.343   2.554 -0.3555  0.1227  0.1262
 3724SOL    HW122805   4.073   0.399   2.486 -2.1939  1.0527 -0.1425
 3724SOL    HW222806   4.116   0.322   2.599 -0.3977 -0.8187 -0.2338
 3725SOL     OW22807   3.625   3.492   6.670  0.7402  0.2485  0.2402
 3725SOL    HW122808   3.648   3.580   6.701  1.5129  0.2295 -0.2643
 3725SOL    HW222809   3.683   3.490   6.594 -1.6332 -1.8869 -1.5173
 3726SOL     OW22810   3.273   4.170   3.972 -0.2656  0.3979  0.4657
 3726SOL    HW122811   3.258   4.141   4.062 -1.6045 -0.6331 -0.0898
 3726SOL    HW222812   3.194   4.144   3.925  0.0051 -0.5583  0.5323
 3727SOL     OW22813   0.114   2.725   8.567 -0.3284  0.3640  0.2217
 3727SOL    HW122814   0.117   2.804   8.512 -0.1499 -1.2413 -2.0421
 3727SOL    HW222815   0.048   2.667   8.529  1.1598 -1.2537  0.1068
 3728SOL     OW22816   1.993   0.597  10.788 -0.1922  0.0837 -0.5115
 3728SOL    HW122817   2.043   0.623  10.711  0.3079 -1.4531 -0.7081
 3728SOL    HW222818   2.061   0.572  10.851 -1.1424  1.7844  1.1949
 3729SOL     OW22819   4.023   1.811  12.563 -0.4410 -0.3939  0.5633
 3729SOL    HW122820   4.042   1.740  12.624  1.5662 -1.2347 -1.0374
 3729SOL    HW222821   4.033   1.769  12.477  0.7526  0.4315  0.3017
 3730SOL     OW22822   3.941   0.465  15.055 -0.0703  0.0256  0.3043
 3730SOL    HW122823   3.891   0.394  15.016  0.1373 -0.2583  0.5639
 3730SOL    HW222824   3.904   0.547  15.022 -0.8405 -0.1401  0.7566
 3731SOL     OW22825   4.727   3.787   2.995 -0.1022  0.1540  0.6076
 3731SOL    HW122826   4.735   3.718   3.060  0.6440 -0.2337  0.0931
 3731SOL    HW222827   4.664   3.841   3.043 -2.5242 -2.0508 -0.0904
 3732SOL     OW22828   4.425   0.971   6.606 -0.0237 -0.2958  0.1498
 3732SOL    HW122829   4.343   0.970   6.656 -0.4268 -1.8110 -0.5351
 3732SOL    HW222830   4.489   0.978   6.677  0.2849  2.5707 -0.4187
 3733SOL     OW22831   3.967   3.516   3.403 -0.5369 -0.2289 -0.2590
 3733SOL    HW122832   4.031   3.544   3.469  0.0109 -1.7152 -0.1542
 3733SOL    HW222833   4.007   3.538   3.319  0.2795 -2.2301 -0.4117
 3734SOL     OW22834   3.036   4.216   4.915  0.7963  0.0871  0.7494
 3734SOL    HW122835   3.010   4.301   4.880  2.4476  0.3949  0.2724
 3734SOL    HW222836   2.982   4.156   4.864  0.7224  1.0438 -0.2950
 3735SOL     OW22837   0.540   1.630   3.648  0.3038  0.1570  0.1343
 3735SOL    HW122838   0.624   1.636   3.694  1.1381 -2.0516 -1.1357
 3735SOL    HW222839   0.551   1.685   3.570 -0.4042  0.2027  0.0645
 3736SOL     OW22840   0.242   4.363   6.622  0.1739  0.0480  0.0276
 3736SOL    HW122841   0.271   4.439   6.572  0.6929 -1.2954 -1.7065
 3736SOL    HW222842   0.224   4.306   6.547  0.4282 -1.4523  1.0848
 3737SOL     OW22843   0.149   0.131   8.711 -0.2479  0.1727 -0.3571
 3737SOL    HW122844   0.203   0.121   8.789  0.2118  3.2831 -0.2948
 3737SOL    HW222845   0.132   0.225   8.711  3.1264  0.7837  1.3588
 3738SOL     OW22846   0.505   3.367  16.594 -0.2510  0.0601 -0.0694
 3738SOL    HW122847   0.544   3.284  16.620  0.0973 -0.1607 -1.3169
 3738SOL    HW222848   0.427   3.374  16.649 -0.2152  0.2134 -0.0374
 3739SOL     OW22849   3.258   3.322  17.723 -0.3744  0.0266 -0.4958
 3739SOL    HW122850   3.351   3.345  17.720 -0.3336  0.0053  0.9062
 3739SOL    HW222851   3.224   3.410  17.740  0.2933  0.1214  0.3442
 3740SOL     OW22852   4.619   0.365   6.862  0.1623 -0.3133  0.1412
 3740SOL    HW122853   4.599   0.273   6.841  0.6551 -0.1828 -0.9113
 3740SOL    HW222854   4.713   0.369   6.879  0.1689  0.2920 -0.0575
 3741SOL     OW22855   3.910   2.452   2.059  0.2363 -0.2011 -0.2579
 3741SOL    HW122856   3.864   2.444   1.975  1.0989 -0.0767 -0.7374
 3741SOL    HW222857   3.979   2.386   2.051  2.5529  2.3805 -1.5847
 3742SOL     OW22858   4.512   0.632  12.638 -0.1582 -0.3618 -0.5309
 3742SOL    HW122859   4.465   0.559  12.678 -0.8223  1.2498  1.6302
 3742SOL    HW222860   4.590   0.591  12.675 -0.0637 -0.9567 -1.3890
 3743SOL     OW22861   1.163   1.529  16.672 -0.1422  0.2134  0.2603
 3743SOL    HW122862   1.116   1.544  16.590 -1.2405  1.4887  1.1260
 3743SOL    HW222863   1.241   1.485  16.638 -1.2075 -1.6601  0.2072
 3744SOL     OW22864   4.433   4.414  13.704  0.0691  0.3743  0.2291
 3744SOL    HW122865   4.368   4.455  13.647  1.3364  2.2238  0.1209
 3744SOL    HW222866   4.392   4.328  13.711  0.4872  0.1909  0.4192
 3745SOL     OW22867   4.117   2.431   9.007  0.0354  0.0121 -0.5362
 3745SOL    HW122868   4.182   2.489   8.968 -0.7097 -0.1483 -2.0174
 3745SOL    HW222869   4.109   2.356   8.948  3.0748 -0.3603 -0.4801
 3746SOL     OW22870   3.145   1.663   6.713  0.1682  0.3310  0.1730
 3746SOL    HW122871   3.078   1.708   6.765  0.0286  1.4049 -0.9328
 3746SOL    HW222872   3.217   1.660   6.777  0.5925 -0.3406 -0.3304
 3747SOL     OW22873   1.004   2.266   6.064 -0.1795 -0.1101 -0.5647
 3747SOL    HW122874   0.963   2.274   6.150 -1.6736 -3.7584 -0.9217
 3747SOL    HW222875   0.961   2.185   6.037 -0.8525 -0.4590  1.6289
 3748SOL     OW22876   0.405   0.624  13.887 -0.2072  0.5129  0.3247
 3748SOL    HW122877   0.482   0.584  13.846 -1.1651 -1.7639  0.6930
 3748SOL    HW222878   0.402   0.589  13.976 -3.0141  1.0012  0.4423
 3749SOL     OW22879   1.209   4.019   5.284 -0.0422 -0.2484  0.3694
 3749SOL    HW122880   1.136   3.958   5.272 -1.4269  1.7480 -1.4788
 3749SOL    HW222881   1.282   3.962   5.305  0.1288 -0.2488 -0.2127
 3750SOL     OW22882   3.559   1.906   6.098  0.2516  0.0871 -0.2920
 3750SOL    HW122883   3.480   1.892   6.046  2.0429  1.0875 -3.3014
 3750SOL    HW222884   3.515   1.924   6.181 -1.0146  2.4164 -1.4994
 3751SOL     OW22885   2.392   1.435  12.863  0.4727  0.3968  0.2173
 3751SOL    HW122886   2.432   1.517  12.892  1.7113  0.3248 -1.2561
 3751SOL    HW222887   2.368   1.401  12.949 -1.9031 -1.8211 -1.3203
 3752SOL     OW22888   1.600   2.313   9.015 -0.4820 -0.2640  0.1447
 3752SOL    HW122889   1.630   2.238   9.066  1.4079 -1.7300 -3.1249
 3752SOL    HW222890   1.531   2.258   8.978  0.8281 -1.2777 -0.7631
 3753SOL     OW22891   2.160   2.684   4.894 -0.2387  0.2455  0.3262
 3753SOL    HW122892   2.178   2.724   4.809  2.1152 -0.1236  0.6384
 3753SOL    HW222893   2.234   2.720   4.943  0.4296  0.8917 -1.1740
 3754SOL     OW22894   1.109   4.663   3.472 -0.1758 -0.1815 -1.0889
 3754SOL    HW122895   1.095   4.569   3.466  0.6156 -0.5614  3.1029
 3754SOL    HW222896   1.152   4.668   3.386  0.0691 -0.1942 -0.9680
 3755SOL     OW22897   4.194   0.803   3.972  0.4676 -0.4010 -0.1382
 3755SOL    HW122898   4.143   0.726   3.946 -0.3166  0.2826 -0.6210
 3755SOL    HW222899   4.245   0.761   4.041 -0.3506  1.2640  1.4527
 3756SOL     OW22900   1.036   4.131   3.430 -0.0226 -0.3172  0.0923
 3756SOL    HW122901   0.962   4.149   3.488 -0.9794  1.3819 -1.6409
 3756SOL    HW222902   0.978   4.091   3.365  0.3118 -2.7347  1.2647
 3757SOL     OW22903   3.439   3.502   2.504 -0.4979 -0.3995 -0.1196
 3757SOL    HW122904   3.520   3.500   2.554 -0.7757  3.4495  0.4766
 3757SOL    HW222905   3.479   3.556   2.436  2.0527 -0.5919  1.2469
 3758SOL     OW22906   4.201   3.804   9.656 -0.1095 -0.0957 -0.3343
 3758SOL    HW122907   4.164   3.773   9.573 -0.9345  1.1256 -0.4304
 3758SOL    HW222908   4.122   3.819   9.707 -0.1280  1.8574 -0.9155
 3759SOL     OW22909   0.915   2.141   3.534  0.2335 -0.1640 -0.4828
 3759SOL    HW122910   0.957   2.154   3.619 -0.7062  0.6078 -0.1327
 3759SOL    HW222911   0.886   2.232   3.532 -2.8973 -1.1683 -1.2201
 3760SOL     OW22912   0.092   1.772   6.682  0.0482  0.5640 -0.1433
 3760SOL    HW122913   0.010   1.820   6.684  0.6985  1.4629  3.5349
 3760SOL    HW222914   0.098   1.737   6.593 -0.1293 -1.8037  0.7559
 3761SOL     OW22915   0.489   1.099   7.786  0.2098  0.0092 -0.0284
 3761SOL    HW122916   0.578   1.122   7.759 -0.0630 -0.1990 -1.0757
 3761SOL    HW222917   0.492   1.004   7.794  0.4391  0.0754  0.7568
 3762SOL     OW22918   3.809   2.222   8.027 -0.3064  0.2505  0.3306
 3762SOL    HW122919   3.899   2.249   8.045 -0.5671  0.7135  0.9484
 3762SOL    HW222920   3.765   2.307   8.035  2.4691  1.6469  0.5708
 3763SOL     OW22921   2.255   3.684  11.212 -0.9460 -0.2290  0.1030
 3763SOL    HW122922   2.265   3.593  11.187  0.5464 -0.0753  0.1750
 3763SOL    HW222923   2.216   3.712  11.129  0.2373  1.3509  0.0770
 3764SOL     OW22924   4.314   3.522  15.983  0.0181  0.4370  0.5893
 3764SOL    HW122925   4.240   3.467  16.008 -0.1103 -0.8153 -2.4821
 3764SOL    HW222926   4.284   3.604  16.021 -2.5154  0.5628 -1.7321
 3765SOL     OW22927   0.453   0.139   9.412  0.4909 -0.2382  0.1344
 3765SOL    HW122928   0.506   0.062   9.430  0.2036 -0.3704  0.4112
 3765SOL    HW222929   0.510   0.200   9.460 -0.4072  0.5640  0.1894
 3766SOL     OW22930   2.239   3.800   5.960  0.8255  0.4677 -0.2216
 3766SOL    HW122931   2.220   3.732   5.896 -3.0033 -0.2013  1.6484
 3766SOL    HW222932   2.158   3.813   6.009  1.2076 -0.5110  0.6740
 3767SOL     OW22933   1.384   0.164   0.153  0.7750  0.4538 -0.5211
 3767SOL    HW122934   1.352   0.224   0.221 -2.2556 -2.3393  0.5507
 3767SOL    HW222935   1.327   0.090   0.176  2.0226  0.2997  2.0554
 3768SOL     OW22936   1.190   2.734   7.749  0.4521 -0.0869  0.3320
 3768SOL    HW122937   1.231   2.657   7.708 -0.7089 -0.1702 -0.6828
 3768SOL    HW222938   1.245   2.732   7.828  3.0453 -1.5385 -1.5200
 3769SOL     OW22939   3.584   3.200   4.861  0.3661  0.7992  0.3974
 3769SOL    HW122940   3.666   3.151   4.848 -0.7707 -0.8507 -0.4638
 3769SOL    HW222941   3.544   3.153   4.934  2.3689  1.6440  2.0586
 3770SOL     OW22942   1.543   2.587   4.237 -0.5238 -0.3053  0.2538
 3770SOL    HW122943   1.534   2.547   4.150  1.3846  1.8875 -0.9670
 3770SOL    HW222944   1.508   2.522   4.298 -1.3068 -2.0084 -2.0189
 3771SOL     OW22945   0.038   0.579   2.908  0.5248 -0.2289 -0.0195
 3771SOL    HW122946   0.064   0.618   2.992 -1.4018  0.9478  0.0380
 3771SOL    HW222947   4.725   0.654   2.877 -0.4195 -0.3666  1.2018
 3772SOL     OW22948   2.518   0.023  12.786  0.4094 -0.1476  0.0402
 3772SOL    HW122949   2.504   0.114  12.812  1.8977 -0.2680  1.2308
 3772SOL    HW222950   2.609   0.013  12.813  0.9271  2.5249 -0.6636
 3773SOL     OW22951   4.657   2.770   4.166  0.4746 -0.0908 -0.6473
 3773SOL    HW122952   4.564   2.748   4.174  0.6584 -0.2746  1.1055
 3773SOL    HW222953   4.675   2.738   4.077 -0.5492 -2.9020  0.1425
 3774SOL     OW22954   3.042   4.432  16.436 -0.0014 -0.4632 -0.3933
 3774SOL    HW122955   2.991   4.447  16.516  1.6331  1.0685  0.3505
 3774SOL    HW222956   3.131   4.456  16.461  0.3670 -0.7333 -1.4586
 3775SOL     OW22957   4.111   1.649   6.419 -0.2085  0.0222 -0.3886
 3775SOL    HW122958   4.116   1.742   6.399 -0.2376 -0.2207 -1.5323
 3775SOL    HW222959   4.166   1.610   6.351  2.6604 -1.1874  2.5928
 3776SOL     OW22960   1.532   0.117   5.675 -0.3823  0.4328 -0.4992
 3776SOL    HW122961   1.549   0.023   5.668 -2.6906 -0.0682  0.7761
 3776SOL    HW222962   1.499   0.135   5.587 -1.4562  0.2762 -0.1312
 3777SOL     OW22963   3.219   1.528   2.010  0.3856 -0.1373  0.7198
 3777SOL    HW122964   3.149   1.502   1.950  1.3677  2.3932 -1.5344
 3777SOL    HW222965   3.296   1.486   1.971 -0.6059 -0.4897 -0.8794
 3778SOL     OW22966   2.701   2.822   2.447  0.1558  0.5893  0.9212
 3778SOL    HW122967   2.666   2.865   2.368 -2.0636  0.0825  1.6672
 3778SOL    HW222968   2.668   2.734   2.434  0.5801  0.4817  0.5657
 3779SOL     OW22969   1.768   0.476  15.317  0.1893  0.0061 -0.5461
 3779SOL    HW122970   1.727   0.389  15.316 -0.4285  0.2991 -0.2309
 3779SOL    HW222971   1.750   0.510  15.230 -0.5360  0.2458 -0.3004
 3780SOL     OW22972   4.685   4.321  13.256  0.3737 -0.7232 -0.3873
 3780SOL    HW122973   4.670   4.415  13.254 -0.8442 -0.9245 -0.4981
 3780SOL    HW222974   4.594   4.291  13.253 -0.2290  1.3094 -2.0823
 3781SOL     OW22975   2.574   4.329   8.019  0.7773  0.0420  0.0937
 3781SOL    HW122976   2.570   4.266   7.948 -1.7771  0.5931 -0.2657
 3781SOL    HW222977   2.480   4.350   8.018  0.8898  0.5018 -0.4071
 3782SOL     OW22978   2.109   1.259   3.184 -0.5371 -0.3514  0.4876
 3782SOL    HW122979   2.040   1.261   3.118 -0.8296 -1.7998  0.7398
 3782SOL    HW222980   2.182   1.201   3.162  0.9262  2.2562 -1.4748
 3783SOL     OW22981   3.394   4.510   9.373 -0.8355  0.2384  0.3311
 3783SOL    HW122982   3.317   4.533   9.320 -1.4305 -3.1564 -0.2892
 3783SOL    HW222983   3.421   4.426   9.337  4.5565  1.7343  0.8191
 3784SOL     OW22984   3.102   3.473  12.202  0.2428 -0.0400 -0.4998
 3784SOL    HW122985   3.083   3.566  12.204  2.5107  0.3832  0.8270
 3784SOL    HW222986   3.015   3.434  12.209  0.3910 -0.5815 -1.6579
 3785SOL     OW22987   3.235   1.461   4.456  0.0503 -0.4675  0.1680
 3785SOL    HW122988   3.212   1.472   4.364 -1.0397 -0.6916  0.4064
 3785SOL    HW222989   3.178   1.389   4.485 -1.5811  0.3188 -1.0906
 3786SOL     OW22990   0.210   0.333  15.623  0.2357 -0.1166  0.2948
 3786SOL    HW122991   0.274   0.309  15.556  1.1628  2.2132  0.3421
 3786SOL    HW222992   0.179   0.420  15.598  0.5614  0.2760  1.2515
 3787SOL     OW22993   3.611   2.937  15.971 -0.0711  0.1450  0.2595
 3787SOL    HW122994   3.569   2.986  15.900 -0.9964 -0.2528  0.5343
 3787SOL    HW222995   3.535   2.927  16.028  0.1990  1.1151  0.7769
 3788SOL     OW22996   4.056   4.038   2.711  0.3850  0.5325  0.3974
 3788SOL    HW122997   4.050   4.107   2.645 -1.5786 -1.2716 -1.3095
 3788SOL    HW222998   3.963   4.033   2.731  0.3075 -0.8870 -0.3462
 3789SOL     OW22999   0.417   3.341   5.787 -0.1980  0.3904 -0.2371
 3789SOL    HW123000   0.321   3.342   5.794 -0.1629  1.2742  0.0119
 3789SOL    HW223001   0.417   3.305   5.698  0.5814 -1.1981  0.3940
 3790SOL     OW23002   0.945   3.958   8.529 -0.1785  0.1576 -0.6263
 3790SOL    HW123003   0.961   4.017   8.456 -2.8410  0.3216 -1.0712
 3790SOL    HW223004   0.852   3.972   8.543 -0.2914 -2.4065  1.0855
 3791SOL     OW23005   0.782   4.164   7.245 -0.3059  0.6937 -0.1015
 3791SOL    HW123006   0.828   4.244   7.221 -3.0876  2.3327  0.1630
 3791SOL    HW223007   0.748   4.143   7.158  1.4487  0.7154 -0.8139
 3792SOL     OW23008   2.062   2.951   6.120 -0.0639 -0.8611 -0.4146
 3792SOL    HW123009   2.022   2.904   6.047 -2.9799 -0.4295  0.8940
 3792SOL    HW223010   2.087   3.032   6.076 -2.5827  1.5335  2.5864
 3793SOL     OW23011   0.018   3.305   5.366 -0.3053 -0.5184 -0.1572
 3793SOL    HW123012   4.676   3.354   5.384  0.5362  1.4819 -1.9974
 3793SOL    HW223013   4.719   3.228   5.322 -3.5875  0.4772  0.8968
 3794SOL     OW23014   3.573   0.276   9.387  0.1802  0.0849  0.3188
 3794SOL    HW123015   3.667   0.271   9.371  0.3573 -0.7901  1.6794
 3794SOL    HW223016   3.563   0.367   9.357  1.6757  0.6934  1.6447
 3795SOL     OW23017   2.183   3.109   4.217  0.1681  0.8811  0.0709
 3795SOL    HW123018   2.247   3.179   4.206 -0.9681  1.9646  0.3048
 3795SOL    HW223019   2.187   3.073   4.128 -1.1451 -0.3273  0.4912
 3796SOL     OW23020   4.721   4.235   3.160 -0.1211  0.1122  0.3196
 3796SOL    HW123021   4.736   4.269   3.249  0.8848  0.0628  0.1590
 3796SOL    HW223022   0.001   4.143   3.177  2.3200  0.2311 -1.7071
 3797SOL     OW23023   0.018   4.676   7.038  0.0243 -0.0465 -0.7027
 3797SOL    HW123024   0.063   4.598   7.006  2.3463  0.8223  0.4584
 3797SOL    HW223025   0.054   4.684   7.127  0.8332  1.3142 -1.1461
 3798SOL     OW23026   0.347   2.293   9.428 -0.6538 -0.4825  0.3188
 3798SOL    HW123027   0.339   2.388   9.420 -1.1377 -0.6397 -1.0176
 3798SOL    HW223028   0.257   2.260   9.427 -0.3000 -1.4176 -0.1778
 3799SOL     OW23029   4.248   0.056  16.225 -0.5204 -0.4834  0.7160
 3799SOL    HW123030   4.169   0.019  16.185  0.6579 -3.7418  1.3610
 3799SOL    HW223031   4.217   0.075  16.314 -1.2067 -0.4477  0.4703
 3800SOL     OW23032   0.705   2.514   9.992 -0.1398  0.5315  0.2462
 3800SOL    HW123033   0.701   2.610   9.986  0.0075  0.4982 -0.3611
 3800SOL    HW223034   0.616   2.490   9.966  0.0086 -0.1549  0.3707
 3801SOL     OW23035   3.635   3.304   7.017  0.0241 -0.4000  0.0637
 3801SOL    HW123036   3.716   3.253   7.017 -0.7405 -1.6292 -0.9557
 3801SOL    HW223037   3.661   3.394   7.033  1.7054 -1.2868  2.2789
 3802SOL     OW23038   1.385   1.206  15.296  0.5696  0.4630  0.2785
 3802SOL    HW123039   1.393   1.293  15.257 -1.5845  0.8852  0.7828
 3802SOL    HW223040   1.402   1.155  15.217 -1.1700 -3.4166  2.4130
 3803SOL     OW23041   3.554   3.663   8.830 -0.0591  0.3496 -0.1980
 3803SOL    HW123042   3.479   3.709   8.870 -0.7717 -0.3048 -0.7770
 3803SOL    HW223043   3.539   3.674   8.736 -0.4163 -2.0026 -0.4015
 3804SOL     OW23044   1.227   1.778  12.465 -0.2970  0.3625 -0.0303
 3804SOL    HW123045   1.213   1.720  12.540 -0.1282  0.2357 -0.0975
 3804SOL    HW223046   1.241   1.862  12.508 -0.7152  0.3505  0.1282
 3805SOL     OW23047   3.115   2.091   1.224 -0.3653  0.0159  0.4987
 3805SOL    HW123048   3.061   2.164   1.256 -1.0495  0.4977 -1.7857
 3805SOL    HW223049   3.050   2.066   1.158 -1.1545  1.9012  0.5373
 3806SOL     OW23050   1.227   3.133   7.972 -0.0534  0.8054 -0.2768
 3806SOL    HW123051   1.251   3.146   7.880  1.7563 -1.3582 -0.1407
 3806SOL    HW223052   1.299   3.075   7.999 -0.5351  0.8862  1.1812
 3807SOL     OW23053   3.977   3.745   1.746  0.5075 -0.0763  0.4335
 3807SOL    HW123054   4.057   3.740   1.798  0.2953  1.9056  0.9679
 3807SOL    HW223055   4.003   3.757   1.654  1.4107 -0.3916  0.6569
 3808SOL     OW23056   2.443   4.033   4.404 -0.3372  0.2373  0.1777
 3808SOL    HW123057   2.461   3.957   4.459 -0.4226 -0.6617 -1.0357
 3808SOL    HW223058   2.523   4.041   4.352 -0.1092 -1.7331  0.2474
 3809SOL     OW23059   1.332   2.871   7.447  0.2987  0.2331 -0.3239
 3809SOL    HW123060   1.404   2.897   7.390  1.4819 -0.5784  0.8105
 3809SOL    HW223061   1.361   2.782   7.464  1.1175  0.8590  1.6090
 3810SOL     OW23062   3.061   1.133  14.601  0.1702 -0.6346 -0.3784
 3810SOL    HW123063   2.987   1.095  14.555 -1.6726  1.7066  0.6591
 3810SOL    HW223064   3.062   1.092  14.687 -0.2688 -1.4701 -0.7722
 3811SOL     OW23065   0.831   3.116   0.519  0.0268 -0.0821 -0.0297
 3811SOL    HW123066   0.796   3.120   0.430 -1.4886  0.7577  0.5852
 3811SOL    HW223067   0.901   3.181   0.510 -0.0055  0.1664  1.4797
 3812SOL     OW23068   0.866   0.540  11.941  0.2477  0.3623 -0.5428
 3812SOL    HW123069   0.903   0.454  11.961 -1.2488 -0.3446 -0.8216
 3812SOL    HW223070   0.917   0.593  12.002  2.4298 -0.1913 -1.8649
 3813SOL     OW23071   1.731   4.347   6.732 -0.2010  0.0881  0.6320
 3813SOL    HW123072   1.800   4.319   6.672  0.1145 -1.7030  1.8486
 3813SOL    HW223073   1.658   4.316   6.677  0.2870 -1.8015  1.0564
 3814SOL     OW23074   3.595   1.507   1.984  0.4365 -0.0255  0.1401
 3814SOL    HW123075   3.656   1.451   2.033  1.4696  0.0286 -1.0986
 3814SOL    HW223076   3.631   1.596   1.987  2.9292 -0.9540 -1.7799
 3815SOL     OW23077   3.280   0.566   7.187 -0.2223  0.3051  0.2198
 3815SOL    HW123078   3.248   0.654   7.203  0.6775  0.4889  1.0039
 3815SOL    HW223079   3.297   0.536   7.276  0.1402 -0.2909 -0.0482
 3816SOL     OW23080   4.065   3.672   0.768 -0.1079 -0.0544 -0.4010
 3816SOL    HW123081   3.986   3.723   0.755 -0.5725 -0.6033  0.2546
 3816SOL    HW223082   4.067   3.607   0.698  0.0779  1.2268 -1.5678
 3817SOL     OW23083   0.176   2.777   3.659 -0.0805 -0.4327 -0.2393
 3817SOL    HW123084   0.246   2.808   3.715  0.8410 -0.9535 -1.0928
 3817SOL    HW223085   0.216   2.801   3.575 -1.7994 -1.6004 -1.4022
 3818SOL     OW23086   1.468   3.138  11.662  0.3466  0.3571 -0.5841
 3818SOL    HW123087   1.428   3.222  11.640 -0.4535  0.3368  0.7592
 3818SOL    HW223088   1.462   3.091  11.579 -1.5474  0.4206 -0.4759
 3819SOL     OW23089   0.247   0.188   6.426 -0.2024 -0.4332 -0.1004
 3819SOL    HW123090   0.329   0.237   6.426 -0.2198 -0.3939  1.5127
 3819SOL    HW223091   0.209   0.210   6.511  0.3906  0.8763 -0.1755
 3820SOL     OW23092   2.158   0.159  12.063 -0.0953 -0.3672  0.1356
 3820SOL    HW123093   2.228   0.100  12.092  0.8277  0.5857 -0.1663
 3820SOL    HW223094   2.165   0.144  11.969 -1.0036 -1.2683  0.2121
 3821SOL     OW23095   0.635   3.207   5.923  0.0356  0.5017  0.0437
 3821SOL    HW123096   0.573   3.173   5.857  0.4734 -1.1756  0.5009
 3821SOL    HW223097   0.638   3.297   5.891 -1.1141 -0.0802 -1.7158
 3822SOL     OW23098   4.132   4.688   1.375  0.2371  0.8206  0.4254
 3822SOL    HW123099   4.138   4.595   1.393  0.1829  1.3979  3.4499
 3822SOL    HW223100   4.219   4.727   1.376  0.0234  1.3088  0.4029
 3823SOL     OW23101   2.106   2.836   6.647 -0.5185  0.2514  0.5735
 3823SOL    HW123102   2.160   2.896   6.597 -0.6584 -0.5437 -0.5278
 3823SOL    HW223103   2.063   2.899   6.704  1.0787  2.6054 -0.8393
 3824SOL     OW23104   2.391   3.579   0.440 -0.0805  0.1813  0.3081
 3824SOL    HW123105   2.311   3.531   0.461  0.5791 -0.6196  0.9895
 3824SOL    HW223106   2.349   3.648   0.390 -1.1206  0.2685  1.2965
 3825SOL     OW23107   1.434   1.188   7.388 -0.2083 -0.3552 -0.4071
 3825SOL    HW123108   1.401   1.135   7.315  0.1324 -0.6254 -0.3641
 3825SOL    HW223109   1.516   1.222   7.354 -0.7197  1.3464  0.0554
 3826SOL     OW23110   1.009   1.769   5.236 -0.0299 -0.0580  0.4918
 3826SOL    HW123111   1.019   1.830   5.310 -1.6709 -1.1277  1.5990
 3826SOL    HW223112   0.966   1.699   5.285 -0.4397  0.4712  0.8953
 3827SOL     OW23113   3.586   0.203   2.633  0.4368 -0.1409 -0.3076
 3827SOL    HW123114   3.591   0.171   2.722  1.8660  1.2795  0.1358
 3827SOL    HW223115   3.679   0.219   2.617 -0.3545  1.3868 -3.5911
 3828SOL     OW23116   3.655   3.486   6.317  1.2393  0.3127  0.1514
 3828SOL    HW123117   3.563   3.493   6.291  1.4628 -0.6728 -0.8831
 3828SOL    HW223118   3.707   3.507   6.240 -0.0112  1.1334 -0.4688
 3829SOL     OW23119   4.286   4.478   2.074 -0.0926 -0.4443  0.1876
 3829SOL    HW123120   4.270   4.448   1.984 -0.2476  0.0579  0.0487
 3829SOL    HW223121   4.307   4.395   2.117  1.6631 -0.3726 -0.5344
 3830SOL     OW23122   1.371   0.049   7.178 -0.2259  0.3236 -0.1908
 3830SOL    HW123123   1.370   4.698   7.213 -0.1329  0.4041  0.0200
 3830SOL    HW223124   1.407   0.094   7.255  0.4890  0.7006 -0.7471
 3831SOL     OW23125   2.465   4.481   5.206 -0.4897  0.0028  0.0465
 3831SOL    HW123126   2.474   4.469   5.301 -1.7022  2.5195  0.4803
 3831SOL    HW223127   2.447   4.390   5.183  0.1128  0.2910 -1.5277
 3832SOL     OW23128   2.920   1.426  11.267 -0.4252 -0.1312  0.0255
 3832SOL    HW123129   2.903   1.476  11.188 -0.1839  0.3714  0.2900
 3832SOL    HW223130   2.876   1.341  11.262 -1.6424  0.4461  1.1277
 3833SOL     OW23131   3.801   2.197   8.755 -0.0103  0.6312  0.5262
 3833SOL    HW123132   3.842   2.274   8.795  3.6889 -0.7636 -0.6250
 3833SOL    HW223133   3.742   2.233   8.689 -2.4067 -2.1313  1.1839
 3834SOL     OW23134   4.313   4.022   8.676 -0.5868 -0.1318  0.4316
 3834SOL    HW123135   4.326   4.003   8.769  0.8977 -1.9745 -0.1448
 3834SOL    HW223136   4.258   3.953   8.640 -2.5644 -0.2562  3.6772
 3835SOL     OW23137   1.420   4.246   4.781 -0.4671 -0.2809  0.5727
 3835SOL    HW123138   1.338   4.292   4.797  0.0990  1.4236 -1.5059
 3835SOL    HW223139   1.473   4.323   4.802  0.3382 -0.9431  0.9597
 3836SOL     OW23140   0.002   1.504   0.738 -0.1524 -0.1824 -0.7390
 3836SOL    HW123141   4.727   1.599   0.737 -1.4389 -0.3371  2.4922
 3836SOL    HW223142   0.081   1.502   0.685  1.0686  1.0783  1.0506
 3837SOL     OW23143   2.896   2.358   3.647  0.3750  0.7495  0.2596
 3837SOL    HW123144   2.820   2.315   3.685  0.4826 -0.5163 -0.9384
 3837SOL    HW223145   2.904   2.325   3.557 -0.6985  1.4926 -0.1066
 3838SOL     OW23146   4.049   0.051  11.791 -0.1648 -0.0373 -0.2274
 3838SOL    HW123147   4.084   0.094  11.714 -1.2880  2.0292  0.4172
 3838SOL    HW223148   3.960   0.082  11.775 -0.2033  0.4581  0.9341
 3839SOL     OW23149   4.208   0.006   2.114 -0.5750 -0.2605  0.0988
 3839SOL    HW123150   4.145   0.028   2.045  1.6769 -1.2398 -2.3095
 3839SOL    HW223151   4.206   4.649   2.105 -3.2168 -0.0664 -1.3818
 3840SOL     OW23152   0.490   0.644   6.077  0.1624  0.2105  0.5179
 3840SOL    HW123153   0.407   0.686   6.052 -0.8275 -1.5498  0.8424
 3840SOL    HW223154   0.467   0.575   6.139  0.1676  1.1029  1.5136
 3841SOL     OW23155   1.364   1.510   2.864 -0.0008 -0.5368  0.0163
 3841SOL    HW123156   1.291   1.554   2.821 -0.9963 -0.7686  1.4922
 3841SOL    HW223157   1.412   1.590   2.883 -1.0932 -0.4741  2.4804
 3842SOL     OW23158   0.067   4.692   6.607 -0.0214 -0.2698  0.2006
 3842SOL    HW123159   0.162   4.682   6.602  0.0625  0.8957 -0.5577
 3842SOL    HW223160   0.046   4.599   6.621 -1.5741  0.1345  0.5721
 3843SOL     OW23161   1.677   4.045   7.245  0.0683  0.2171 -0.4378
 3843SOL    HW123162   1.636   4.094   7.316 -0.9250  0.0032 -0.8669
 3843SOL    HW223163   1.768   4.035   7.273 -0.1800  1.6619  0.8354
 3844SOL     OW23164   4.170   2.941  16.647 -0.2332 -0.4970 -0.3051
 3844SOL    HW123165   4.093   2.997  16.634  1.1176  1.5566  0.6135
 3844SOL    HW223166   4.180   2.904  16.560 -0.7585  0.5520 -0.8070
 3845SOL     OW23167   0.756   0.151  12.660  0.2036 -0.0905 -0.3442
 3845SOL    HW123168   0.772   0.244  12.672 -0.2410 -0.0164 -0.3439
 3845SOL    HW223169   0.830   0.127  12.717  1.3706 -1.1842 -2.3261
 3846SOL     OW23170   0.632   4.384   4.272  0.5347  0.2540 -0.0562
 3846SOL    HW123171   0.725   4.361   4.277  0.6991  1.5149  2.6641
 3846SOL    HW223172   0.603   4.316   4.211  1.2836  0.5747 -0.7807
 3847SOL     OW23173   0.410   3.228   2.739  0.6162  0.5443 -0.1074
 3847SOL    HW123174   0.405   3.319   2.710 -0.5538 -0.0203 -1.6793
 3847SOL    HW223175   0.356   3.241   2.817  0.8838 -0.2202  0.2064
 3848SOL     OW23176   2.878   2.574  13.980  0.5549  0.0891  0.8410
 3848SOL    HW123177   2.807   2.639  13.975 -1.0145 -1.5304  2.1874
 3848SOL    HW223178   2.926   2.620  14.049  1.8199  0.0774 -0.0256
 3849SOL     OW23179   2.362   1.402   6.651  0.0649  0.0344 -0.3914
 3849SOL    HW123180   2.302   1.424   6.723  1.6212  1.3621  0.4970
 3849SOL    HW223181   2.342   1.308   6.642  0.2010  0.0882 -1.2076
 3850SOL     OW23182   4.725   0.870   4.636  0.3796 -0.5633 -0.2518
 3850SOL    HW123183   0.009   0.948   4.687 -0.3201 -0.6668  0.2049
 3850SOL    HW223184   4.670   0.826   4.701  0.8869 -0.2004  0.4232
 3851SOL     OW23185   4.619   3.348   2.641 -0.6473  0.3983 -0.5001
 3851SOL    HW123186   4.711   3.324   2.626 -0.5758  0.2388  0.1937
 3851SOL    HW223187   4.621   3.355   2.737  0.7929  1.4275 -0.5941
 3852SOL     OW23188   2.172   0.471   3.983 -0.8943  0.2121 -0.4348
 3852SOL    HW123189   2.147   0.464   4.075  0.7752  1.7698  0.1384
 3852SOL    HW223190   2.191   0.379   3.962 -1.5181  0.0749 -0.4041
 3853SOL     OW23191   0.211   0.372   9.437  0.2337  0.3076 -0.1673
 3853SOL    HW123192   0.239   0.377   9.345  1.8240  0.5267  0.3253
 3853SOL    HW223193   0.286   0.412   9.481 -0.1359 -0.0192  0.7586
 3854SOL     OW23194   0.733   1.722   2.543  0.5070  0.2718 -0.2345
 3854SOL    HW123195   0.745   1.816   2.533 -3.1193  0.8397  0.6057
 3854SOL    HW223196   0.782   1.703   2.623 -0.1558 -1.7586 -0.3010
 3855SOL     OW23197   1.110   3.090   2.573 -0.0034 -0.6803 -0.4359
 3855SOL    HW123198   1.055   3.075   2.496  0.4261  0.5751 -0.9867
 3855SOL    HW223199   1.177   3.137   2.523 -1.0410  2.9646  1.6023
 3856SOL     OW23200   1.793   1.441   1.583  0.3732 -0.3656 -0.2226
 3856SOL    HW123201   1.822   1.415   1.496 -0.5041 -1.3930 -0.2052
 3856SOL    HW223202   1.732   1.512   1.559 -0.3832 -1.8654 -2.7052
 3857SOL     OW23203   0.810   3.696   0.801  0.1817 -0.2401 -0.1167
 3857SOL    HW123204   0.786   3.778   0.844  1.2624  0.1706 -0.2902
 3857SOL    HW223205   0.762   3.632   0.854  0.5682 -0.1419  0.3518
 3858SOL     OW23206   3.141   2.333   0.496  0.6951 -0.2755 -0.0050
 3858SOL    HW123207   3.195   2.276   0.552  0.7113  0.1581  0.4223
 3858SOL    HW223208   3.176   2.419   0.517  1.4717 -0.3919 -0.8445
 3859SOL     OW23209   4.118   3.294  13.750 -0.0567 -0.5191 -0.1496
 3859SOL    HW123210   4.143   3.246  13.672  1.6490 -0.3677  0.3048
 3859SOL    HW223211   4.032   3.323  13.720 -0.4698  0.7107  2.1722
 3860SOL     OW23212   3.119   0.049   3.545  0.2758  0.2387 -0.3472
 3860SOL    HW123213   3.118   0.073   3.453  0.5090 -1.5739 -0.8143
 3860SOL    HW223214   3.210   0.070   3.569 -0.0827  1.3100  0.0572
 3861SOL     OW23215   1.654   0.919  11.552  0.2895  0.5692  0.3688
 3861SOL    HW123216   1.654   0.871  11.469 -1.4726 -0.5502  1.0168
 3861SOL    HW223217   1.745   0.950  11.549  1.2376 -2.2140 -0.6212
 3862SOL     OW23218   2.549   0.721   5.537 -0.3341 -0.5584 -0.2976
 3862SOL    HW123219   2.643   0.711   5.552 -0.5458 -0.5862  1.0492
 3862SOL    HW223220   2.528   0.636   5.499 -1.4370 -1.1648  1.6880
 3863SOL     OW23221   4.517   2.247   3.861  0.5605  0.1021  0.5772
 3863SOL    HW123222   4.546   2.216   3.775  1.1961  1.6087  0.2520
 3863SOL    HW223223   4.462   2.323   3.838 -0.6841 -0.6748  0.9602
 3864SOL     OW23224   4.323   3.486   6.178  0.5333  0.5283  0.9943
 3864SOL    HW123225   4.405   3.535   6.169  1.9557 -2.0906 -0.3321
 3864SOL    HW223226   4.325   3.453   6.268  0.4787 -1.7289  0.1660
 3865SOL     OW23227   3.716   3.846   6.156 -0.2520  0.6225 -0.1383
 3865SOL    HW123228   3.697   3.813   6.244 -4.2259 -0.0489 -1.2734
 3865SOL    HW223229   3.665   3.784   6.104  1.5985 -0.7736 -0.3203
 3866SOL     OW23230   2.906   3.769  11.417  0.1070  0.3092 -0.4601
 3866SOL    HW123231   2.966   3.786  11.345 -0.8293 -0.9862 -1.5362
 3866SOL    HW223232   2.900   3.673  11.413 -1.3127  0.2727  2.4995
 3867SOL     OW23233   2.661   3.051  16.031 -0.3513 -0.0327  0.0306
 3867SOL    HW123234   2.632   3.038  15.941 -3.4829  0.8097  0.9118
 3867SOL    HW223235   2.676   2.960  16.057  0.3364  0.7630  2.4286
 3868SOL     OW23236   1.353   2.967  11.474  0.4201 -0.1731  0.2204
 3868SOL    HW123237   1.261   2.958  11.500  0.3377 -0.8500 -0.3212
 3868SOL    HW223238   1.348   2.951  11.380  1.4795  1.5312 -0.1301
 3869SOL     OW23239   3.762   3.044   6.754  0.3211  0.2085 -0.4651
 3869SOL    HW123240   3.771   3.133   6.719 -2.3468  1.4358  1.9977
 3869SOL    HW223241   3.696   2.998   6.702  0.8833 -1.8632  0.6479
 3870SOL     OW23242   2.832   2.662  12.078  0.0770  0.4909  0.0842
 3870SOL    HW123243   2.816   2.716  12.001 -3.5136 -0.7405 -0.0598
 3870SOL    HW223244   2.903   2.707  12.123  0.9088  0.2497 -1.0056
 3871SOL     OW23245   1.784   0.798   7.681 -0.2421 -0.5254 -0.0188
 3871SOL    HW123246   1.715   0.731   7.684  1.4411 -2.2560  0.4537
 3871SOL    HW223247   1.865   0.748   7.674 -0.3263 -0.7744  0.8171
 3872SOL     OW23248   3.755   1.010  10.296  0.1583  0.1133  0.2704
 3872SOL    HW123249   3.766   0.915  10.309 -2.4506 -0.4977 -2.0073
 3872SOL    HW223250   3.667   1.035  10.322  1.8557  2.2169  3.9550
 3873SOL     OW23251   0.620   2.820   3.919  0.3513 -0.1219  0.3280
 3873SOL    HW123252   0.669   2.788   3.844  1.9951  1.1052  0.8755
 3873SOL    HW223253   0.689   2.826   3.984  0.1606 -0.2454  0.5415
 3874SOL     OW23254   2.462   0.072   5.871  0.5417 -0.1518  0.0341
 3874SOL    HW123255   2.450   4.725   5.829 -0.8582  0.4118 -0.7215
 3874SOL    HW223256   2.545   0.048   5.914 -1.1205 -0.1305  3.2420
 3875SOL     OW23257   3.172   1.028   2.271 -0.3161  0.3258  0.2386
 3875SOL    HW123258   3.105   0.960   2.276  0.2902 -0.2499  0.5130
 3875SOL    HW223259   3.257   0.982   2.271 -1.5385 -1.9431  0.7484
 3876SOL     OW23260   0.897   2.555   8.058  0.1928  0.4966 -0.4158
 3876SOL    HW123261   0.910   2.626   7.995  0.3553  0.7065 -0.1434
 3876SOL    HW223262   0.806   2.563   8.085  0.5495 -1.4714  1.3178
 3877SOL     OW23263   2.878   4.196  15.302 -0.1561  0.0294  0.4692
 3877SOL    HW123264   2.893   4.274  15.355  0.8783  1.0744 -1.3611
 3877SOL    HW223265   2.890   4.120  15.358 -0.9048  0.7855  1.6659
 3878SOL     OW23266   3.220   0.289   1.098  0.2068 -0.1464  0.2055
 3878SOL    HW123267   3.156   0.264   1.165 -0.1472 -1.3140 -0.5720
 3878SOL    HW223268   3.296   0.244   1.137  0.6333  2.0628  1.9373
 3879SOL     OW23269   3.172   0.042   4.782  0.3847 -0.0675 -0.4787
 3879SOL    HW123270   3.118   0.114   4.816  2.0338  1.1580 -0.4421
 3879SOL    HW223271   3.105   4.731   4.736 -1.4388  0.2183  1.8484
 3880SOL     OW23272   2.956   1.283   6.905 -0.0962 -0.2319 -0.4332
 3880SOL    HW123273   2.915   1.370   6.903 -1.1527 -0.7418 -0.7354
 3880SOL    HW223274   2.938   1.255   6.995  1.4847 -2.4860 -0.8327
 3881SOL     OW23275   0.484   4.632   9.834 -0.4695  0.2094 -0.1160
 3881SOL    HW123276   0.400   4.596   9.806 -0.9612  1.9256 -0.8942
 3881SOL    HW223277   0.488   4.711   9.779 -1.0589  0.2608 -0.0854
 3882SOL     OW23278   2.273   2.153  17.114  0.6167 -0.2556  0.3879
 3882SOL    HW123279   2.245   2.099  17.188 -1.6075 -0.6985 -0.7667
 3882SOL    HW223280   2.328   2.224  17.147 -1.1832  0.9159  0.8528
 3883SOL     OW23281   1.301   2.607   9.390  0.7246  0.3135 -0.3937
 3883SOL    HW123282   1.315   2.681   9.331  0.5991  0.5966 -0.0684
 3883SOL    HW223283   1.230   2.563   9.343 -0.7536  1.7771  0.4388
 3884SOL     OW23284   3.020   0.855   7.270 -0.1518  0.4449 -0.0847
 3884SOL    HW123285   2.952   0.910   7.309  0.6485  0.1680  1.6931
 3884SOL    HW223286   3.051   0.804   7.344  0.7184  0.6040 -0.3468
 3885SOL     OW23287   0.312   0.070  15.895 -0.8249  0.3702 -0.5521
 3885SOL    HW123288   0.239   0.010  15.880 -0.9909  0.4325  0.0153
 3885SOL    HW223289   0.369   0.068  15.818  0.7944  1.7019  0.6293
 3886SOL     OW23290   2.910   1.805  10.683  0.4028  0.3082 -0.2416
 3886SOL    HW123291   2.903   1.726  10.629 -3.0868  1.1657 -1.0686
 3886SOL    HW223292   2.941   1.770  10.766  0.7467  0.0857 -0.4651
 3887SOL     OW23293   4.234   4.473   0.658 -0.1035 -0.4339 -0.1861
 3887SOL    HW123294   4.309   4.439   0.706  0.5692  1.3196 -0.0004
 3887SOL    HW223295   4.177   4.489   0.733  3.0550  0.7081  1.9670
 3888SOL     OW23296   2.389   2.960   2.924  0.0651  0.3541 -0.0833
 3888SOL    HW123297   2.355   3.009   2.849  2.1998  0.2364 -1.1247
 3888SOL    HW223298   2.416   3.027   2.987  2.3207  1.1170 -1.8501
 3889SOL     OW23299   0.921   3.724   3.713 -0.5528 -0.5291 -0.3198
 3889SOL    HW123300   0.858   3.759   3.649 -0.2865  0.2108 -0.1761
 3889SOL    HW223301   0.856   3.690   3.774 -0.5305  2.4897  1.3425
 3890SOL     OW23302   3.748   0.628   6.196  0.6221  0.0857  0.4274
 3890SOL    HW123303   3.810   0.651   6.128 -1.0494 -4.9491 -2.7638
 3890SOL    HW223304   3.663   0.647   6.156  0.6198 -0.1357  0.3267
 3891SOL     OW23305   3.572   4.066  16.762  0.2565  0.0071 -0.8932
 3891SOL    HW123306   3.500   4.074  16.824  0.5056  0.8011 -0.6980
 3891SOL    HW223307   3.574   4.159  16.738  0.0049  0.6287  1.5387
 3892SOL     OW23308   1.675   1.689   3.728  0.3180 -0.8176  0.6729
 3892SOL    HW123309   1.703   1.709   3.817 -0.7083 -0.2741  0.8736
 3892SOL    HW223310   1.733   1.614   3.712  0.7100 -0.3091 -0.3272
 3893SOL     OW23311   0.431   0.491   8.334  0.0531  0.0339  0.0556
 3893SOL    HW123312   0.419   0.397   8.345  0.1085 -0.0864 -0.9581
 3893SOL    HW223313   0.374   0.512   8.408  1.5170  0.7237  1.0024
 3894SOL     OW23314   0.971   3.860   9.024 -0.1792 -0.3247  0.3717
 3894SOL    HW123315   0.920   3.800   8.969 -0.8554  0.2617  0.3496
 3894SOL    HW223316   0.985   3.927   8.957 -3.0161  0.6076  0.6811
 3895SOL     OW23317   0.479   2.397   5.435  0.1076  0.0426 -0.9438
 3895SOL    HW123318   0.459   2.306   5.411  0.2432 -0.1927 -0.1798
 3895SOL    HW223319   0.565   2.386   5.475  0.2275  1.7815 -0.7536
 3896SOL     OW23320   0.279   0.402   8.560  0.0123  0.7612  0.2673
 3896SOL    HW123321   0.192   0.431   8.589  1.5259  2.0185  3.5460
 3896SOL    HW223322   0.334   0.412   8.637 -2.7304 -0.7992  2.3980
 3897SOL     OW23323   1.113   1.375   5.362  0.2011  0.2070  0.1410
 3897SOL    HW123324   1.133   1.388   5.269  1.0803  0.1355  0.3231
 3897SOL    HW223325   1.042   1.439   5.363  0.4430  0.4528  1.1681
 3898SOL     OW23326   0.270   1.546  14.961  0.2375  0.2636  0.4598
 3898SOL    HW123327   0.337   1.593  15.011 -1.0364  0.4287  2.0159
 3898SOL    HW223328   0.274   1.453  14.982  0.4910  0.2512  0.3522
 3899SOL     OW23329   2.327   0.959   7.381  0.8620  0.0416  0.3646
 3899SOL    HW123330   2.248   1.009   7.361 -0.0359 -0.3541  2.9459
 3899SOL    HW223331   2.376   1.026   7.430  0.4735  2.7194 -2.8805
 3900SOL     OW23332   1.803   1.933   3.977  0.3548 -0.8023 -0.1766
 3900SOL    HW123333   1.812   2.013   4.029  0.9735 -1.4320  0.6878
 3900SOL    HW223334   1.806   1.957   3.885  2.3388  3.2567  0.9625
 3901SOL     OW23335   1.505   4.485   7.954  0.3575 -0.4966  0.2607
 3901SOL    HW123336   1.571   4.421   7.929  0.5552  0.3057 -1.3028
 3901SOL    HW223337   1.438   4.477   7.886  0.0496  2.9380  0.1475
 3902SOL     OW23338   1.050   0.853   0.382  0.3426  0.2121 -0.0787
 3902SOL    HW123339   1.137   0.892   0.375 -0.4208  2.2712  1.7905
 3902SOL    HW223340   1.030   0.852   0.289 -2.0037  1.7635  0.4036
 3903SOL     OW23341   4.690   1.179  15.814  0.0866 -0.5187  0.3499
 3903SOL    HW123342   4.720   1.267  15.836 -1.9737  0.6866 -1.6667
 3903SOL    HW223343   0.022   1.137  15.864  0.8217 -2.8679 -2.6635
 3904SOL     OW23344   1.353   2.043   4.306 -0.6274  0.2485 -0.2918
 3904SOL    HW123345   1.296   1.967   4.315 -2.1637  1.5652  1.1902
 3904SOL    HW223346   1.397   2.017   4.225  0.8284  0.7134  0.3415
 3905SOL     OW23347   3.745   4.561  10.486  0.3437  0.1780  0.8448
 3905SOL    HW123348   3.817   4.615  10.452 -0.8191  2.6096  2.2472
 3905SOL    HW223349   3.664   4.606  10.464  0.9394 -0.1569 -2.0945
 3906SOL     OW23350   2.261   0.372  11.285  0.5968 -0.3115  0.6155
 3906SOL    HW123351   2.243   0.279  11.298 -1.1863 -0.3891 -2.3481
 3906SOL    HW223352   2.356   0.372  11.296  0.5013  1.1064  1.4872
 3907SOL     OW23353   2.724   0.802  10.523 -0.3075 -0.4372 -0.5288
 3907SOL    HW123354   2.762   0.841  10.601 -1.1446 -0.3171 -0.1743
 3907SOL    HW223355   2.746   0.710  10.536  1.6911  0.3509  1.5206
 3908SOL     OW23356   1.047   2.133   3.775 -0.2041  1.0072  0.2575
 3908SOL    HW123357   1.134   2.095   3.758  0.1874  0.9949  2.2611
 3908SOL    HW223358   1.073   2.206   3.832  0.3473 -0.2310  1.6099
 3909SOL     OW23359   3.998   1.940  16.442 -0.5749  0.6243 -0.5305
 3909SOL    HW123360   4.036   1.929  16.529  2.5102 -0.7587 -2.0406
 3909SOL    HW223361   3.910   1.972  16.461 -0.9184 -0.2856 -0.6066
 3910SOL     OW23362   4.064   3.872   3.826  0.0796 -0.0706  0.0573
 3910SOL    HW123363   4.069   3.837   3.915  0.7890 -1.6065 -0.5841
 3910SOL    HW223364   4.006   3.816   3.775  1.0593 -2.3661  1.4282
 3911SOL     OW23365   4.570   0.771   4.428  0.2432  0.4321  0.3861
 3911SOL    HW123366   4.531   0.690   4.462  0.3704 -1.1358 -3.2578
 3911SOL    HW223367   4.654   0.788   4.471 -0.8496  3.5668  1.2497
 3912SOL     OW23368   4.040   3.065   7.534  0.5401  0.1067  0.5385
 3912SOL    HW123369   4.002   3.035   7.616 -0.3211  2.4651  1.0023
 3912SOL    HW223370   3.965   3.113   7.499 -1.2581 -2.2720  1.1245
 3913SOL     OW23371   2.293   3.307  13.528  0.0183 -0.3161 -0.6244
 3913SOL    HW123372   2.249   3.391  13.540 -0.4299 -0.5670 -0.4809
 3913SOL    HW223373   2.251   3.280  13.446  0.8360 -2.4643 -0.3362
 3914SOL     OW23374   0.731   3.591   1.128  0.1711  0.2279 -0.9470
 3914SOL    HW123375   0.655   3.593   1.070  2.1693 -2.0915 -3.6266
 3914SOL    HW223376   0.702   3.547   1.208  0.7013  0.6018 -0.5475
 3915SOL     OW23377   1.880   0.285   9.262  0.7382 -0.0527 -0.1335
 3915SOL    HW123378   1.881   0.206   9.315  0.1653  1.0162  1.4685
 3915SOL    HW223379   1.946   0.266   9.196  0.1335 -1.5457 -0.2926
 3916SOL     OW23380   4.340   3.595   2.599  0.5797  0.1636 -0.1496
 3916SOL    HW123381   4.426   3.611   2.638  1.4209  0.0200 -1.9530
 3916SOL    HW223382   4.360   3.583   2.506  3.4674 -0.5353  0.5776
 3917SOL     OW23383   2.546   3.230   9.229 -0.4003  0.1354 -0.3415
 3917SOL    HW123384   2.625   3.272   9.263 -0.1891 -0.8095  0.3202
 3917SOL    HW223385   2.509   3.196   9.310  0.5171 -0.6277 -0.2452
 3918SOL     OW23386   0.778   4.188   9.161 -0.0416 -0.4402 -0.3183
 3918SOL    HW123387   0.853   4.247   9.159 -0.6349  0.3508  1.8631
 3918SOL    HW223388   0.751   4.191   9.069  1.6827  1.0076 -0.7720
 3919SOL     OW23389   2.173   2.772   4.262  0.0876  0.7872  0.0240
 3919SOL    HW123390   2.120   2.778   4.182 -0.8279  0.1024  0.5845
 3919SOL    HW223391   2.194   2.678   4.267 -3.0678  0.0929  0.1002
 3920SOL     OW23392   3.589   2.508   5.744 -0.0766 -0.0566  0.0460
 3920SOL    HW123393   3.679   2.483   5.767 -0.4316 -1.8583 -0.4651
 3920SOL    HW223394   3.561   2.504   5.836 -1.3554 -0.4796 -0.3662
 3921SOL     OW23395   3.689   1.932  10.339  0.4890 -0.1517  0.5039
 3921SOL    HW123396   3.624   1.918  10.271  1.9398 -1.1066 -0.6883
 3921SOL    HW223397   3.768   1.918  10.286 -0.8704 -1.4640 -1.1766
 3922SOL     OW23398   2.433   1.731   0.335 -0.2439  0.3731  0.4973
 3922SOL    HW123399   2.401   1.641   0.337 -1.6183  0.8720  0.7281
 3922SOL    HW223400   2.510   1.708   0.283 -2.0955  0.1491 -2.1366
 3923SOL     OW23401   2.657   1.822   3.791  0.3853  0.1112 -0.2184
 3923SOL    HW123402   2.714   1.896   3.769  2.3715 -1.1885  0.5755
 3923SOL    HW223403   2.725   1.757   3.774  1.8280  1.4873  0.2267
 3924SOL     OW23404   0.132   0.027   5.740 -0.4341  0.2564 -0.1300
 3924SOL    HW123405   0.121   4.704   5.667 -1.3338 -0.9707  1.0510
 3924SOL    HW223406   0.154   0.108   5.693 -1.6447  0.7372  0.1207
 3925SOL     OW23407   4.227   1.229   7.714  0.7500 -0.2970 -0.1050
 3925SOL    HW123408   4.175   1.149   7.706  2.7997 -1.7089  0.5387
 3925SOL    HW223409   4.314   1.196   7.691  0.3918 -2.0631  1.0181
 3926SOL     OW23410   2.470   3.741   7.504  0.1083 -0.6169 -0.4744
 3926SOL    HW123411   2.490   3.834   7.516  0.8456 -0.5311 -2.2683
 3926SOL    HW223412   2.497   3.702   7.587  0.6029  0.5276 -0.0885
 3927SOL     OW23413   1.502   1.752   2.380  0.3623 -0.3609 -0.7631
 3927SOL    HW123414   1.450   1.820   2.337 -0.4332 -0.1941  0.4355
 3927SOL    HW223415   1.559   1.728   2.308  3.0048  0.0267  1.1858
 3928SOL     OW23416   0.880   3.162  14.929 -0.6419 -0.4861  0.6140
 3928SOL    HW123417   0.799   3.126  14.966 -2.0339  0.1227 -1.8228
 3928SOL    HW223418   0.919   3.085  14.887  1.8405  1.3014 -0.3109
 3929SOL     OW23419   4.654   1.290   5.724 -0.2424  0.0636 -0.2235
 3929SOL    HW123420   4.725   1.243   5.680 -0.5518  0.4872 -1.1658
 3929SOL    HW223421   4.622   1.218   5.778  1.6058 -1.1983 -0.8333
 3930SOL     OW23422   4.600   4.065  10.361 -0.3927 -0.2461  0.7302
 3930SOL    HW123423   4.522   4.031  10.405 -0.8780 -0.0237  0.0418
 3930SOL    HW223424   4.622   3.978  10.327 -1.0179 -0.2169  0.2465
 3931SOL     OW23425   0.750   1.073   8.592  0.2453 -0.5988  0.3428
 3931SOL    HW123426   0.700   0.991   8.587 -0.5204  0.0065 -1.8351
 3931SOL    HW223427   0.812   1.060   8.520 -0.4401 -0.9421 -0.1924
 3932SOL     OW23428   4.406   4.509  16.591 -0.3776 -0.3052  0.0201
 3932SOL    HW123429   4.422   4.414  16.594  2.6303  0.2467  1.9029
 3932SOL    HW223430   4.327   4.514  16.644  0.1238 -0.1883  0.7526
 3933SOL     OW23431   2.355   4.427   7.093 -0.5730  0.0019  0.5324
 3933SOL    HW123432   2.428   4.406   7.035 -0.3261  1.9659  0.1319
 3933SOL    HW223433   2.282   4.400   7.038  0.3912 -0.8733 -0.3217
 3934SOL     OW23434   3.473   0.593   6.014  0.1973  0.5934  0.1707
 3934SOL    HW123435   3.392   0.570   5.967  0.0117  1.0830  0.2506
 3934SOL    HW223436   3.486   0.506   6.052 -0.4600 -0.4026 -1.8502
 3935SOL     OW23437   1.381   1.338   3.760  0.1478 -1.1425  0.2854
 3935SOL    HW123438   1.412   1.428   3.775  0.0429 -1.5758  3.0278
 3935SOL    HW223439   1.288   1.339   3.783 -0.1900 -1.0935 -1.0887
 3936SOL     OW23440   2.513   0.617   7.267 -0.0689  0.2454 -0.0775
 3936SOL    HW123441   2.451   0.552   7.236  0.4230 -0.5388  0.5864
 3936SOL    HW223442   2.595   0.581   7.233  1.3025  1.8255  1.5134
 3937SOL     OW23443   4.410   0.516  11.883 -0.2100 -0.2721  0.1593
 3937SOL    HW123444   4.477   0.519  11.951 -1.0887 -1.1030  1.0511
 3937SOL    HW223445   4.461   0.489  11.806  0.2704  0.7841  0.0965
 3938SOL     OW23446   3.957   1.454   8.892 -0.2450 -0.2284  0.3643
 3938SOL    HW123447   3.988   1.466   8.802  3.1555 -0.7534  1.4721
 3938SOL    HW223448   4.030   1.505   8.927 -1.2298  2.0099 -0.8676
 3939SOL     OW23449   0.216   0.300   6.167 -0.6721  0.0269  0.6347
 3939SOL    HW123450   0.193   0.247   6.243  0.8387 -1.2540  0.2199
 3939SOL    HW223451   0.263   0.377   6.199  2.8068 -2.5498  1.7366
 3940SOL     OW23452   3.638   1.720   3.783  0.4830  0.0978 -0.0738
 3940SOL    HW123453   3.661   1.788   3.846 -0.8957 -0.1315  0.6864
 3940SOL    HW223454   3.688   1.752   3.708 -2.0835 -0.6465 -2.0892
 3941SOL     OW23455   2.500   1.075  11.604 -0.2944  0.4444 -0.3880
 3941SOL    HW123456   2.462   1.148  11.555 -0.1669  1.5559  1.1611
 3941SOL    HW223457   2.594   1.086  11.590 -0.4636  1.8685 -0.4910
 3942SOL     OW23458   2.139   1.813  10.248 -0.8902 -0.4608  0.7399
 3942SOL    HW123459   2.113   1.905  10.252 -2.9175 -0.9880 -0.1665
 3942SOL    HW223460   2.201   1.804  10.320  2.5010 -1.0502 -2.2296
 3943SOL     OW23461   2.628   2.353   6.779  0.2666  0.0542 -1.1446
 3943SOL    HW123462   2.575   2.433   6.777 -0.4734 -0.3589  2.1378
 3943SOL    HW223463   2.610   2.329   6.870  3.0193  0.3493 -0.5336
 3944SOL     OW23464   3.298   2.512   5.393 -0.0517  0.2180 -0.1236
 3944SOL    HW123465   3.313   2.467   5.476 -0.3742  0.3261 -0.0075
 3944SOL    HW223466   3.370   2.468   5.348  0.9582  0.2847  1.4399
 3945SOL     OW23467   3.999   3.671   2.673  0.5402  0.1388  0.2413
 3945SOL    HW123468   3.909   3.667   2.705 -0.0447  0.1195 -1.4073
 3945SOL    HW223469   4.035   3.587   2.703  3.3545  1.8128  1.4339
 3946SOL     OW23470   2.952   3.475   5.369  0.1168  0.1450 -0.1893
 3946SOL    HW123471   2.891   3.495   5.440  0.1924 -1.2341  0.2654
 3946SOL    HW223472   3.025   3.532   5.394  1.1236 -2.1526  2.1044
 3947SOL     OW23473   1.833   2.312   5.596 -0.1427  0.5928  0.1389
 3947SOL    HW123474   1.821   2.270   5.511  0.8515  1.7815 -0.5848
 3947SOL    HW223475   1.772   2.265   5.653 -0.2782 -0.1001 -0.5742
 3948SOL     OW23476   3.421   0.336  13.202 -0.5215 -0.1361  0.1662
 3948SOL    HW123477   3.335   0.325  13.163 -0.0316 -1.0310 -0.6696
 3948SOL    HW223478   3.418   0.312  13.295  0.9110 -0.0980  0.2325
 3949SOL     OW23479   0.771   0.192  10.215 -0.3683  0.1814  0.7698
 3949SOL    HW123480   0.807   0.277  10.192 -0.8197  0.4678  1.1093
 3949SOL    HW223481   0.852   0.149  10.241 -1.4502 -0.3384  3.3001
 3950SOL     OW23482   4.480   4.738   5.107 -0.4836 -0.1058 -0.3570
 3950SOL    HW123483   4.434   0.079   5.080 -0.8862 -0.3245 -0.3154
 3950SOL    HW223484   4.571   0.029   5.103 -0.6018  0.3826  0.6092
 3951SOL     OW23485   4.407   1.910   1.441  0.0046  0.2018  0.0745
 3951SOL    HW123486   4.405   1.876   1.530  0.1768 -2.2952 -0.8905
 3951SOL    HW223487   4.478   1.972   1.460  1.1757 -1.0672 -0.1524
 3952SOL     OW23488   3.473   0.842   9.557  0.1227 -0.1060  0.3315
 3952SOL    HW123489   3.500   0.928   9.588 -0.1171  0.2085 -0.3371
 3952SOL    HW223490   3.481   0.857   9.463  2.3029  2.6444  0.9361
 3953SOL     OW23491   2.563   0.501   8.373  0.2284  0.1339  0.5076
 3953SOL    HW123492   2.656   0.520   8.356  0.3419 -0.2942  0.6568
 3953SOL    HW223493   2.523   0.584   8.347 -2.8805 -2.3615 -2.6445
 3954SOL     OW23494   0.044   0.425   8.714 -0.1912 -0.0058  0.3657
 3954SOL    HW123495   4.689   0.442   8.700 -0.2664 -1.3606 -0.7281
 3954SOL    HW223496   0.060   0.458   8.802 -0.0678  0.8253  0.0305
 3955SOL     OW23497   1.349   3.888   5.745 -0.2165 -0.6367  0.0436
 3955SOL    HW123498   1.279   3.841   5.700 -1.1615  0.8456 -0.0229
 3955SOL    HW223499   1.428   3.839   5.721 -0.5902 -0.5449 -1.3596
 3956SOL     OW23500   1.978   3.463   2.131 -0.5190  0.4670  0.0616
 3956SOL    HW123501   2.072   3.475   2.140 -0.2511 -1.2957 -0.3342
 3956SOL    HW223502   1.955   3.498   2.216  1.6350 -3.0626  2.0961
 3957SOL     OW23503   0.411   0.720   2.247 -0.5612 -0.3381  0.2621
 3957SOL    HW123504   0.324   0.755   2.269  0.8174  2.6362  0.9912
 3957SOL    HW223505   0.464   0.752   2.320 -1.5442  0.4041  0.6561
 3958SOL     OW23506   2.001   0.876   9.834  0.2324  0.1469  0.2709
 3958SOL    HW123507   2.011   0.783   9.851 -1.2580 -0.2949 -1.2490
 3958SOL    HW223508   1.972   0.899   9.922 -1.6688 -4.0620  0.7514
 3959SOL     OW23509   4.210   1.517  13.907  0.2854  0.5046 -0.4321
 3959SOL    HW123510   4.123   1.481  13.923  1.0416 -1.1952 -0.2089
 3959SOL    HW223511   4.192   1.608  13.884  0.8937  0.4145 -1.2256
 3960SOL     OW23512   1.387   0.502   2.751  0.0178 -0.5322  0.2928
 3960SOL    HW123513   1.472   0.507   2.796  0.8132 -0.0893 -1.2748
 3960SOL    HW223514   1.390   0.595   2.726  0.5849 -0.8370 -0.7545
 3961SOL     OW23515   3.360   3.551   3.867 -0.4332 -0.3750  0.0075
 3961SOL    HW123516   3.376   3.640   3.834 -1.3813 -0.2413 -0.1064
 3961SOL    HW223517   3.438   3.504   3.840  0.0906  0.3315  0.2768
 3962SOL     OW23518   2.773   4.280  17.707 -0.1748  0.4557 -0.0093
 3962SOL    HW123519   2.841   4.322   0.007  1.5546  0.1539 -2.0590
 3962SOL    HW223520   2.764   4.332  17.627  0.1953  0.0267 -0.3322
 3963SOL     OW23521   0.069   2.049   8.671  0.2856  0.1199  0.0723
 3963SOL    HW123522   4.737   2.064   8.735 -0.5702  0.5253 -0.9485
 3963SOL    HW223523   0.020   2.050   8.589  1.6488  1.5671 -0.7234
 3964SOL     OW23524   1.345   0.351   7.529 -0.3558 -0.6254 -0.0709
 3964SOL    HW123525   1.255   0.328   7.508 -0.1984 -0.0767 -1.3382
 3964SOL    HW223526   1.357   0.444   7.510  0.5394 -0.7839 -0.2571
 3965SOL     OW23527   1.011   1.031   7.908 -0.1319 -0.3720  0.2240
 3965SOL    HW123528   1.064   0.986   7.843  0.5377  0.8476 -0.0818
 3965SOL    HW223529   1.083   1.059   7.965 -0.2413  1.8860 -0.7487
 3966SOL     OW23530   3.953   3.312   2.022 -0.0901  0.1496  0.4679
 3966SOL    HW123531   4.029   3.370   2.013  0.2190 -0.5498 -1.5411
 3966SOL    HW223532   3.968   3.237   1.964  0.0239  1.6956 -1.4943
 3967SOL     OW23533   2.242   3.359  16.661  0.1034 -0.3043  0.4858
 3967SOL    HW123534   2.205   3.383  16.576 -0.4112  0.5724  0.9539
 3967SOL    HW223535   2.196   3.418  16.721  2.4500  2.3966 -0.3270
 3968SOL     OW23536   1.728   2.913   3.143 -0.5142  0.1439 -0.1550
 3968SOL    HW123537   1.793   2.980   3.120 -1.8134  1.0006 -1.3820
 3968SOL    HW223538   1.693   2.893   3.056  1.6539  0.2526 -1.0620
 3969SOL     OW23539   3.704   4.042   8.489 -0.0613 -0.0362 -0.1601
 3969SOL    HW123540   3.732   4.036   8.398  2.3568  0.5007  0.5417
 3969SOL    HW223541   3.741   4.129   8.503 -4.3971  1.3976  2.5537
 3970SOL     OW23542   1.080   1.781   0.006 -0.0961  0.0773  0.3275
 3970SOL    HW123543   1.138   1.851  17.727  2.9519 -3.2087 -1.3900
 3970SOL    HW223544   1.094   1.720  17.685  2.7123  1.5453 -0.3379
 3971SOL     OW23545   4.711   0.917   4.081  0.3347 -0.0186 -0.0188
 3971SOL    HW123546   4.660   0.864   4.020  2.1233 -0.6543 -0.9495
 3971SOL    HW223547   4.672   0.994   4.040 -2.3973 -1.6599 -0.4534
 3972SOL     OW23548   2.276   4.007   2.811  0.4556  0.3309  0.3476
 3972SOL    HW123549   2.192   3.998   2.766  0.9920 -0.4288 -0.4884
 3972SOL    HW223550   2.259   3.952   2.888  0.3790 -0.1684 -0.0278
 3973SOL     OW23551   2.531   3.919   5.502  0.0884 -0.1100  0.0768
 3973SOL    HW123552   2.469   3.917   5.429  0.7923  0.4252 -0.5181
 3973SOL    HW223553   2.466   3.921   5.573 -0.4744  1.9906 -0.4810
 3974SOL     OW23554   1.959   0.069   4.608 -0.7962 -0.1405  0.2500
 3974SOL    HW123555   1.878   0.103   4.571 -0.8489  0.9651  1.3619
 3974SOL    HW223556   1.940   0.076   4.702 -0.5834 -1.8164  0.4184
 3975SOL     OW23557   2.791   1.711  12.684 -0.3668  0.5882 -0.5069
 3975SOL    HW123558   2.758   1.623  12.701  1.9058 -0.3029 -0.7198
 3975SOL    HW223559   2.797   1.745  12.773  1.3132  1.0289 -0.7844
 3976SOL     OW23560   2.022   4.696   2.282 -0.8533 -0.4551  0.5375
 3976SOL    HW123561   2.098   0.008   2.253 -1.7968  0.6570 -0.0000
 3976SOL    HW223562   1.945   4.733   2.238 -0.4412 -0.2096  0.0316
 3977SOL     OW23563   2.931   4.458   6.758  0.6416 -0.5229 -0.1485
 3977SOL    HW123564   2.987   4.474   6.682 -0.3718  2.6229 -0.2408
 3977SOL    HW223565   2.977   4.401   6.820 -0.3762 -1.7711 -0.5265
 3978SOL     OW23566   4.365   2.907   9.448  0.5761  0.2964  0.0470
 3978SOL    HW123567   4.395   2.997   9.436 -0.8222  0.8206  0.4536
 3978SOL    HW223568   4.277   2.918   9.484  0.7680 -0.6503  0.8284
 3979SOL     OW23569   0.323   2.146   8.523  0.1508  0.0458 -0.0502
 3979SOL    HW123570   0.343   2.057   8.553 -0.1029  0.0353  0.0776
 3979SOL    HW223571   0.228   2.147   8.534  0.0540 -1.0417 -0.7451
 3980SOL     OW23572   1.154   3.063   0.881 -0.4670 -0.0585 -0.1352
 3980SOL    HW123573   1.227   3.052   0.943  0.1353  1.8867 -0.4951
 3980SOL    HW223574   1.151   2.978   0.839 -2.3942  0.1457 -0.3789
 3981SOL     OW23575   3.745   3.860   4.931 -0.2235 -0.6875 -0.1262
 3981SOL    HW123576   3.714   3.816   4.852 -2.4110  3.2811 -1.5289
 3981SOL    HW223577   3.717   3.950   4.914  0.7110 -0.4020 -0.1537
 3982SOL     OW23578   0.427   2.759  11.391 -0.0910  0.6665  0.3601
 3982SOL    HW123579   0.484   2.723  11.459  1.3753  1.0891 -0.6269
 3982SOL    HW223580   0.389   2.680  11.354 -1.4305  1.2346  0.5276
 3983SOL     OW23581   1.048   0.880  17.068  0.2874  0.3173  0.0338
 3983SOL    HW123582   1.021   0.803  17.118 -2.0307  0.7422 -0.5181
 3983SOL    HW223583   1.109   0.921  17.129  0.8566  0.1492 -0.4288
 3984SOL     OW23584   2.261   3.283   8.062 -0.6838 -0.1775 -0.2520
 3984SOL    HW123585   2.244   3.341   8.136  0.8425 -0.3458  0.2305
 3984SOL    HW223586   2.299   3.207   8.106  0.4434 -0.3992 -1.6196
 3985SOL     OW23587   1.077   0.525   7.783 -0.4026 -0.3199 -0.8630
 3985SOL    HW123588   1.168   0.525   7.812 -0.8593 -1.8237  0.5522
 3985SOL    HW223589   1.025   0.502   7.859 -1.6722 -1.4360 -2.0686
 3986SOL     OW23590   4.436   2.740   6.372  0.0079 -0.5589 -0.0499
 3986SOL    HW123591   4.485   2.751   6.290  2.7348 -1.3628  1.4732
 3986SOL    HW223592   4.345   2.760   6.352  0.2677  0.3780 -0.2686
 3987SOL     OW23593   0.824   4.121  12.923 -0.4922  0.0968 -0.0105
 3987SOL    HW123594   0.789   4.044  12.879 -0.4474 -0.1587  0.4071
 3987SOL    HW223595   0.915   4.097  12.941 -0.2416  0.3278 -0.9681
 3988SOL     OW23596   0.511   4.294  13.974  0.0645  0.4947  0.0423
 3988SOL    HW123597   0.534   4.356  13.905  2.0269 -0.5925 -0.2793
 3988SOL    HW223598   0.599   4.260  13.994  0.0156 -0.0102 -0.5886
 3989SOL     OW23599   4.654   1.757  12.269 -0.2209  0.0004  0.1678
 3989SOL    HW123600   4.613   1.735  12.352  0.3422  0.3150  0.5326
 3989SOL    HW223601   4.694   1.839  12.298  0.7643  0.6285 -2.9955
 3990SOL     OW23602   4.156   4.013   7.012 -0.3295  0.8490 -0.0368
 3990SOL    HW123603   4.074   3.972   6.982 -0.3169  0.6692  0.1749
 3990SOL    HW223604   4.112   4.067   7.077 -1.1267 -0.8842  0.8856
 3991SOL     OW23605   0.596   0.554   2.821 -0.3915 -0.2654 -0.0475
 3991SOL    HW123606   0.644   0.634   2.799 -1.8251 -0.1674 -2.9327
 3991SOL    HW223607   0.659   0.483   2.810 -1.8831 -1.5140 -0.6568
 3992SOL     OW23608   3.090   3.136  12.865  0.2362  0.0509 -0.7137
 3992SOL    HW123609   3.111   3.140  12.958 -0.4667 -0.8213 -0.5078
 3992SOL    HW223610   2.999   3.104  12.868  0.9743 -2.0398 -0.2381
 3993SOL     OW23611   4.729   3.195   6.493  0.0061 -0.0084  0.0815
 3993SOL    HW123612   4.713   3.154   6.408 -0.4717  0.0283  0.1555
 3993SOL    HW223613   4.728   3.286   6.465  0.0714  0.0098  0.1398
 3994SOL     OW23614   4.066   4.573   6.828  0.2815  0.7532 -0.3148
 3994SOL    HW123615   4.150   4.551   6.869  0.7450 -0.1942 -1.7674
 3994SOL    HW223616   4.035   4.634   6.894 -1.0743  0.6719 -0.8806
 3995SOL     OW23617   0.449   4.011   7.111  0.3140 -0.0409 -0.2997
 3995SOL    HW123618   0.370   3.993   7.162 -0.3014 -0.2220 -1.3103
 3995SOL    HW223619   0.419   4.002   7.021 -0.5980 -2.4777  0.2473
 3996SOL     OW23620   4.503   0.782   6.038 -0.2551  0.0021 -0.1450
 3996SOL    HW123621   4.459   0.707   6.079  0.0052  0.0375  0.2010
 3996SOL    HW223622   4.591   0.751   6.017  0.2278 -0.1740  2.1398
 3997SOL     OW23623   3.847   0.783   4.645  0.2671  0.1850 -0.8086
 3997SOL    HW123624   3.888   0.725   4.581  0.9740  1.9427 -1.9324
 3997SOL    HW223625   3.768   0.736   4.672 -0.9069  2.7728  0.2581
 3998SOL     OW23626   3.541   2.621   6.671 -0.2334  0.2520  0.1338
 3998SOL    HW123627   3.545   2.525   6.667 -0.6728  0.2051  0.8121
 3998SOL    HW223628   3.495   2.642   6.589 -2.7776 -2.2856  0.9292
 3999SOL     OW23629   1.399   2.625   4.646 -0.1830 -0.0331  0.5905
 3999SOL    HW123630   1.440   2.634   4.560 -3.7173 -0.5841 -1.1497
 3999SOL    HW223631   1.469   2.577   4.690 -1.4231 -0.7876  1.7311
 4000SOL     OW23632   4.375   0.191   4.291  0.5370  0.3233 -0.9168
 4000SOL    HW123633   4.419   0.258   4.238 -0.3039  0.5337 -1.3427
 4000SOL    HW223634   4.446   0.162   4.349 -0.7270  1.7131  1.3182
 4001SOL     OW23635   3.561   4.674   2.901 -0.3527  0.5990  0.2701
 4001SOL    HW123636   3.624   4.620   2.949 -0.3895 -0.4278 -0.8468
 4001SOL    HW223637   3.561   4.631   2.816  0.7159 -0.8258  0.9871
 4002SOL     OW23638   4.222   4.275   5.866  0.4178 -0.0835  0.8995
 4002SOL    HW123639   4.163   4.246   5.936  0.6216 -1.7118  0.4080
 4002SOL    HW223640   4.179   4.351   5.828 -0.0174 -1.4899 -1.4182
 4003SOL     OW23641   1.508   2.017   1.806 -0.3377 -1.0023 -0.0488
 4003SOL    HW123642   1.537   2.010   1.897 -2.4594 -2.9862  0.4623
 4003SOL    HW223643   1.415   2.041   1.806  0.2818  1.3915  0.0064
 4004SOL     OW23644   0.287   2.899   9.443  0.5296 -0.5661  0.4185
 4004SOL    HW123645   0.284   2.963   9.513 -3.8065  0.8290 -1.0353
 4004SOL    HW223646   0.203   2.857   9.464  1.8018 -2.6324  1.3234
 4005SOL     OW23647   1.444   0.098   0.556 -0.4728  0.0267 -0.1751
 4005SOL    HW123648   1.353   0.081   0.533 -0.5634  0.8756 -0.4692
 4005SOL    HW223649   1.468   0.006   0.564  0.5169  0.2480 -0.5684
 4006SOL     OW23650   4.027   4.522  16.281 -0.2190  0.3062 -0.1832
 4006SOL    HW123651   4.055   4.558  16.197  0.1189 -0.1812 -0.2837
 4006SOL    HW223652   3.964   4.590  16.303 -0.5572 -0.3567  0.8878
 4007SOL     OW23653   3.088   4.085   2.053 -0.4323  0.4544  0.0153
 4007SOL    HW123654   3.064   4.149   2.120 -0.8058  0.0143  0.3017
 4007SOL    HW223655   3.092   4.136   1.972 -2.8288  0.1274 -0.3209
 4008SOL     OW23656   1.056   2.318   3.308 -0.1965 -1.0742  0.4353
 4008SOL    HW123657   1.043   2.258   3.234 -3.9340  0.1463  0.1093
 4008SOL    HW223658   1.106   2.388   3.267 -0.5329  0.4387  2.6321
 4009SOL     OW23659   4.529   4.403   5.400  0.3875  0.4360  0.8247
 4009SOL    HW123660   4.452   4.367   5.356  0.3223  0.9170  0.5351
 4009SOL    HW223661   4.601   4.386   5.340 -0.1776  1.2349 -0.0808
 4010SOL     OW23662   3.234   4.024   2.714 -0.4856 -0.2960 -0.1077
 4010SOL    HW123663   3.164   4.088   2.729  0.8670  1.1224  0.2435
 4010SOL    HW223664   3.211   3.952   2.773 -1.0182  1.6123  2.0341
 4011SOL     OW23665   2.832   0.313   4.755  0.0386 -0.3172 -0.5423
 4011SOL    HW123666   2.795   0.343   4.673 -3.4408 -1.3588  0.6475
 4011SOL    HW223667   2.763   0.269   4.804  0.9298 -2.2990 -1.0581
 4012SOL     OW23668   1.722   4.340   4.113 -0.8591  0.4950 -0.1757
 4012SOL    HW123669   1.718   4.294   4.196  1.4490  1.2553  0.3573
 4012SOL    HW223670   1.660   4.297   4.054 -1.2658  1.5581 -0.5288
 4013SOL     OW23671   4.524   1.782   8.159  0.2224  0.9383  0.3148
 4013SOL    HW123672   4.606   1.734   8.145  0.3159  1.8394 -2.0636
 4013SOL    HW223673   4.471   1.715   8.118  0.1875  0.9014  0.4199
 4014SOL     OW23674   3.019   3.065   5.231  0.5898 -0.1762  0.2146
 4014SOL    HW123675   2.988   3.147   5.192  1.0561 -0.3016 -0.4162
 4014SOL    HW223676   3.070   3.096   5.306  2.1139 -0.7258 -0.5975
 4015SOL     OW23677   3.534   1.965   1.395 -0.6383  0.0715 -0.0564
 4015SOL    HW123678   3.484   2.038   1.431  1.5432  0.0787  2.9347
 4015SOL    HW223679   3.497   1.967   1.307 -3.4834 -1.0183  1.1385
 4016SOL     OW23680   0.361   2.494  10.828 -0.1545  0.1118 -0.4385
 4016SOL    HW123681   0.420   2.569  10.828 -1.1192  0.8646  0.4738
 4016SOL    HW223682   0.417   2.422  10.800  2.0519  1.5034  0.3866
 4017SOL     OW23683   3.920   0.489   9.318 -0.1445 -1.0254  0.0841
 4017SOL    HW123684   3.980   0.435   9.267 -0.4360 -1.0765 -0.2041
 4017SOL    HW223685   3.959   0.576   9.319 -0.6455 -0.8048  0.7789
 4018SOL     OW23686   2.712   3.030  14.783 -0.6284  0.6183  0.2103
 4018SOL    HW123687   2.676   2.956  14.734  0.0866  0.9571 -0.8286
 4018SOL    HW223688   2.683   3.108  14.735 -0.9678 -0.0165 -0.6258
 4019SOL     OW23689   1.380   0.541   6.449  0.3345 -0.1150  0.2589
 4019SOL    HW123690   1.365   0.524   6.542 -2.4789 -2.7427 -0.6899
 4019SOL    HW223691   1.439   0.617   6.452  0.8732 -0.6318  2.3566
 4020SOL     OW23692   2.793   1.072   5.726  0.2222 -0.1883  0.2863
 4020SOL    HW123693   2.726   1.115   5.779  0.9065  1.2725 -0.0241
 4020SOL    HW223694   2.822   1.154   5.685  0.7840 -0.6560 -0.2480
 4021SOL     OW23695   2.482   1.113   4.983  0.0395 -0.5929  0.5017
 4021SOL    HW123696   2.567   1.158   4.973  0.5337 -1.3772  1.1578
 4021SOL    HW223697   2.463   1.105   5.076 -0.7430 -0.0247  0.3895
 4022SOL     OW23698   1.355   3.813   9.655 -0.1570 -0.1114 -0.0137
 4022SOL    HW123699   1.394   3.875   9.716  2.2115 -1.7843  0.1704
 4022SOL    HW223700   1.337   3.864   9.576  1.4074 -0.8571 -0.8357
 4023SOL     OW23701   3.658   4.304   5.781 -0.2105 -0.1254  0.0320
 4023SOL    HW123702   3.575   4.256   5.774 -0.1614 -0.3403  0.9396
 4023SOL    HW223703   3.726   4.251   5.738  0.1165  0.6841 -0.4381
 4024SOL     OW23704   3.923   1.543   4.922  1.3236  0.4673  0.5054
 4024SOL    HW123705   3.878   1.499   4.994 -0.8366 -1.9058 -2.2922
 4024SOL    HW223706   3.952   1.618   4.974  1.0152 -0.3544  1.8615
 4025SOL     OW23707   0.625   1.373  10.975  0.0448  0.1809 -0.0611
 4025SOL    HW123708   0.539   1.406  10.951  0.2936 -1.9632 -3.8925
 4025SOL    HW223709   0.603   1.292  10.929 -2.4666 -0.4046  2.1355
 4026SOL     OW23710   3.238   4.398   9.636 -0.2862  0.1510 -0.0914
 4026SOL    HW123711   3.196   4.445   9.563 -0.0130  0.3145 -0.1443
 4026SOL    HW223712   3.320   4.447   9.642  0.5961 -1.2212 -1.0225
 4027SOL     OW23713   4.330   3.560   5.514  0.0992  0.3049 -0.2107
 4027SOL    HW123714   4.417   3.544   5.477  0.3458 -0.0746  0.5293
 4027SOL    HW223715   4.276   3.539   5.437  0.7887  2.5031 -1.2737
 4028SOL     OW23716   1.054   4.502   7.033  0.3632  0.8323  0.1433
 4028SOL    HW123717   1.143   4.474   7.016 -0.8425 -1.6841 -2.0114
 4028SOL    HW223718   1.071   4.571   7.097  0.6388  1.2133 -0.3456
 4029SOL     OW23719   2.932   2.109   8.220 -0.1133 -0.4000  0.5106
 4029SOL    HW123720   2.865   2.148   8.164  0.2842  1.3507  1.2689
 4029SOL    HW223721   2.999   2.085   8.155  0.1001 -2.5985  1.5099
 4030SOL     OW23722   3.798   0.582  10.050  0.5633  0.0339  0.3249
 4030SOL    HW123723   3.851   0.536   9.985 -1.1295  1.2740 -1.8826
 4030SOL    HW223724   3.737   0.639  10.005  0.8464  0.0816  0.0035
 4031SOL     OW23725   1.972   3.547   4.967  0.5486 -0.2624  0.1220
 4031SOL    HW123726   1.925   3.499   5.036  1.0016  1.3297  1.5296
 4031SOL    HW223727   2.002   3.482   4.903  1.6642 -0.2439  0.6351
 4032SOL     OW23728   1.662   1.871   4.333 -0.5844  0.2858  0.1796
 4032SOL    HW123729   1.689   1.929   4.404 -0.8558  0.6009  0.0244
 4032SOL    HW223730   1.738   1.843   4.281 -0.2530  0.8068  0.3860
 4033SOL     OW23731   2.329   0.828  12.184 -0.0747  0.0100  0.3227
 4033SOL    HW123732   2.242   0.821  12.143 -0.2115 -3.8866  1.2654
 4033SOL    HW223733   2.296   0.853  12.270 -0.1512  1.0121  0.0067
 4034SOL     OW23734   2.003   4.269   7.323 -0.2622 -0.5675 -0.2358
 4034SOL    HW123735   1.970   4.181   7.340  0.2380 -0.5774  0.7030
 4034SOL    HW223736   2.089   4.251   7.361  0.1782 -0.2824 -1.0965
 4035SOL     OW23737   3.480   1.365   9.628  0.4540  0.0179 -0.5761
 4035SOL    HW123738   3.476   1.415   9.546  0.7786  0.1871 -0.4884
 4035SOL    HW223739   3.390   1.337   9.644  0.2315  0.9306 -0.1964
 4036SOL     OW23740   1.664   0.806   4.867  0.0801 -0.2665  0.1495
 4036SOL    HW123741   1.612   0.756   4.804  0.5147 -1.7822  1.0176
 4036SOL    HW223742   1.597   0.857   4.913 -0.2844 -0.1004 -0.5513
 4037SOL     OW23743   0.389   2.370   3.834  0.8787  0.0871  0.3989
 4037SOL    HW123744   0.457   2.371   3.902  1.4769 -0.4073 -0.1900
 4037SOL    HW223745   0.318   2.394   3.893 -0.3120  0.6967 -1.3200
 4038SOL     OW23746   1.068   1.424   0.119  0.2646  0.6014 -0.4771
 4038SOL    HW123747   1.147   1.437   0.170 -0.0997 -3.1375  0.9907
 4038SOL    HW223748   1.100   1.354   0.062 -1.1542  0.0971 -0.6661
 4039SOL     OW23749   3.866   0.053  17.236 -0.5469 -0.2704  0.4497
 4039SOL    HW123750   3.933   0.109  17.196 -1.6349 -0.8627 -2.2015
 4039SOL    HW223751   3.798   0.119  17.248 -1.5351 -1.4583  1.4138
 4040SOL     OW23752   3.517   0.688  16.201 -0.1548  0.1929  0.2844
 4040SOL    HW123753   3.597   0.680  16.254 -1.3289  1.4137  2.2177
 4040SOL    HW223754   3.498   0.781  16.199 -1.0818  0.0184  1.2303
 4041SOL     OW23755   3.866   3.175  12.260  0.3610 -0.5601  0.0660
 4041SOL    HW123756   3.805   3.209  12.194  0.8424  0.9392  0.3940
 4041SOL    HW223757   3.889   3.094  12.215  2.1870  1.3665 -2.4276
 4042SOL     OW23758   3.833   0.450   1.279 -0.2003  0.2005  0.2271
 4042SOL    HW123759   3.896   0.455   1.351 -0.0998  0.3152  0.1317
 4042SOL    HW223760   3.761   0.429   1.338 -0.6264  0.3040 -0.2523
 4043SOL     OW23761   1.601   1.873   8.919 -0.3551 -0.7563  0.1678
 4043SOL    HW123762   1.579   1.906   9.006 -0.7701 -0.8729  0.1059
 4043SOL    HW223763   1.697   1.868   8.923 -0.3500 -0.6081  0.2285
 4044SOL     OW23764   3.813   4.608   4.779  0.5365  0.6406  0.1031
 4044SOL    HW123765   3.839   4.680   4.837  0.7680 -0.8426  1.8469
 4044SOL    HW223766   3.900   4.587   4.744  1.1538  1.4550  1.1296
 4045SOL     OW23767   0.684   4.386   1.607  0.1774 -0.4212 -0.2855
 4045SOL    HW123768   0.676   4.348   1.519  2.3562 -0.0863 -0.6185
 4045SOL    HW223769   0.762   4.337   1.632 -0.9599 -2.2330 -0.2994
 4046SOL     OW23770   0.567   2.847  16.546 -0.2197  0.1262 -0.0639
 4046SOL    HW123771   0.550   2.895  16.465  1.1918  0.7753  0.0075
 4046SOL    HW223772   0.500   2.780  16.532 -0.4616  0.3466  0.0333
 4047SOL     OW23773   3.907   0.284   5.326  0.1676  0.1417  0.0374
 4047SOL    HW123774   4.001   0.303   5.325  0.3367 -0.6748  0.0324
 4047SOL    HW223775   3.901   0.220   5.397  1.6008 -0.8958 -0.7766
 4048SOL     OW23776   0.099   3.938   5.525 -0.2147  0.0433 -0.1710
 4048SOL    HW123777   0.121   3.876   5.595 -0.2845  0.4989  0.2593
 4048SOL    HW223778   0.107   4.019   5.576 -0.9367  0.2452 -0.3881
 4049SOL     OW23779   3.699   2.374   0.144 -0.4319  0.0486  0.2227
 4049SOL    HW123780   3.679   2.326   0.224  1.2036 -0.6684  0.1829
 4049SOL    HW223781   3.623   2.349   0.091 -0.8154  1.6554  0.0080
 4050SOL     OW23782   0.395   1.712   2.750  0.1375 -0.1188  0.7115
 4050SOL    HW123783   0.356   1.796   2.776 -2.1001 -1.0261  0.3363
 4050SOL    HW223784   0.320   1.655   2.770  0.2751 -0.0736  1.3639
 4051SOL     OW23785   3.007   1.566  15.536 -0.7547 -0.0484  0.3564
 4051SOL    HW123786   2.913   1.582  15.524 -0.9972 -0.6485  1.5210
 4051SOL    HW223787   3.043   1.655  15.531 -1.1327  0.0441 -0.8282
 4052SOL     OW23788   0.424   4.376   7.322  0.5651 -0.4321  0.1972
 4052SOL    HW123789   0.516   4.364   7.345  0.4354  0.7594  1.3952
 4052SOL    HW223790   0.420   4.469   7.300  0.2508 -0.4160  0.3287
 4053SOL     OW23791   2.626   2.519   5.624 -0.2471  0.0789 -0.2145
 4053SOL    HW123792   2.698   2.487   5.570  0.6847  0.0937  1.0115
 4053SOL    HW223793   2.657   2.601   5.661  0.4598 -0.9017  1.3825
 4054SOL     OW23794   2.633   1.283   8.171 -0.3228 -0.1790 -0.2792
 4054SOL    HW123795   2.649   1.194   8.140 -1.5359 -1.1656  1.9522
 4054SOL    HW223796   2.537   1.282   8.166 -0.4101 -1.2635  1.6265
 4055SOL     OW23797   2.383   1.228   5.647 -0.5466  0.2821 -0.1368
 4055SOL    HW123798   2.299   1.273   5.639 -0.4795  0.3463 -0.4996
 4055SOL    HW223799   2.382   1.187   5.733 -2.6924  1.6952  0.5048
 4056SOL     OW23800   4.603   4.569  17.280 -0.0732 -0.3600 -0.6903
 4056SOL    HW123801   4.543   4.494  17.281  0.2664 -0.6062  0.9888
 4056SOL    HW223802   4.668   4.532  17.220  0.0502  0.8508 -1.3050
 4057SOL     OW23803   0.015   0.629   3.741  0.0497  0.0093  0.4373
 4057SOL    HW123804   4.685   0.583   3.692  0.9302  2.8102 -3.4132
 4057SOL    HW223805   0.012   0.718   3.707  0.8181 -0.6477 -1.3737
 4058SOL     OW23806   0.502   0.262   6.449  0.2801  0.4154 -0.7191
 4058SOL    HW123807   0.578   0.254   6.506 -0.3998 -0.9223 -0.0021
 4058SOL    HW223808   0.532   0.228   6.365 -0.6847 -1.5510 -0.2689
 4059SOL     OW23809   2.558   3.800   6.325 -0.2743 -0.2466 -0.7220
 4059SOL    HW123810   2.542   3.789   6.231  1.3960  0.9210 -1.1431
 4059SOL    HW223811   2.553   3.895   6.339  0.3275 -0.4025  0.4796
 4060SOL     OW23812   0.472   2.364   7.298  0.3717  0.5830 -0.3156
 4060SOL    HW123813   0.538   2.422   7.262 -0.8269  2.1302 -0.0447
 4060SOL    HW223814   0.455   2.329   7.211  1.0570 -0.2527 -0.1025
 4061SOL     OW23815   0.343   2.392   8.384 -0.2020  0.5827  0.2029
 4061SOL    HW123816   0.342   2.322   8.449  1.2132 -1.2873 -1.7773
 4061SOL    HW223817   0.385   2.348   8.310 -1.3786 -0.6175  0.2554
 4062SOL     OW23818   0.074   2.294   6.453  0.2333 -0.0767 -0.0854
 4062SOL    HW123819   0.103   2.375   6.411  1.7184  0.3494  1.7812
 4062SOL    HW223820   0.005   2.324   6.511 -0.4157 -2.6183  0.4403
 4063SOL     OW23821   0.904   1.827   4.353 -0.1109 -0.3383  0.2667
 4063SOL    HW123822   0.866   1.764   4.293  2.6440 -2.2459  0.5225
 4063SOL    HW223823   0.910   1.771   4.430  0.6998  0.0720  0.5093
 4064SOL     OW23824   3.035   4.101  15.549 -0.1413 -0.8616  0.3436
 4064SOL    HW123825   3.052   4.057  15.632  2.4444  0.3717  0.4788
 4064SOL    HW223826   3.084   4.047  15.487 -0.0162 -1.1524  0.6967
 4065SOL     OW23827   1.834   3.602   4.121 -0.1043 -0.1828 -0.7694
 4065SOL    HW123828   1.861   3.689   4.151  0.3311 -1.1296  1.5466
 4065SOL    HW223829   1.740   3.615   4.138 -0.4870 -3.0316 -0.7673
 4066SOL     OW23830   2.145   4.200  16.776  0.1168  0.0917 -0.0368
 4066SOL    HW123831   2.154   4.266  16.707  2.8642 -0.1474  0.0858
 4066SOL    HW223832   2.076   4.141  16.747  1.2741 -0.4304 -1.7272
 4067SOL     OW23833   2.174   4.660   6.345  0.6901 -0.2146  0.0454
 4067SOL    HW123834   2.151   4.583   6.293 -0.3325 -0.0814  0.2950
 4067SOL    HW223835   2.219   4.710   6.277 -1.2164 -1.2153 -1.9564
 4068SOL     OW23836   2.012   0.452   4.779 -0.0598  0.0802 -0.4280
 4068SOL    HW123837   2.064   0.533   4.784  1.1008 -0.6539 -0.5787
 4068SOL    HW223838   1.998   0.434   4.686 -1.4243 -3.5535  0.4896
 4069SOL     OW23839   4.024   1.863   5.923  0.0565 -0.1251 -0.8363
 4069SOL    HW123840   4.058   1.887   6.008 -2.9163 -1.1670  0.6585
 4069SOL    HW223841   3.934   1.852   5.953  0.4528 -1.3840 -0.1139
 4070SOL     OW23842   2.632   1.308  12.015 -0.1667 -0.1689  0.1842
 4070SOL    HW123843   2.727   1.305  12.006 -0.4064  0.2095 -2.6362
 4070SOL    HW223844   2.630   1.300  12.110 -0.7972  0.5181  0.2295
 4071SOL     OW23845   2.173   0.621   6.984  0.0998 -0.3014  0.4948
 4071SOL    HW123846   2.180   0.687   7.053 -1.9664  1.1740 -0.6742
 4071SOL    HW223847   2.090   0.641   6.939  0.4045  2.2516  1.0265
 4072SOL     OW23848   3.768   1.589  17.074 -0.4605 -0.0738 -0.6610
 4072SOL    HW123849   3.705   1.657  17.048 -0.6408 -0.6094 -1.5998
 4072SOL    HW223850   3.844   1.618  17.024  0.0163 -1.1721 -0.5662
 4073SOL     OW23851   4.215   4.313  11.415  0.4871 -0.2028  0.2984
 4073SOL    HW123852   4.223   4.406  11.436  0.8239  0.1629 -1.5126
 4073SOL    HW223853   4.290   4.304  11.357 -0.8529  1.2125 -1.6493
 4074SOL     OW23854   1.338   0.130   9.196  0.1740  0.2711 -0.1041
 4074SOL    HW123855   1.302   0.189   9.262  0.2692  0.0240  0.1712
 4074SOL    HW223856   1.404   0.091   9.253 -2.0207 -0.5297  1.8465
 4075SOL     OW23857   0.907   3.138   5.164 -0.1067 -0.4911  0.1324
 4075SOL    HW123858   0.887   3.048   5.139  2.4437 -1.0556  0.1630
 4075SOL    HW223859   0.858   3.190   5.100 -2.1329  0.7196  2.6716
 4076SOL     OW23860   1.391   3.768   4.991  0.0547 -0.1710  0.5548
 4076SOL    HW123861   1.311   3.715   4.990 -0.1202  0.0710  1.6818
 4076SOL    HW223862   1.349   3.852   4.968 -1.8271 -1.2566 -0.0158
 4077SOL     OW23863   0.322   2.920   4.381  0.3168  0.1636  0.2957
 4077SOL    HW123864   0.268   2.847   4.349  0.1119  0.2548  0.4284
 4077SOL    HW223865   0.279   2.940   4.465 -0.2915 -2.8224  0.7061
 4078SOL     OW23866   1.123   4.732  14.856  0.0306  0.6215  0.6066
 4078SOL    HW123867   1.179   0.070  14.871 -0.2146  0.2388  3.4289
 4078SOL    HW223868   1.154   4.668  14.919 -0.0359 -2.8170 -2.8299
 4079SOL     OW23869   0.306   3.517   5.222  0.2078  0.4240 -0.5671
 4079SOL    HW123870   0.251   3.470   5.284 -0.5568  0.8981 -0.8932
 4079SOL    HW223871   0.395   3.506   5.257 -0.8491 -1.4167  1.5030
 4080SOL     OW23872   4.148   2.922  10.699 -0.6709 -0.4425 -0.5774
 4080SOL    HW123873   4.222   2.862  10.688 -2.2849 -2.7791  1.3301
 4080SOL    HW223874   4.194   2.993  10.743 -1.5571 -0.8904  1.0564
 4081SOL     OW23875   3.106   4.154   8.879  0.0812  0.3081  0.0412
 4081SOL    HW123876   3.127   4.061   8.890 -0.9431 -0.1484 -1.8384
 4081SOL    HW223877   3.040   4.168   8.948  0.2398 -1.9303  0.6361
 4082SOL     OW23878   2.118   1.990  10.864 -0.2490  0.5011  0.0760
 4082SOL    HW123879   2.104   1.896  10.864  1.2751  0.2873  1.0857
 4082SOL    HW223880   2.100   2.018  10.954 -1.6161 -1.3223  0.3558
 4083SOL     OW23881   2.874   0.587   7.497  0.2886  0.1915 -0.1969
 4083SOL    HW123882   2.964   0.618   7.483  0.4998 -1.0273 -1.6205
 4083SOL    HW223883   2.879   0.568   7.590  0.5247 -0.3710 -0.3203
 4084SOL     OW23884   0.679   3.899  16.679 -0.1396 -0.2393  0.1428
 4084SOL    HW123885   0.747   3.879  16.743  1.3097  1.5861 -0.8208
 4084SOL    HW223886   0.722   3.872  16.597 -0.5824 -0.5377  0.0064
 4085SOL     OW23887   0.581   4.271   6.911 -0.3172  0.3090  0.4008
 4085SOL    HW123888   0.638   4.323   6.968  1.2860 -0.9855 -0.0162
 4085SOL    HW223889   0.618   4.183   6.915 -2.5144 -0.5731  1.3004
 4086SOL     OW23890   2.820   4.237  15.667 -0.3541  0.5495 -0.3767
 4086SOL    HW123891   2.772   4.174  15.721  0.8240  0.2559  0.3095
 4086SOL    HW223892   2.898   4.187  15.645 -0.2230 -0.5487  2.5724
 4087SOL     OW23893   1.985   2.405  17.699 -0.3759 -0.1002  0.7212
 4087SOL    HW123894   2.057   2.452  17.741 -1.4851  1.0082  1.3646
 4087SOL    HW223895   1.972   2.335   0.012 -1.5862 -0.1775  0.3934
 4088SOL     OW23896   3.378   0.960   3.211  1.0485 -0.2077 -0.2373
 4088SOL    HW123897   3.411   0.870   3.211  0.7470 -0.3149 -0.1745
 4088SOL    HW223898   3.303   0.961   3.270 -1.7564 -0.6384 -3.8400
 4089SOL     OW23899   3.084   4.526  15.091 -0.1085  0.4423  0.3182
 4089SOL    HW123900   3.091   4.431  15.092 -0.3580  0.4298  1.7571
 4089SOL    HW223901   3.039   4.551  15.172 -1.1604 -3.0364  0.8076
 4090SOL     OW23902   0.540   3.186   1.818 -0.3521 -0.7795 -0.2709
 4090SOL    HW123903   0.630   3.185   1.850 -0.5427 -1.7159  0.2282
 4090SOL    HW223904   0.505   3.235   1.893 -0.2490 -0.1375 -0.6440
 4091SOL     OW23905   3.522   4.402   7.907  0.2022  0.6859  0.1254
 4091SOL    HW123906   3.441   4.357   7.884  2.5488 -2.6851 -1.5297
 4091SOL    HW223907   3.544   4.372   7.996 -1.4695  0.3703  0.4313
 4092SOL     OW23908   2.648   3.896  11.377  0.3332 -0.6797  0.1613
 4092SOL    HW123909   2.616   3.809  11.353 -1.3619 -0.6702  2.3677
 4092SOL    HW223910   2.743   3.895  11.383  0.5074  0.8721 -2.2094
 4093SOL     OW23911   3.799   0.854   3.571 -0.2565 -0.3353 -0.0483
 4093SOL    HW123912   3.846   0.902   3.639 -1.0298 -0.1226  0.3356
 4093SOL    HW223913   3.844   0.769   3.573  1.3127  0.4861 -0.7318
 4094SOL     OW23914   0.354   4.597   1.412 -0.2172 -0.2340  0.2631
 4094SOL    HW123915   0.293   4.666   1.388 -0.1294 -0.4448 -0.5564
 4094SOL    HW223916   0.379   4.560   1.328 -2.3360 -0.1991 -0.3744
 4095SOL     OW23917   3.250   3.641  15.906 -0.1296  0.3435  0.3775
 4095SOL    HW123918   3.231   3.708  15.972  0.0937  1.7484 -0.9794
 4095SOL    HW223919   3.320   3.591  15.948 -2.0336 -0.2457  2.8572
 4096SOL     OW23920   1.759   4.580   1.584 -0.0620  0.0950  0.2622
 4096SOL    HW123921   1.738   4.647   1.649 -0.8045  0.7078 -0.6124
 4096SOL    HW223922   1.843   4.613   1.552 -0.9965  1.9974 -0.2317
 4097SOL     OW23923   0.780   3.213   0.260  0.0822  0.6280 -0.1545
 4097SOL    HW123924   0.703   3.239   0.210  0.3906  1.4633 -0.1834
 4097SOL    HW223925   0.767   3.268   0.338  0.6628  0.6605 -0.0810
 4098SOL     OW23926   0.628   0.353   8.842  0.0226  0.3703 -0.0150
 4098SOL    HW123927   0.698   0.309   8.795  0.5630  0.4583  0.7037
 4098SOL    HW223928   0.669   0.440   8.840 -0.7065  0.6817 -1.0252
 4099SOL     OW23929   3.468   1.268   6.976  0.2231  0.0207 -0.0748
 4099SOL    HW123930   3.498   1.187   7.018 -0.4954  1.0279  2.3908
 4099SOL    HW223931   3.523   1.336   7.014 -0.0519 -0.3612  1.0129
 4100SOL     OW23932   1.230   2.511   3.013 -0.1367 -0.3269 -0.2118
 4100SOL    HW123933   1.148   2.508   2.964 -0.5999 -1.7616  0.6605
 4100SOL    HW223934   1.244   2.421   3.042  3.5206  0.6104  0.9972
 4101SOL     OW23935   2.951   1.224   4.442  0.8050  0.0739 -0.3807
 4101SOL    HW123936   3.011   1.156   4.412 -0.4902 -2.0541  1.8776
 4101SOL    HW223937   2.862   1.190   4.436  0.0037  1.9696  0.6631
 4102SOL     OW23938   2.266   3.979   4.058 -0.4086  0.2006  0.1295
 4102SOL    HW123939   2.310   4.012   4.137 -1.2696  1.5317  0.0646
 4102SOL    HW223940   2.337   3.939   4.009  0.2997  1.6665 -0.0186
 4103SOL     OW23941   2.505   3.221   7.460 -0.1304  0.1204 -0.7987
 4103SOL    HW123942   2.458   3.188   7.384 -1.8358 -1.1990  0.8204
 4103SOL    HW223943   2.427   3.241   7.512 -0.2776  2.1305 -1.7755
 4104SOL     OW23944   1.033   2.575  10.106  0.2074 -0.1534  0.1507
 4104SOL    HW123945   1.125   2.601  10.110 -0.2679  1.7285 -1.0487
 4104SOL    HW223946   0.998   2.648  10.054  0.0061 -0.3329  0.0362
 4105SOL     OW23947   3.704   3.070   8.072 -0.6322  0.0242 -0.3461
 4105SOL    HW123948   3.650   3.037   8.143 -1.6662  0.8512 -0.7396
 4105SOL    HW223949   3.644   3.090   8.000 -1.3166 -1.4238 -0.1604
 4106SOL     OW23950   3.749   4.548  17.670 -0.1386 -0.2354  0.2604
 4106SOL    HW123951   3.796   4.467  17.650  0.5175  0.2148  0.0100
 4106SOL    HW223952   3.702   4.506  17.743  0.5075 -2.4922 -0.6287
 4107SOL     OW23953   4.349   2.552   4.137 -0.1848 -0.1833 -0.4286
 4107SOL    HW123954   4.427   2.504   4.110 -0.8544 -1.6486  0.2321
 4107SOL    HW223955   4.286   2.483   4.158  1.7068 -2.1802 -1.2989
 4108SOL     OW23956   2.339   3.327   4.167  0.2889 -0.5279 -0.8114
 4108SOL    HW123957   2.396   3.403   4.157 -0.4143  0.0990 -0.1634
 4108SOL    HW223958   2.254   3.367   4.147 -0.0509 -0.6032  0.4708
 4109SOL     OW23959   2.817   1.967   7.177 -0.2968 -0.2088  0.2954
 4109SOL    HW123960   2.774   2.046   7.143  0.7342 -0.3306 -1.2735
 4109SOL    HW223961   2.907   1.986   7.150  0.1991 -0.5105  1.7878
 4110SOL     OW23962   0.904   3.524  11.608 -0.4414 -0.3968  0.4927
 4110SOL    HW123963   0.817   3.537  11.573  0.1352  2.1161  0.0092
 4110SOL    HW223964   0.908   3.606  11.658 -0.3710  0.5738 -1.0952
 4111SOL     OW23965   1.705   1.284   7.928 -0.0556  0.5310  0.0240
 4111SOL    HW123966   1.646   1.346   7.884  1.6969  2.0292 -0.2361
 4111SOL    HW223967   1.684   1.199   7.890  0.3321  0.0674  0.8509
 4112SOL     OW23968   0.404   3.769  12.350  0.2868  0.1433 -0.0188
 4112SOL    HW123969   0.419   3.768  12.444  1.5010 -3.7464 -0.2889
 4112SOL    HW223970   0.478   3.827  12.330 -2.2706  1.1887 -6.5819
 4113SOL     OW23971   1.643   4.704  11.911 -0.5759 -0.2184 -0.8543
 4113SOL    HW123972   1.618   4.616  11.883  3.3064 -2.4192  2.6926
 4113SOL    HW223973   1.698   4.680  11.985  0.4715 -0.1754 -1.6299
 4114SOL     OW23974   2.658   4.540  17.291 -0.7829  0.1431 -0.1098
 4114SOL    HW123975   2.634   4.494  17.371 -0.7007 -0.2844 -0.3291
 4114SOL    HW223976   2.615   4.496  17.217  0.4525  0.7787 -1.2089
 4115SOL     OW23977   0.114   0.329   7.299  0.0694 -0.4296  0.2400
 4115SOL    HW123978   0.079   0.241   7.314  2.9695 -1.6340  0.0004
 4115SOL    HW223979   0.038   0.383   7.322  0.8172  1.6277 -2.1403
 4116SOL     OW23980   0.549   2.564   4.343  0.0180  0.1538  0.2229
 4116SOL    HW123981   0.586   2.633   4.399 -1.4998 -0.6590  2.2233
 4116SOL    HW223982   0.623   2.548   4.285 -0.7683  0.3454 -0.8273
 4117SOL     OW23983   0.695   0.789   8.594 -0.0311 -0.5332  0.0093
 4117SOL    HW123984   0.609   0.771   8.631 -0.0706 -1.1071 -0.3640
 4117SOL    HW223985   0.694   0.737   8.513  2.5033 -0.8276  0.1782
 4118SOL     OW23986   0.875   4.383  13.776 -0.1052  0.1750  0.3098
 4118SOL    HW123987   0.953   4.370  13.829 -2.0202  2.4080  3.6755
 4118SOL    HW223988   0.851   4.467  13.815  2.7876  1.7732 -1.3255
 4119SOL     OW23989   1.642   2.553   3.097 -0.2221 -0.1955  0.3010
 4119SOL    HW123990   1.723   2.530   3.141  1.6304  1.1271 -2.4333
 4119SOL    HW223991   1.677   2.556   3.008  0.4472  0.2066  0.5782
 4120SOL     OW23992   4.368   1.476   8.800  0.2253  0.3903  0.4990
 4120SOL    HW123993   4.441   1.430   8.843 -0.9659  0.3245  2.4274
 4120SOL    HW223994   4.370   1.562   8.841 -1.4697  0.9618 -0.6356
 4121SOL     OW23995   3.769   1.446   3.373 -0.3816 -0.6233  0.2878
 4121SOL    HW123996   3.736   1.356   3.382  1.2517 -1.2100  0.5077
 4121SOL    HW223997   3.833   1.444   3.444  1.7590 -0.2325 -1.6438
 4122SOL     OW23998   1.233   4.405   1.641 -0.2181 -0.7447 -0.3799
 4122SOL    HW123999   1.310   4.443   1.683  0.5765 -0.4603 -2.0722
 4122SOL    HW224000   1.167   4.418   1.709  0.3248  1.2521 -0.2540
 4123SOL     OW24001   1.358   2.484   8.530 -0.1938 -0.1528  0.0251
 4123SOL    HW124002   1.365   2.410   8.590 -0.5445 -0.3618 -0.1905
 4123SOL    HW224003   1.341   2.554   8.594  0.4153 -0.9204  1.0172
 4124SOL     OW24004   1.581   3.698   5.738 -0.7802 -0.2848  0.2792
 4124SOL    HW124005   1.593   3.697   5.833 -1.6448  1.3377  0.3958
 4124SOL    HW224006   1.555   3.607   5.722 -0.3173 -0.6149  1.3987
 4125SOL     OW24007   2.991   2.179   2.363  0.0764  0.5020  0.2716
 4125SOL    HW124008   3.017   2.262   2.324 -1.0114  1.0275  0.6493
 4125SOL    HW224009   2.934   2.155   2.289  1.1808 -0.4673 -0.2654
 4126SOL     OW24010   1.796   0.949   4.590  0.0700  0.1996  0.2119
 4126SOL    HW124011   1.832   0.923   4.505  0.1810 -2.4570  1.1011
 4126SOL    HW224012   1.880   0.951   4.636  0.1311  1.1588  0.0626
 4127SOL     OW24013   3.575   1.082   9.655 -0.7125 -0.1771  0.2132
 4127SOL    HW124014   3.668   1.086   9.633 -0.6810  0.7010  0.5037
 4127SOL    HW224015   3.555   1.174   9.637  1.6548  0.4967  0.9960
 4128SOL     OW24016   2.443   2.182   9.323  0.2645  0.1342 -0.0794
 4128SOL    HW124017   2.401   2.131   9.392  2.2488  0.2862  1.2364
 4128SOL    HW224018   2.490   2.120   9.268  2.5492  1.5571  0.2723
 4129SOL     OW24019   3.338   3.881  10.277 -0.2948 -0.2032 -0.2120
 4129SOL    HW124020   3.367   3.810  10.333 -0.5714 -1.0338 -1.1245
 4129SOL    HW224021   3.265   3.918  10.328 -1.7757 -3.0976 -0.2582
 4130SOL     OW24022   4.548   1.402   4.785  0.9574  0.0838  0.7181
 4130SOL    HW124023   4.542   1.401   4.689 -0.6255  2.1895  0.7971
 4130SOL    HW224024   4.622   1.461   4.795  0.5747  0.8182 -0.7055
 4131SOL     OW24025   1.857   2.255   6.035  0.6686  0.1317 -0.0039
 4131SOL    HW124026   1.809   2.238   6.116  1.9778 -0.1289  0.7185
 4131SOL    HW224027   1.796   2.215   5.973 -0.8511  0.7883  1.0663
 4132SOL     OW24028   3.670   4.138   4.995 -0.1194  0.2307 -0.0823
 4132SOL    HW124029   3.690   4.195   5.069  0.8163 -1.2273  0.8074
 4132SOL    HW224030   3.608   4.079   5.038  1.5621  0.5107  2.7744
 4133SOL     OW24031   1.927   3.645   7.755 -0.2541  0.8198  0.1957
 4133SOL    HW124032   1.878   3.641   7.837  3.0979  0.4959  2.1861
 4133SOL    HW224033   1.954   3.554   7.750  1.4678  1.3333 -0.1096
 4134SOL     OW24034   1.987   4.177  15.083 -0.1143 -0.1117  0.2295
 4134SOL    HW124035   2.059   4.163  15.144 -0.3044  0.4296  0.5728
 4134SOL    HW224036   1.935   4.225  15.147 -1.1606  0.6794 -1.2261
 4135SOL     OW24037   1.369   4.683   6.919 -0.3787 -0.5957 -0.8068
 4135SOL    HW124038   1.376   4.713   7.009  0.4452 -2.1914 -0.3368
 4135SOL    HW224039   1.404   4.593   6.915 -1.5819 -1.0945  0.0074
 4136SOL     OW24040   1.400   1.451   1.687 -0.5361  0.3850 -0.3709
 4136SOL    HW124041   1.430   1.481   1.773  1.1816  2.1193 -1.5856
 4136SOL    HW224042   1.458   1.379   1.662  0.9756  1.1816  0.8173
 4137SOL     OW24043   4.719   0.255   9.218 -0.1211 -0.1661 -0.3486
 4137SOL    HW124044   0.019   0.307   9.289 -0.7925 -0.1229 -0.0200
 4137SOL    HW224045   0.026   0.172   9.230 -1.4668 -0.9981 -1.0785
 4138SOL     OW24046   0.121   3.954   8.281  0.1495 -0.4885  0.0206
 4138SOL    HW124047   0.200   3.899   8.277  0.4231 -0.0565 -0.6243
 4138SOL    HW224048   0.133   3.989   8.369  0.4726 -0.1245 -0.1690
 4139SOL     OW24049   1.412   2.724   6.974 -0.0013 -0.1728 -0.3806
 4139SOL    HW124050   1.411   2.638   6.934  1.9716 -0.3657 -0.0157
 4139SOL    HW224051   1.505   2.746   6.971  0.1115 -0.8449 -1.5290
 4140SOL     OW24052   0.487   3.735   4.077  0.4672 -0.0251  0.2131
 4140SOL    HW124053   0.525   3.749   4.164  0.7004  0.5209  0.0223
 4140SOL    HW224054   0.536   3.656   4.054  1.8054  0.9309 -0.2535
 4141SOL     OW24055   0.972   3.060   8.032  0.4558  0.0127 -0.3861
 4141SOL    HW124056   1.058   3.097   8.011  1.1639  0.4741  3.3271
 4141SOL    HW224057   0.999   2.983   8.084  1.3124  0.4144 -0.2350
 4142SOL     OW24058   2.542   0.796  10.306  0.5262  0.4236  0.1514
 4142SOL    HW124059   2.465   0.769  10.357  0.0771  0.2474 -0.6244
 4142SOL    HW224060   2.596   0.827  10.379 -0.4340  1.1763  0.5473
 4143SOL     OW24061   2.434   4.364  14.301 -0.3308 -0.5208 -0.2256
 4143SOL    HW124062   2.388   4.443  14.330 -1.6227 -0.1705 -3.2792
 4143SOL    HW224063   2.523   4.398  14.285 -0.2737 -1.5338 -1.9980
 4144SOL     OW24064   2.078   0.622   5.569  0.1070  0.1116  0.2760
 4144SOL    HW124065   2.139   0.548   5.566  1.3499  1.1944 -1.1166
 4144SOL    HW224066   2.050   0.624   5.478  2.1400 -0.5159 -0.3725
 4145SOL     OW24067   4.117   3.279   0.401 -0.3452  0.2379  0.2557
 4145SOL    HW124068   4.132   3.372   0.388  1.7788 -0.3799 -1.6957
 4145SOL    HW224069   4.206   3.254   0.428 -0.9125  1.3990  3.2685
 4146SOL     OW24070   1.393   3.290   4.768 -0.0605 -0.4597  0.0447
 4146SOL    HW124071   1.461   3.284   4.835 -2.2610  0.5923  2.3747
 4146SOL    HW224072   1.391   3.385   4.760 -1.6616 -0.4071  1.1612
 4147SOL     OW24073   1.235   3.988   4.921  0.1802 -0.3141 -0.2606
 4147SOL    HW124074   1.265   4.041   4.847 -0.5795  0.3579 -0.0932
 4147SOL    HW224075   1.185   4.058   4.964 -0.2206 -0.9031  0.2299
 4148SOL     OW24076   0.346   4.172   3.078  0.6957 -0.0286  0.5576
 4148SOL    HW124077   0.392   4.091   3.056  1.0164  0.3007  0.0179
 4148SOL    HW224078   0.287   4.159   3.004  0.1561  2.9448  0.4597
 4149SOL     OW24079   4.484   2.294   8.297  0.0109  0.1134  0.1446
 4149SOL    HW124080   4.501   2.203   8.274  1.0546  0.7393 -1.5437
 4149SOL    HW224081   4.557   2.335   8.250 -2.1332  2.4544 -1.1772
 4150SOL     OW24082   3.405   3.740   9.166 -0.0055 -0.2796  0.0887
 4150SOL    HW124083   3.400   3.760   9.072  2.7852 -0.2492 -0.0595
 4150SOL    HW224084   3.320   3.750   9.209  0.1193 -1.4554  0.5945
 4151SOL     OW24085   3.343   2.328  11.535  0.0232  0.1002 -0.0735
 4151SOL    HW124086   3.393   2.393  11.486 -0.3995 -0.4934 -1.2934
 4151SOL    HW224087   3.271   2.385  11.564  0.2072 -0.3112  1.2100
 4152SOL     OW24088   0.618   4.065   2.062  0.4978  0.5769  0.0259
 4152SOL    HW124089   0.531   4.024   2.058  0.9038 -0.3312  0.5006
 4152SOL    HW224090   0.617   4.109   2.147 -0.4002  0.5463  0.0353
 4153SOL     OW24091   4.274   4.055  13.372  0.3240 -0.0035  0.5376
 4153SOL    HW124092   4.238   3.992  13.310  2.0509 -0.8753  0.4228
 4153SOL    HW224093   4.250   4.027  13.460 -1.7773 -0.3646 -0.1506
 4154SOL     OW24094   4.546   2.607   4.975 -0.9335  0.3173  0.3552
 4154SOL    HW124095   4.575   2.583   4.887  0.5497 -2.0106  1.4826
 4154SOL    HW224096   4.577   2.532   5.025 -0.7011 -1.0704 -1.9050
 4155SOL     OW24097   3.654   0.346   0.201  0.1077  0.1522 -0.3043
 4155SOL    HW124098   3.592   0.400   0.152 -0.6999 -0.7341 -0.2621
 4155SOL    HW224099   3.720   0.312   0.140 -1.3724 -1.8818 -0.7535
 4156SOL     OW24100   0.187   1.673   1.552  0.2443 -0.1004 -0.1907
 4156SOL    HW124101   0.095   1.671   1.580  0.5144  0.4402  0.7304
 4156SOL    HW224102   0.193   1.580   1.527  1.8121  0.3116 -1.3074
 4157SOL     OW24103   1.155   3.966  15.650  0.3323  0.1068 -0.0908
 4157SOL    HW124104   1.248   3.986  15.639  0.6411 -0.2139  1.9461
 4157SOL    HW224105   1.133   3.922  15.568  1.1019  1.2801 -0.9300
 4158SOL     OW24106   3.085   2.721   0.878 -0.2118  0.0093 -0.0923
 4158SOL    HW124107   3.070   2.788   0.811 -0.8481  1.4837  1.5260
 4158SOL    HW224108   3.168   2.747   0.920  0.1831 -1.1200 -0.1850
 4159SOL     OW24109   0.022   4.573   8.887 -0.4782  0.4796 -0.0371
 4159SOL    HW124110   4.679   4.618   8.912 -0.1200  0.9291  0.3312
 4159SOL    HW224111   0.046   4.519   8.963 -2.4029  0.9929  0.9356
 4160SOL     OW24112   1.350   4.268   4.449 -0.5478 -0.5608 -0.1152
 4160SOL    HW124113   1.257   4.290   4.458 -0.3782  0.6508 -1.3649
 4160SOL    HW224114   1.385   4.276   4.538  0.3774  2.9802 -0.8245
 4161SOL     OW24115   1.927   3.966   5.941  0.6062 -0.1234 -0.1601
 4161SOL    HW124116   1.937   3.921   6.025 -0.0464 -2.1418 -1.1654
 4161SOL    HW224117   1.969   4.050   5.958 -0.1493  0.2512 -0.1423
 4162SOL     OW24118   3.871   2.821   4.464 -0.2603 -0.0732  0.2173
 4162SOL    HW124119   3.837   2.809   4.375 -2.5895  1.6813  0.8726
 4162SOL    HW224120   3.800   2.863   4.512  0.0148  0.1135  0.4619
 4163SOL     OW24121   3.651   0.777   5.918  0.0586  0.5229 -0.2541
 4163SOL    HW124122   3.606   0.806   5.839  0.4067  0.9348 -0.3015
 4163SOL    HW224123   3.592   0.708   5.949  0.5540  0.5596  0.7832
 4164SOL     OW24124   0.235   1.972   7.099  0.1742 -0.2199 -0.1588
 4164SOL    HW124125   0.327   1.995   7.101  0.4775 -1.4643  0.0459
 4164SOL    HW224126   0.241   1.880   7.073  1.9038 -0.7915  2.2774
 4165SOL     OW24127   2.372   3.179   3.079  0.7449  0.3660 -0.0661
 4165SOL    HW124128   2.328   3.257   3.045  0.3034  0.4506  0.6895
 4165SOL    HW224129   2.412   3.209   3.161 -0.0398  2.4442 -0.4417
 4166SOL     OW24130   2.329   1.104   6.570 -0.4608 -0.1777  0.5886
 4166SOL    HW124131   2.379   1.030   6.607 -0.5239 -0.1045  0.8171
 4166SOL    HW224132   2.264   1.104   6.640 -1.3968  0.6227 -0.2919
 4167SOL     OW24133   1.739   0.411   4.016  0.2123  0.0372 -0.2093
 4167SOL    HW124134   1.649   0.382   4.033 -0.0448 -0.7676 -2.9952
 4167SOL    HW224135   1.728   0.489   3.963 -3.2451 -0.7147 -0.5640
 4168SOL     OW24136   1.992   3.056  11.809 -0.2573  0.2929  0.0701
 4168SOL    HW124137   1.934   3.131  11.821  1.1674  0.9932  2.5549
 4168SOL    HW224138   1.926   2.987  11.819 -0.4685  0.4940  0.0476
 4169SOL     OW24139   2.637   1.661   3.148 -0.3709  0.1618  0.1413
 4169SOL    HW124140   2.622   1.658   3.243 -2.1038  0.7696 -0.1250
 4169SOL    HW224141   2.689   1.740   3.138  0.9412 -1.2206 -3.9064
 4170SOL     OW24142   3.123   2.522   0.185 -0.4309  0.0842 -0.1449
 4170SOL    HW124143   3.165   2.436   0.181 -0.4645  0.0168  0.9290
 4170SOL    HW224144   3.189   2.569   0.135 -0.2966  1.2158  1.1016
 4171SOL     OW24145   2.197   1.287   0.308 -0.1317 -0.1442 -0.3930
 4171SOL    HW124146   2.203   1.192   0.320  2.0166  0.3447  2.1875
 4171SOL    HW224147   2.187   1.319   0.397 -1.8164 -1.6798 -0.0450
 4172SOL     OW24148   3.487   1.176   3.656  0.1195  0.4927 -0.4329
 4172SOL    HW124149   3.468   1.230   3.579 -0.0766  1.2985  0.1888
 4172SOL    HW224150   3.484   1.088   3.618 -0.8900  0.2815  0.1310
 4173SOL     OW24151   2.335   3.450   5.185  0.2785  0.3257  0.7837
 4173SOL    HW124152   2.276   3.450   5.260 -0.6300  1.7415  0.0628
 4173SOL    HW224153   2.277   3.460   5.110  0.7568  1.8164  0.6219
 4174SOL     OW24154   4.127   3.052   9.555  0.1153  0.4050 -0.3785
 4174SOL    HW124155   4.078   3.128   9.522 -0.8089 -0.2157 -0.4132
 4174SOL    HW224156   4.172   3.083   9.634  0.3570 -1.6052  0.2604
 4175SOL     OW24157   4.706   1.472   2.498 -0.1981  0.1754  0.3906
 4175SOL    HW124158   4.709   1.539   2.566  0.2430  1.4214 -0.8531
 4175SOL    HW224159   0.029   1.406   2.531 -0.4157 -0.0470  0.3505
 4176SOL     OW24160   4.374   3.134  16.531  0.1464  0.7144 -0.7973
 4176SOL    HW124161   4.381   3.054  16.480 -3.2512  0.0894 -0.3144
 4176SOL    HW224162   4.347   3.095  16.614 -0.3145 -0.3274 -1.4427
 4177SOL     OW24163   0.538   1.502   9.818 -0.0758 -0.3357 -0.2714
 4177SOL    HW124164   0.567   1.457   9.740  0.0450  0.2198 -0.5443
 4177SOL    HW224165   0.613   1.488   9.876  0.0692  1.3626 -0.0506
 4178SOL     OW24166   2.487   1.422   0.044 -0.4209 -0.2151  0.9663
 4178SOL    HW124167   2.576   1.422   0.077  0.1332  0.7401 -0.5258
 4178SOL    HW224168   2.470   1.328   0.036 -0.5628 -0.0879 -0.3261
 4179SOL     OW24169   3.506   3.719   8.297  0.0625  0.3472 -0.5420
 4179SOL    HW124170   3.470   3.804   8.274  0.5410  0.0851 -2.3307
 4179SOL    HW224171   3.533   3.731   8.388 -0.0415 -0.4301 -0.4094
 4180SOL     OW24172   4.438   4.123  10.761  0.2510  0.3899 -0.0380
 4180SOL    HW124173   4.410   4.141  10.851  3.3492 -0.5817  1.1126
 4180SOL    HW224174   4.528   4.154  10.771 -0.2431  1.9967 -0.6384
 4181SOL     OW24175   4.421   4.067   9.020 -0.2019  0.3043 -0.3415
 4181SOL    HW124176   4.433   4.007   9.093 -0.8100  1.0300  0.3545
 4181SOL    HW224177   4.510   4.077   8.984  0.1268  0.8778  0.6202
 4182SOL     OW24178   1.516   4.150   6.424 -0.3943  0.1044 -0.0173
 4182SOL    HW124179   1.491   4.111   6.507 -0.4272  1.0437  0.4126
 4182SOL    HW224180   1.586   4.209   6.451 -0.4794  0.3474 -0.3186
 4183SOL     OW24181   1.939   3.386  15.722  0.4062 -0.4389  0.4033
 4183SOL    HW124182   1.861   3.407  15.672 -0.9555 -0.3891  2.5786
 4183SOL    HW224183   1.923   3.293  15.738  0.4800 -0.0103  3.0120
 4184SOL     OW24184   1.783   0.918   2.152 -0.1391  0.0582  0.0367
 4184SOL    HW124185   1.713   0.933   2.215 -1.0417  2.6328 -1.5842
 4184SOL    HW224186   1.745   0.840   2.113  0.0927 -0.5628  1.0555
 4185SOL     OW24187   0.730   3.958  11.281 -0.2446 -0.2664  0.4381
 4185SOL    HW124188   0.707   3.962  11.188  1.5115 -4.0175 -0.1908
 4185SOL    HW224189   0.822   3.984  11.279  0.2101 -1.9059  0.1161
 4186SOL     OW24190   0.911   1.575   1.771 -0.5015  0.8717  0.1041
 4186SOL    HW124191   0.961   1.522   1.834  0.4418  2.0023  0.3011
 4186SOL    HW224192   0.979   1.581   1.703 -1.1124  0.4486 -0.5421
 4187SOL     OW24193   3.496   4.262   9.281 -0.3036 -0.1454  0.2255
 4187SOL    HW124194   3.412   4.228   9.249 -1.5242  1.3282  1.8993
 4187SOL    HW224195   3.529   4.188   9.332  1.7036 -0.2244 -1.1779
 4188SOL     OW24196   2.581   3.233   6.197 -0.7679 -0.1530 -0.0786
 4188SOL    HW124197   2.652   3.265   6.141 -1.1530  2.5469  0.9645
 4188SOL    HW224198   2.619   3.153   6.234  0.0794 -0.5406 -1.7734
 4189SOL     OW24199   4.666   1.157  11.967 -0.3365 -0.2705 -0.3107
 4189SOL    HW124200   4.697   1.138  12.056  0.0666 -1.8141 -0.7853
 4189SOL    HW224201   4.590   1.212  11.986  0.6107  0.3916  1.6317
 4190SOL     OW24202   0.887   3.188  10.159  0.2623 -0.2128 -0.2082
 4190SOL    HW124203   0.962   3.188  10.100 -0.0660  1.0030 -0.6238
 4190SOL    HW224204   0.884   3.280  10.186  1.1822  0.3805 -2.1615
 4191SOL     OW24205   1.608   1.885   5.963  0.0695  0.6813  0.5641
 4191SOL    HW124206   1.666   1.812   5.941  0.1923  0.7031  0.8113
 4191SOL    HW224207   1.644   1.904   6.049 -0.0792 -0.4185  0.8583
 4192SOL     OW24208   1.542   2.821  16.489  0.2247 -0.0345  0.3228
 4192SOL    HW124209   1.485   2.864  16.552 -2.3465 -2.1646 -0.5426
 4192SOL    HW224210   1.573   2.743  16.536  0.8384  0.5039  0.7995
 4193SOL     OW24211   1.893   0.638  12.197  0.0877  0.3367 -0.0062
 4193SOL    HW124212   1.942   0.720  12.184  0.7591 -0.0896 -0.1636
 4193SOL    HW224213   1.955   0.578  12.156  1.0779  2.0193 -0.9640
 4194SOL     OW24214   0.812   0.290   6.364 -0.0684  0.0787  0.0074
 4194SOL    HW124215   0.811   0.199   6.394 -2.5565  0.1934  0.2469
 4194SOL    HW224216   0.876   0.293   6.293 -1.5869 -1.7036 -1.3960
 4195SOL     OW24217   4.527   4.105   8.532 -0.1391  0.9412  0.6598
 4195SOL    HW124218   4.537   4.042   8.460 -1.1341  0.2646  1.1088
 4195SOL    HW224219   4.450   4.070   8.576 -0.7118  0.6829 -0.5254
 4196SOL     OW24220   4.283   3.037  12.078 -0.5022 -0.1765  0.3198
 4196SOL    HW124221   4.255   3.033  12.169  1.0049 -0.1428  0.7852
 4196SOL    HW224222   4.352   2.972  12.088 -0.0118  0.6819  2.5024
 4197SOL     OW24223   2.662   2.390   7.838 -0.1393  0.1059 -0.5030
 4197SOL    HW124224   2.652   2.299   7.810  1.6810 -0.1790 -0.2528
 4197SOL    HW224225   2.575   2.415   7.867  0.0302 -0.3315  0.3951
 4198SOL     OW24226   4.549   2.203   3.582 -0.0419  0.0887 -0.0835
 4198SOL    HW124227   4.534   2.297   3.574  0.5149  0.2954  1.4525
 4198SOL    HW224228   4.461   2.182   3.550  1.4662 -1.5596 -3.1286
 4199SOL     OW24229   3.533   4.166   3.826  0.0922  0.3026  0.1490
 4199SOL    HW124230   3.468   4.176   3.895 -0.4393  0.0569 -0.3220
 4199SOL    HW224231   3.501   4.086   3.785 -0.3338  0.6870 -0.2549
 4200SOL     OW24232   2.534   2.871   7.677  0.4778 -0.2665  0.6243
 4200SOL    HW124233   2.615   2.821   7.671 -0.1457 -1.4594  2.2515
 4200SOL    HW224234   2.504   2.810   7.744 -3.2280  1.9036  0.9360
 4201SOL     OW24235   1.802   1.359   5.456 -0.0512 -0.6564  0.6450
 4201SOL    HW124236   1.867   1.292   5.431 -1.3699 -1.6705 -0.0780
 4201SOL    HW224237   1.852   1.434   5.424 -1.1275 -0.0453  0.4030
 4202SOL     OW24238   1.490   3.582   9.935  0.1424 -0.2708 -0.5821
 4202SOL    HW124239   1.468   3.671   9.962 -0.3862 -0.8559  0.8613
 4202SOL    HW224240   1.483   3.534  10.017 -2.5687 -0.1833 -0.7826
 4203SOL     OW24241   3.461   0.868   8.698 -0.2542  0.6401  0.2036
 4203SOL    HW124242   3.469   0.943   8.639 -0.2162 -1.1531 -2.0656
 4203SOL    HW224243   3.431   0.807   8.630 -1.9650  0.1176  1.4317
 4204SOL     OW24244   2.439   2.365   3.958  0.1512  0.6380  0.0823
 4204SOL    HW124245   2.506   2.430   3.978  1.1632 -0.6308  0.8533
 4204SOL    HW224246   2.431   2.376   3.863 -2.1578  1.0064  0.3288
 4205SOL     OW24247   2.164   1.615   4.067 -0.3326  0.4428 -0.0300
 4205SOL    HW124248   2.173   1.677   3.995 -2.3059 -1.2831 -1.7355
 4205SOL    HW224249   2.154   1.689   4.127  2.1384 -0.9002  2.0350
 4206SOL     OW24250   4.125   1.974   9.737 -0.7932 -0.1250  0.0004
 4206SOL    HW124251   4.107   2.067   9.751  2.4743  0.5741 -0.3942
 4206SOL    HW224252   4.172   1.959   9.818  2.7739 -1.0226 -2.2479
 4207SOL     OW24253   2.879   2.476   5.490 -0.3230  0.0373 -0.8078
 4207SOL    HW124254   2.951   2.420   5.517 -0.6837  0.0791  0.2273
 4207SOL    HW224255   2.830   2.424   5.426 -1.2239 -0.4866  0.3036
 4208SOL     OW24256   1.987   0.714   2.751  0.8873  0.1667  0.4724
 4208SOL    HW124257   1.996   0.623   2.780  0.7922  0.1102  0.3278
 4208SOL    HW224258   1.897   0.738   2.769  1.7000  0.8659  3.4928
 4209SOL     OW24259   2.360   2.952   4.370  0.5908 -0.1391 -0.4656
 4209SOL    HW124260   2.303   3.000   4.309  0.8394 -0.6134 -1.0721
 4209SOL    HW224261   2.321   2.867   4.352 -1.5725  0.6132  0.6350
 4210SOL     OW24262   2.524   1.956   5.681  0.6423 -0.3386 -0.2379
 4210SOL    HW124263   2.613   1.960   5.645  1.7928  0.8597  2.7898
 4210SOL    HW224264   2.537   1.911   5.764 -1.2869 -0.0103  0.2406
 4211SOL     OW24265   0.385   2.255  17.601 -0.4329  0.2763  0.0099
 4211SOL    HW124266   0.342   2.333  17.636 -0.3082  0.7012 -0.7998
 4211SOL    HW224267   0.465   2.295  17.566 -1.1432 -0.3765 -2.3500
 4212SOL     OW24268   0.735   3.380   2.926  0.2520 -0.1061 -0.3225
 4212SOL    HW124269   0.825   3.372   2.957  0.6338 -1.0255 -1.7014
 4212SOL    HW224270   0.761   3.450   2.866  1.4334 -1.1028 -0.9614
 4213SOL     OW24271   0.419   3.694  10.052  0.6610 -0.0828  0.1917
 4213SOL    HW124272   0.474   3.629  10.096  0.6302 -1.1871 -1.4026
 4213SOL    HW224273   0.478   3.740   9.993  0.2107 -1.0399 -1.0079
 4214SOL     OW24274   4.195   3.152   2.479  0.1890 -0.0056  0.4507
 4214SOL    HW124275   4.289   3.166   2.467  0.2272 -1.6957 -1.2682
 4214SOL    HW224276   4.170   3.184   2.566  0.8892  1.6540  0.0301
 4215SOL     OW24277   0.300   0.917  12.371  0.7626 -0.4533 -0.1496
 4215SOL    HW124278   0.283   0.872  12.288  1.9621  1.5071 -1.4726
 4215SOL    HW224279   0.381   0.880  12.405  0.2326 -2.4635 -1.0841
 4216SOL     OW24280   4.263   0.863   8.491 -0.1225 -0.4660 -0.1543
 4216SOL    HW124281   4.274   0.922   8.416 -1.1401 -0.6395 -0.4429
 4216SOL    HW224282   4.180   0.820   8.472 -0.1404 -0.3830 -0.2643
 4217SOL     OW24283   1.048   2.314   8.559  0.2444 -0.3536  0.1195
 4217SOL    HW124284   0.979   2.369   8.521  0.3824  0.4045  0.9933
 4217SOL    HW224285   1.126   2.345   8.513 -0.0422 -0.5703 -0.5188
 4218SOL     OW24286   2.354   0.828   7.141  0.2596  0.0796 -0.5436
 4218SOL    HW124287   2.327   0.881   7.217  0.3615  0.9552 -1.1202
 4218SOL    HW224288   2.382   0.749   7.188  0.0695  1.1667  1.4203
 4219SOL     OW24289   2.326   2.273   9.092 -0.0947 -0.5191  0.5090
 4219SOL    HW124290   2.290   2.189   9.065 -2.0607  0.2419  0.7327
 4219SOL    HW224291   2.381   2.244   9.165  2.2959 -1.0756 -1.4925
 4220SOL     OW24292   3.769   3.812  15.889 -0.2438 -0.3575 -0.4284
 4220SOL    HW124293   3.865   3.822  15.884 -0.0888 -1.5098  0.3643
 4220SOL    HW224294   3.765   3.740  15.827  2.1614 -1.3605  0.5760
 4221SOL     OW24295   0.330   1.702   9.517 -0.4390  0.3217 -0.1967
 4221SOL    HW124296   0.304   1.730   9.429 -2.4257  0.9825  0.6221
 4221SOL    HW224297   0.425   1.714   9.526 -0.5436 -0.8545  2.3589
 4222SOL     OW24298   0.613   2.087   8.935 -0.3797 -0.7307  0.3089
 4222SOL    HW124299   0.643   2.153   8.996 -0.4858 -0.3145 -0.0884
 4222SOL    HW224300   0.581   2.143   8.864  1.1819 -0.2540 -0.0047
 4223SOL     OW24301   2.581   4.441   1.757 -0.3012 -0.9155 -0.7297
 4223SOL    HW124302   2.646   4.372   1.771  0.4770 -0.4603 -2.1605
 4223SOL    HW224303   2.631   4.510   1.715 -1.1979  0.4067  0.3639
 4224SOL     OW24304   2.629   0.911  17.184 -0.1225  0.1474  0.2148
 4224SOL    HW124305   2.598   0.821  17.172 -0.6574  0.3274  0.2419
 4224SOL    HW224306   2.563   0.929  17.251 -0.7137 -0.2398 -0.2672
 4225SOL     OW24307   1.872   2.533   3.217  0.4935  0.2736  0.4324
 4225SOL    HW124308   1.941   2.587   3.254  0.5712 -0.6394  1.5955
 4225SOL    HW224309   1.820   2.504   3.292  3.4696  2.2995  3.2308
 4226SOL     OW24310   3.494   0.153  11.769  1.1193  0.1951 -0.8313
 4226SOL    HW124311   3.419   0.158  11.828 -0.3089  2.2164 -2.8428
 4226SOL    HW224312   3.441   0.113  11.700  1.3398 -0.6793 -0.4902
 4227SOL     OW24313   4.437   3.298   1.893  0.0367  0.2649 -0.0755
 4227SOL    HW124314   4.468   3.389   1.893  2.7937 -0.6927  1.8088
 4227SOL    HW224315   4.432   3.271   1.984  0.1695 -2.0277 -0.7465
 4228SOL     OW24316   3.787   0.858   0.965  0.3633  0.5477 -0.3160
 4228SOL    HW124317   3.862   0.860   0.906 -0.5780  0.1091 -1.5273
 4228SOL    HW224318   3.726   0.795   0.927  0.9923 -0.8658  1.0082
 4229SOL     OW24319   1.006   0.352   6.176  0.0938  0.1371  0.3265
 4229SOL    HW124320   1.023   0.402   6.097  1.9158 -0.9191  0.0516
 4229SOL    HW224321   1.018   0.415   6.247  0.7352  1.3983 -0.9031
 4230SOL     OW24322   1.793   3.781  15.060 -0.2866 -0.6893  0.0206
 4230SOL    HW124323   1.852   3.774  15.136 -0.0703  2.8091  0.1904
 4230SOL    HW224324   1.788   3.873  15.034 -1.5941 -1.3919 -2.1584
 4231SOL     OW24325   0.719   2.633   3.734  0.0943 -0.1751 -0.4913
 4231SOL    HW124326   0.759   2.620   3.648 -1.0332  0.0892 -1.0577
 4231SOL    HW224327   0.741   2.557   3.789  1.4232 -0.3674 -1.2731
 4232SOL     OW24328   0.641   0.237   2.994 -0.2178 -0.0644  0.4406
 4232SOL    HW124329   0.712   0.187   2.953 -1.3341 -0.9950 -0.3381
 4232SOL    HW224330   0.677   0.325   2.985 -2.0630  0.9281  2.7211
 4233SOL     OW24331   1.967   3.791   7.251  0.7269 -0.2663  0.2273
 4233SOL    HW124332   1.929   3.713   7.211  0.1528  0.2283 -0.1851
 4233SOL    HW224333   2.040   3.752   7.300  1.0121 -0.0821 -0.0553
 4234SOL     OW24334   1.212   0.327   9.585 -0.2789 -0.1137  0.3603
 4234SOL    HW124335   1.188   0.290   9.501  0.0859  1.6945 -0.5445
 4234SOL    HW224336   1.199   0.415   9.551 -1.1541 -0.8858 -1.2679
 4235SOL     OW24337   0.245   2.254  12.542 -0.1480  0.3094  0.0486
 4235SOL    HW124338   0.155   2.256  12.574  0.0447 -0.4317  0.6600
 4235SOL    HW224339   0.293   2.316  12.597 -1.5480  1.2590  0.1864
 4236SOL     OW24340   1.956   2.998   9.504  0.4164 -0.8178 -0.5218
 4236SOL    HW124341   1.928   3.032   9.419  0.1279 -1.8016 -0.8141
 4236SOL    HW224342   2.044   3.036   9.508 -1.4449  3.2483  1.3492
 4237SOL     OW24343   2.566   2.169   4.710  0.1354 -0.5706 -0.2303
 4237SOL    HW124344   2.602   2.096   4.761 -0.9419 -1.0944 -0.2038
 4237SOL    HW224345   2.644   2.224   4.710  0.1521 -0.5880  0.5101
 4238SOL     OW24346   3.579   1.664   8.698 -0.5743 -0.1450  0.2415
 4238SOL    HW124347   3.653   1.665   8.638  0.2884 -2.0422  1.2704
 4238SOL    HW224348   3.506   1.676   8.638 -1.1289 -1.9043  0.5530
 4239SOL     OW24349   3.702   0.962  13.174 -0.3757  0.3259 -0.1150
 4239SOL    HW124350   3.748   0.956  13.257 -0.8250  1.3139  0.2138
 4239SOL    HW224351   3.716   0.873  13.142  0.6500  0.2212  0.6423
 4240SOL     OW24352   0.776   0.391   4.946  0.5710  0.1232  0.2413
 4240SOL    HW124353   0.760   0.386   4.851  0.7816  0.8956  0.1633
 4240SOL    HW224354   0.836   0.319   4.964 -0.9823 -0.9706  1.1104
 4241SOL     OW24355   4.324   2.007   4.226  0.3937 -0.2488  0.1468
 4241SOL    HW124356   4.406   2.053   4.240 -0.5261  1.5191 -0.2807
 4241SOL    HW224357   4.277   2.054   4.295  0.3677 -0.3291  0.1837
 4242SOL     OW24358   1.265   2.029  15.799 -0.5306 -0.0799 -0.4170
 4242SOL    HW124359   1.343   1.979  15.822  0.5424  1.4949 -0.6494
 4242SOL    HW224360   1.202   1.964  15.830  0.5153 -0.2091  1.4420
 4243SOL     OW24361   4.463   2.609   8.157 -0.1000 -0.3534 -0.9686
 4243SOL    HW124362   4.417   2.611   8.241  2.3548  2.0592  0.3289
 4243SOL    HW224363   4.472   2.705   8.156 -1.8968 -0.1456  1.5552
 4244SOL     OW24364   4.577   4.020   4.544  0.3001  0.3229  0.2055
 4244SOL    HW124365   4.526   3.947   4.580 -1.2342  1.5807  0.5558
 4244SOL    HW224366   4.614   3.987   4.462 -1.3437 -1.7094  0.2833
 4245SOL     OW24367   0.319   1.046   6.748  0.0892 -0.6907 -0.5873
 4245SOL    HW124368   0.234   1.089   6.738 -0.3759 -1.8030 -1.3992
 4245SOL    HW224369   0.355   1.055   6.660  0.3689 -0.7140 -0.4750
 4246SOL     OW24370   2.721   4.579   7.504 -0.0269 -0.1292  0.3692
 4246SOL    HW124371   2.702   4.590   7.597 -1.9726 -1.0112  0.0734
 4246SOL    HW224372   2.646   4.606   7.452  1.3191  3.0799  0.0819
 4247SOL     OW24373   0.598   1.785   6.627  0.2330 -0.0430  0.0291
 4247SOL    HW124374   0.555   1.871   6.624 -1.0356 -0.6540  0.8419
 4247SOL    HW224375   0.566   1.758   6.713 -0.2546 -0.8033 -0.3982
 4248SOL     OW24376   1.539   3.316   5.945 -0.2320  0.1207 -0.3300
 4248SOL    HW124377   1.514   3.388   6.003 -1.0906 -2.3601  2.3494
 4248SOL    HW224378   1.617   3.285   5.989  0.2201  1.6316 -0.0651
 4249SOL     OW24379   0.135   2.814  17.447 -0.0441  0.5717 -0.1454
 4249SOL    HW124380   0.114   2.731  17.404  1.6783  0.0791 -0.0233
 4249SOL    HW224381   0.230   2.809  17.444 -0.2292 -2.4830 -1.9247
 4250SOL     OW24382   1.299   0.597  12.875 -0.5571  0.7236 -0.5145
 4250SOL    HW124383   1.340   0.552  12.949  2.1824  2.3128 -1.0446
 4250SOL    HW224384   1.309   0.690  12.898  0.7793  0.1974  1.0566
 4251SOL     OW24385   0.451   4.231   7.957  0.2683  0.6823  0.3408
 4251SOL    HW124386   0.471   4.146   7.997 -1.5109  0.4517  0.7493
 4251SOL    HW224387   0.518   4.284   8.000  1.3604 -0.0457 -0.4584
 4252SOL     OW24388   0.441   1.652   6.802 -0.1774  0.5271 -0.3182
 4252SOL    HW124389   0.406   1.583   6.745 -1.0500 -0.4984  1.4598
 4252SOL    HW224390   0.364   1.668   6.857 -0.4592  0.7089 -0.7644
 4253SOL     OW24391   1.346   2.814  17.463  0.0999 -0.5588  0.8127
 4253SOL    HW124392   1.258   2.785  17.484 -0.2438 -0.6122 -0.6805
 4253SOL    HW224393   1.349   2.803  17.368 -0.1213 -1.3707  0.9048
 4254SOL     OW24394   3.379   3.862   3.304 -0.7218 -0.0729  0.4657
 4254SOL    HW124395   3.313   3.793   3.309 -0.3671 -0.3389  1.5128
 4254SOL    HW224396   3.328   3.943   3.298 -0.7924 -0.2932 -1.5910
 4255SOL     OW24397   2.185   1.352  11.942  0.0847  0.0607  0.1863
 4255SOL    HW124398   2.255   1.415  11.926 -0.2939  0.4474  0.0584
 4255SOL    HW224399   2.210   1.271  11.897  2.5455  1.0204 -0.1512
 4256SOL     OW24400   1.193   1.545   4.219 -0.3265  0.3533 -0.1442
 4256SOL    HW124401   1.108   1.573   4.185 -0.2007 -1.5244 -1.9932
 4256SOL    HW224402   1.196   1.458   4.179 -0.9093  0.1538  0.2414
 4257SOL     OW24403   2.371   0.063   7.243 -0.1668  0.4293  0.3554
 4257SOL    HW124404   2.283   0.053   7.280 -0.2744 -0.5559 -0.1557
 4257SOL    HW224405   2.351   0.035   7.153 -0.2185  1.3911  0.0690
 4258SOL     OW24406   0.546   1.642   9.269 -0.3576 -0.4502 -0.6289
 4258SOL    HW124407   0.601   1.719   9.255  0.6077 -0.9852  0.2240
 4258SOL    HW224408   0.457   1.675   9.258 -1.0595 -1.3235  2.5626
 4259SOL     OW24409   2.156   1.100  17.295  0.4539 -0.0092 -0.7518
 4259SOL    HW124410   2.066   1.090  17.264  0.9628 -1.1476 -1.8859
 4259SOL    HW224411   2.150   1.180  17.346 -0.1152 -0.0250 -0.7924
 4260SOL     OW24412   1.522   0.281   7.788  0.2511  0.3139  0.3769
 4260SOL    HW124413   1.449   0.306   7.731  0.4176  0.5401  0.2634
 4260SOL    HW224414   1.485   0.285   7.876  1.2175  1.0727  0.7331
 4261SOL     OW24415   0.818   4.725  13.010  0.0223  0.3125 -0.0249
 4261SOL    HW124416   0.895   0.044  13.001 -0.2131  0.4368 -1.2860
 4261SOL    HW224417   0.745   0.044  13.034 -0.5940 -0.0966 -0.9036
 4262SOL     OW24418   3.579   4.016   5.589  0.3124  0.1749 -0.1518
 4262SOL    HW124419   3.573   3.957   5.514  1.5604 -0.1047 -0.0465
 4262SOL    HW224420   3.581   4.097   5.538  2.6227 -0.2975 -0.8472
 4263SOL     OW24421   1.426   1.868   9.262  0.4017 -0.2151 -0.3138
 4263SOL    HW124422   1.361   1.833   9.201  1.2795  1.2430 -2.0795
 4263SOL    HW224423   1.382   1.939   9.308  0.1514 -1.3983  1.2559
 4264SOL     OW24424   0.873   4.360  14.151  0.4570  0.0358  0.4061
 4264SOL    HW124425   0.818   4.284  14.135 -1.7542  1.6542  0.3804
 4264SOL    HW224426   0.954   4.323  14.114  0.2271 -0.9144  0.8449
 4265SOL     OW24427   0.855   3.493   6.087 -0.1505  0.1312  0.7113
 4265SOL    HW124428   0.914   3.563   6.115 -0.4707  0.7494 -0.1415
 4265SOL    HW224429   0.866   3.505   5.992 -0.0783 -0.8243  0.6010
 4266SOL     OW24430   1.528   1.295   8.259 -0.2760  0.2492  0.6900
 4266SOL    HW124431   1.512   1.383   8.226 -0.3496  0.2577  0.7484
 4266SOL    HW224432   1.523   1.235   8.185 -0.7530 -0.1576  1.0476
 4267SOL     OW24433   4.719   2.490   1.297  0.1248  0.2918  0.2352
 4267SOL    HW124434   4.663   2.548   1.348 -0.1870 -0.1498  0.3941
 4267SOL    HW224435   4.734   2.419   1.359 -1.0681  0.2147  0.4326
 4268SOL     OW24436   4.477   2.051   9.875  0.3248 -0.4900 -0.0202
 4268SOL    HW124437   4.482   2.145   9.857 -0.6991 -0.3816  0.2588
 4268SOL    HW224438   4.390   2.033   9.911  1.1673  0.8373  2.5826
 4269SOL     OW24439   4.675   0.771  16.989  0.4013 -0.1462  0.8206
 4269SOL    HW124440   0.006   0.710  16.961  0.7850 -0.5702  2.6539
 4269SOL    HW224441   4.705   0.851  16.947 -0.2031  0.0674  0.8076
 4270SOL     OW24442   3.968   2.465   2.783  0.0466 -0.8135  0.2172
 4270SOL    HW124443   4.057   2.491   2.760 -0.7294  2.5087  0.9470
 4270SOL    HW224444   3.916   2.544   2.768  2.8188  0.7925 -0.8986
 4271SOL     OW24445   3.627   0.298   1.109  0.0455 -0.0406  0.1094
 4271SOL    HW124446   3.714   0.307   1.149  0.5529  2.1827 -1.5039
 4271SOL    HW224447   3.655   0.324   1.021 -1.7035  2.1433  0.2135
 4272SOL     OW24448   3.721   3.361   2.370 -0.7975  0.0029  0.0552
 4272SOL    HW124449   3.659   3.291   2.351  2.7398 -3.6334  1.8282
 4272SOL    HW224450   3.721   3.414   2.291  1.4960 -0.4463 -0.2572
 4273SOL     OW24451   0.385   0.293   5.203 -0.1769 -0.0980  0.0120
 4273SOL    HW124452   0.471   0.333   5.198  0.0455 -0.5415  0.3091
 4273SOL    HW224453   0.376   0.253   5.117 -2.4167 -0.4781  0.3988
 4274SOL     OW24454   1.062   2.421  15.677  0.3211  0.1624  0.4931
 4274SOL    HW124455   1.119   2.408  15.752  0.2070 -0.5257  0.4615
 4274SOL    HW224456   0.985   2.379  15.717 -0.2558  4.3975  3.8573
 4275SOL     OW24457   0.618   0.496   6.842 -0.0780  0.4074 -0.2237
 4275SOL    HW124458   0.676   0.554   6.792 -1.6161  1.4530 -0.7670
 4275SOL    HW224459   0.537   0.537   6.812  0.6202 -0.5582 -3.4926
 4276SOL     OW24460   4.389   3.957   5.057 -0.2082 -0.1252 -0.0354
 4276SOL    HW124461   4.436   4.009   5.122  0.3053 -0.7583  0.1044
 4276SOL    HW224462   4.317   4.017   5.036 -0.3336 -0.1879  0.2206
 4277SOL     OW24463   2.556   3.425  16.582 -0.3641 -1.0055  0.0477
 4277SOL    HW124464   2.489   3.438  16.514  0.5371  1.6250 -0.3370
 4277SOL    HW224465   2.510   3.377  16.651  0.3095 -2.4774 -0.5362
 4278SOL     OW24466   4.159   3.816   8.580 -0.2316 -0.1607 -0.4593
 4278SOL    HW124467   4.195   3.738   8.538 -0.4455 -1.3683  1.6047
 4278SOL    HW224468   4.067   3.790   8.577  0.2854 -1.8492 -1.4996
 4279SOL     OW24469   0.196   1.844   2.275 -0.2577  0.4656 -0.4898
 4279SOL    HW124470   0.227   1.753   2.271 -1.4072  0.0781 -0.4878
 4279SOL    HW224471   0.200   1.864   2.368  1.9044  0.0963 -0.5015
 4280SOL     OW24472   1.619   3.995   3.860 -0.1398 -0.4934  0.3808
 4280SOL    HW124473   1.686   3.935   3.892 -1.2160  0.2174  3.9427
 4280SOL    HW224474   1.622   3.973   3.767  3.1699 -1.1439  0.6537
 4281SOL     OW24475   1.653   1.802  11.044  0.1174  0.2208 -0.0219
 4281SOL    HW124476   1.604   1.747  10.984 -1.1795  0.2783  1.0001
 4281SOL    HW224477   1.626   1.751  11.121 -0.5412  0.1306 -0.3207
 4282SOL     OW24478   3.494   2.730   5.604  0.0819 -0.0405  0.5696
 4282SOL    HW124479   3.413   2.699   5.564  0.8565 -0.0541 -1.0255
 4282SOL    HW224480   3.532   2.653   5.646 -1.4791 -0.0954  1.8528
 4283SOL     OW24481   0.927   0.145   2.193 -0.1642  0.0400 -0.6337
 4283SOL    HW124482   0.842   0.189   2.198 -0.4760 -0.5738 -0.6070
 4283SOL    HW224483   0.948   0.170   2.103  0.2576  1.2304 -0.2051
 4284SOL     OW24484   4.428   1.690   5.980 -0.0430 -0.3281 -0.1761
 4284SOL    HW124485   4.392   1.745   5.910  2.0522  2.2402  0.7357
 4284SOL    HW224486   4.482   1.624   5.937  2.2043  1.8557 -0.7208
 4285SOL     OW24487   1.711   1.346   2.079  0.5352 -0.4993 -0.3572
 4285SOL    HW124488   1.777   1.335   2.147  1.4059  0.6607 -1.0019
 4285SOL    HW224489   1.756   1.370   1.998 -0.3426 -0.5731 -0.8626
 4286SOL     OW24490   4.691   1.648   2.712 -0.3041 -0.6649  0.1847
 4286SOL    HW124491   4.623   1.632   2.778  0.2762  2.3068  1.5317
 4286SOL    HW224492   4.654   1.725   2.669  1.3302 -0.3697 -0.7035
 4287SOL     OW24493   0.811   2.484   5.854  0.3899  0.2764 -0.3950
 4287SOL    HW124494   0.741   2.453   5.797  1.0163 -1.1112 -0.4337
 4287SOL    HW224495   0.784   2.456   5.942  0.4599  2.5767  0.3566
 4288SOL     OW24496   3.660   2.452   6.382 -0.0542  0.4866 -0.0063
 4288SOL    HW124497   3.738   2.497   6.414  0.2091  1.1155 -1.5394
 4288SOL    HW224498   3.687   2.361   6.392 -0.4673  0.0426 -2.8588
 4289SOL     OW24499   2.259   4.016   5.131 -0.0132 -0.0225  0.3381
 4289SOL    HW124500   2.311   3.966   5.193  1.3814 -2.1098 -2.5001
 4289SOL    HW224501   2.169   3.986   5.142 -0.2726  0.1803 -1.1147
 4290SOL     OW24502   0.970   3.280  14.631  0.0081 -0.4121 -0.0571
 4290SOL    HW124503   0.906   3.345  14.602  0.0871 -0.5285 -0.5045
 4290SOL    HW224504   0.938   3.195  14.600 -1.2595  0.3590 -0.8411
 4291SOL     OW24505   3.708   0.947   4.465  0.6654 -0.0741 -0.8558
 4291SOL    HW124506   3.692   1.024   4.519  1.3995 -1.9146  1.9810
 4291SOL    HW224507   3.748   0.884   4.525 -2.1089  0.4658  1.5597
 4292SOL     OW24508   2.115   3.090   7.712 -0.0901 -0.2027  0.0045
 4292SOL    HW124509   2.058   3.138   7.773 -1.1565  0.3633 -1.4152
 4292SOL    HW224510   2.119   3.000   7.744 -1.1417 -1.1724 -2.5575
 4293SOL     OW24511   4.150   3.628   8.880  0.1892 -0.4634 -0.3261
 4293SOL    HW124512   4.165   3.537   8.854  1.3843 -0.5626  0.7218
 4293SOL    HW224513   4.233   3.649   8.923  0.1618  0.8265 -0.9141
 4294SOL     OW24514   2.019   2.216   1.622  0.1918 -0.4097  0.6190
 4294SOL    HW124515   1.968   2.135   1.615  0.7723 -0.6913 -0.4087
 4294SOL    HW224516   1.954   2.271   1.579  0.4218 -1.4458 -1.0543
 4295SOL     OW24517   1.728   4.334   2.531  0.1325 -0.1546 -0.6375
 4295SOL    HW124518   1.735   4.384   2.612  0.0899  1.2984 -1.5266
 4295SOL    HW224519   1.807   4.361   2.484  1.0261 -2.6798 -0.5658
 4296SOL     OW24520   4.229   0.109   5.197 -0.2593  0.0711 -0.8576
 4296SOL    HW124521   4.196   0.199   5.201  0.8400  0.4049  1.1727
 4296SOL    HW224522   4.251   0.085   5.288  1.8774  0.6354 -1.2189
 4297SOL     OW24523   2.525   0.476  16.049 -0.1703 -0.3317 -0.2633
 4297SOL    HW124524   2.452   0.423  16.082 -1.3256  1.0567 -0.5818
 4297SOL    HW224525   2.580   0.410  16.006  0.8602 -0.4384  1.2177
 4298SOL     OW24526   2.483   1.186   3.830 -0.1728 -0.2317  0.0592
 4298SOL    HW124527   2.408   1.173   3.772  0.1444 -1.5235 -0.0504
 4298SOL    HW224528   2.467   1.119   3.896 -1.7538  0.7273  0.6517
 4299SOL     OW24529   3.557   3.402   3.738 -0.5835  0.1299  0.1111
 4299SOL    HW124530   3.510   3.339   3.682 -1.6663  1.6651 -0.7038
 4299SOL    HW224531   3.640   3.419   3.693 -0.9187 -0.1053 -0.6003
 4300SOL     OW24532   3.972   2.052   9.126 -0.3216 -0.0923  0.6971
 4300SOL    HW124533   3.957   2.019   9.214 -2.1510 -1.2425 -0.0414
 4300SOL    HW224534   3.947   2.144   9.121 -1.9840 -0.7016 -2.2790
 4301SOL     OW24535   1.667   4.427   6.000  0.1376 -0.3816  0.1273
 4301SOL    HW124536   1.585   4.419   6.048  0.1979 -1.9341 -0.0289
 4301SOL    HW224537   1.730   4.452   6.068 -1.2154  1.6399  0.6314
 4302SOL     OW24538   4.559   1.817   2.090  0.3336  0.1223 -0.2523
 4302SOL    HW124539   4.489   1.755   2.069  1.4245 -1.2824  0.2456
 4302SOL    HW224540   4.621   1.751   2.119  0.6905 -0.3072 -1.9956
 4303SOL     OW24541   4.666   2.524  10.530 -0.0128 -0.5342 -0.6272
 4303SOL    HW124542   4.615   2.605  10.520  0.4671 -0.0655  0.7374
 4303SOL    HW224543   4.713   2.540  10.612 -1.7994 -0.2424  0.3394
 4304SOL     OW24544   4.637   4.651   2.036 -0.4578 -0.0003  0.3427
 4304SOL    HW124545   4.604   4.721   1.979  2.7400 -0.8821 -2.6069
 4304SOL    HW224546   4.613   4.667   2.127 -0.6359  1.0889  0.1011
 4305SOL     OW24547   1.877   2.410   8.365 -0.3119  0.4182  0.5537
 4305SOL    HW124548   1.790   2.388   8.332  0.3140 -1.0798 -0.1010
 4305SOL    HW224549   1.878   2.357   8.445  1.3367 -1.9059 -1.0243
 4306SOL     OW24550   2.339   0.493   1.177  0.6114 -0.1845 -0.4887
 4306SOL    HW124551   2.428   0.523   1.158  0.6537 -0.7033 -1.0889
 4306SOL    HW224552   2.309   0.528   1.093 -0.4179 -1.7017 -0.7402
 4307SOL     OW24553   0.840   0.638   6.982 -0.6527 -0.2101  0.0584
 4307SOL    HW124554   0.775   0.707   6.997  1.1535  1.7104 -1.1039
 4307SOL    HW224555   0.833   0.592   7.066 -1.2339  0.9946  0.6730
 4308SOL     OW24556   2.250   3.970   7.678  0.2513  0.1346  0.5780
 4308SOL    HW124557   2.287   3.892   7.636 -0.3247  0.8113 -1.1724
 4308SOL    HW224558   2.313   4.036   7.650  1.2716 -0.0214  2.4928
 4309SOL     OW24559   1.206   3.503  10.130 -0.2251  0.4279  0.1167
 4309SOL    HW124560   1.216   3.420  10.175  1.1722 -0.1137 -1.1698
 4309SOL    HW224561   1.225   3.565  10.200  1.2016  2.2755 -1.8815
 4310SOL     OW24562   4.170   1.412  12.750 -0.3176 -0.6328 -0.6573
 4310SOL    HW124563   4.127   1.376  12.673  0.6649 -2.0800 -0.5218
 4310SOL    HW224564   4.127   1.497  12.749  0.7244 -0.1131 -1.1687
 4311SOL     OW24565   4.361   1.913  10.846 -0.2148  0.1959  0.3067
 4311SOL    HW124566   4.397   1.839  10.797 -0.8557  1.7040 -2.4645
 4311SOL    HW224567   4.267   1.895  10.845 -0.6667  2.5486 -1.5102
 4312SOL     OW24568   1.321   4.309   4.095 -0.0632  0.1887 -0.5687
 4312SOL    HW124569   1.394   4.250   4.074 -0.8687 -1.1086  0.2686
 4312SOL    HW224570   1.251   4.248   4.121  0.3991  0.5738  1.6111
 4313SOL     OW24571   1.260   4.676   7.991 -0.2939  0.1543 -0.9536
 4313SOL    HW124572   1.313   4.603   7.960  0.7026  0.6815 -0.4899
 4313SOL    HW224573   1.178   4.666   7.942 -0.7360 -3.7837  0.6643
 4314SOL     OW24574   3.307   4.106   9.846 -0.4904  0.1070 -0.6203
 4314SOL    HW124575   3.255   4.063   9.914 -0.7605  0.9286 -0.3076
 4314SOL    HW224576   3.290   4.199   9.863 -0.4847 -0.5973  3.2467
 4315SOL     OW24577   0.710   0.868   7.651 -0.3701  0.2450 -0.1623
 4315SOL    HW124578   0.711   0.777   7.621 -0.0076  0.2875 -0.2841
 4315SOL    HW224579   0.689   0.844   7.742  1.3118  0.1666  0.2089
 4316SOL     OW24580   4.552   3.833   2.371 -0.8831 -0.3186 -0.2118
 4316SOL    HW124581   4.564   3.743   2.402  2.9116  0.5224  0.8104
 4316SOL    HW224582   4.555   3.826   2.275 -1.5291  2.0344 -0.4145
 4317SOL     OW24583   1.386   2.140   7.142 -0.4379  0.7042 -0.5129
 4317SOL    HW124584   1.359   2.066   7.195  0.1002  1.0864  0.2929
 4317SOL    HW224585   1.476   2.114   7.122 -0.9045 -1.2621  0.0160
 4318SOL     OW24586   0.870   4.178  15.428  0.3227  0.2150 -0.1884
 4318SOL    HW124587   0.822   4.198  15.509  1.6556  0.0756  0.6327
 4318SOL    HW224588   0.806   4.206  15.362 -0.5014 -1.2117 -0.0106
 4319SOL     OW24589   1.266   1.517  11.323  0.2729 -0.1789 -0.8775
 4319SOL    HW124590   1.176   1.518  11.292 -0.4519  0.8489  1.2722
 4319SOL    HW224591   1.264   1.430  11.364 -1.5258  0.1428 -0.2944
 4320SOL     OW24592   3.961   2.343   6.498  0.4700  0.3350  0.0605
 4320SOL    HW124593   3.919   2.312   6.579  1.5357 -4.1081 -1.0865
 4320SOL    HW224594   3.964   2.259   6.453 -1.2751  0.1267  0.3097
 4321SOL     OW24595   0.775   0.123   3.566  0.4307 -0.6908  0.2263
 4321SOL    HW124596   0.834   0.121   3.491  1.5545  1.0895  1.0760
 4321SOL    HW224597   0.690   0.139   3.524  1.0054  4.1163  0.8208
 4322SOL     OW24598   3.640   0.421   9.006 -0.3051 -0.3472 -0.3731
 4322SOL    HW124599   3.681   0.341   9.038 -0.5099 -1.2102 -2.2501
 4322SOL    HW224600   3.668   0.437   8.916  0.7185  0.4972  0.0937
 4323SOL     OW24601   1.216   2.857   9.682 -0.0678 -0.1539 -0.8358
 4323SOL    HW124602   1.300   2.884   9.643 -1.6340  0.3899 -3.7730
 4323SOL    HW224603   1.167   2.938   9.687  2.1335  1.2881 -2.4575
 4324SOL     OW24604   2.908   4.437   6.053  0.0257  0.1002  0.3919
 4324SOL    HW124605   2.814   4.440   6.073 -0.2997  0.1784 -1.1317
 4324SOL    HW224606   2.904   4.453   5.958 -1.5181 -1.3164  0.2045
 4325SOL     OW24607   1.080   2.219   9.819 -0.3368  0.0871  0.0403
 4325SOL    HW124608   1.096   2.176   9.903  0.8076 -2.0318 -1.2727
 4325SOL    HW224609   0.984   2.227   9.820 -0.4020 -1.0045  2.0202
 4326SOL     OW24610   0.282   2.590   5.456 -0.1364  0.6394 -0.5474
 4326SOL    HW124611   0.361   2.536   5.445  0.5048  1.1054  1.8453
 4326SOL    HW224612   0.211   2.530   5.476  2.3384 -1.9270  0.5133
 4327SOL     OW24613   2.842   0.750   8.957  0.2129 -0.0734  0.4442
 4327SOL    HW124614   2.752   0.738   8.928 -0.1348 -1.6373  2.1713
 4327SOL    HW224615   2.874   0.773   8.870 -1.6538 -0.8936 -0.4673
 4328SOL     OW24616   3.130   2.368   2.191 -0.1639  0.2228 -0.0242
 4328SOL    HW124617   3.108   2.460   2.176 -0.7043  0.1804  0.5264
 4328SOL    HW224618   3.224   2.366   2.172 -0.0787  3.4323  0.1620
 4329SOL     OW24619   0.407   1.610   6.342  0.5801  0.0202 -0.4931
 4329SOL    HW124620   0.502   1.624   6.340  0.2874  2.3370  2.0595
 4329SOL    HW224621   0.396   1.595   6.248 -1.4820  0.0560 -0.2491
 4330SOL     OW24622   2.705   1.905   2.440 -0.1992 -0.0671  0.1442
 4330SOL    HW124623   2.620   1.880   2.405 -0.3989 -0.5517  0.9696
 4330SOL    HW224624   2.740   1.819   2.465  0.5815  0.2738  0.2437
 4331SOL     OW24625   3.493   3.771  15.492  0.1697  0.5262 -0.3422
 4331SOL    HW124626   3.566   3.722  15.455  0.9462 -0.4550  2.4661
 4331SOL    HW224627   3.422   3.758  15.429 -0.3701 -0.1552  0.4010
 4332SOL     OW24628   2.642   4.711   7.191 -1.0184 -0.2913 -0.9346
 4332SOL    HW124629   2.677   0.055   7.157  1.5513 -1.4217 -1.0216
 4332SOL    HW224630   2.560   0.008   7.225 -0.7938  0.9802 -1.7130
 4333SOL     OW24631   1.856   2.304   3.525  0.1744 -0.3152  0.6498
 4333SOL    HW124632   1.941   2.313   3.482 -0.6112  0.4733 -0.7442
 4333SOL    HW224633   1.819   2.391   3.506  0.7405 -0.6150 -1.7752
 4334SOL     OW24634   0.468   3.006   0.378 -0.1755 -0.4841  0.0589
 4334SOL    HW124635   0.428   3.051   0.304  0.5925 -0.2249 -0.1958
 4334SOL    HW224636   0.488   3.077   0.439  2.7212 -0.6295 -0.7196
 4335SOL     OW24637   0.863   2.873   5.182 -0.0235 -0.3989  0.8365
 4335SOL    HW124638   0.903   2.905   5.262  0.5164  2.4144 -0.5279
 4335SOL    HW224639   0.809   2.803   5.218 -2.6614  0.9246 -0.4992
 4336SOL     OW24640   4.084   1.213   4.708 -0.3033  0.0910  0.0640
 4336SOL    HW124641   4.157   1.261   4.748 -1.0507  1.0222  0.3143
 4336SOL    HW224642   4.105   1.121   4.720  1.8849  0.5902  0.1094
 4337SOL     OW24643   0.647   3.314   7.866 -0.9398 -0.1148  0.1860
 4337SOL    HW124644   0.663   3.406   7.849 -2.3203 -0.3746 -2.7483
 4337SOL    HW224645   0.729   3.285   7.827 -1.0215  0.5389 -0.4697
 4338SOL     OW24646   0.583   3.284   9.060 -0.1773 -0.3758  0.2543
 4338SOL    HW124647   0.503   3.324   9.094  0.2295  0.2197  0.5279
 4338SOL    HW224648   0.561   3.191   9.055  0.2394 -0.6491  3.4722
 4339SOL     OW24649   4.579   0.704   8.827 -0.3552 -0.6658  0.1944
 4339SOL    HW124650   4.579   0.610   8.813  0.1092 -0.3642 -1.7176
 4339SOL    HW224651   4.609   0.719   8.917  0.4150 -1.0169 -0.0037
 4340SOL     OW24652   0.366   1.866   5.933 -0.3966 -0.3195  0.1417
 4340SOL    HW124653   0.413   1.877   5.850 -1.9242  0.6833 -0.5913
 4340SOL    HW224654   0.415   1.906   6.005 -0.4853  0.7248 -0.3689
 4341SOL     OW24655   3.985   4.559   1.680  0.4366  0.5473 -0.1409
 4341SOL    HW124656   3.991   4.651   1.655 -2.3866  0.7305 -0.1901
 4341SOL    HW224657   4.021   4.517   1.601  2.2372 -0.3870  1.1800
 4342SOL     OW24658   2.235   1.951   4.852  0.3580  0.5492  0.1647
 4342SOL    HW124659   2.191   1.924   4.933 -1.9285  0.2951 -1.1653
 4342SOL    HW224660   2.288   1.871   4.842  0.3734  0.4717  0.8954
 4343SOL     OW24661   0.824   2.943   3.741 -0.3492 -0.3868  0.5854
 4343SOL    HW124662   0.886   2.887   3.695 -0.6024 -1.9814  2.1990
 4343SOL    HW224663   0.765   2.955   3.666 -0.6695  0.2678  0.9392
 4344SOL     OW24664   2.405   2.971   9.750  0.1721 -0.2256 -0.4669
 4344SOL    HW124665   2.477   2.959   9.812 -0.1521  0.3361  0.0266
 4344SOL    HW224666   2.323   2.936   9.785  0.0470  0.3303 -0.2038
 4345SOL     OW24667   0.176   1.679   1.045 -0.9102  0.0980  0.1120
 4345SOL    HW124668   0.194   1.668   1.138  0.0260 -0.8885 -0.1889
 4345SOL    HW224669   0.151   1.593   1.011  0.6905 -0.7384  1.0668
 4346SOL     OW24670   3.352   4.373   5.194  0.1420  0.1621 -0.6178
 4346SOL    HW124671   3.276   4.403   5.144 -0.5864 -0.0578  0.3585
 4346SOL    HW224672   3.313   4.288   5.216  2.5196 -0.5880  0.6297
 4347SOL     OW24673   1.368   2.362   2.698 -0.5656  0.4862  0.5867
 4347SOL    HW124674   1.326   2.301   2.638  3.9727 -0.4787 -1.5430
 4347SOL    HW224675   1.336   2.323   2.780 -0.9431 -1.1198 -0.3471
 4348SOL     OW24676   4.174   0.718  12.172 -0.1755 -0.7433 -0.0723
 4348SOL    HW124677   4.091   0.695  12.213  0.4769 -1.0169  1.1285
 4348SOL    HW224678   4.160   0.697  12.080 -3.6125 -1.2458  0.5844
 4349SOL     OW24679   4.005   0.737   9.288  0.0459 -0.1496 -0.4311
 4349SOL    HW124680   3.976   0.733   9.197  0.3919 -2.0297 -0.4663
 4349SOL    HW224681   3.954   0.813   9.314  0.0285 -0.3820  0.2053
 4350SOL     OW24682   2.382   4.059  17.545  0.1954 -0.3321 -0.2630
 4350SOL    HW124683   2.347   4.148  17.539  0.4083 -0.2873 -0.8418
 4350SOL    HW224684   2.463   4.076  17.594 -0.0727  2.1733 -0.6933
 4351SOL     OW24685   2.551   0.650  10.757  0.2419 -0.2139 -0.3902
 4351SOL    HW124686   2.535   0.664  10.850 -2.4248 -3.5124 -0.3149
 4351SOL    HW224687   2.520   0.736  10.728 -0.1272 -0.1186  0.2934
 4352SOL     OW24688   2.343   0.228   5.000 -0.5536 -0.3014 -0.5530
 4352SOL    HW124689   2.297   0.304   5.037  0.3586 -0.8578  1.7091
 4352SOL    HW224690   2.385   0.204   5.082 -0.0476 -0.0283 -0.7338
 4353SOL     OW24691   2.197   0.409   8.454 -0.0777  0.3118  0.3227
 4353SOL    HW124692   2.185   0.498   8.486  1.6743  1.0156 -0.9169
 4353SOL    HW224693   2.286   0.405   8.417 -0.4744  0.0618 -0.5954
 4354SOL     OW24694   4.182   0.412   8.206 -0.4342 -0.0790 -0.0067
 4354SOL    HW124695   4.161   0.407   8.113 -2.0722  0.2508  0.3311
 4354SOL    HW224696   4.144   0.336   8.249  2.8068 -2.0043 -0.5966
 4355SOL     OW24697   4.467   1.843   2.524  0.3635 -0.5438  0.1209
 4355SOL    HW124698   4.444   1.770   2.466  0.7792 -0.7242  0.1804
 4355SOL    HW224699   4.452   1.802   2.609 -0.0057  0.1794  0.3994
 4356SOL     OW24700   4.547   1.246  12.464  0.4202  0.4019  0.2231
 4356SOL    HW124701   4.482   1.271  12.529  0.3793  2.5814 -0.6674
 4356SOL    HW224702   4.625   1.276  12.513  1.5916 -0.3600 -1.1789
 4357SOL     OW24703   0.777   4.654   6.678  0.2617 -0.4809 -0.4847
 4357SOL    HW124704   0.744   4.660   6.768  0.0551 -0.1584 -0.5822
 4357SOL    HW224705   0.725   4.581   6.644 -0.7674  0.3398 -0.6626
 4358SOL     OW24706   1.298   4.114   2.018  0.5395  0.3615 -0.5538
 4358SOL    HW124707   1.330   4.204   2.020 -2.6338  1.4511  1.2169
 4358SOL    HW224708   1.206   4.129   2.037  1.0763  2.9179  0.1160
 4359SOL     OW24709   4.721   1.786   7.524 -0.4274 -0.3820 -0.0902
 4359SOL    HW124710   4.712   1.844   7.449 -2.4560  1.3307  1.5066
 4359SOL    HW224711   4.733   1.706   7.472 -0.5719 -1.3192  1.2930
 4360SOL     OW24712   3.470   1.519   6.773 -0.2027 -0.1196 -0.2302
 4360SOL    HW124713   3.429   1.432   6.778  0.2591 -0.3589 -0.5658
 4360SOL    HW224714   3.551   1.504   6.725  1.1425 -0.4869  2.1589
 4361SOL     OW24715   3.418   3.136   3.998 -0.0281 -0.2268 -0.1445
 4361SOL    HW124716   3.497   3.173   3.960  0.3512 -0.5872  0.2810
 4361SOL    HW224717   3.390   3.077   3.928  0.2530  2.7372 -2.7554
 4362SOL     OW24718   2.613   1.876  13.737  0.2361 -0.3442  0.0478
 4362SOL    HW124719   2.518   1.891  13.730  0.5304  0.9053 -1.2893
 4362SOL    HW224720   2.644   1.892  13.648 -2.8617 -1.3600 -1.2347
 4363SOL     OW24721   0.348   3.442   7.943  0.8284 -0.9169 -0.1818
 4363SOL    HW124722   0.432   3.408   7.972  0.7012 -0.1423  1.1037
 4363SOL    HW224723   0.301   3.364   7.911  0.6011  0.1643 -2.4650
 4364SOL     OW24724   1.035   3.515   7.071  0.5461 -0.7079 -0.6620
 4364SOL    HW124725   1.018   3.422   7.058 -1.1004 -0.5283  0.3370
 4364SOL    HW224726   0.959   3.546   7.022  1.8770  3.0162 -0.3947
 4365SOL     OW24727   0.772   4.684   7.934  0.1664  0.0386 -0.1713
 4365SOL    HW124728   0.803   0.031   7.903  0.7758 -0.4330 -0.8618
 4365SOL    HW224729   0.772   4.695   8.029 -2.9778 -0.6645 -0.0894
 4366SOL     OW24730   1.294   3.327   4.437 -0.2196  0.1757 -0.7707
 4366SOL    HW124731   1.290   3.305   4.530 -0.7223 -0.2498 -0.8948
 4366SOL    HW224732   1.363   3.393   4.445  2.8973 -3.2288  0.4104
 4367SOL     OW24733   1.604   0.128   3.536  0.0762  0.5309  0.4876
 4367SOL    HW124734   1.529   0.181   3.510  2.0219  1.9426 -2.2664
 4367SOL    HW224735   1.598   0.041   3.499  1.4061  0.6062  0.0699
 4368SOL     OW24736   1.217   4.256   3.717 -0.0037  0.1864 -0.0567
 4368SOL    HW124737   1.129   4.293   3.707 -0.5911 -0.3225  3.4240
 4368SOL    HW224738   1.223   4.178   3.663  2.4718  0.7593 -0.6182
 4369SOL     OW24739   1.432   2.690   6.190  0.4581  0.2070  1.1050
 4369SOL    HW124740   1.431   2.738   6.107  2.1597  0.5734  1.3082
 4369SOL    HW224741   1.483   2.615   6.160 -0.8066 -0.2730  0.1163
 4370SOL     OW24742   3.596   3.496  17.061  0.4832  0.3348  0.5276
 4370SOL    HW124743   3.570   3.587  17.071  0.8955  0.6705 -1.4606
 4370SOL    HW224744   3.508   3.460  17.052  0.5332  0.8611 -2.0733
 4371SOL     OW24745   2.154   3.276  14.177 -0.3585  0.6720 -0.3313
 4371SOL    HW124746   2.135   3.185  14.200  1.4379  0.0443 -1.3412
 4371SOL    HW224747   2.170   3.253  14.086 -3.4127 -0.0037 -0.7149
 4372SOL     OW24748   2.351   2.279  12.750 -0.1021  1.0881 -0.2792
 4372SOL    HW124749   2.419   2.273  12.682 -1.6883  2.6672 -1.9900
 4372SOL    HW224750   2.313   2.366  12.738  0.8531  1.3509 -1.5145
 4373SOL     OW24751   1.584   1.183   6.486 -0.3388 -0.4457  0.2381
 4373SOL    HW124752   1.521   1.235   6.535  0.2580  2.4554 -2.1321
 4373SOL    HW224753   1.566   1.220   6.399  4.2014  0.0670 -0.4513
 4374SOL     OW24754   1.839   0.830   6.574  0.1672 -0.1576  0.1981
 4374SOL    HW124755   1.752   0.829   6.614  0.3916 -0.3077  0.6840
 4374SOL    HW224756   1.831   0.863   6.484 -1.4088 -0.3488  0.2626
 4375SOL     OW24757   4.041   2.659   0.645 -0.4961  0.2051 -0.2482
 4375SOL    HW124758   4.120   2.606   0.639  0.3969  1.2057  2.7434
 4375SOL    HW224759   4.083   2.745   0.652  1.2757 -0.8189  1.6876
 4376SOL     OW24760   1.415   2.503  12.294  0.1411 -0.2040 -0.4125
 4376SOL    HW124761   1.440   2.593  12.315 -2.1361  0.5940 -1.1170
 4376SOL    HW224762   1.343   2.491  12.356  0.4345 -1.8299 -0.3704
 4377SOL     OW24763   4.386   1.343   6.185 -0.3364 -0.0581 -0.5681
 4377SOL    HW124764   4.358   1.430   6.213  0.8776 -0.1527  0.9520
 4377SOL    HW224765   4.415   1.303   6.267  0.3429 -0.9457 -1.2504
 4378SOL     OW24766   0.378   0.586   8.889 -0.3548 -0.4356 -0.2627
 4378SOL    HW124767   0.327   0.509   8.913 -0.1418 -1.1711 -2.1459
 4378SOL    HW224768   0.398   0.621   8.976  1.4142 -1.9475 -0.0594
 4379SOL     OW24769   1.646   1.055   6.156  0.3310  0.4035  0.6545
 4379SOL    HW124770   1.692   1.084   6.077 -0.9260  0.7868  0.0601
 4379SOL    HW224771   1.600   1.130   6.193 -1.0848  0.0391 -0.3692
 4380SOL     OW24772   0.039   1.976   4.345 -0.0362  0.2886 -0.3551
 4380SOL    HW124773   0.040   1.885   4.317 -0.9191  0.6304 -1.4658
 4380SOL    HW224774   0.120   2.009   4.305  0.0287  0.5941  0.0195
 4381SOL     OW24775   0.313   3.467   2.661  0.1002 -0.1902  0.0542
 4381SOL    HW124776   0.342   3.532   2.597 -1.4124  0.0517 -0.3786
 4381SOL    HW224777   0.253   3.413   2.610  0.7955 -0.2540 -0.6928
 4382SOL     OW24778   0.517   2.048  13.224 -0.0737 -0.0250  0.5892
 4382SOL    HW124779   0.527   2.030  13.318  0.6545 -0.0968  0.4994
 4382SOL    HW224780   0.429   2.013  13.213  1.2889 -3.4132  0.2923
 4383SOL     OW24781   0.033   3.580   5.134 -0.2058 -0.4116  0.4628
 4383SOL    HW124782   0.127   3.561   5.126 -0.6230 -2.3073  0.0394
 4383SOL    HW224783   0.040   3.656   5.192 -1.6809 -0.3416  0.5468
 4384SOL     OW24784   1.186   1.860   5.737  0.1894  0.4984  0.0033
 4384SOL    HW124785   1.250   1.805   5.691 -1.5733  0.2545 -2.1363
 4384SOL    HW224786   1.233   1.881   5.818  2.7446 -0.1225 -1.3370
 4385SOL     OW24787   0.585   3.092  16.722 -0.2998 -0.4301  0.5016
 4385SOL    HW124788   0.492   3.080  16.743 -0.3439 -0.1809  0.4417
 4385SOL    HW224789   0.628   3.091  16.807  0.5376 -2.3825  0.0540
 4386SOL     OW24790   2.574   4.192   7.394 -0.1091 -0.2677 -0.2739
 4386SOL    HW124791   2.554   4.286   7.392 -1.3839 -0.5607 -0.7747
 4386SOL    HW224792   2.661   4.186   7.355 -0.7013 -0.5509 -1.5350
 4387SOL     OW24793   0.984   4.039  13.690  0.1784 -0.2257  0.3904
 4387SOL    HW124794   0.939   4.123  13.698 -1.2520 -1.1467  1.9447
 4387SOL    HW224795   1.007   4.030  13.598  1.5609  0.9889  0.6253
 4388SOL     OW24796   1.193   2.056   6.831  0.0421  0.0687 -0.2659
 4388SOL    HW124797   1.197   2.138   6.881  0.4922 -0.0695 -0.0822
 4388SOL    HW224798   1.248   2.085   6.759 -1.5069  1.0780 -1.0573
 4389SOL     OW24799   4.220   1.117  11.907  0.1870  0.0034  0.8013
 4389SOL    HW124800   4.267   1.046  11.951  0.6484 -0.9806 -1.2599
 4389SOL    HW224801   4.206   1.182  11.976  3.3192  3.1330 -1.5256
 4390SOL     OW24802   4.209   2.327   2.309 -0.0128  0.1059 -0.3384
 4390SOL    HW124803   4.148   2.396   2.334  0.0156  0.0524 -0.1209
 4390SOL    HW224804   4.277   2.381   2.270  1.8693 -0.7675  1.7604
 4391SOL     OW24805   0.654   0.799   7.142 -0.0714 -0.2572  0.0409
 4391SOL    HW124806   0.607   0.717   7.155 -0.3035 -0.0848  0.2932
 4391SOL    HW224807   0.577   0.856   7.153  1.4507  1.5274  1.4617
 4392SOL     OW24808   4.383   1.900  17.052  0.6436  0.0811 -0.1319
 4392SOL    HW124809   4.437   1.854  16.988 -0.5557 -1.4829 -0.0055
 4392SOL    HW224810   4.448   1.927  17.116  1.5494 -1.3743 -0.4563
 4393SOL     OW24811   1.346   4.265  14.975  0.0355 -0.3758  0.2637
 4393SOL    HW124812   1.310   4.181  15.004  0.4756 -0.3937  0.7718
 4393SOL    HW224813   1.436   4.260  15.008  0.6655 -0.8241 -1.5189
 4394SOL     OW24814   3.836   4.153   9.511 -0.4693 -0.0330  0.5386
 4394SOL    HW124815   3.748   4.130   9.480  0.7141  1.1633 -3.6991
 4394SOL    HW224816   3.863   4.225   9.455 -1.9039  0.9436  1.1186
 4395SOL     OW24817   1.400   1.102  15.052  0.6343  0.1846  0.2995
 4395SOL    HW124818   1.492   1.082  15.040  0.3846  0.2137 -1.5882
 4395SOL    HW224819   1.365   1.013  15.063  0.7297  0.0818 -0.2384
 4396SOL     OW24820   3.330   0.521   7.909 -0.3978  0.1304  0.2760
 4396SOL    HW124821   3.314   0.503   7.817 -0.7630  0.2351  0.3193
 4396SOL    HW224822   3.304   0.440   7.952 -2.6876  0.7990  0.1333
 4397SOL     OW24823   1.945   1.793  17.236  0.3114  0.2513 -0.6197
 4397SOL    HW124824   1.901   1.815  17.154  0.4790  1.1475 -0.4682
 4397SOL    HW224825   1.904   1.708  17.249  0.9135  0.2899  1.6619
 4398SOL     OW24826   2.076   1.402   1.922 -0.0626  0.4266  0.2353
 4398SOL    HW124827   2.000   1.455   1.900  0.4633  0.7025 -0.9198
 4398SOL    HW224828   2.032   1.317   1.918  2.3983 -0.9406  2.3786
 4399SOL     OW24829   0.384   2.796   9.843 -0.4092 -0.3600  0.3697
 4399SOL    HW124830   0.407   2.863   9.779 -1.0306 -2.4308 -2.0240
 4399SOL    HW224831   0.451   2.792   9.910 -0.0009  0.1093 -0.0154
 4400SOL     OW24832   0.565   2.980   9.064 -0.5800  0.6848  0.6902
 4400SOL    HW124833   0.570   2.886   9.080  0.0263  0.5146 -0.4730
 4400SOL    HW224834   0.649   2.995   9.021 -1.4633 -1.4778 -1.8730
 4401SOL     OW24835   4.067   2.026   1.497 -0.3311 -0.2845  0.9490
 4401SOL    HW124836   4.106   2.005   1.582  1.9054 -1.2919 -0.3045
 4401SOL    HW224837   3.973   2.021   1.513 -0.5048 -0.6348 -0.1807
 4402SOL     OW24838   3.783   1.918   1.484  0.2256  0.1470  0.7255
 4402SOL    HW124839   3.812   1.832   1.455 -2.0531 -0.8388  1.4230
 4402SOL    HW224840   3.700   1.928   1.438 -0.5867  1.1150  2.3713
 4403SOL     OW24841   2.878   3.900  14.847 -0.0847 -0.3577  0.2523
 4403SOL    HW124842   2.788   3.869  14.844  0.0872 -0.8116 -0.2977
 4403SOL    HW224843   2.875   3.985  14.890  1.6194 -0.0259 -0.2732
 4404SOL     OW24844   0.165   4.438  14.956 -0.0018 -0.1586  0.1866
 4404SOL    HW124845   0.149   4.532  14.955 -0.1684 -0.1669  1.6337
 4404SOL    HW224846   0.209   4.436  15.041  0.2043 -1.8974  0.0421
 4405SOL     OW24847   0.183   4.347   8.688 -0.1371 -0.3098  0.9567
 4405SOL    HW124848   0.243   4.303   8.748 -0.2849  0.6721  1.8015
 4405SOL    HW224849   0.191   4.438   8.713  0.5489 -0.3227  0.7862
 4406SOL     OW24850   1.582   3.842   6.580  0.0646 -0.0893  0.2559
 4406SOL    HW124851   1.655   3.901   6.594 -2.2403  2.2183  2.6089
 4406SOL    HW224852   1.502   3.894   6.593 -1.7258 -2.7131 -0.2308
 4407SOL     OW24853   3.901   1.455   4.687  0.3625  0.4933 -0.2595
 4407SOL    HW124854   3.897   1.492   4.776  3.0101 -1.0129  0.4992
 4407SOL    HW224855   3.958   1.384   4.718  0.0103  0.1769 -0.3355
 4408SOL     OW24856   3.042   1.753   3.951 -0.2973 -0.2329 -0.0602
 4408SOL    HW124857   2.970   1.691   3.948  0.4652 -1.0366 -1.5735
 4408SOL    HW224858   3.085   1.733   4.034 -0.3107 -0.1165 -0.0246
 4409SOL     OW24859   0.756   3.301   8.432 -0.1773 -0.2708 -0.1680
 4409SOL    HW124860   0.676   3.260   8.464 -0.2587  1.2858  1.6127
 4409SOL    HW224861   0.761   3.262   8.344 -0.5895 -1.2199  0.2324
 4410SOL     OW24862   2.270   4.298   8.060 -0.2909 -0.1739 -0.2345
 4410SOL    HW124863   2.198   4.360   8.073  0.3473  0.5431 -0.1159
 4410SOL    HW224864   2.283   4.255   8.145  1.2461 -0.5201 -0.6587
 4411SOL     OW24865   2.465   0.736   4.026 -0.4016  0.0892 -0.0179
 4411SOL    HW124866   2.443   0.712   4.116  1.3580  1.3863  0.7593
 4411SOL    HW224867   2.516   0.658   4.004  2.4388  2.4493 -1.7650
 4412SOL     OW24868   4.330   2.273   3.419 -0.2549 -0.5940  0.3751
 4412SOL    HW124869   4.334   2.368   3.409  1.7057 -0.4033  3.0067
 4412SOL    HW224870   4.347   2.252   3.327 -1.6578  0.6813 -0.1805
 4413SOL     OW24871   2.630   1.092   6.695 -0.1091  0.2284 -0.1105
 4413SOL    HW124872   2.721   1.079   6.722 -0.0999  1.9499  0.7294
 4413SOL    HW224873   2.589   1.127   6.774 -3.7269  2.2931 -2.9502
 4414SOL     OW24874   4.640   4.502  13.530  0.0697  0.3101  0.0357
 4414SOL    HW124875   4.592   4.538  13.456  0.0084 -0.4820 -0.3141
 4414SOL    HW224876   4.566   4.471  13.582 -0.2223 -0.4530 -0.8292
 4415SOL     OW24877   1.414   1.311   5.365  0.9695  0.5629 -0.3610
 4415SOL    HW124878   1.321   1.335   5.372  0.5103 -1.2027 -0.3640
 4415SOL    HW224879   1.420   1.272   5.451  1.6781  0.3820 -0.4952
 4416SOL     OW24880   1.644   1.056   7.614 -0.1337 -0.0489 -0.2589
 4416SOL    HW124881   1.665   0.982   7.671  0.3902  1.0789  1.0136
 4416SOL    HW224882   1.601   0.997   7.552 -2.9209 -0.9417  2.5044
 4417SOL     OW24883   4.332   0.920  12.054  0.0848 -0.2053 -0.5866
 4417SOL    HW124884   4.375   0.960  12.130 -1.5903  2.2828 -0.9546
 4417SOL    HW224885   4.278   0.854  12.098  1.9075 -0.7876  0.7844
 4418SOL     OW24886   2.222   3.725   7.388 -0.7141 -0.3933  0.0066
 4418SOL    HW124887   2.193   3.642   7.425  2.9886 -1.1409  1.2149
 4418SOL    HW224888   2.315   3.729   7.413 -0.5391  0.2200 -0.7388
 4419SOL     OW24889   3.436   3.407   6.153 -0.4034  0.7284 -0.6214
 4419SOL    HW124890   3.503   3.348   6.120 -2.7672 -1.9972 -0.4789
 4419SOL    HW224891   3.357   3.365   6.120 -1.7955  1.2268  2.1549
 4420SOL     OW24892   2.213   3.696  16.000  0.4324  0.0388  0.6484
 4420SOL    HW124893   2.255   3.631  15.943  1.4547  0.9829  0.3345
 4420SOL    HW224894   2.217   3.781  15.957 -2.3406  0.0178  0.3679
 4421SOL     OW24895   4.083   1.634   3.318 -0.0008  0.0694  0.2097
 4421SOL    HW124896   4.130   1.700   3.267 -0.2073  0.4936  0.5633
 4421SOL    HW224897   4.004   1.628   3.263  1.7418 -2.1362 -2.0792
 4422SOL     OW24898   0.124   3.853   6.012 -0.7226  0.1160 -0.2857
 4422SOL    HW124899   0.048   3.906   5.989 -0.0475  2.0681  1.9095
 4422SOL    HW224900   0.150   3.822   5.926 -0.6903  0.7589 -0.5079
 4423SOL     OW24901   0.866   2.013   1.977 -0.2209 -0.5036  0.0156
 4423SOL    HW124902   0.818   1.975   2.051 -1.6096  0.2493 -0.4977
 4423SOL    HW224903   0.839   1.950   1.911 -1.5538 -0.5033  0.5549
 4424SOL     OW24904   0.635   1.656  10.905 -0.0136  0.1261 -0.6022
 4424SOL    HW124905   0.576   1.724  10.870 -1.0857  0.2919  1.5630
 4424SOL    HW224906   0.589   1.573  10.892 -1.0040  0.5235  0.3077
 4425SOL     OW24907   3.680   0.582   6.654  0.5194  0.3767 -0.4019
 4425SOL    HW124908   3.687   0.661   6.601  0.0357  1.1767  0.7263
 4425SOL    HW224909   3.674   0.511   6.590 -0.0375 -0.4349  0.5649
 4426SOL     OW24910   3.382   0.073   3.672 -0.2088 -0.0416  0.0828
 4426SOL    HW124911   3.448   0.008   3.649 -1.0777 -0.8056 -0.2774
 4426SOL    HW224912   3.410   0.147   3.618 -2.4483  1.6341  1.1915
 4427SOL     OW24913   3.368   2.901   4.610 -0.1209 -0.1501 -0.1390
 4427SOL    HW124914   3.366   2.995   4.629  0.7391 -0.3303  0.8700
 4427SOL    HW224915   3.291   2.860   4.649 -0.0363  0.7928  1.0411
 4428SOL     OW24916   2.706   2.337  15.687  0.1054  0.0458  0.8393
 4428SOL    HW124917   2.614   2.336  15.714  0.3829 -0.3094  1.7938
 4428SOL    HW224918   2.695   2.310  15.596  1.2775  1.7598  0.1829
 4429SOL     OW24919   1.982   3.486   3.331  0.3038 -0.4656  0.4063
 4429SOL    HW124920   2.022   3.405   3.359  1.8916 -0.5398 -2.0335
 4429SOL    HW224921   1.956   3.531   3.412 -1.6354 -2.2455  0.7729
 4430SOL     OW24922   0.807   2.052   4.708 -0.8927 -0.5633 -0.4799
 4430SOL    HW124923   0.778   2.140   4.682  1.1596  0.4095  0.5630
 4430SOL    HW224924   0.732   2.023   4.760 -1.2137  0.4600 -0.3691
 4431SOL     OW24925   3.253   2.515  14.210  0.8269 -0.2564 -1.2001
 4431SOL    HW124926   3.164   2.488  14.231  0.3746  0.5318 -2.1348
 4431SOL    HW224927   3.293   2.433  14.180 -1.1468 -1.4470 -0.5353
 4432SOL     OW24928   0.880   1.382   2.509  0.1498 -0.2621 -0.1351
 4432SOL    HW124929   0.900   1.429   2.428  0.3791  0.2507  0.2150
 4432SOL    HW224930   0.963   1.333   2.512  1.2900  1.5336 -2.3756
 4433SOL     OW24931   0.517   3.914   9.037  0.8210 -0.2163 -0.1440
 4433SOL    HW124932   0.575   3.914   9.113 -2.1331 -1.6676  2.1480
 4433SOL    HW224933   0.582   3.922   8.968 -0.7817  1.0123 -1.5178
 4434SOL     OW24934   1.733   0.827   2.828  0.3552  0.0235 -0.2556
 4434SOL    HW124935   1.657   0.877   2.859  0.3968  0.7427 -1.3197
 4434SOL    HW224936   1.797   0.878   2.878  0.2927  1.0680 -1.2363
 4435SOL     OW24937   2.884   2.327   0.754 -0.0126  0.1065 -0.5730
 4435SOL    HW124938   2.806   2.301   0.803 -0.1225  1.8087  0.1373
 4435SOL    HW224939   2.951   2.328   0.822  0.2877 -1.7777 -0.8235
 4436SOL     OW24940   3.051   1.256   1.574  0.2624 -0.3037  0.3853
 4436SOL    HW124941   2.984   1.256   1.506 -0.6514 -0.0116  1.2883
 4436SOL    HW224942   3.044   1.172   1.620 -1.2206 -0.5529 -0.3135
 4437SOL     OW24943   2.408   0.473  10.619 -0.1793 -0.3392 -0.0078
 4437SOL    HW124944   2.460   0.394  10.637 -0.5919 -0.3671  1.0673
 4437SOL    HW224945   2.457   0.537  10.670  0.3984 -0.4152 -0.4735
 4438SOL     OW24946   2.521   2.045   5.096 -0.0513  0.1743 -0.0401
 4438SOL    HW124947   2.436   2.001   5.087 -0.7384  1.2735  1.0316
 4438SOL    HW224948   2.516   2.097   5.177  0.3035  1.1629 -0.6598
 4439SOL     OW24949   3.343   3.820   8.904  0.7134  0.2065  0.2612
 4439SOL    HW124950   3.254   3.836   8.873 -0.2189  0.8225  3.1786
 4439SOL    HW224951   3.377   3.909   8.909  1.0390  0.1733 -1.5420
 4440SOL     OW24952   3.331   0.704   5.729  0.2792  0.4738 -0.5732
 4440SOL    HW124953   3.263   0.727   5.793  0.4992 -1.8090  0.4928
 4440SOL    HW224954   3.370   0.789   5.711  0.0133  0.5620 -0.7311
 4441SOL     OW24955   1.168   2.475   6.008  0.0295  0.1152 -0.2270
 4441SOL    HW124956   1.120   2.392   6.003 -1.3287  0.8574  0.4974
 4441SOL    HW224957   1.101   2.532   6.046 -0.6921 -1.9678  1.6781
 4442SOL     OW24958   3.029   3.682   8.187 -0.2141  0.1957 -0.1966
 4442SOL    HW124959   3.044   3.734   8.266 -0.5030  1.8633 -1.2281
 4442SOL    HW224960   2.938   3.709   8.177 -0.2097 -0.1509 -1.1764
 4443SOL     OW24961   0.516   4.145   4.628  0.1084  0.7709  0.0605
 4443SOL    HW124962   0.485   4.125   4.539  1.2646  1.4315 -0.5016
 4443SOL    HW224963   0.561   4.067   4.659  0.3839 -0.4832 -3.4199
 4444SOL     OW24964   3.947   0.690   2.829 -0.1566 -0.1337  0.0835
 4444SOL    HW124965   3.944   0.693   2.733  2.0074  3.0824  0.1120
 4444SOL    HW224966   3.887   0.760   2.854 -2.2070 -1.7764 -0.2163
 4445SOL     OW24967   1.231   3.477   8.489 -0.3994 -0.2533  0.0277
 4445SOL    HW124968   1.181   3.559   8.497 -1.4784 -0.9387  0.2891
 4445SOL    HW224969   1.164   3.409   8.491 -0.6943  0.0516  0.3912
 4446SOL     OW24970   3.097   3.416   4.387  0.1777 -1.0714 -0.1485
 4446SOL    HW124971   3.179   3.382   4.352  1.2017  1.0127  0.1901
 4446SOL    HW224972   3.065   3.338   4.432 -1.7424  0.3026  0.8692
 4447SOL     OW24973   2.239   1.154   6.862 -0.6604 -0.1077  0.0138
 4447SOL    HW124974   2.317   1.168   6.915  0.4969 -0.4469 -1.6005
 4447SOL    HW224975   2.203   1.243   6.855 -3.4831 -1.1820  0.8342
 4448SOL     OW24976   0.538   3.149  11.798  0.3318 -0.4145 -0.9188
 4448SOL    HW124977   0.460   3.190  11.761  0.3186  0.6096  0.2281
 4448SOL    HW224978   0.503   3.060  11.796  0.0701 -0.3163 -0.7310
 4449SOL     OW24979   0.288   1.435   8.716 -0.0503 -0.0451 -0.0508
 4449SOL    HW124980   0.360   1.379   8.688 -1.4599 -1.1676 -1.4306
 4449SOL    HW224981   0.343   1.487   8.775 -1.1125  0.5750  0.3901
 4450SOL     OW24982   0.496   2.047   7.082  0.2434 -0.7089 -0.5350
 4450SOL    HW124983   0.556   2.019   7.013 -2.5616 -3.3526 -1.8896
 4450SOL    HW224984   0.551   2.045   7.160  1.7671  4.1054 -1.4805
 4451SOL     OW24985   4.724   2.841  17.709  0.3659  0.1549 -0.2473
 4451SOL    HW124986   0.032   2.821  17.628  0.8054 -1.6408  0.4293
 4451SOL    HW224987   0.056   2.844   0.024 -1.0143 -0.5909  1.2756
 4452SOL     OW24988   3.037   0.700   3.213  0.5648 -0.6899 -0.1423
 4452SOL    HW124989   3.009   0.651   3.290  1.0948  0.1829  0.6016
 4452SOL    HW224990   3.065   0.778   3.261 -1.0887 -0.4694  0.4573
 4453SOL     OW24991   1.542   2.250   5.597 -0.3342  0.0940 -0.2023
 4453SOL    HW124992   1.494   2.315   5.546 -1.5125 -0.5042  0.1613
 4453SOL    HW224993   1.483   2.175   5.597  1.2242 -1.1343 -1.1790
 4454SOL     OW24994   3.458   0.203  13.448  0.0030  0.7583  0.1298
 4454SOL    HW124995   3.401   0.132  13.420 -1.1913  1.5849  0.4549
 4454SOL    HW224996   3.545   0.164  13.440  0.8257  2.4526  0.6036
 4455SOL     OW24997   3.093   2.840   6.851  0.7502 -0.2428  0.2920
 4455SOL    HW124998   3.183   2.853   6.820  0.8803 -0.1746  0.7002
 4455SOL    HW224999   3.099   2.761   6.905 -0.5756  0.2346  1.1397
 4456SOL     OW25000   0.644   2.566   8.144  0.3354  0.1083 -0.2575
 4456SOL    HW125001   0.605   2.490   8.101  0.7173 -0.5082  0.4838
 4456SOL    HW225002   0.576   2.588   8.208  0.4081  0.0811 -0.1713
 4457SOL     OW25003   2.690   4.242   5.813  0.0655 -0.2351 -0.1600
 4457SOL    HW125004   2.748   4.312   5.785 -1.4872  0.8684 -0.6103
 4457SOL    HW225005   2.739   4.218   5.892  0.9433 -0.1500 -0.6842
 4458SOL     OW25006   4.167   3.902   1.252 -1.1542  0.5212 -0.2428
 4458SOL    HW125007   4.184   3.817   1.211  0.0313  0.8233 -0.3635
 4458SOL    HW225008   4.088   3.928   1.204 -0.5989 -1.1911 -2.0694
 4459SOL     OW25009   2.945   1.678   5.867 -0.3002  0.0854 -0.7154
 4459SOL    HW125010   3.035   1.654   5.845 -0.0498 -1.0247  1.4523
 4459SOL    HW225011   2.946   1.621   5.945  0.3961 -1.7067 -2.0239
 4460SOL     OW25012   4.029   1.336   3.577 -0.0754  0.4208  0.2481
 4460SOL    HW125013   4.010   1.282   3.653 -1.5748  2.1131  1.0700
 4460SOL    HW225014   4.072   1.271   3.522 -0.7434  1.0197 -0.9864
 4461SOL     OW25015   4.660   1.143   8.291 -0.7118 -0.2674  0.1044
 4461SOL    HW125016   4.634   1.171   8.204  1.1424 -0.2903 -0.4620
 4461SOL    HW225017   4.728   1.210   8.297 -0.4153 -0.7172  1.9894
 4462SOL     OW25018   0.451   2.465   9.926 -0.0701 -0.2080 -0.3867
 4462SOL    HW125019   0.433   2.371   9.917  1.5854 -0.7189  1.4755
 4462SOL    HW225020   0.368   2.486   9.884  0.4090 -0.2602 -1.3627
 4463SOL     OW25021   2.895   3.532   3.968 -0.0372  0.0845 -0.8801
 4463SOL    HW125022   2.971   3.476   3.979 -0.9968 -0.6570  2.1006
 4463SOL    HW225023   2.850   3.513   3.886  0.9842 -2.0689 -0.9382
 4464SOL     OW25024   0.653   3.812   3.730  0.3972  0.6098 -0.0662
 4464SOL    HW125025   0.592   3.740   3.713  2.6523 -0.9062 -1.7906
 4464SOL    HW225026   0.631   3.866   3.654 -1.4695 -0.9185 -0.6417
 4465SOL     OW25027   4.351   3.781  13.438  0.5640 -0.0766  0.2746
 4465SOL    HW125028   4.333   3.773  13.531 -1.9780 -0.9811 -0.2702
 4465SOL    HW225029   4.433   3.829  13.446  0.2266  0.6124 -0.4175
 4466SOL     OW25030   3.053   3.553   3.128  0.5840  0.5546  0.2219
 4466SOL    HW125031   2.971   3.585   3.091  0.7441  1.6166  0.7793
 4466SOL    HW225032   3.106   3.547   3.049  1.7167  2.2502  0.8366
 4467SOL     OW25033   3.267   0.097  10.299  0.1693 -0.5103 -0.2350
 4467SOL    HW125034   3.300   0.183  10.324  0.2174 -0.0490 -1.8853
 4467SOL    HW225035   3.331   0.072  10.233  0.9693  0.2777  0.2518
 4468SOL     OW25036   3.908   1.778   2.180 -0.4233  0.0584 -0.0313
 4468SOL    HW125037   3.855   1.726   2.241  1.1151  0.1533  1.3759
 4468SOL    HW225038   3.921   1.857   2.232  0.9954  0.4167 -0.9383
 4469SOL     OW25039   0.754   2.945  17.569 -0.1908 -0.5103  0.2333
 4469SOL    HW125040   0.842   2.938  17.606 -0.3729  0.7556  0.9245
 4469SOL    HW225041   0.758   3.012  17.501  0.5933 -1.5412 -0.7147
 4470SOL     OW25042   1.134   0.983   9.667 -0.2128  0.6278  0.1303
 4470SOL    HW125043   1.114   0.924   9.594  0.2905  2.0873 -1.1885
 4470SOL    HW225044   1.185   1.046   9.615  1.2036 -0.8918 -0.3114
 4471SOL     OW25045   0.027   1.649   3.527 -0.0385 -0.0793 -0.0350
 4471SOL    HW125046   0.013   1.642   3.621 -1.4632 -0.9632 -0.3088
 4471SOL    HW225047   4.698   1.716   3.518 -1.3635 -1.3289  0.4756
 4472SOL     OW25048   3.285   0.036   4.524  0.1098  0.0570  0.6710
 4472SOL    HW125049   3.246   0.013   4.608 -0.4018 -2.2547 -0.1636
 4472SOL    HW225050   3.238   4.715   4.464  0.4029  0.6321 -0.1339
 4473SOL     OW25051   4.682   0.331  14.177 -0.3809 -0.0639 -0.3397
 4473SOL    HW125052   4.610   0.355  14.236  0.0088 -0.7479  0.4141
 4473SOL    HW225053   4.724   0.257  14.222 -1.1673 -0.8107 -0.8444
 4474SOL     OW25054   1.175   4.463  14.645 -0.1883  0.2545 -0.5225
 4474SOL    HW125055   1.215   4.435  14.562  0.9202  1.9114 -0.5363
 4474SOL    HW225056   1.124   4.537  14.613 -1.8981 -1.2924 -1.3770
 4475SOL     OW25057   2.021   0.674   0.153  0.5154  0.3606 -0.1092
 4475SOL    HW125058   2.048   0.679   0.062  0.1595  0.7256 -0.1944
 4475SOL    HW225059   2.062   0.749   0.197  0.2918  0.2703  0.2615
 4476SOL     OW25060   1.785   2.691   7.461  0.2860  0.0153  0.1836
 4476SOL    HW125061   1.811   2.781   7.480  0.2307  0.3856 -1.5433
 4476SOL    HW225062   1.734   2.669   7.540 -1.0253  0.2486 -0.6026
 4477SOL     OW25063   1.571   3.849  11.795  0.5548 -0.0482  0.3677
 4477SOL    HW125064   1.531   3.792  11.861 -0.8382  1.8622  1.1588
 4477SOL    HW225065   1.492   3.872  11.747 -0.1597 -2.0236  0.6049
 4478SOL     OW25066   4.299   0.199   5.695  0.9327  0.6148 -0.1914
 4478SOL    HW125067   4.326   0.133   5.759 -1.1708 -0.7221 -0.6593
 4478SOL    HW225068   4.358   0.271   5.712  0.8737  0.5978  0.0798
 4479SOL     OW25069   0.894   0.144   5.017 -0.2274  0.8911  0.1468
 4479SOL    HW125070   0.803   0.112   5.018  0.1352 -0.0738  2.0479
 4479SOL    HW225071   0.930   0.124   5.103 -0.1589  2.4708  0.5004
 4480SOL     OW25072   3.902   1.987   2.358 -0.4306  0.1227  0.0549
 4480SOL    HW125073   3.871   2.063   2.308 -0.8028 -0.7307 -1.0082
 4480SOL    HW225074   3.838   1.995   2.428 -1.7743  2.2496 -1.3993
 4481SOL     OW25075   3.398   0.997   5.334 -0.3538  0.1228 -0.0297
 4481SOL    HW125076   3.436   1.009   5.247  1.1577  0.7648  0.7339
 4481SOL    HW225077   3.451   0.923   5.362  0.4572  0.6393 -0.2112
 4482SOL     OW25078   2.413   3.618   2.738  0.2330 -0.0471  0.4637
 4482SOL    HW125079   2.465   3.538   2.728  1.3588  0.6855  0.4067
 4482SOL    HW225080   2.417   3.629   2.833  2.7232  1.9312  0.1490
 4483SOL     OW25081   1.657   1.050  15.016 -0.6442  0.1238 -0.1108
 4483SOL    HW125082   1.706   1.119  14.970  1.6087 -0.1856  1.8128
 4483SOL    HW225083   1.674   1.063  15.109 -1.3959 -1.8346  0.3049
 4484SOL     OW25084   3.414   2.366   5.581 -0.3743  0.3279 -0.5123
 4484SOL    HW125085   3.427   2.287   5.632 -1.7847 -0.2052 -1.0041
 4484SOL    HW225086   3.462   2.432   5.632  1.3691  0.4652 -2.3167
 4485SOL     OW25087   1.589   0.673   8.405 -0.0913  0.1075  0.2527
 4485SOL    HW125088   1.623   0.584   8.415 -0.0153  0.2384  1.1628
 4485SOL    HW225089   1.545   0.685   8.489  0.6775 -1.3830  0.8753
 4486SOL     OW25090   0.003   0.894   8.374  0.2694  0.7255 -0.1749
 4486SOL    HW125091   0.030   0.918   8.463  0.6889  0.1598 -0.1471
 4486SOL    HW225092   4.710   0.978   8.340 -1.3647  0.9294  1.7808
 4487SOL     OW25093   1.114   3.775   9.242 -0.2542 -0.6248 -0.1127
 4487SOL    HW125094   1.085   3.809   9.157  1.9529  1.9236  0.1692
 4487SOL    HW225095   1.051   3.708   9.267 -0.5719 -0.2489  0.0889
 4488SOL     OW25096   0.017   1.575   1.912  0.2562 -0.1235  0.0515
 4488SOL    HW125097   4.688   1.516   1.878  3.1313 -2.3437 -1.7152
 4488SOL    HW225098   4.713   1.629   1.979 -0.2591  0.6459 -0.8849
 4489SOL     OW25099   1.739   0.376   5.489  0.5513 -0.2824 -0.4714
 4489SOL    HW125100   1.738   0.468   5.517  0.8053 -0.5889  0.5698
 4489SOL    HW225101   1.822   0.369   5.442  1.3573  1.1541  0.7054
 4490SOL     OW25102   3.664   2.182   6.341  0.3447 -0.1064 -0.3639
 4490SOL    HW125103   3.732   2.118   6.321  0.6624 -0.0103  0.4085
 4490SOL    HW225104   3.595   2.119   6.359 -1.0827  1.7023  0.4012
 4491SOL     OW25105   1.091   0.591  15.288  0.0050 -0.0374  0.0267
 4491SOL    HW125106   1.166   0.614  15.233 -0.1253  0.6885  0.1526
 4491SOL    HW225107   1.042   0.526  15.238  0.4969  1.8610 -2.9381
 4492SOL     OW25108   3.453   2.180  10.777 -0.3584 -0.1009 -0.3319
 4492SOL    HW125109   3.528   2.189  10.836 -1.1433 -0.4373  0.7231
 4492SOL    HW225110   3.478   2.223  10.695 -1.4302 -1.4679 -1.3892
 4493SOL     OW25111   3.026   2.077   7.585  0.3301 -0.0940  0.1663
 4493SOL    HW125112   2.962   2.147   7.598  0.7118  0.0824  1.1127
 4493SOL    HW225113   2.976   1.998   7.605  0.5054  0.2790  2.0289
 4494SOL     OW25114   1.238   1.421   2.348 -0.2678 -0.4271 -0.0844
 4494SOL    HW125115   1.197   1.384   2.426  0.6435 -1.0145  0.1009
 4494SOL    HW225116   1.171   1.379   2.293  0.3825  0.3646 -1.4922
 4495SOL     OW25117   4.308   1.522  10.476  0.4414  0.5190 -0.0985
 4495SOL    HW125118   4.235   1.484  10.523  1.5019 -1.7479 -0.2816
 4495SOL    HW225119   4.358   1.553  10.551  0.8989 -0.4270 -0.0124
 4496SOL     OW25120   1.069   0.895   4.522 -0.0062  0.3883  0.8067
 4496SOL    HW125121   1.085   0.981   4.484  3.9715 -1.6777 -2.2812
 4496SOL    HW225122   1.100   0.837   4.452 -0.9699  0.9212 -0.0472
 4497SOL     OW25123   2.262   3.805   3.254 -0.4537 -0.5324  0.8499
 4497SOL    HW125124   2.268   3.745   3.328 -0.1968 -0.5162  0.8414
 4497SOL    HW225125   2.244   3.884   3.305  0.7487  0.9424 -1.0105
 4498SOL     OW25126   2.829   1.498   8.097 -0.7701 -0.0144  0.4710
 4498SOL    HW125127   2.843   1.433   8.028 -1.6939 -0.0015  0.2580
 4498SOL    HW225128   2.806   1.446   8.174  0.5133 -0.3322  0.6334
 4499SOL     OW25129   0.896   2.540  15.414 -0.4121 -0.4415  1.2118
 4499SOL    HW125130   0.992   2.530  15.411 -0.2832  1.2870  0.1000
 4499SOL    HW225131   0.870   2.490  15.337 -1.9195  3.7961 -1.0079
 4500SOL     OW25132   3.421   0.796   3.783  0.2992 -0.3612 -0.0931
 4500SOL    HW125133   3.484   0.791   3.856 -1.2015  0.4466  1.2575
 4500SOL    HW225134   3.466   0.865   3.735 -0.2215  1.6211  2.2845
 4501SOL     OW25135   4.487   2.500   3.586 -0.1641 -0.2232  0.5165
 4501SOL    HW125136   4.436   2.520   3.507  0.0335 -0.7217  0.2650
 4501SOL    HW225137   4.552   2.569   3.571  0.0375 -0.2646  1.2126
 4502SOL     OW25138   4.602   3.151   3.074 -0.6970 -0.1970  0.7084
 4502SOL    HW125139   4.583   3.207   3.149 -1.1518  0.3120  0.2130
 4502SOL    HW225140   4.549   3.073   3.093 -0.9646  0.1748  1.5061
 4503SOL     OW25141   3.995   3.767   5.308 -0.2327  0.1152  0.1194
 4503SOL    HW125142   3.936   3.835   5.275  1.1255  0.4299 -1.6396
 4503SOL    HW225143   4.039   3.828   5.367 -3.3809  1.0435  1.5270
 4504SOL     OW25144   0.063   0.489   9.012 -0.2566  0.1308 -0.2869
 4504SOL    HW125145   0.070   0.578   9.046  0.6820  0.0721 -0.3434
 4504SOL    HW225146   0.095   0.438   9.087 -0.1551  0.0386 -0.3925
 4505SOL     OW25147   3.783   4.310   4.683  0.1049  0.3984  0.1040
 4505SOL    HW125148   3.791   4.405   4.673 -0.9315  0.5974  1.2747
 4505SOL    HW225149   3.712   4.286   4.623 -0.5451  1.7801  0.3228
 4506SOL     OW25150   4.214   1.689  10.005  0.6091  0.1769 -0.2458
 4506SOL    HW125151   4.197   1.645  10.088  1.7066 -2.0723 -1.2193
 4506SOL    HW225152   4.236   1.608   9.959  1.8630 -0.8245  2.1650
 4507SOL     OW25153   0.689   1.435   8.586  0.2864  0.2430 -0.6218
 4507SOL    HW125154   0.713   1.391   8.504  0.5654 -1.3218  0.3006
 4507SOL    HW225155   0.607   1.396   8.617 -1.0606  2.4107 -1.4102
 4508SOL     OW25156   3.067   2.010   5.532 -0.4076 -1.3094 -0.7795
 4508SOL    HW125157   3.131   1.962   5.584 -0.0125  0.7792  0.6654
 4508SOL    HW225158   3.051   1.968   5.447 -1.2009 -0.6298 -0.9613
 4509SOL     OW25159   0.922   1.241   7.344 -0.0657  0.1124  0.1635
 4509SOL    HW125160   0.928   1.178   7.415 -0.4694  0.2049  0.2799
 4509SOL    HW225161   0.833   1.237   7.309 -0.6690  3.9708  1.2649
 4510SOL     OW25162   3.874   0.035   9.827  0.6104  0.2524  0.2504
 4510SOL    HW125163   3.883   0.092   9.903  0.8550  0.4623  0.0637
 4510SOL    HW225164   3.865   0.094   9.753  1.9882 -0.4769 -0.4982
 4511SOL     OW25165   1.349   2.989   5.483  0.4021  0.1018  0.1594
 4511SOL    HW125166   1.443   3.002   5.497  0.5724 -1.4384  0.4252
 4511SOL    HW225167   1.336   2.909   5.533 -0.4404  0.0873 -0.0879
 4512SOL     OW25168   0.933   1.884   6.804  0.1266  0.2770  0.1937
 4512SOL    HW125169   0.999   1.897   6.736  1.2714 -2.5256  0.7956
 4512SOL    HW225170   0.985   1.926   6.873 -0.8833  0.2957  0.9303
 4513SOL     OW25171   0.354   2.742  14.143  0.2484 -0.1140  0.5871
 4513SOL    HW125172   0.423   2.768  14.204  0.0810 -0.3295  0.8652
 4513SOL    HW225173   0.326   2.833  14.131  0.7195 -0.0411  0.0397
 4514SOL     OW25174   1.925   3.218   3.923  0.3041  0.0435  0.0789
 4514SOL    HW125175   1.912   3.155   3.852 -1.2181 -1.9675  2.1190
 4514SOL    HW225176   1.839   3.258   3.932  0.6740  1.3372 -2.1843
 4515SOL     OW25177   4.085   4.482   5.809  0.0866  0.3377  0.4889
 4515SOL    HW125178   3.993   4.505   5.795 -0.4642 -1.9185  0.4672
 4515SOL    HW225179   4.129   4.566   5.828  1.1143  0.2235 -1.3575
 4516SOL     OW25180   4.234   0.643   5.240  0.2524  0.2371 -0.4214
 4516SOL    HW125181   4.314   0.694   5.233  0.3437  0.5067  2.6891
 4516SOL    HW225182   4.263   0.592   5.316  2.0444  2.4082  0.3256
 4517SOL     OW25183   2.938   2.395  10.734  0.0999  0.1568 -0.9001
 4517SOL    HW125184   2.882   2.473  10.729  1.3443  1.0619 -0.6896
 4517SOL    HW225185   2.899   2.354  10.811 -0.3198  0.3071 -1.0318
 4518SOL     OW25186   4.132   0.312   9.865  0.2919 -0.5353  0.6652
 4518SOL    HW125187   4.080   0.299   9.945 -1.4908  0.7179 -0.2785
 4518SOL    HW225188   4.214   0.264   9.878  0.2224 -1.0061 -0.6201
 4519SOL     OW25189   4.019   1.486   9.834 -0.2462  0.5759  0.2996
 4519SOL    HW125190   4.009   1.519   9.924  0.2298  1.6482 -0.0366
 4519SOL    HW225191   4.102   1.439   9.840 -0.3903  0.0674 -1.7083
 4520SOL     OW25192   0.851   3.335   0.019 -0.2570 -0.0280  0.5550
 4520SOL    HW125193   0.822   3.278   0.091  1.4326  0.0298  1.2717
 4520SOL    HW225194   0.780   3.337  17.706 -1.3012  3.0569  1.8147
 4521SOL     OW25195   2.059   0.392   1.847  0.1908 -0.0713 -0.0399
 4521SOL    HW125196   2.150   0.418   1.832  0.9233 -2.5405  0.1623
 4521SOL    HW225197   2.022   0.375   1.761  0.7739  1.7525 -0.6735
 4522SOL     OW25198   4.618   2.721   7.847 -0.2853 -0.4077 -0.3595
 4522SOL    HW125199   4.552   2.784   7.818 -0.4611  1.1520  3.4782
 4522SOL    HW225200   4.694   2.779   7.841 -0.9025  0.6804  2.2507
 4523SOL     OW25201   0.203   0.272  16.213 -0.1555 -0.1404 -0.1482
 4523SOL    HW125202   0.270   0.208  16.188 -0.0354  0.2858 -0.9337
 4523SOL    HW225203   0.124   0.219  16.223 -0.0958 -0.0312  0.8793
 4524SOL     OW25204   2.706   4.693   8.447 -0.3599  0.2748  0.0325
 4524SOL    HW125205   2.784   4.641   8.429  0.3096  1.4806 -0.5585
 4524SOL    HW225206   2.729   4.737   8.529 -1.5352 -1.6661  1.4031
 4525SOL     OW25207   3.282   0.487  16.874  0.0124 -0.0256  0.8601
 4525SOL    HW125208   3.191   0.511  16.859  0.8458  1.7775 -1.2651
 4525SOL    HW225209   3.332   0.559  16.835 -0.8967  0.0442 -0.1630
 4526SOL     OW25210   1.082   3.960   3.095  0.0007  0.2330  0.3889
 4526SOL    HW125211   0.989   3.941   3.108 -0.0542 -0.4163 -0.9589
 4526SOL    HW225212   1.093   3.880   3.045  2.1526  0.4402  0.5267
 4527SOL     OW25213   2.972   3.550   3.537 -0.0340 -0.0479 -0.0625
 4527SOL    HW125214   2.950   3.625   3.592  1.1474 -0.2411  0.6567
 4527SOL    HW225215   3.056   3.519   3.571 -0.2502 -0.1899  0.3483
 4528SOL     OW25216   1.786   1.547  17.263  0.3819  0.2423 -0.1192
 4528SOL    HW125217   1.724   1.585  17.325 -0.8792 -0.4321 -0.9867
 4528SOL    HW225218   1.742   1.476  17.216 -1.0737 -0.2647  2.0416
 4529SOL     OW25219   1.854   0.189  12.628 -0.1073 -0.1977  0.1670
 4529SOL    HW125220   1.839   0.272  12.673  1.1057 -1.2703  2.5847
 4529SOL    HW225221   1.879   0.135  12.703 -0.3834  1.9559  1.8006
 4530SOL     OW25222   1.139   0.960   7.650  0.6547 -0.4236 -0.2562
 4530SOL    HW125223   1.065   0.973   7.591  0.2016 -0.6406  0.2733
 4530SOL    HW225224   1.168   0.871   7.633  0.8063 -0.6626  1.2530
 4531SOL     OW25225   0.252   2.519   2.185  0.2847  0.5927 -0.4082
 4531SOL    HW125226   0.309   2.523   2.261  0.7951  0.1208 -0.7651
 4531SOL    HW225227   0.321   2.509   2.119  1.6206  1.5871  0.8701
 4532SOL     OW25228   0.867   0.522   2.172 -0.6619 -0.6646 -0.1221
 4532SOL    HW125229   0.883   0.578   2.248  3.5888  1.8194 -2.8360
 4532SOL    HW225230   0.940   0.555   2.120  0.9725 -1.0316  1.9269
 4533SOL     OW25231   1.646   4.736  16.888  0.0658 -0.1582  0.4599
 4533SOL    HW125232   1.590   0.068  16.856  0.9088  0.2323 -0.1404
 4533SOL    HW225233   1.602   4.705  16.968  2.2348 -0.8093  1.4110
 4534SOL     OW25234   2.792   3.266   2.855 -0.0731 -0.1228  0.0022
 4534SOL    HW125235   2.792   3.305   2.767  1.6988 -1.6612 -0.6889
 4534SOL    HW225236   2.846   3.189   2.842  1.5468  1.2820 -1.5968
 4535SOL     OW25237   0.000   0.620  16.266  0.3958  0.5698 -0.5885
 4535SOL    HW125238   4.717   0.542  16.215 -1.8273 -0.1592  1.4958
 4535SOL    HW225239   0.080   0.590  16.308 -0.0686  0.6889  0.3786
 4536SOL     OW25240   0.926   3.282  17.441  0.3877  0.3444 -0.3577
 4536SOL    HW125241   0.991   3.351  17.458 -0.4717  0.8664  0.8669
 4536SOL    HW225242   0.968   3.208  17.484 -1.0484 -0.3782 -0.2100
 4537SOL     OW25243   2.575   0.733  11.011  0.0133 -0.1650 -0.2493
 4537SOL    HW125244   2.648   0.721  11.073  1.7184 -0.9232 -2.3712
 4537SOL    HW225245   2.519   0.788  11.064 -0.3458  1.1084 -1.9306
 4538SOL     OW25246   3.218   4.064   7.990 -0.1862  0.1426 -0.2213
 4538SOL    HW125247   3.266   4.082   7.909  0.1188  1.3311  0.2131
 4538SOL    HW225248   3.199   4.156   8.011 -3.0027 -0.5348  0.1446
 4539SOL     OW25249   1.338   1.356  16.539 -0.1029 -0.3085  0.1018
 4539SOL    HW125250   1.412   1.330  16.594 -0.2496 -0.9079  0.0191
 4539SOL    HW225251   1.391   1.388  16.467  1.2385 -0.0863  1.1937
 4540SOL     OW25252   1.473   1.019   7.908 -0.5524 -0.1438 -0.3228
 4540SOL    HW125253   1.504   0.945   7.856 -2.2189 -0.9711 -0.1749
 4540SOL    HW225254   1.440   1.076   7.838  1.9060  1.8912  0.1969
 4541SOL     OW25255   2.766   0.984   9.065  0.0061 -0.0098 -0.4071
 4541SOL    HW125256   2.731   1.014   8.981 -0.1330  0.5471 -0.1545
 4541SOL    HW225257   2.814   0.907   9.034 -1.8727  0.0771 -3.5411
 4542SOL     OW25258   1.528   2.974   7.231  0.2241  0.6958  0.9872
 4542SOL    HW125259   1.552   3.062   7.259  0.8204  0.7355  0.3354
 4542SOL    HW225260   1.509   2.996   7.140 -1.0095 -1.2853  0.7674
 4543SOL     OW25261   2.064   3.210   3.339  0.4685 -0.4539 -0.0767
 4543SOL    HW125262   2.082   3.162   3.420  2.1839 -1.7360 -1.2229
 4543SOL    HW225263   2.010   3.152   3.285 -1.6039  0.5955  0.8831
 4544SOL     OW25264   1.181   1.207   7.108  0.6821 -0.1317 -0.2074
 4544SOL    HW125265   1.144   1.278   7.160  1.9928 -1.1282  2.0826
 4544SOL    HW225266   1.213   1.253   7.030  0.0574  3.0014  1.3803
 4545SOL     OW25267   0.774   3.204   4.922  0.2181  0.0205  0.5135
 4545SOL    HW125268   0.717   3.151   4.867  2.1105 -1.7125  0.1893
 4545SOL    HW225269   0.828   3.252   4.860 -1.0027  1.4899  0.5934
 4546SOL     OW25270   3.759   2.442   5.332 -0.2838  0.0505  0.5073
 4546SOL    HW125271   3.841   2.441   5.284  0.1328  1.5930  1.1643
 4546SOL    HW225272   3.769   2.368   5.392 -0.8209  0.6511  1.3577
 4547SOL     OW25273   4.423   4.061   7.007  0.1111 -0.4462 -0.1249
 4547SOL    HW125274   4.330   4.039   7.016  0.3079 -1.5275 -0.7601
 4547SOL    HW225275   4.422   4.133   7.069  1.2788 -0.8135  0.3093
 4548SOL     OW25276   2.231   4.366   5.624 -0.0694 -1.2385  0.0781
 4548SOL    HW125277   2.167   4.417   5.674  0.4105 -0.0052 -0.5699
 4548SOL    HW225278   2.164   4.310   5.586 -1.7395  1.0243 -0.3246
 4549SOL     OW25279   4.407   1.600  10.734 -0.0657 -0.1963 -0.0189
 4549SOL    HW125280   4.334   1.639  10.781  0.1296 -1.0043  0.9599
 4549SOL    HW225281   4.455   1.560  10.807  1.3466 -0.5701 -1.1625
 4550SOL     OW25282   0.808   4.175  13.200 -0.6445  0.3529 -0.2775
 4550SOL    HW125283   0.816   4.153  13.107  0.7700 -0.7636  0.1169
 4550SOL    HW225284   0.890   4.132  13.224 -0.1203  2.0077  0.8345
 4551SOL     OW25285   0.288   0.349   9.155 -0.1379  0.1087  0.4391
 4551SOL    HW125286   0.346   0.419   9.127  0.4964  0.2734  2.1700
 4551SOL    HW225287   0.356   0.285   9.175  0.8213  1.2050  0.6390
 4552SOL     OW25288   0.831   1.786   9.308  0.5965  0.1597 -0.1031
 4552SOL    HW125289   0.814   1.845   9.381 -2.1023 -1.5729  0.7156
 4552SOL    HW225290   0.909   1.738   9.335  0.9296 -0.3107 -1.8997
 4553SOL     OW25291   2.229   4.089  12.265  0.2764  0.0233 -0.4689
 4553SOL    HW125292   2.274   4.124  12.188 -1.8731  0.7287 -1.4067
 4553SOL    HW225293   2.244   3.995  12.255 -2.7910 -0.1837 -3.1296
 4554SOL     OW25294   2.731   3.223   1.364 -0.7406 -0.2137  0.1319
 4554SOL    HW125295   2.764   3.164   1.297  1.5374  0.1788  0.8923
 4554SOL    HW225296   2.737   3.307   1.318  0.9256 -0.8455 -0.7986
 4555SOL     OW25297   3.059   3.250   4.987 -0.4455  0.1735  0.0177
 4555SOL    HW125298   3.106   3.290   5.060 -1.7520  0.6120  0.6068
 4555SOL    HW225299   3.128   3.187   4.963  1.7639  3.2063 -1.6120
 4556SOL     OW25300   3.662   1.297  13.022 -0.3719  0.1486 -0.6915
 4556SOL    HW125301   3.649   1.370  13.083  1.4009  1.1691 -1.5276
 4556SOL    HW225302   3.705   1.236  13.081 -0.8670 -0.8891 -1.3981
 4557SOL     OW25303   0.774   2.781   5.654  0.4087  0.1654  0.2024
 4557SOL    HW125304   0.764   2.699   5.606 -1.1663  0.0358  0.7397
 4557SOL    HW225305   0.691   2.813   5.619  0.7880  0.2958 -0.5681
 4558SOL     OW25306   1.194   3.097   4.763  0.1685 -0.0635  0.0241
 4558SOL    HW125307   1.240   3.181   4.758 -0.8117  0.4926  0.4592
 4558SOL    HW225308   1.204   3.074   4.856 -1.6718  0.1939  0.2889
 4559SOL     OW25309   4.706   0.900   3.154 -0.1941 -0.6607  0.4279
 4559SOL    HW125310   4.711   0.928   3.245  0.8419  0.4002  0.0285
 4559SOL    HW225311   0.055   0.871   3.126  0.0548  1.1879 -0.6978
 4560SOL     OW25312   0.736   2.239   3.844 -0.1916  0.7700 -0.2026
 4560SOL    HW125313   0.776   2.152   3.843  0.8974  1.2630 -0.3756
 4560SOL    HW225314   0.665   2.229   3.781 -0.7959 -0.5908  0.6925
 4561SOL     OW25315   4.188   1.146   9.481 -0.0261 -0.3215 -0.3240
 4561SOL    HW125316   4.146   1.232   9.488 -2.3134 -1.4365 -0.3551
 4561SOL    HW225317   4.135   1.084   9.531 -1.3127  2.3667  1.6084
 4562SOL     OW25318   0.862   1.130  13.808 -0.4409 -0.4291  0.3457
 4562SOL    HW125319   0.777   1.171  13.829 -0.3245  0.5830 -1.1182
 4562SOL    HW225320   0.918   1.164  13.877 -2.8494  0.9663  1.6255
 4563SOL     OW25321   3.259   0.381  11.605  0.6481 -0.4279  0.4614
 4563SOL    HW125322   3.352   0.357  11.606  0.8228  0.2080 -0.8317
 4563SOL    HW225323   3.216   0.329  11.537  1.1277  0.1667 -0.2966
 4564SOL     OW25324   3.874   0.683  13.697  0.0032  0.9191  0.4626
 4564SOL    HW125325   3.969   0.688  13.690  0.0815 -0.4801  0.4220
 4564SOL    HW225326   3.854   0.752  13.760 -0.6954  0.5699  0.6265
 4565SOL     OW25327   0.255   2.098   4.225  0.0007  0.4222 -0.1910
 4565SOL    HW125328   0.324   2.065   4.168 -0.7835 -0.6781 -0.4997
 4565SOL    HW225329   0.306   2.149   4.288  2.0789 -1.7727 -0.0852
 4566SOL     OW25330   0.568   1.895  14.960  0.2385  0.3319 -0.2287
 4566SOL    HW125331   0.576   1.978  14.913 -0.7514 -0.9260 -2.6087
 4566SOL    HW225332   0.638   1.846  14.916 -2.0447 -2.0558 -1.1791
 4567SOL     OW25333   2.250   1.617   1.672  0.2163 -0.0323  0.3814
 4567SOL    HW125334   2.212   1.664   1.747 -1.9614 -3.0410  1.1561
 4567SOL    HW225335   2.173   1.581   1.629 -0.3599  0.1464  1.2637
 4568SOL     OW25336   3.074   2.278   5.592  0.0426  0.3890 -0.5808
 4568SOL    HW125337   3.154   2.314   5.554  1.4067  1.0027  2.7985
 4568SOL    HW225338   3.072   2.184   5.576  0.1198  0.2801  0.0240
 4569SOL     OW25339   0.372   0.601   0.952  0.0393 -0.1337  0.3319
 4569SOL    HW125340   0.459   0.635   0.931 -0.4026  0.6802 -0.1798
 4569SOL    HW225341   0.315   0.640   0.886 -2.0687 -0.0010  2.2351
 4570SOL     OW25342   2.270   4.139   5.790 -0.3091  0.3928 -0.2490
 4570SOL    HW125343   2.287   4.207   5.725 -0.7700  2.0231  1.3070
 4570SOL    HW225344   2.185   4.170   5.822 -0.3379 -0.8097  0.8516
 4571SOL     OW25345   4.556   2.638   7.447 -0.3458 -0.3093 -0.4763
 4571SOL    HW125346   4.476   2.614   7.399 -0.6104  0.7653 -0.5583
 4571SOL    HW225347   4.526   2.714   7.497  3.7429  1.2382 -0.4300
 4572SOL     OW25348   1.609   2.183  13.180 -0.6310  0.3719  0.1738
 4572SOL    HW125349   1.673   2.236  13.133 -1.4941  0.7910 -0.5253
 4572SOL    HW225350   1.621   2.104  13.128 -0.8191  0.8059 -0.5145
 4573SOL     OW25351   3.784   2.748   4.227  0.0547 -0.1631 -0.0359
 4573SOL    HW125352   3.811   2.688   4.158 -2.2706  0.4566 -1.5115
 4573SOL    HW225353   3.688   2.740   4.223 -0.2200  2.7032  0.3153
 4574SOL     OW25354   3.625   1.889   7.586  0.2011  0.1816 -0.0449
 4574SOL    HW125355   3.657   1.964   7.636  4.2129  0.1311 -2.5238
 4574SOL    HW225356   3.599   1.830   7.656  1.6614 -0.4392 -0.0324
 4575SOL     OW25357   2.773   1.509   4.544 -0.3963 -0.1481 -0.4705
 4575SOL    HW125358   2.812   1.485   4.460  0.1948 -0.3772 -0.1310
 4575SOL    HW225359   2.794   1.602   4.556  2.0362 -0.9298  1.2657
 4576SOL     OW25360   2.768   1.250   3.208  0.7157  0.2263 -0.0598
 4576SOL    HW125361   2.767   1.294   3.123 -2.2932  1.3642  0.5934
 4576SOL    HW225362   2.677   1.220   3.209  0.6570  0.4465  1.1607
 4577SOL     OW25363   1.390   1.436   8.605  0.3524  0.1269  0.1801
 4577SOL    HW125364   1.479   1.463   8.581  0.1799  0.2836 -0.2921
 4577SOL    HW225365   1.406   1.345   8.630  0.7791  0.5814  1.6001
 4578SOL     OW25366   2.439   3.059  14.369  0.1838  0.2293  0.3460
 4578SOL    HW125367   2.457   3.102  14.452  0.0853 -1.2764  1.1462
 4578SOL    HW225368   2.345   3.076  14.361 -0.5834 -4.4168 -0.5777
 4579SOL     OW25369   0.814   2.188   8.014 -0.6506  0.2023  0.0344
 4579SOL    HW125370   0.892   2.138   8.038  1.0104  2.3481 -0.9186
 4579SOL    HW225371   0.802   2.221   8.103 -0.3895  1.9997 -0.6122
 4580SOL     OW25372   3.114   3.779  13.455 -0.2170 -0.4375  0.1752
 4580SOL    HW125373   3.038   3.797  13.511 -2.0068 -0.7075 -2.1881
 4580SOL    HW225374   3.115   3.869  13.422 -0.7022  0.4837  2.6644
 4581SOL     OW25375   2.726   2.998   8.565  0.1009 -0.3803 -0.3830
 4581SOL    HW125376   2.775   2.989   8.483  0.1937  1.5363 -0.5342
 4581SOL    HW225377   2.708   2.905   8.581 -1.1041 -0.2258 -0.7953
 4582SOL     OW25378   3.779   2.274   5.545 -0.4451  0.2579  0.0259
 4582SOL    HW125379   3.832   2.345   5.582 -0.9037  1.2005 -1.1124
 4582SOL    HW225380   3.763   2.219   5.622 -1.5318  0.2497 -0.2007
 4583SOL     OW25381   0.482   0.191   3.372 -0.1670 -0.0747  0.2788
 4583SOL    HW125382   0.521   0.278   3.374 -0.7145  0.2178 -1.8595
 4583SOL    HW225383   0.389   0.214   3.372  0.1062  1.0460  1.1352
 4584SOL     OW25384   2.002   0.770   7.894 -0.2140  0.2786 -0.1115
 4584SOL    HW125385   2.031   0.778   7.803  0.4149 -2.1958 -0.1256
 4584SOL    HW225386   2.047   0.850   7.924 -0.1272 -1.1532  3.5319
 4585SOL     OW25387   3.466   4.044   8.871  0.0630 -0.7454 -0.1725
 4585SOL    HW125388   3.439   4.046   8.779 -2.7329 -0.6748  0.6409
 4585SOL    HW225389   3.561   4.036   8.859 -0.0118 -2.5285  0.4188
 4586SOL     OW25390   3.181   3.734   2.255 -0.2822  0.4455  0.7613
 4586SOL    HW125391   3.165   3.827   2.265 -0.7868  0.3954  0.4388
 4586SOL    HW225392   3.153   3.700   2.340  4.0523 -1.7532  1.3256
 4587SOL     OW25393   3.794   1.822   6.357  0.2796 -0.9142  0.2313
 4587SOL    HW125394   3.827   1.903   6.397  2.4787 -1.4823 -0.4199
 4587SOL    HW225395   3.839   1.829   6.273 -1.2498 -0.5605 -0.5649
 4588SOL     OW25396   4.137   0.103  17.588  0.0669  0.1369  0.1180
 4588SOL    HW125397   4.059   0.058  17.556  1.5242 -2.5088  0.2435
 4588SOL    HW225398   4.171   0.145  17.508  1.6092 -0.0915  0.6559
 4589SOL     OW25399   4.437   1.358   5.237 -0.2749 -0.3786  0.2352
 4589SOL    HW125400   4.364   1.309   5.198 -1.5386  2.7242 -1.2877
 4589SOL    HW225401   4.408   1.447   5.218  0.5569 -0.5020 -1.5904
 4590SOL     OW25402   0.132   2.080   4.771  0.3542  0.1638 -0.2640
 4590SOL    HW125403   0.076   2.052   4.699 -0.0755  1.5173 -0.4524
 4590SOL    HW225404   0.067   2.092   4.840 -2.4301 -2.5862 -2.4291
 4591SOL     OW25405   4.024   3.863  15.989 -0.2678  0.1570 -0.1287
 4591SOL    HW125406   4.044   3.888  16.080 -1.4906 -0.5794  0.3444
 4591SOL    HW225407   4.067   3.778  15.983 -1.4732 -0.4743  0.2056
 4592SOL     OW25408   3.228   3.779  10.562 -0.8694 -0.4847 -0.1963
 4592SOL    HW125409   3.239   3.719  10.488  0.4445  0.2324 -0.5956
 4592SOL    HW225410   3.293   3.743  10.623 -0.7386 -0.3121 -0.2307
 4593SOL     OW25411   1.964   0.236   6.363  0.2943  0.5067 -0.0086
 4593SOL    HW125412   1.938   0.325   6.389  2.6595  1.0155  0.6945
 4593SOL    HW225413   1.895   0.199   6.308  0.4852 -0.9032  0.7049
 4594SOL     OW25414   4.291   2.677   0.867  0.4480  0.2599 -0.6547
 4594SOL    HW125415   4.266   2.748   0.807 -0.6423  1.2085  0.9399
 4594SOL    HW225416   4.308   2.613   0.798 -0.1419 -0.7469  0.1367
 4595SOL     OW25417   3.170   0.847   8.762  0.1067 -0.1995  0.4821
 4595SOL    HW125418   3.212   0.824   8.679 -0.4281  0.1788  0.1059
 4595SOL    HW225419   3.152   0.761   8.800 -0.5225 -0.9535 -1.5015
 4596SOL     OW25420   2.661   0.529   3.963  0.3284  0.1371  0.5735
 4596SOL    HW125421   2.647   0.445   4.005  1.3852 -0.8677 -1.0905
 4596SOL    HW225422   2.751   0.518   3.934  0.0026  2.6832 -1.4588
 4597SOL     OW25423   1.029   0.445   8.619  0.4041 -0.6511 -0.2285
 4597SOL    HW125424   1.048   0.531   8.656  0.8139 -1.1289  0.6706
 4597SOL    HW225425   1.056   0.454   8.527  1.3865  0.8522  0.2140
 4598SOL     OW25426   0.218   1.422   8.043 -0.2777  0.3053  0.0563
 4598SOL    HW125427   0.308   1.449   8.028 -1.4880  2.1341 -3.9078
 4598SOL    HW225428   0.202   1.361   7.971  1.8110 -2.0173  1.5527
 4599SOL     OW25429   3.001   0.492  14.341  0.3309  0.1756  0.1784
 4599SOL    HW125430   2.982   0.431  14.413 -3.2264  0.7180 -0.3191
 4599SOL    HW225431   2.928   0.554  14.340  0.9377  0.9346  1.6523
 4600SOL     OW25432   1.008   2.853   6.481  0.0476 -0.2084 -0.0235
 4600SOL    HW125433   1.049   2.901   6.409 -1.4062  0.2123 -0.5784
 4600SOL    HW225434   0.945   2.920   6.510 -0.3522 -0.4858 -0.2442
 4601SOL     OW25435   0.975   4.496   1.537 -0.1231  0.2587  0.6638
 4601SOL    HW125436   1.051   4.471   1.590  1.0928  1.8512 -0.3174
 4601SOL    HW225437   0.977   4.424   1.475 -0.3356  2.6058 -2.0754
 4602SOL     OW25438   2.498   1.501   5.161 -0.7452 -0.9859 -0.0336
 4602SOL    HW125439   2.447   1.462   5.091  1.5978  0.0622 -2.3070
 4602SOL    HW225440   2.466   1.457   5.240 -0.0875 -1.3904  0.0062
 4603SOL     OW25441   2.463   3.960   0.189  0.4558  0.2102 -0.4779
 4603SOL    HW125442   2.540   3.909   0.215 -0.2264 -0.1441  0.8649
 4603SOL    HW225443   2.493   4.030   0.131 -0.5491  0.6174 -0.5180
 4604SOL     OW25444   0.805   3.525   7.434 -0.5038  0.7108 -0.3706
 4604SOL    HW125445   0.757   3.442   7.443 -0.5270  0.8128  0.3932
 4604SOL    HW225446   0.757   3.571   7.365 -0.2111 -1.9210 -2.3451
 4605SOL     OW25447   1.815   0.198   3.335 -0.1422 -0.0874  0.2866
 4605SOL    HW125448   1.747   0.219   3.399  1.4971  2.5386  1.1650
 4605SOL    HW225449   1.769   0.151   3.265  1.0140 -1.4470  0.4385
 4606SOL     OW25450   2.619   0.434   1.651  0.3100 -0.2360 -0.3566
 4606SOL    HW125451   2.585   0.458   1.564 -0.5116  2.4945  0.7160
 4606SOL    HW225452   2.613   0.338   1.650 -1.5717 -0.1229 -1.4163
 4607SOL     OW25453   4.167   2.798  15.976 -0.2406  0.6847  0.6489
 4607SOL    HW125454   4.251   2.782  15.934 -0.6376  0.5102 -0.0707
 4607SOL    HW225455   4.156   2.712  16.017  1.5526  0.5070  0.7490
 4608SOL     OW25456   3.461   0.245   0.403  0.6008  0.1049  0.5395
 4608SOL    HW125457   3.531   0.246   0.338  0.3048  1.8138  0.2447
 4608SOL    HW225458   3.486   0.324   0.451  0.1147 -0.2736  1.4097
 4609SOL     OW25459   0.487   4.349   9.154 -0.3411  0.5865 -0.2009
 4609SOL    HW125460   0.559   4.287   9.139  0.8100  1.3826  2.1511
 4609SOL    HW225461   0.485   4.393   9.069  0.0004  0.2131 -0.4017
 4610SOL     OW25462   3.709   4.474   3.036 -0.3136  0.0728 -0.6714
 4610SOL    HW125463   3.703   4.400   3.096 -0.4823  0.2640 -0.4503
 4610SOL    HW225464   3.736   4.431   2.955  0.0772 -1.4247  0.2543
 4611SOL     OW25465   2.358   3.610  16.447 -0.2646  0.3993  0.2866
 4611SOL    HW125466   2.284   3.552  16.430 -0.6506  0.1515  2.8525
 4611SOL    HW225467   2.347   3.624  16.541  2.1655 -1.5849  0.8773
 4612SOL     OW25468   3.313   3.972   1.996 -0.2395  0.1025 -0.5326
 4612SOL    HW125469   3.360   4.050   1.966  0.6746 -0.0057  0.6151
 4612SOL    HW225470   3.230   4.012   2.022  0.5608  2.3644 -1.5452
 4613SOL     OW25471   2.854   2.823   0.725 -0.1031 -0.4331  0.5216
 4613SOL    HW125472   2.862   2.885   0.653 -1.8625  0.3320  0.9951
 4613SOL    HW225473   2.891   2.742   0.688  0.1707 -0.3562  0.6218
 4614SOL     OW25474   0.396   4.309  10.610 -0.4800  0.2203  0.3141
 4614SOL    HW125475   0.310   4.278  10.583 -0.0013 -0.2239 -0.6859
 4614SOL    HW225476   0.403   4.293  10.704  1.2417 -0.5988  0.0526
 4615SOL     OW25477   4.263   3.977  10.422  0.4795 -0.7359 -0.3604
 4615SOL    HW125478   4.263   4.073  10.415 -0.1036 -0.6185  1.1346
 4615SOL    HW225479   4.218   3.966  10.506  1.2600 -1.8426 -0.0934
 4616SOL     OW25480   3.683   0.123   5.526  0.0230  0.2925 -0.1838
 4616SOL    HW125481   3.662   0.110   5.433 -1.0467 -0.0578  0.1058
 4616SOL    HW225482   3.688   0.218   5.534 -0.1915  0.2573  0.3368
 4617SOL     OW25483   1.864   0.876   3.491  0.3539  0.4084  0.1731
 4617SOL    HW125484   1.949   0.853   3.528 -0.1067 -1.0458  0.3168
 4617SOL    HW225485   1.872   0.967   3.462  1.3797  0.7100  1.3624
 4618SOL     OW25486   0.884   1.448   9.119  0.3565  0.2477 -0.4724
 4618SOL    HW125487   0.970   1.448   9.077  0.6853  1.7046  0.1990
 4618SOL    HW225488   0.831   1.430   9.041  0.2953 -1.6297  0.0086
 4619SOL     OW25489   0.092   0.499   4.561  0.1341  0.2872  0.0291
 4619SOL    HW125490   0.062   0.541   4.480  1.8367 -0.1047 -0.7961
 4619SOL    HW225491   0.146   0.430   4.523 -2.0416 -1.3505 -0.0913
 4620SOL     OW25492   3.482   0.712   0.308  0.2278 -0.6337  0.6478
 4620SOL    HW125493   3.516   0.802   0.309  0.5060 -0.7445  1.6185
 4620SOL    HW225494   3.479   0.672   0.395 -0.9830 -1.4197  0.2314
 4621SOL     OW25495   3.040   1.475   3.420 -0.4519  0.6453  0.1772
 4621SOL    HW125496   3.066   1.384   3.402 -0.1944  0.9066 -0.7505
 4621SOL    HW225497   3.101   1.530   3.372  0.6407 -0.0339  0.7724
 4622SOL     OW25498   1.904   1.846   8.118 -0.8352 -0.3881 -0.0670
 4622SOL    HW125499   1.965   1.916   8.094 -1.0795  0.5830  2.1714
 4622SOL    HW225500   1.893   1.807   8.031  0.9289 -0.5086 -0.2349
 4623SOL     OW25501   4.579   4.662   5.508  0.0610 -0.0411 -0.4816
 4623SOL    HW125502   4.674   4.657   5.497  0.1752 -1.2113  1.1255
 4623SOL    HW225503   4.552   4.591   5.450 -2.3088  2.1800 -2.1153
 4624SOL     OW25504   2.761   1.644   2.483 -0.2956 -0.6103 -0.2380
 4624SOL    HW125505   2.695   1.619   2.548  0.0323 -0.9399 -0.0301
 4624SOL    HW225506   2.765   1.568   2.425 -0.4418 -0.7551 -0.0582
 4625SOL     OW25507   2.192   1.844   8.493 -0.0269  0.1355 -0.5093
 4625SOL    HW125508   2.114   1.809   8.451 -0.2980  0.5816 -0.3843
 4625SOL    HW225509   2.254   1.842   8.421 -1.4447  1.7754 -1.7629
 4626SOL     OW25510   0.931   2.599  12.645  0.2474  0.0362  0.3583
 4626SOL    HW125511   0.859   2.661  12.660  0.7947  0.9198 -0.6408
 4626SOL    HW225512   0.984   2.627  12.720  0.1234  1.8699 -0.2350
 4627SOL     OW25513   1.316   3.560   5.246 -0.1495  0.2435  0.3314
 4627SOL    HW125514   1.394   3.512   5.222 -1.9234 -1.6513 -1.6556
 4627SOL    HW225515   1.264   3.574   5.167  1.3594  2.2144 -0.3188
 4628SOL     OW25516   4.109   4.101  17.399  0.1007 -0.2239  0.5227
 4628SOL    HW125517   4.053   4.147  17.337  0.6846  0.6685  0.6687
 4628SOL    HW225518   4.163   4.179  17.408  0.1495  0.0613 -2.2705
 4629SOL     OW25519   4.283   0.264   2.649  0.1356 -0.7332  0.6711
 4629SOL    HW125520   4.367   0.308   2.661 -0.5242  0.4122  1.0796
 4629SOL    HW225521   4.300   0.171   2.663 -0.9132 -0.9627  0.4142
 4630SOL     OW25522   2.342   2.163   5.748 -0.6958 -0.0948  0.3020
 4630SOL    HW125523   2.414   2.106   5.720 -1.7472 -0.9564 -0.6566
 4630SOL    HW225524   2.320   2.127   5.835 -1.8037 -1.0996 -0.3870
 4631SOL     OW25525   3.862   1.897   1.052 -0.6081 -0.1502 -0.0506
 4631SOL    HW125526   3.809   1.967   1.013  0.5709 -0.3007 -1.9277
 4631SOL    HW225527   3.952   1.929   1.044 -0.6091 -0.2571 -0.5164
 4632SOL     OW25528   3.465   3.607   9.471 -0.1008  0.2034  0.5567
 4632SOL    HW125529   3.399   3.675   9.486  0.8863  1.3136 -0.1801
 4632SOL    HW225530   3.542   3.659   9.494 -0.4882  0.1649  1.9384
 4633SOL     OW25531   0.061   1.853  10.842  0.4548 -0.3768 -0.6041
 4633SOL    HW125532   0.006   1.931  10.836 -1.2486 -1.6586 -1.8128
 4633SOL    HW225533   0.017   1.794  10.781 -3.0386  1.3703  0.2316
 4634SOL     OW25534   1.197   0.029   6.145  0.0523  0.1774  0.2221
 4634SOL    HW125535   1.158   0.107   6.108  1.6504  1.6196  1.5359
 4634SOL    HW225536   1.276   0.025   6.091  0.3427 -1.7258  0.7769
 4635SOL     OW25537   2.630   3.757   3.012  0.2602  0.1947 -0.3665
 4635SOL    HW125538   2.721   3.729   3.009 -0.1109 -1.1227  0.5200
 4635SOL    HW225539   2.588   3.673   3.029 -1.0167  0.9094  0.0198
 4636SOL     OW25540   1.899   1.419  12.883 -0.4199  0.5105 -0.2884
 4636SOL    HW125541   1.869   1.366  12.957 -0.7863 -0.8170 -1.3791
 4636SOL    HW225542   1.849   1.500  12.895  1.1160  1.2509  1.0816
 4637SOL     OW25543   4.601   2.612   5.515 -0.5570  0.4744 -0.3220
 4637SOL    HW125544   4.644   2.570   5.440 -1.5262 -1.6115  0.2917
 4637SOL    HW225545   4.564   2.530   5.548 -2.0302  1.0322 -0.6156
 4638SOL     OW25546   4.639   1.935   5.324  0.0931  0.2474 -0.2088
 4638SOL    HW125547   4.590   1.864   5.366  0.2857  0.7491  0.8640
 4638SOL    HW225548   4.656   1.902   5.236 -1.3536  1.2502 -0.8598
 4639SOL     OW25549   4.317   0.305   6.231  0.5696  0.1631 -0.5700
 4639SOL    HW125550   4.377   0.279   6.300 -0.0388 -0.1816 -0.1801
 4639SOL    HW225551   4.253   0.357   6.278  1.3739 -0.3450  1.0686
 4640SOL     OW25552   3.944   0.712  14.719  0.3740  0.1660 -0.1101
 4640SOL    HW125553   3.900   0.631  14.694  0.1222 -1.0832  4.2790
 4640SOL    HW225554   3.881   0.775  14.684  0.5314 -0.5230 -1.6188
 4641SOL     OW25555   2.804   2.147  15.468 -0.1113  0.1859  0.2067
 4641SOL    HW125556   2.711   2.124  15.469 -0.4964  1.6174 -1.4244
 4641SOL    HW225557   2.807   2.230  15.420  1.7170  1.1862  2.0940
 4642SOL     OW25558   4.681   1.089  15.559  0.2050 -0.1365  0.0282
 4642SOL    HW125559   4.645   1.163  15.511 -1.5091 -0.0445  1.4593
 4642SOL    HW225560   4.685   1.132  15.645 -1.3453  0.8464 -0.3845
 4643SOL     OW25561   1.234   2.527  12.511  0.2111  0.3897 -0.4560
 4643SOL    HW125562   1.246   2.578  12.591 -0.4271  1.5961 -1.1412
 4643SOL    HW225563   1.217   2.440  12.549 -0.8277  1.0052  0.4859
 4644SOL     OW25564   0.775   3.966   3.034  0.0832 -0.4071  0.4442
 4644SOL    HW125565   0.756   3.877   3.006 -0.4382  0.9249 -3.4554
 4644SOL    HW225566   0.795   4.010   2.951  1.5179  1.9022  2.0189
 4645SOL     OW25567   1.627   3.612   8.482  0.3448  0.0725  0.0332
 4645SOL    HW125568   1.599   3.547   8.546 -1.3992  0.1423 -0.6595
 4645SOL    HW225569   1.658   3.683   8.539  2.1361 -1.1655  0.5860
 4646SOL     OW25570   1.138   1.800  16.168 -0.0590  0.2623  0.3956
 4646SOL    HW125571   1.103   1.825  16.254  2.1667  1.7356  0.8689
 4646SOL    HW225572   1.170   1.710  16.177  2.8764  1.0221 -2.6009
 4647SOL     OW25573   1.143   2.765   6.157 -0.0563 -0.2672  0.2759
 4647SOL    HW125574   1.164   2.847   6.201 -2.2137 -0.4971  1.7619
 4647SOL    HW225575   1.228   2.721   6.150  0.2545  0.4366 -0.3510
 4648SOL     OW25576   0.457   2.673   7.738  0.2699 -0.2048 -0.7035
 4648SOL    HW125577   0.543   2.630   7.736  0.3167 -0.0572 -1.6643
 4648SOL    HW225578   0.414   2.620   7.671 -0.3714  1.4976 -1.6369
 4649SOL     OW25579   3.183   1.050  13.835  0.0228  0.3918  0.5633
 4649SOL    HW125580   3.200   1.087  13.748 -1.0371  1.9332  1.0055
 4649SOL    HW225581   3.114   0.988  13.811  1.5046 -1.6810  1.6797
 4650SOL     OW25582   2.392   0.021   2.008 -0.3281 -0.3405  0.3581
 4650SOL    HW125583   2.336   4.686   1.979 -1.0231 -0.3863  1.7952
 4650SOL    HW225584   2.461   4.716   2.058  1.8080  1.5516 -0.9992
 4651SOL     OW25585   2.254   1.570   6.234  0.2195  0.2952 -0.1281
 4651SOL    HW125586   2.189   1.506   6.262  0.7568 -0.8940 -1.5754
 4651SOL    HW225587   2.291   1.525   6.158 -0.7760  1.4237 -1.2706
 4652SOL     OW25588   2.014   4.213   5.524 -0.5732 -0.3731 -0.1301
 4652SOL    HW125589   2.004   4.136   5.580  2.3125 -0.5817  0.0765
 4652SOL    HW225590   1.979   4.187   5.438  1.3814  0.2821 -1.1265
 4653SOL     OW25591   1.791   0.955   1.730  0.4364  0.3252 -0.7632
 4653SOL    HW125592   1.817   0.874   1.773  2.6076  2.1393  1.3103
 4653SOL    HW225593   1.717   0.989   1.781  0.6703  0.4755 -0.5226
 4654SOL     OW25594   2.554   2.019   4.466 -0.0376 -0.6543  0.2538
 4654SOL    HW125595   2.546   2.074   4.544  1.0119  0.8300 -0.6761
 4654SOL    HW225596   2.547   2.081   4.393 -0.5032 -0.4643  0.4601
 4655SOL     OW25597   2.051   4.616   8.204 -0.5464 -0.2480  0.3270
 4655SOL    HW125598   2.108   4.692   8.218 -0.8065 -0.4328  2.3125
 4655SOL    HW225599   2.017   4.593   8.290  0.1965  0.0260  0.6911
 4656SOL     OW25600   1.390   3.874   8.544  0.4892 -0.1258  0.2527
 4656SOL    HW125601   1.352   3.947   8.497  2.7239  1.3542  0.7511
 4656SOL    HW225602   1.375   3.811   8.474  0.6809 -1.3962  1.3432
 4657SOL     OW25603   1.982   4.220   6.660 -0.7867 -0.2083  0.2850
 4657SOL    HW125604   2.006   4.144   6.713 -1.0106 -2.3917 -2.7012
 4657SOL    HW225605   2.072   4.243   6.637 -0.3038 -1.7136  0.6854
 4658SOL     OW25606   0.149   2.076  14.477 -0.3797 -0.2760  0.1638
 4658SOL    HW125607   0.196   2.015  14.535  1.5231  1.1957  0.1686
 4658SOL    HW225608   0.222   2.134  14.456 -0.6998 -0.3561 -1.1534
 4659SOL     OW25609   4.409   4.489   7.692  0.2461  0.1133 -0.0490
 4659SOL    HW125610   4.361   4.524   7.767  2.0863  0.1320  1.1207
 4659SOL    HW225611   4.449   4.407   7.721  0.5701 -1.3479 -4.6636
 4660SOL     OW25612   1.046   2.818   8.162  0.3026 -0.1061 -0.5372
 4660SOL    HW125613   1.020   2.728   8.139 -0.5617  0.3247 -1.2538
 4660SOL    HW225614   1.080   2.811   8.251 -0.8459  1.6196  0.0525
 4661SOL     OW25615   2.717   0.340  16.728  0.1634  0.3854  0.0092
 4661SOL    HW125616   2.792   0.306  16.679 -2.6792  0.2924 -4.2269
 4661SOL    HW225617   2.694   0.418  16.677 -0.9802 -0.0192 -0.1006
 4662SOL     OW25618   0.742   3.931   9.212 -0.0545 -0.7979  0.5227
 4662SOL    HW125619   0.751   4.026   9.218  0.4779 -0.8618  0.8129
 4662SOL    HW225620   0.828   3.900   9.182  0.9873  1.3471  1.2951
 4663SOL     OW25621   4.196   0.547   1.809  0.3300 -0.2752  0.4754
 4663SOL    HW125622   4.199   0.618   1.872 -0.7696  0.0081  0.2136
 4663SOL    HW225623   4.188   0.601   1.730  0.1427 -0.6073  0.2672
 4664SOL     OW25624   0.113   0.966  13.709  0.0029  0.6389 -0.1588
 4664SOL    HW125625   0.037   0.936  13.759  2.0509 -0.9282  2.0193
 4664SOL    HW225626   0.182   0.901  13.724 -0.3539  0.3582  0.2937
 4665SOL     OW25627   1.078   4.377   5.766  0.1725 -0.2053 -0.2836
 4665SOL    HW125628   1.155   4.407   5.814  1.2189 -0.6170 -1.7025
 4665SOL    HW225629   1.090   4.285   5.789  0.2179 -0.2963 -0.6668
 4666SOL     OW25630   4.045   3.708   8.159 -0.2848  0.1216 -0.1528
 4666SOL    HW125631   4.056   3.775   8.226 -1.0341  0.1254 -0.0375
 4666SOL    HW225632   4.013   3.758   8.084 -0.0373  1.1407  0.4283
 4667SOL     OW25633   1.529   4.281   9.277  0.1298  0.3064 -0.7122
 4667SOL    HW125634   1.476   4.341   9.330  1.0466  0.6178 -0.1532
 4667SOL    HW225635   1.470   4.209   9.253  0.6889  0.1262 -1.5360
 4668SOL     OW25636   0.422   2.168  11.046 -0.7363  0.1935  0.9027
 4668SOL    HW125637   0.342   2.152  10.997  0.6485  0.0385 -1.3143
 4668SOL    HW225638   0.453   2.077  11.047  2.3346  1.2372  0.2433
 4669SOL     OW25639   0.961   2.103  12.637  0.7413 -0.2232 -0.1718
 4669SOL    HW125640   0.909   2.036  12.682 -0.5902 -0.8051 -2.5750
 4669SOL    HW225641   0.954   2.167  12.707  0.0499 -0.9906  0.4569
 4670SOL     OW25642   0.905   1.418   7.744  0.1393 -0.2290  0.5834
 4670SOL    HW125643   0.982   1.372   7.713 -1.0340 -2.2421  0.6621
 4670SOL    HW225644   0.936   1.491   7.798 -1.2913 -0.6200  1.9383
 4671SOL     OW25645   1.579   3.014   9.021 -0.3647 -0.2783  0.1440
 4671SOL    HW125646   1.531   3.030   9.102 -1.0415  1.5687 -0.6188
 4671SOL    HW225647   1.596   3.108   9.014 -2.5085  0.1987  1.5544
 4672SOL     OW25648   3.779   4.013   2.743  0.4885  0.0223  0.2224
 4672SOL    HW125649   3.702   4.016   2.799  0.9198  0.2036  0.7995
 4672SOL    HW225650   3.752   4.078   2.678  1.1621  0.9921  0.9230
 4673SOL     OW25651   2.653   1.732   7.245  0.0622 -0.4629  0.3165
 4673SOL    HW125652   2.704   1.702   7.171  0.1427  2.1920 -0.6985
 4673SOL    HW225653   2.717   1.738   7.317  0.2315  2.4886 -0.0670
 4674SOL     OW25654   1.323   0.761   7.226 -0.6125 -0.2281  0.0642
 4674SOL    HW125655   1.324   0.851   7.194  1.1252 -0.7629 -1.3798
 4674SOL    HW225656   1.352   0.716   7.147  0.2026  0.1312  0.1582
 4675SOL     OW25657   0.213   3.332  12.097 -0.1972 -0.4979  0.1067
 4675SOL    HW125658   0.241   3.257  12.150  1.6515  0.4552  0.4820
 4675SOL    HW225659   0.204   3.394  12.169 -0.9505 -0.5377  0.0440
 4676SOL     OW25660   2.550   3.335   5.386 -0.2836 -0.2621  0.0655
 4676SOL    HW125661   2.530   3.420   5.347  1.2401 -0.0807 -0.3082
 4676SOL    HW225662   2.500   3.283   5.323  0.3335 -0.9364  0.1338
 4677SOL     OW25663   2.669   1.489  13.036  0.2504  0.2096  0.1380
 4677SOL    HW125664   2.759   1.522  13.034 -0.0569  1.1354  1.2585
 4677SOL    HW225665   2.629   1.526  12.958  0.0260  1.0417  0.6465
 4678SOL     OW25666   0.716   2.297   9.075  0.0169 -0.1935 -0.4693
 4678SOL    HW125667   0.718   2.348   8.994  0.8181  2.0948  0.9884
 4678SOL    HW225668   0.689   2.353   9.148  0.5997  0.6576 -0.9095
 4679SOL     OW25669   4.468   2.160  14.410 -0.1748  0.1457  0.3514
 4679SOL    HW125670   4.485   2.099  14.338 -1.7170 -0.8443  0.8239
 4679SOL    HW225671   4.385   2.187  14.372 -0.2416 -1.0242 -0.3145
 4680SOL     OW25672   2.786   1.836   5.135 -0.0002 -0.0171 -0.2763
 4680SOL    HW125673   2.711   1.893   5.148 -0.6511 -1.0370  0.5036
 4680SOL    HW225674   2.749   1.766   5.190 -0.0588  0.1969 -0.0426
 4681SOL     OW25675   1.482   1.565   6.204  0.4269 -0.2175 -0.3115
 4681SOL    HW125676   1.545   1.632   6.229 -2.8079  2.7371  0.0446
 4681SOL    HW225677   1.408   1.587   6.261 -0.8540 -0.0065 -2.0487
 4682SOL     OW25678   1.092   0.623  13.829 -0.9566  0.6014  0.1099
 4682SOL    HW125679   1.067   0.714  13.845  1.1084  0.9971  1.0106
 4682SOL    HW225680   1.175   0.618  13.875 -1.6184 -1.1393  1.0983
 4683SOL     OW25681   4.366   3.877   7.844 -0.3839  0.1797 -0.9814
 4683SOL    HW125682   4.456   3.891   7.813  0.2339 -0.6464  0.4466
 4683SOL    HW225683   4.348   3.967   7.871  0.2422 -0.6210  2.1176
 4684SOL     OW25684   4.116   3.381  11.523  0.5383 -0.4548  0.0677
 4684SOL    HW125685   4.144   3.293  11.548 -0.4466 -0.7590  0.1135
 4684SOL    HW225686   4.190   3.407  11.469  0.7051  2.1142  1.5585
 4685SOL     OW25687   2.627   4.439  17.528 -0.2646  0.1575 -0.4214
 4685SOL    HW125688   2.549   4.417  17.579  1.1768 -0.6895  1.3759
 4685SOL    HW225689   2.616   4.534  17.528 -1.6646 -0.0054  0.4035
 4686SOL     OW25690   1.647   3.152   6.400  0.1734  0.2165  0.6123
 4686SOL    HW125691   1.577   3.089   6.419  0.5508 -0.8053 -1.2943
 4686SOL    HW225692   1.675   3.135   6.310 -0.0932  1.7092  0.2516
 4687SOL     OW25693   1.538   3.989   3.258  0.1103 -0.0655  0.1842
 4687SOL    HW125694   1.448   4.020   3.253  0.9625  1.8670 -3.1223
 4687SOL    HW225695   1.569   4.039   3.182 -0.3661 -1.0563 -0.6563
 4688SOL     OW25696   4.686   4.314   9.585  0.4786  0.5550  0.2956
 4688SOL    HW125697   4.673   4.267   9.502  0.5869 -0.5599  0.9068
 4688SOL    HW225698   4.627   4.389   9.573  0.3242  0.7257  2.1413
 4689SOL     OW25699   4.549   1.991  11.048  0.4397  0.1927  0.3571
 4689SOL    HW125700   4.489   1.957  10.981 -1.9711 -0.8208  3.0595
 4689SOL    HW225701   4.553   1.911  11.100  2.2306 -0.5089 -0.8462
 4690SOL     OW25702   2.155   1.721  16.781  0.0524  0.1068 -0.3374
 4690SOL    HW125703   2.081   1.662  16.798 -0.1320  0.2895 -0.4988
 4690SOL    HW225704   2.146   1.780  16.856  0.0354 -0.7837  0.3586
 4691SOL     OW25705   2.346   4.706   5.570 -0.0676 -0.0421 -0.4429
 4691SOL    HW125706   2.437   4.692   5.543  0.3936 -0.6253  1.3721
 4691SOL    HW225707   2.345   4.633   5.632  0.2970  1.1190  0.9295
 4692SOL     OW25708   0.250   0.889  14.812  0.1055 -0.4361 -0.1213
 4692SOL    HW125709   0.236   0.972  14.765 -2.0860 -0.0961  1.1055
 4692SOL    HW225710   0.343   0.873  14.803 -0.1101 -0.8315 -1.6342
 4693SOL     OW25711   0.074   2.432   5.671 -0.7349  0.3067 -0.0543
 4693SOL    HW125712   0.090   2.525   5.688  0.9698 -0.3691  2.0945
 4693SOL    HW225713   4.722   2.418   5.699 -0.8373 -0.8761 -1.0180
 4694SOL     OW25714   4.260   1.486  16.279 -0.3135 -0.2788  0.3145
 4694SOL    HW125715   4.205   1.466  16.355  1.7934  0.0662  1.9083
 4694SOL    HW225716   4.246   1.418  16.214  0.4466  0.7683 -0.9268
 4695SOL     OW25717   0.700   1.650   5.194 -0.2624  0.1702 -0.8925
 4695SOL    HW125718   0.644   1.704   5.249  1.4552  1.1640 -0.1436
 4695SOL    HW225719   0.692   1.704   5.115 -1.2166  1.8571  0.3817
 4696SOL     OW25720   3.619   4.553   0.906  0.2432 -1.3027  0.3327
 4696SOL    HW125721   3.610   4.600   0.824  1.2650 -1.6256  0.0366
 4696SOL    HW225722   3.665   4.616   0.962  1.2534  0.6515 -2.6806
 4697SOL     OW25723   0.965   2.348  12.778 -0.2614 -0.2042  0.0658
 4697SOL    HW125724   0.916   2.411  12.724  0.4619 -0.0389 -0.4039
 4697SOL    HW225725   0.952   2.379  12.867 -1.1951  0.1140 -0.1758
 4698SOL     OW25726   2.957   4.095  13.040  0.2004 -0.5313  0.0420
 4698SOL    HW125727   3.038   4.102  13.092 -0.3944  2.3048  0.6020
 4698SOL    HW225728   2.902   4.153  13.092 -0.4750 -0.5477 -0.6699
 4699SOL     OW25729   0.895   0.290   4.042  0.7184 -0.6096 -0.5448
 4699SOL    HW125730   0.888   0.265   3.950 -0.9494 -0.4973 -0.4430
 4699SOL    HW225731   0.827   0.232   4.076  1.1112 -0.5969  0.2709
 4700SOL     OW25732   0.043   1.469  14.756  0.0113  0.0749 -0.3940
 4700SOL    HW125733   4.723   1.400  14.787  1.1374 -0.6477  0.1211
 4700SOL    HW225734   0.092   1.488  14.836 -0.3371 -0.1186 -0.1367
 4701SOL     OW25735   3.065   4.006   5.486 -0.0321 -0.0944 -0.2214
 4701SOL    HW125736   2.990   3.947   5.492 -1.0810  1.1334 -1.3778
 4701SOL    HW225737   3.019   4.088   5.503  1.4762  0.7446 -0.2272
 4702SOL     OW25738   3.217   0.018   1.724 -0.1729  0.2742  0.3560
 4702SOL    HW125739   3.255   0.104   1.743  1.5274 -0.3544 -0.1737
 4702SOL    HW225740   3.262   4.719   1.648 -1.5771 -0.3314 -0.1931
 4703SOL     OW25741   4.502   1.569   3.345  0.7471 -0.0469  0.1689
 4703SOL    HW125742   4.427   1.511   3.332  0.6018  0.0415  0.6123
 4703SOL    HW225743   4.463   1.652   3.372  0.2693  0.3060 -1.5981
 4704SOL     OW25744   3.744   2.760   8.250 -0.3217  0.1705 -0.6719
 4704SOL    HW125745   3.653   2.779   8.228  0.7982  4.7958 -1.4735
 4704SOL    HW225746   3.784   2.784   8.166  1.2026 -1.8684 -0.5290
 4705SOL     OW25747   1.213   1.559  16.059 -0.1526  0.2836 -0.1595
 4705SOL    HW125748   1.208   1.488  16.122 -0.1076  0.3829 -0.0439
 4705SOL    HW225749   1.120   1.563  16.038  0.1245 -0.4881 -1.5394
 4706SOL     OW25750   3.841   1.922   8.097 -0.2488  0.0246  0.9095
 4706SOL    HW125751   3.840   1.936   8.002 -1.9094  2.7485  1.3316
 4706SOL    HW225752   3.812   2.004   8.138  1.7718  1.5236 -0.6680
 4707SOL     OW25753   0.666   1.396   8.917  0.0019 -0.3640 -0.1975
 4707SOL    HW125754   0.731   1.389   8.848  0.7944  0.1779  0.4940
 4707SOL    HW225755   0.658   1.303   8.938  1.0609 -0.0578  1.5392
 4708SOL     OW25756   2.440   0.625   0.631  0.0893 -0.0596 -0.4844
 4708SOL    HW125757   2.533   0.603   0.641 -0.2952 -1.0529  0.8430
 4708SOL    HW225758   2.434   0.628   0.535  1.2713 -0.1797 -0.5655
 4709SOL     OW25759   4.130   2.897   5.193 -0.8214 -0.0658  0.0028
 4709SOL    HW125760   4.173   2.869   5.111 -1.3329  1.2840 -0.7248
 4709SOL    HW225761   4.207   2.932   5.237 -0.7040 -1.2305  0.7116
 4710SOL     OW25762   1.580   1.106   3.469 -0.1374 -0.0697  0.3839
 4710SOL    HW125763   1.534   1.149   3.397  0.6383 -0.0148 -0.0807
 4710SOL    HW225764   1.671   1.098   3.440 -0.1616 -1.8107  0.7549
 4711SOL     OW25765   3.961   2.641   0.948  0.3150 -0.1811  0.1724
 4711SOL    HW125766   3.900   2.701   0.903  0.2489 -1.2021 -1.1104
 4711SOL    HW225767   4.025   2.623   0.879  0.1724  0.8969 -0.2522
 4712SOL     OW25768   4.681   4.465   6.670 -0.1423  0.0795 -0.7839
 4712SOL    HW125769   4.689   4.390   6.611 -1.3298  0.2779 -1.1991
 4712SOL    HW225770   4.734   4.429   6.741 -1.6282 -2.0757 -0.7582
 4713SOL     OW25771   0.057   3.413   2.259  0.1648 -0.1130 -0.1685
 4713SOL    HW125772   4.700   3.407   2.270  0.2014  0.1280  0.2745
 4713SOL    HW225773   0.082   3.327   2.225  0.4914 -0.4442  0.8885
 4714SOL     OW25774   0.969   0.577   5.324 -0.4183 -0.9674 -0.2263
 4714SOL    HW125775   0.944   0.495   5.365 -1.9882 -0.0618  0.6237
 4714SOL    HW225776   1.052   0.549   5.286 -1.3448 -2.9661 -0.7569
 4715SOL     OW25777   1.289   3.200   7.447  0.1690 -0.0965  0.0078
 4715SOL    HW125778   1.228   3.128   7.459  2.2071 -2.0881 -1.6510
 4715SOL    HW225779   1.236   3.267   7.403  2.2567  1.9917  0.6317
 4716SOL     OW25780   2.451   2.916   5.846  0.2609  0.2966 -0.6769
 4716SOL    HW125781   2.425   2.837   5.799  2.4274  0.1449 -1.6138
 4716SOL    HW225782   2.434   2.893   5.938  3.5923 -0.1957 -0.1833
 4717SOL     OW25783   1.236   2.787  14.770  0.3226  0.0589 -0.0271
 4717SOL    HW125784   1.212   2.700  14.804  1.7537 -0.2434  0.1935
 4717SOL    HW225785   1.317   2.763  14.725 -0.1570  1.0380 -1.4245
 4718SOL     OW25786   0.687   0.648   5.428 -0.5010 -0.4748 -0.5615
 4718SOL    HW125787   0.714   0.739   5.421  0.2137 -0.6990 -0.7350
 4718SOL    HW225788   0.762   0.611   5.381 -0.0204 -1.3610  0.9167
 4719SOL     OW25789   2.695   1.061   2.052 -0.3055  0.3512  0.1614
 4719SOL    HW125790   2.751   1.018   1.988 -1.2242 -2.0022  0.9307
 4719SOL    HW225791   2.607   1.051   2.015  0.1336 -0.2460 -0.7051
 4720SOL     OW25792   4.468   3.569   0.948  0.5182 -0.2199  0.2199
 4720SOL    HW125793   4.481   3.540   1.038  0.2857 -1.2374 -0.0617
 4720SOL    HW225794   4.527   3.643   0.941 -0.3437  0.2320 -2.3109
 4721SOL     OW25795   4.086   3.997   3.356  0.1136  0.0162  0.0229
 4721SOL    HW125796   4.161   3.991   3.297 -0.4540  0.5310 -0.7566
 4721SOL    HW225797   4.126   3.974   3.440 -1.2151 -2.4828 -0.0574
 4722SOL     OW25798   0.568   4.140   2.306  0.6417  0.2214  0.1232
 4722SOL    HW125799   0.521   4.213   2.266  0.9475  0.5082  0.2955
 4722SOL    HW225800   0.527   4.146   2.392 -0.7121 -0.2576 -0.4856
 4723SOL     OW25801   2.416   0.161   1.770  0.3684 -0.0593 -0.5222
 4723SOL    HW125802   2.503   0.141   1.806 -0.7489 -1.9879  1.1241
 4723SOL    HW225803   2.370   0.153   1.854  0.6265  1.4531 -0.2453
 4724SOL     OW25804   1.055   4.362   9.551 -0.2595 -0.0775 -0.0534
 4724SOL    HW125805   1.150   4.375   9.551 -0.5136  1.8004 -1.3175
 4724SOL    HW225806   1.039   4.306   9.626 -1.2753  1.2857  0.7563
 4725SOL     OW25807   2.383   0.979   3.993 -0.2264 -0.0824 -0.3666
 4725SOL    HW125808   2.408   0.887   3.998 -0.8388 -0.3458 -2.1655
 4725SOL    HW225809   2.313   0.992   4.057  1.4107  0.5065  1.2930
 4726SOL     OW25810   2.761   0.793  10.044  0.0027  0.1609 -0.6445
 4726SOL    HW125811   2.770   0.783  10.139 -0.0082  2.7267 -0.3688
 4726SOL    HW225812   2.818   0.723  10.013  0.2824  0.2048 -0.2364
 4727SOL     OW25813   0.166   0.827   6.325 -0.0936  0.1390  0.4111
 4727SOL    HW125814   0.074   0.829   6.352 -0.3449  0.8788 -0.5123
 4727SOL    HW225815   0.205   0.841   6.412 -0.3593 -1.8186  0.8498
 4728SOL     OW25816   3.362   2.920   6.389  1.0180 -0.1879 -0.3511
 4728SOL    HW125817   3.319   2.918   6.304  0.3579 -1.8201  0.0267
 4728SOL    HW225818   3.418   2.842   6.384 -0.1414 -0.9903 -0.7569
 4729SOL     OW25819   4.550   2.027   1.721 -0.0583 -0.4071 -0.2873
 4729SOL    HW125820   4.630   2.052   1.767  0.7698  1.0638 -2.5467
 4729SOL    HW225821   4.532   2.111   1.681  1.3980  0.3349  0.5901
 4730SOL     OW25822   0.157   3.245   0.274  0.0415  0.3132  0.0081
 4730SOL    HW125823   0.205   3.259   0.355  1.6116  3.3766 -1.4384
 4730SOL    HW225824   0.123   3.331   0.247  0.9431  1.3151  2.0410
 4731SOL     OW25825   0.697   0.197   6.001  0.1540  0.0991  0.4653
 4731SOL    HW125826   0.767   0.140   5.969 -0.6627 -0.2167 -0.7927
 4731SOL    HW225827   0.731   0.285   6.014 -1.3219  0.3018  2.8260
 4732SOL     OW25828   4.393   2.975   3.974  0.1618 -0.2882 -0.0099
 4732SOL    HW125829   4.330   2.973   3.902  0.7837 -0.1927 -0.5573
 4732SOL    HW225830   4.469   2.933   3.933 -0.8201  0.0046 -2.1096
 4733SOL     OW25831   0.631   4.389  12.469  0.6091  0.5704 -0.2032
 4733SOL    HW125832   0.596   4.381  12.558  1.1777 -0.8508 -0.1141
 4733SOL    HW225833   0.669   4.304  12.448  0.0295  0.9581 -2.8299
 4734SOL     OW25834   0.758   4.569   2.294 -0.3271 -0.2607  0.3728
 4734SOL    HW125835   0.721   4.607   2.373  1.6021 -0.5197  1.3871
 4734SOL    HW225836   0.696   4.594   2.226 -0.3999  1.1204  0.9418
 4735SOL     OW25837   2.933   2.022   2.592 -0.1105 -0.0908 -0.7554
 4735SOL    HW125838   2.938   2.057   2.503  1.0974  0.7724 -0.3546
 4735SOL    HW225839   2.928   1.928   2.576  2.0705 -0.1793 -0.9601
 4736SOL     OW25840   2.943   4.450  15.382 -0.1917  0.6267  0.0006
 4736SOL    HW125841   2.870   4.511  15.371  0.5522  0.9410 -3.4515
 4736SOL    HW225842   2.992   4.483  15.457  0.1683 -0.5761  0.2944
 4737SOL     OW25843   1.327   3.477   9.078  0.1819 -0.7927 -0.2673
 4737SOL    HW125844   1.235   3.503   9.079  0.0095 -1.4137  0.0076
 4737SOL    HW225845   1.335   3.427   9.160 -1.7927  0.8844  0.9372
 4738SOL     OW25846   0.103   1.013  15.971 -0.2464  0.0445  0.1397
 4738SOL    HW125847   0.094   0.931  16.019  0.6630  1.7969  3.3004
 4738SOL    HW225848   0.151   1.072  16.029  1.4327  0.7204 -1.9290
 4739SOL     OW25849   4.166   3.488   8.232 -0.2225 -0.4700  0.0774
 4739SOL    HW125850   4.127   3.571   8.204 -1.1637 -0.9942 -0.1347
 4739SOL    HW225851   4.084   3.444   8.250  0.6200 -1.5658  1.2266
 4740SOL     OW25852   4.439   2.403   8.940  0.8022 -0.5310 -0.4089
 4740SOL    HW125853   4.371   2.336   8.953  2.2742 -1.9133  0.2326
 4740SOL    HW225854   4.492   2.398   9.020 -0.6400  1.2794  0.6682
 4741SOL     OW25855   2.565   4.423   4.605 -0.0192  0.2952 -0.6389
 4741SOL    HW125856   2.607   4.350   4.651 -2.2727 -1.9186 -2.0756
 4741SOL    HW225857   2.481   4.386   4.578  1.3591 -2.0958 -1.6663
 4742SOL     OW25858   2.242   1.944   6.493 -0.4809  0.4037  0.3285
 4742SOL    HW125859   2.337   1.940   6.484 -0.5289  0.7356 -0.3307
 4742SOL    HW225860   2.223   1.852   6.514 -1.7023  0.6873  0.4851
 4743SOL     OW25861   2.368   0.308  11.725 -0.3950  0.6172 -0.5641
 4743SOL    HW125862   2.292   0.261  11.761 -1.1235  1.3941 -1.0820
 4743SOL    HW225863   2.320   0.365  11.665 -0.1939  2.0661  0.6437
 4744SOL     OW25864   1.023   2.049   2.415  0.3554  0.1799  0.0039
 4744SOL    HW125865   1.031   2.116   2.347  1.6802  1.0954  1.0639
 4744SOL    HW225866   1.101   2.059   2.469 -1.4621  1.1541  2.4589
 4745SOL     OW25867   3.928   3.211   8.077 -0.0969  0.0642 -0.0309
 4745SOL    HW125868   3.923   3.287   8.018  0.7727  1.1598  1.2981
 4745SOL    HW225869   3.841   3.176   8.056  1.0532 -1.9487 -1.3961
 4746SOL     OW25870   3.870   0.177   9.079  0.9130 -0.1989  0.3275
 4746SOL    HW125871   3.820   0.103   9.045 -0.4642  1.4278 -1.2277
 4746SOL    HW225872   3.960   0.174   9.047  0.9049  1.3731  0.1148
 4747SOL     OW25873   4.374   0.163   7.223  0.0416  0.1467 -0.6960
 4747SOL    HW125874   4.336   0.200   7.143  0.7360  2.8663  0.2139
 4747SOL    HW225875   4.420   0.088   7.185  0.8294 -0.0747  0.6598
 4748SOL     OW25876   4.130   1.011   5.493  0.5059  0.0177  0.0670
 4748SOL    HW125877   4.181   1.084   5.456  0.1710 -0.2052 -0.8200
 4748SOL    HW225878   4.072   1.064   5.548  2.6719  1.6379  0.8123
 4749SOL     OW25879   4.465   0.051   4.015  0.6641  0.6772  1.0119
 4749SOL    HW125880   4.500   0.138   4.029  1.3936  0.6001 -0.3454
 4749SOL    HW225881   4.526   0.009   3.954 -2.5406  0.4233 -2.0319
 4750SOL     OW25882   0.639   3.920   6.704  0.1570  0.1327 -0.2349
 4750SOL    HW125883   0.581   3.892   6.633  0.0145 -1.7266  0.6296
 4750SOL    HW225884   0.685   3.839   6.722 -1.5648 -0.7392  0.2411
 4751SOL     OW25885   3.342   4.733   5.018 -0.1732 -0.0431 -0.2439
 4751SOL    HW125886   3.420   4.698   4.974 -0.6687 -3.2575  1.4530
 4751SOL    HW225887   3.296   0.032   4.943 -1.3012 -2.5768 -0.8011
 4752SOL     OW25888   3.002   4.508   0.281  0.2238 -0.5252  0.2012
 4752SOL    HW125889   2.998   4.422   0.324 -1.5358 -1.0595 -1.0578
 4752SOL    HW225890   3.076   4.552   0.324  1.8799 -2.1034 -1.0200
 4753SOL     OW25891   1.762   1.690   2.875  0.2741  0.0701  0.0479
 4753SOL    HW125892   1.696   1.720   2.813  0.4074 -1.8697 -1.0167
 4753SOL    HW225893   1.831   1.753   2.854  2.4589 -3.4073 -3.1301
 4754SOL     OW25894   2.981   2.345   4.220  0.0205 -0.2519 -0.3157
 4754SOL    HW125895   3.055   2.284   4.216 -0.1201 -0.5361  1.2533
 4754SOL    HW225896   2.953   2.315   4.307 -0.4486  1.0958 -0.0060
 4755SOL     OW25897   0.349   0.137   7.543 -0.4788  0.0396  0.0626
 4755SOL    HW125898   0.297   0.142   7.623  1.2952  1.2024  1.1421
 4755SOL    HW225899   0.416   0.072   7.563 -1.5383 -0.4814  1.9403
 4756SOL     OW25900   2.229   0.716   3.890 -0.6296 -0.4933 -0.5065
 4756SOL    HW125901   2.308   0.726   3.943 -1.6122 -3.0278  1.4569
 4756SOL    HW225902   2.210   0.626   3.917 -1.7627 -0.3509 -0.8381
 4757SOL     OW25903   1.504   1.308   5.960 -0.1913 -0.3900  0.2444
 4757SOL    HW125904   1.560   1.352   5.895 -0.5206 -0.3435 -0.0078
 4757SOL    HW225905   1.502   1.213   5.946 -0.0718 -0.7059  2.4155
 4758SOL     OW25906   2.392   0.087   1.368 -0.0247  0.3831  0.2212
 4758SOL    HW125907   2.476   0.127   1.392 -0.0204  0.9930 -0.7838
 4758SOL    HW225908   2.368   0.145   1.295 -3.3073 -0.1879  0.8764
 4759SOL     OW25909   4.266   1.397   3.374 -0.1321  0.0912 -0.1833
 4759SOL    HW125910   4.218   1.315   3.383 -0.3808  0.2674  0.1017
 4759SOL    HW225911   4.198   1.460   3.351  1.8615  3.0739  1.9666
 4760SOL     OW25912   3.083   0.495  12.565  0.5247  0.3120  0.4792
 4760SOL    HW125913   3.104   0.412  12.522  1.1677  0.3161  0.7925
 4760SOL    HW225914   3.135   0.497  12.645  2.7321 -0.4826 -0.9469
 4761SOL     OW25915   1.781   0.189   5.716  0.5662 -0.1107 -0.3310
 4761SOL    HW125916   1.794   0.238   5.635  0.8227  1.1869  0.5060
 4761SOL    HW225917   1.697   0.146   5.696 -0.3002  0.8213  1.3460
 4762SOL     OW25918   1.003   1.671  16.845  0.0514 -0.2119  0.0638
 4762SOL    HW125919   1.064   1.702  16.912  0.0140 -0.6068  0.2821
 4762SOL    HW225920   1.065   1.621  16.792  1.4170  0.9686  0.5408
 4763SOL     OW25921   2.726   3.617   5.904 -0.8062 -0.2824 -0.1040
 4763SOL    HW125922   2.689   3.531   5.884 -1.6964  0.0643  0.0465
 4763SOL    HW225923   2.671   3.652   5.974  1.2506  0.7926  0.9817
 4764SOL     OW25924   1.854   0.082   8.032 -0.2346  0.0320  0.0616
 4764SOL    HW125925   1.907   0.154   7.995  0.1212  0.0288  0.5696
 4764SOL    HW225926   1.917   0.040   8.090  1.1972  0.0450 -1.4804
 4765SOL     OW25927   1.515   2.304   3.206 -0.2105  0.1032  0.1687
 4765SOL    HW125928   1.549   2.380   3.158  0.6234  0.8859  1.9888
 4765SOL    HW225929   1.598   2.266   3.234 -0.3257  1.1510  1.9996
 4766SOL     OW25930   3.263   3.490   6.779 -0.6098 -0.2203 -0.3205
 4766SOL    HW125931   3.324   3.423   6.811  0.5076  1.1947  0.5502
 4766SOL    HW225932   3.273   3.497   6.684  1.5139 -1.7636 -0.2194
 4767SOL     OW25933   3.647   0.149   4.705 -0.0902  0.0608 -0.4569
 4767SOL    HW125934   3.610   0.202   4.634 -1.5185 -0.1658  0.1102
 4767SOL    HW225935   3.609   0.062   4.693 -0.1823 -0.1822  1.6711
 4768SOL     OW25936   0.997   3.970  11.203 -0.0765 -0.4652 -0.2805
 4768SOL    HW125937   1.014   4.013  11.120 -2.0056 -1.1919 -1.0631
 4768SOL    HW225938   1.006   3.877  11.181  1.5522 -0.1491 -0.9179
 4769SOL     OW25939   0.636   2.670   8.725  0.3590  0.6084 -0.2352
 4769SOL    HW125940   0.628   2.761   8.694 -2.3564  0.3030 -0.4092
 4769SOL    HW225941   0.546   2.662   8.755  0.8951  0.5736  1.3612
 4770SOL     OW25942   1.594   4.179   7.976 -0.4427  0.0017 -0.5844
 4770SOL    HW125943   1.594   4.139   7.890 -0.7334  0.1878 -0.6708
 4770SOL    HW225944   1.656   4.252   7.970  2.2605 -2.3489 -0.8008
 4771SOL     OW25945   3.780   3.464   8.479  0.4478 -0.2518 -0.2280
 4771SOL    HW125946   3.819   3.399   8.538  0.5385  1.8076  1.9747
 4771SOL    HW225947   3.686   3.450   8.493  0.5209 -0.1976  0.3464
 4772SOL     OW25948   0.277   1.957   2.798  0.9400  0.0872 -0.1414
 4772SOL    HW125949   0.202   1.978   2.854  0.8271 -1.4244  0.2693
 4772SOL    HW225950   0.333   2.032   2.816 -0.9448  0.7546  2.9615
 4773SOL     OW25951   0.405   1.129  14.350 -0.5841 -0.1192 -0.3779
 4773SOL    HW125952   0.478   1.085  14.306 -0.9289  0.1397 -1.2160
 4773SOL    HW225953   0.426   1.222  14.345  4.3433 -1.3099 -1.7932
 4774SOL     OW25954   1.967   1.572  11.430  0.5489  0.6698  0.2696
 4774SOL    HW125955   1.884   1.525  11.421  0.6491  0.5628 -0.0871
 4774SOL    HW225956   1.947   1.624  11.353  0.6158 -1.2739 -1.0734
 4775SOL     OW25957   2.380   4.038   9.687 -0.2819 -0.3250 -0.3422
 4775SOL    HW125958   2.313   4.079   9.740  0.3505 -1.1891  1.1181
 4775SOL    HW225959   2.428   4.015   9.766 -1.0788 -0.7932 -0.0030
 4776SOL     OW25960   0.681   4.318   8.084 -0.0353  0.2481 -0.0650
 4776SOL    HW125961   0.740   4.392   8.068  0.6207 -0.5931 -1.5947
 4776SOL    HW225962   0.737   4.240   8.086  0.2339  0.4331 -0.3630
 4777SOL     OW25963   0.536   3.438  13.557  1.0313 -0.3983 -0.0940
 4777SOL    HW125964   0.524   3.443  13.462  1.5801 -0.2359 -0.1569
 4777SOL    HW225965   0.479   3.361  13.566  0.1779  0.1944 -0.4928
 4778SOL     OW25966   2.838   3.201   1.593 -0.3375 -0.1262 -0.1598
 4778SOL    HW125967   2.801   3.114   1.581 -0.0732  0.0740 -2.4874
 4778SOL    HW225968   2.800   3.245   1.517 -1.7667 -0.4047  0.4070
 4779SOL     OW25969   4.125   0.997   7.410  0.2107  0.0244  0.2722
 4779SOL    HW125970   4.103   0.904   7.403 -0.0013  0.2115 -1.4974
 4779SOL    HW225971   4.137   1.007   7.505  0.1009 -1.3974  0.4376
 4780SOL     OW25972   4.286   0.237   0.770 -0.5949  0.6814 -0.4398
 4780SOL    HW125973   4.232   0.315   0.760  1.1497  1.9981  0.3548
 4780SOL    HW225974   4.240   0.215   0.851  0.1210  0.0130 -0.2128
 4781SOL     OW25975   0.102   1.066   1.748  0.3947  0.4234 -0.4667
 4781SOL    HW125976   0.123   1.075   1.841  1.4759  2.1385 -0.8871
 4781SOL    HW225977   0.191   1.080   1.716 -0.3611  0.9702 -2.3656
 4782SOL     OW25978   4.286   3.256  11.079  0.6633 -0.3083 -0.3915
 4782SOL    HW125979   4.356   3.228  11.138  0.4744 -0.3749 -0.1993
 4782SOL    HW225980   4.311   3.348  11.070  0.5944 -0.3199 -0.6919
 4783SOL     OW25981   1.701   4.018   2.605  0.5973 -0.4684 -0.3862
 4783SOL    HW125982   1.796   4.026   2.610  0.6252 -0.7895 -0.3738
 4783SOL    HW225983   1.671   4.108   2.618  1.4687 -0.2047 -0.1965
 4784SOL     OW25984   4.013   3.382  13.365  0.1412 -0.2207 -0.3746
 4784SOL    HW125985   4.002   3.473  13.335  0.3535  0.1847  0.7977
 4784SOL    HW225986   3.962   3.384  13.446  1.8029 -1.1985  0.6803
 4785SOL     OW25987   3.556   3.503   4.365  0.3114 -0.0193 -0.0901
 4785SOL    HW125988   3.586   3.554   4.290  1.5980  0.1197  0.5266
 4785SOL    HW225989   3.633   3.448   4.379  0.5489  0.9339  2.3483
 4786SOL     OW25990   3.221   2.712   4.215  0.6172 -0.0919 -0.9481
 4786SOL    HW125991   3.149   2.649   4.215 -1.6727  2.5451  1.1249
 4786SOL    HW225992   3.202   2.765   4.137  0.7263  0.6577 -0.4665
 4787SOL     OW25993   2.153   4.557  12.187  0.0677 -0.1402 -0.1525
 4787SOL    HW125994   2.174   4.639  12.231 -0.5095  0.6156 -1.3081
 4787SOL    HW225995   2.068   4.545  12.229  0.7526  1.1109  1.6116
 4788SOL     OW25996   0.183   0.891  15.739 -0.8283 -0.1447 -0.3114
 4788SOL    HW125997   0.145   0.942  15.811 -2.6465 -0.5739 -0.9814
 4788SOL    HW225998   0.277   0.907  15.751 -0.4010 -2.6025 -0.3904
 4789SOL     OW25999   1.706   1.717   6.270  0.4261 -0.1992  0.2747
 4789SOL    HW126000   1.796   1.708   6.240  0.2297 -0.0245 -0.3706
 4789SOL    HW226001   1.696   1.812   6.271 -1.4899 -0.3663 -1.1334
 4790SOL     OW26002   2.940   0.279   2.332  0.2821 -0.1280 -0.2528
 4790SOL    HW126003   2.935   0.262   2.426 -3.5412  1.3452 -0.1860
 4790SOL    HW226004   3.035   0.278   2.327  0.3293  0.4755  0.5381
 4791SOL     OW26005   3.354   2.905   7.743 -0.3731  0.6497  0.1379
 4791SOL    HW126006   3.331   2.909   7.651 -3.8227  1.5370  1.0394
 4791SOL    HW226007   3.305   2.975   7.786 -0.2018  1.3965 -0.8814
 4792SOL     OW26008   1.382   2.393   1.912 -0.2550 -0.1747 -0.2699
 4792SOL    HW126009   1.458   2.423   1.962 -0.4551  1.0260 -0.6952
 4792SOL    HW226010   1.315   2.453   1.945 -0.4134  0.5471 -1.8959
 4793SOL     OW26011   4.598   4.707   9.229 -0.1015  0.4824  0.2721
 4793SOL    HW126012   4.666   0.000   9.289  0.3043  0.6630 -0.2796
 4793SOL    HW226013   4.530   4.670   9.285  0.0750 -1.5611 -0.8620
 4794SOL     OW26014   2.774   3.118   0.009  0.0331 -0.0907  0.2524
 4794SOL    HW126015   2.701   3.057   0.015  0.3485 -0.3836  1.1700
 4794SOL    HW226016   2.841   3.057  17.728 -1.4095 -0.9681 -1.0659
 4795SOL     OW26017   4.443   0.880   2.172  0.6323  0.1180  0.2536
 4795SOL    HW126018   4.400   0.942   2.115 -2.0067 -2.5173 -0.6044
 4795SOL    HW226019   4.511   0.938   2.206 -1.1377  2.5298 -0.3506
 4796SOL     OW26020   0.005   0.518   3.319 -0.1394  0.1683  0.1312
 4796SOL    HW126021   0.007   0.516   3.415 -1.3014 -1.4050  0.1208
 4796SOL    HW226022   4.675   0.453   3.301 -0.0174  0.2157 -0.4996
 4797SOL     OW26023   4.164   2.660   9.224  0.1167 -0.5824 -0.0914
 4797SOL    HW126024   4.076   2.692   9.244  1.0240  1.2872  0.9577
 4797SOL    HW226025   4.152   2.569   9.253 -1.1831  0.5673  3.0506
 4798SOL     OW26026   3.143   3.167  10.885 -0.0274 -0.8113  0.3175
 4798SOL    HW126027   3.084   3.236  10.914 -0.7886 -1.9651  1.4888
 4798SOL    HW226028   3.094   3.095  10.925 -3.9636  1.8902  0.2274
 4799SOL     OW26029   0.711   3.896  13.442  0.3232  0.0595  0.1390
 4799SOL    HW126030   0.648   3.966  13.458  1.9193  1.9981 -2.0546
 4799SOL    HW226031   0.794   3.912  13.487 -0.1790 -0.0914  1.1101
 4800SOL     OW26032   3.967   0.367  16.973  0.0490 -0.1735 -0.2584
 4800SOL    HW126033   4.016   0.297  17.017  0.1220  0.3145  0.4231
 4800SOL    HW226034   4.034   0.434  16.965  1.2885 -0.9123  3.8227
 4801SOL     OW26035   2.048   4.533   8.949  0.0448 -0.0206  0.1282
 4801SOL    HW126036   2.107   4.468   8.986 -0.7465 -1.9000 -1.8453
 4801SOL    HW226037   2.101   4.597   8.902 -0.9005  1.3585  0.9342
 4802SOL     OW26038   4.160   3.705   1.059  0.4159 -0.2889 -0.3907
 4802SOL    HW126039   4.185   3.613   1.051  3.2864  0.3231  1.3329
 4802SOL    HW226040   4.146   3.721   0.966 -0.4988 -0.0615 -0.2213
 4803SOL     OW26041   1.524   0.459   1.899  0.1049 -0.1800 -0.0817
 4803SOL    HW126042   1.613   0.427   1.912  0.2401  0.4411  0.5448
 4803SOL    HW226043   1.527   0.531   1.835 -1.1624 -0.5095 -0.5175
 4804SOL     OW26044   0.825   1.678   3.463 -0.0173 -0.0204 -0.1741
 4804SOL    HW126045   0.739   1.691   3.423 -0.4382 -0.2985  0.6402
 4804SOL    HW226046   0.832   1.733   3.542 -1.2104  2.0664 -1.5180
 4805SOL     OW26047   3.239   4.227  16.819 -0.3544 -0.4591 -0.2922
 4805SOL    HW126048   3.246   4.308  16.869  1.1222 -1.5499  1.2914
 4805SOL    HW226049   3.271   4.163  16.883 -2.8197 -0.3362  1.0707
 4806SOL     OW26050   1.600   1.486   3.496  0.1410 -0.2725  0.4618
 4806SOL    HW126051   1.693   1.505   3.483 -0.2177  1.5040  0.5170
 4806SOL    HW226052   1.599   1.454   3.586 -2.6631 -2.2080 -0.2886
 4807SOL     OW26053   4.584   4.460   5.751 -0.1897 -0.6083 -0.1925
 4807SOL    HW126054   4.648   4.392   5.772  1.0831  0.5064 -0.4384
 4807SOL    HW226055   4.564   4.446   5.659  0.3311  0.5778 -0.4943
 4808SOL     OW26056   2.198   4.097   2.270 -0.0284  0.1145 -0.0119
 4808SOL    HW126057   2.270   4.041   2.297  0.9625  1.6257  0.4740
 4808SOL    HW226058   2.186   4.071   2.179 -1.3509  0.6749  0.0065
 4809SOL     OW26059   1.202   2.894   5.819  0.1217  0.1250  0.5274
 4809SOL    HW126060   1.131   2.841   5.784  2.5440 -1.9795 -1.1578
 4809SOL    HW226061   1.260   2.874   5.745 -0.5480  0.6347 -0.1393
 4810SOL     OW26062   1.213   1.276   8.360  0.1218 -0.3942  0.0009
 4810SOL    HW126063   1.278   1.263   8.291  0.5288  2.2906 -0.1375
 4810SOL    HW226064   1.269   1.298   8.435  2.6828  0.7294 -2.2150
 4811SOL     OW26065   1.405   2.138   4.554 -0.2617 -0.0421 -0.2580
 4811SOL    HW126066   1.376   2.106   4.469 -0.7744  0.4518 -0.2641
 4811SOL    HW226067   1.490   2.093   4.561 -1.1026 -1.5824  0.1255
 4812SOL     OW26068   4.219   0.310  11.756  0.3223  0.2546  0.0993
 4812SOL    HW126069   4.175   0.276  11.679  0.8248  1.2704 -0.6375
 4812SOL    HW226070   4.262   0.391  11.726  3.2639 -1.3982 -0.1419
 4813SOL     OW26071   3.487   0.361  15.871 -0.1164 -0.3957  0.1186
 4813SOL    HW126072   3.457   0.407  15.949  0.0064 -3.6025  2.0519
 4813SOL    HW226073   3.414   0.315  15.831  0.9641 -0.0380 -2.2694
 4814SOL     OW26074   0.569   1.714   7.775  0.5778 -0.0587 -0.0084
 4814SOL    HW126075   0.527   1.741   7.694 -0.4726  0.3065  0.6537
 4814SOL    HW226076   0.524   1.633   7.798  0.3351 -0.4550 -1.9249
 4815SOL     OW26077   1.541   1.800  14.233 -0.4911  0.2139  0.1838
 4815SOL    HW126078   1.502   1.755  14.158  0.3682 -2.2561  1.2548
 4815SOL    HW226079   1.534   1.735  14.303 -1.3204  0.4191  0.2942
 4816SOL     OW26080   3.514   3.162   7.509 -0.6314  0.0546  0.2867
 4816SOL    HW126081   3.492   3.093   7.447 -2.3993  1.8770 -1.1191
 4816SOL    HW226082   3.456   3.233   7.480 -2.0828 -0.8735  0.9247
 4817SOL     OW26083   0.975   2.136  12.379  0.4313  0.5090  0.0747
 4817SOL    HW126084   0.992   2.042  12.386  1.9419  0.6693 -1.2107
 4817SOL    HW226085   0.961   2.138  12.473  0.9769  0.6383  0.1533
 4818SOL     OW26086   1.409   0.194   8.056  0.0891  0.0067  0.3111
 4818SOL    HW126087   1.382   0.114   8.010  1.1102 -0.4745  0.5346
 4818SOL    HW226088   1.327   0.240   8.073  0.5781  0.4737  1.3955
 4819SOL     OW26089   0.502   1.320   6.885  0.1722  0.4699 -0.1296
 4819SOL    HW126090   0.438   1.337   6.816  1.2357  0.8291 -1.0263
 4819SOL    HW226091   0.476   1.233   6.915 -2.4685  1.5375  0.6507
 4820SOL     OW26092   2.053   2.433   5.956 -0.0367 -0.1942  0.2647
 4820SOL    HW126093   1.986   2.371   5.985  2.0747 -1.3297  2.6172
 4820SOL    HW226094   2.059   2.496   6.027 -4.4777  0.7093 -0.1544
 4821SOL     OW26095   2.709   0.299   5.870 -0.0654 -0.2361 -0.5406
 4821SOL    HW126096   2.778   0.239   5.897 -0.1671 -0.1854 -0.1584
 4821SOL    HW226097   2.736   0.386   5.899 -0.6511 -0.6491  1.2668
 4822SOL     OW26098   2.791   0.560   4.977  0.3944  0.7681  0.7404
 4822SOL    HW126099   2.753   0.473   4.986  0.7717  0.4086 -1.2083
 4822SOL    HW226100   2.761   0.578   4.888 -3.1050 -0.7300  1.6147
 4823SOL     OW26101   0.271   2.333   4.805  0.2781  0.1137 -0.3381
 4823SOL    HW126102   0.222   2.265   4.758 -2.4623  1.6200  0.3409
 4823SOL    HW226103   0.358   2.304   4.778  0.9892  1.2717  0.7103
 4824SOL     OW26104   4.357   0.195  15.051  0.1732  0.0410 -0.6225
 4824SOL    HW126105   4.284   0.223  15.108  0.1186  1.5875 -1.4546
 4824SOL    HW226106   4.366   0.263  14.984  0.1560 -1.3761 -2.0420
 4825SOL     OW26107   1.180   3.473   0.926 -0.1365  0.4298 -0.3726
 4825SOL    HW126108   1.197   3.567   0.924 -0.4128  0.4772 -0.6464
 4825SOL    HW226109   1.216   3.445   0.841 -3.2847 -0.3624 -1.4596
 4826SOL     OW26110   0.657   1.541   8.194 -0.1079  0.1998  0.1815
 4826SOL    HW126111   0.651   1.503   8.107  0.7272 -0.4209  0.3977
 4826SOL    HW226112   0.668   1.465   8.251  0.8388 -0.0062 -0.2838
 4827SOL     OW26113   1.343   1.629  10.404  0.1702 -0.4781  0.0801
 4827SOL    HW126114   1.256   1.619  10.365 -0.0086  1.6490 -0.0689
 4827SOL    HW226115   1.363   1.715  10.366  2.4028 -0.1676  2.0222
 4828SOL     OW26116   3.102   2.892   4.789 -0.2844 -0.5525 -0.6713
 4828SOL    HW126117   3.020   2.913   4.744 -0.5302  0.7121  0.3788
 4828SOL    HW226118   3.123   2.975   4.831 -0.9423 -1.4537  1.4414
 4829SOL     OW26119   0.447   2.698   0.102  0.2351 -0.3951 -0.8830
 4829SOL    HW126120   0.375   2.732   0.155 -0.2212 -1.3641 -0.8852
 4829SOL    HW226121   0.500   2.635   0.152 -0.7799 -0.8057 -0.3399
 4830SOL     OW26122   1.043   2.716   1.177 -0.1518  0.5266  0.7286
 4830SOL    HW126123   1.020   2.636   1.225 -0.8861  0.3379  0.0596
 4830SOL    HW226124   0.962   2.753   1.142  0.9617  1.6574 -0.6361
 4831SOL     OW26125   0.402   3.117   4.225  0.1387  0.3395 -0.2160
 4831SOL    HW126126   0.369   3.174   4.294  2.0252  1.0675  0.0869
 4831SOL    HW226127   0.376   3.031   4.258 -1.6922  0.7835 -0.4892
 4832SOL     OW26128   3.978   0.941  10.553  0.3326 -0.1925  0.1549
 4832SOL    HW126129   3.902   0.891  10.523  0.0711  0.1047  0.3181
 4832SOL    HW226130   4.028   0.878  10.603  1.7495  2.2680  1.8376
 4833SOL     OW26131   2.376   1.047   3.500 -0.0669 -0.1209 -0.0506
 4833SOL    HW126132   2.328   1.038   3.583  0.4937 -3.1903 -0.0837
 4833SOL    HW226133   2.343   1.133   3.474 -0.3683 -0.2747 -0.1696
 4834SOL     OW26134   1.373   0.556   7.931  0.4645  0.1229  0.6944
 4834SOL    HW126135   1.370   0.531   8.023 -3.3842  1.3716  0.9246
 4834SOL    HW226136   1.340   0.645   7.943 -1.0098 -0.3573  0.2608
 4835SOL     OW26137   2.915   2.452   2.868 -0.7953 -0.7749 -0.2320
 4835SOL    HW126138   2.907   2.357   2.879  0.0025 -0.8769 -0.5547
 4835SOL    HW226139   2.907   2.482   2.959 -0.9859 -1.7167  0.0635
 4836SOL     OW26140   2.179   4.539   4.448 -0.2416  0.2208 -0.0574
 4836SOL    HW126141   2.118   4.508   4.515 -0.3953 -0.3878 -0.4786
 4836SOL    HW226142   2.234   4.461   4.440 -1.6704 -1.0957  3.0979
 4837SOL     OW26143   1.953   1.606  16.956  0.2549 -0.7809 -0.1021
 4837SOL    HW126144   1.915   1.519  16.940 -1.5277  0.1678 -0.9769
 4837SOL    HW226145   2.039   1.576  16.986 -0.7848 -2.5463  1.0895
 4838SOL     OW26146   4.557   1.307   6.801  0.5406 -0.2151  0.4959
 4838SOL    HW126147   4.589   1.229   6.845 -0.3536 -1.8401 -1.7277
 4838SOL    HW226148   4.478   1.329   6.851  0.8706  0.3980  0.7481
 4839SOL     OW26149   1.662   1.904   7.401  0.2495 -0.5655 -0.1593
 4839SOL    HW126150   1.692   1.985   7.359 -1.8424 -0.5685 -1.6403
 4839SOL    HW226151   1.740   1.896   7.457 -0.8923  1.6691  1.7559
 4840SOL     OW26152   0.510   2.125  17.116  0.0820 -0.2847  0.1226
 4840SOL    HW126153   0.422   2.137  17.152  0.5132  1.3569  0.6338
 4840SOL    HW226154   0.556   2.156  17.194 -1.3072  0.5047  0.6203
 4841SOL     OW26155   3.221   0.433   6.953  0.3620  0.0751  0.0125
 4841SOL    HW126156   3.303   0.434   6.903  0.7010  1.0160  0.5954
 4841SOL    HW226157   3.242   0.486   7.029  2.1896  0.6463 -0.9050
 4842SOL     OW26158   2.099   0.795   2.520  0.3672  0.1344  0.2381
 4842SOL    HW126159   2.102   0.720   2.461  0.5475  0.2459  0.1038
 4842SOL    HW226160   2.048   0.765   2.595 -2.5979  0.6647 -1.5842
 4843SOL     OW26161   4.209   3.841  16.429 -0.3080 -0.0441  0.3959
 4843SOL    HW126162   4.220   3.748  16.410  0.9016  0.1051  0.3172
 4843SOL    HW226163   4.148   3.872  16.363  2.1564 -0.0017 -1.8619
 4844SOL     OW26164   2.143   2.295  17.504 -0.1555  0.3237  0.0136
 4844SOL    HW126165   2.067   2.292  17.562 -0.8303  0.0401 -0.8808
 4844SOL    HW226166   2.115   2.350  17.431  4.3920  0.4786 -1.6121
 4845SOL     OW26167   1.400   3.892   8.161 -0.5087 -0.2248 -0.1796
 4845SOL    HW126168   1.493   3.888   8.136 -0.3831 -0.7323  0.3738
 4845SOL    HW226169   1.409   3.812   8.214  3.0208  0.7248  0.6910
 4846SOL     OW26170   3.230   4.514   2.182 -0.7263 -0.1829 -0.0553
 4846SOL    HW126171   3.224   4.453   2.108 -0.1415 -1.4029  0.9045
 4846SOL    HW226172   3.284   4.582   2.141 -2.0814  1.0225  0.1422
 4847SOL     OW26173   2.002   0.064   5.344 -0.2005  0.1823 -0.1374
 4847SOL    HW126174   2.017   0.158   5.354 -1.2199  0.4880 -1.4685
 4847SOL    HW226175   1.911   0.057   5.315 -0.3546 -0.9112  0.6062
 4848SOL     OW26176   0.063   3.807   5.293  0.4181  0.2359 -0.4985
 4848SOL    HW126177   0.085   3.850   5.376 -0.7492 -1.4037  0.6718
 4848SOL    HW226178   0.066   3.886   5.239  1.2920 -0.2424 -1.1575
 4849SOL     OW26179   1.468   0.125   8.434  0.6744 -0.0226  0.3457
 4849SOL    HW126180   1.484   0.045   8.485  0.3518 -0.4289 -0.1910
 4849SOL    HW226181   1.538   0.131   8.369  0.8840 -2.5355  0.3250
 4850SOL     OW26182   2.175   1.441   6.874 -0.0535  0.2756  0.2230
 4850SOL    HW126183   2.096   1.484   6.840 -0.3728  1.9743  3.1594
 4850SOL    HW226184   2.198   1.493   6.950 -0.8997 -0.6020  1.0732
 4851SOL     OW26185   3.413   1.609   3.676  0.2547 -0.0976  0.1133
 4851SOL    HW126186   3.470   1.596   3.600  0.2994  1.8899 -0.2172
 4851SOL    HW226187   3.477   1.664   3.722 -0.2045  2.3484 -2.1194
 4852SOL     OW26188   0.006   4.024   2.451  0.0462 -0.8224  0.4278
 4852SOL    HW126189   4.689   4.101   2.437 -0.0044 -1.0711 -0.7778
 4852SOL    HW226190   4.689   3.962   2.403  1.2993 -0.8913 -0.9380
 4853SOL     OW26191   4.058   0.625   3.073 -0.0178  0.2907  0.2459
 4853SOL    HW126192   3.996   0.648   3.005  0.4489  0.0154 -0.2785
 4853SOL    HW226193   4.111   0.704   3.077 -0.6820  0.7108  0.7170
 4854SOL     OW26194   3.055   2.038   3.357  0.2042 -0.1598 -0.3285
 4854SOL    HW126195   3.125   1.979   3.329  0.0250 -0.1920 -0.7099
 4854SOL    HW226196   3.083   2.067   3.444  1.6426  1.0141 -1.2018
 4855SOL     OW26197   3.676   2.276   8.526 -0.0239  0.7427  0.3201
 4855SOL    HW126198   3.592   2.236   8.545  1.0071 -1.0396  1.1284
 4855SOL    HW226199   3.682   2.346   8.591  2.3393 -0.0280  0.9369
 4856SOL     OW26200   1.101   2.500   9.255 -0.1157 -0.0340 -0.0861
 4856SOL    HW126201   1.091   2.496   9.160  1.7968 -0.1501 -0.2941
 4856SOL    HW226202   1.019   2.538   9.284  0.5928  0.4444  1.3099
 4857SOL     OW26203   3.355   3.535  15.121 -0.1514 -0.2221  0.0917
 4857SOL    HW126204   3.345   3.482  15.042  1.1826 -1.3846  0.7165
 4857SOL    HW226205   3.263   3.540  15.146 -0.0929 -0.2206  0.3010
 4858SOL     OW26206   2.617   4.268   3.376  0.0996 -0.4934  0.1742
 4858SOL    HW126207   2.596   4.211   3.450 -1.2477 -0.2007  0.0285
 4858SOL    HW226208   2.695   4.313   3.407 -0.2872  0.6433 -0.5082
 4859SOL     OW26209   0.463   3.656   2.827 -0.5107  0.1670 -0.0045
 4859SOL    HW126210   0.481   3.600   2.751 -0.8223 -0.2382  0.2196
 4859SOL    HW226211   0.370   3.678   2.824 -0.4543  0.1591 -1.6505
 4860SOL     OW26212   0.983   1.741   0.785  0.2436 -0.1577 -0.1278
 4860SOL    HW126213   0.996   1.659   0.737 -1.4756 -0.2877 -0.3716
 4860SOL    HW226214   0.913   1.793   0.746 -0.2466 -1.2559 -0.7072
 4861SOL     OW26215   0.997   0.801   2.993 -0.5005  0.3039  0.0225
 4861SOL    HW126216   0.977   0.799   2.899  0.7968  0.3208 -0.2537
 4861SOL    HW226217   0.928   0.748   3.033 -0.2809  0.1058  0.1378
 4862SOL     OW26218   3.997   3.521   7.691  0.3361  0.0317 -1.1938
 4862SOL    HW126219   3.958   3.596   7.736  2.7751 -0.8978  2.5223
 4862SOL    HW226220   3.978   3.536   7.599  1.2535 -0.8821 -1.5363
 4863SOL     OW26221   4.397   1.203   3.043  0.3455 -0.3206  0.7272
 4863SOL    HW126222   4.306   1.182   3.022  0.8292 -1.2023 -0.5482
 4863SOL    HW226223   4.385   1.250   3.125 -0.9444 -1.7512  1.3625
 4864SOL     OW26224   1.252   0.771   8.082 -0.0146 -0.1493 -0.2741
 4864SOL    HW126225   1.207   0.852   8.057  1.0315  1.2725  2.3958
 4864SOL    HW226226   1.274   0.780   8.175  2.5372  2.6982 -1.1311
 4865SOL     OW26227   0.121   3.485  13.110  0.4326 -0.0085 -0.0195
 4865SOL    HW126228   0.044   3.531  13.076 -1.0973 -2.2072  0.4832
 4865SOL    HW226229   0.093   3.474  13.201 -2.8221  3.7315 -0.5448
 4866SOL     OW26230   2.807   3.406   2.626  0.7083 -0.1934  0.0485
 4866SOL    HW126231   2.844   3.400   2.538 -1.3455 -1.1228 -0.7665
 4866SOL    HW226232   2.841   3.494   2.641  0.5191 -0.1271  0.0930
 4867SOL     OW26233   4.307   4.287   3.358 -0.1106  0.6305  0.7207
 4867SOL    HW126234   4.314   4.317   3.449 -0.4380 -1.7918  1.5413
 4867SOL    HW226235   4.212   4.282   3.349 -0.0523  0.5159  0.1517
 4868SOL     OW26236   0.773   4.540  10.410 -0.1451  0.1862  0.3616
 4868SOL    HW126237   0.845   4.491  10.450 -0.4128 -1.2303 -0.9054
 4868SOL    HW226238   0.825   4.617  10.386 -2.0131  0.7309 -1.9566
 4869SOL     OW26239   3.829   0.436  13.975 -0.3024  0.0956 -0.4994
 4869SOL    HW126240   3.913   0.396  13.998 -0.9562 -0.0699  1.5641
 4869SOL    HW226241   3.825   0.409  13.883 -0.7424  0.0603 -0.4698
 4870SOL     OW26242   1.342   0.921  17.381 -0.1062 -0.0374 -0.3200
 4870SOL    HW126243   1.322   0.940  17.290 -0.1495  1.0744 -0.0771
 4870SOL    HW226244   1.434   0.894  17.370 -0.6198 -1.5487 -0.8522
 4871SOL     OW26245   3.148   3.536   2.854  0.3629 -0.2962  0.2050
 4871SOL    HW126246   3.224   3.542   2.796  1.0410  0.7414  1.2005
 4871SOL    HW226247   3.138   3.441   2.855 -0.9132 -0.1995 -2.8325
 4872SOL     OW26248   2.862   2.239  11.233  0.6066  0.0929 -0.5240
 4872SOL    HW126249   2.945   2.212  11.195  0.1962  0.9191 -2.0260
 4872SOL    HW226250   2.867   2.224  11.328  2.2251 -0.3241 -0.6797
 4873SOL     OW26251   1.119   1.358  16.251 -0.0160  0.8602  0.2415
 4873SOL    HW126252   1.067   1.423  16.297 -2.5296 -0.0067 -1.3675
 4873SOL    HW226253   1.204   1.370  16.292  0.2103  0.7126 -0.1801
 4874SOL     OW26254   1.394   0.604   8.880 -0.3695  0.4204  0.3994
 4874SOL    HW126255   1.451   0.599   8.956 -0.9126 -2.0020  0.6432
 4874SOL    HW226256   1.368   0.512   8.876  0.6666  0.1702 -0.5710
 4875SOL     OW26257   3.653   0.727   8.214 -0.0147 -0.2575 -0.5496
 4875SOL    HW126258   3.569   0.772   8.201 -0.1294 -0.8789 -1.9099
 4875SOL    HW226259   3.723   0.791   8.204  0.1909 -0.6439 -1.5133
 4876SOL     OW26260   0.629   1.286   2.520  0.3621  0.2731 -0.3577
 4876SOL    HW126261   0.716   1.321   2.537 -0.5685  2.0306  0.7821
 4876SOL    HW226262   0.573   1.362   2.536 -0.0806 -0.1433  0.0682
 4877SOL     OW26263   1.227   3.331  15.549 -0.4781 -0.4968  0.0286
 4877SOL    HW126264   1.132   3.332  15.560 -0.4304  0.1315  0.3734
 4877SOL    HW226265   1.225   3.400  15.483  0.9217 -0.4851  0.0029
 4878SOL     OW26266   1.823   3.088  12.135 -0.7277  0.0638 -0.4203
 4878SOL    HW126267   1.863   3.050  12.056  3.4193  0.7225  1.3816
 4878SOL    HW226268   1.876   3.167  12.147 -0.1532 -0.4988  0.6787
 4879SOL     OW26269   1.177   3.818   8.723  0.5761 -0.3251 -0.0773
 4879SOL    HW126270   1.245   3.830   8.656  2.6964 -0.9335  1.9652
 4879SOL    HW226271   1.137   3.745   8.674 -2.0682  1.1845 -0.1186
 4880SOL     OW26272   2.945   0.935   6.289  0.2066  0.4411 -0.0221
 4880SOL    HW126273   2.916   1.003   6.350 -2.4285 -2.2248  1.6801
 4880SOL    HW226274   3.014   0.988   6.249 -1.1909  1.7620 -0.6638
 4881SOL     OW26275   0.408   3.072   3.084 -0.4310 -0.2328 -0.5563
 4881SOL    HW126276   0.421   3.084   3.178  1.8572 -2.4279 -0.6152
 4881SOL    HW226277   0.340   3.138   3.071  0.2513  0.4229 -0.8276
 4882SOL     OW26278   1.131   1.282  15.062  0.6927 -0.0643 -0.4675
 4882SOL    HW126279   1.130   1.211  15.127  0.0086 -1.0895 -1.5939
 4882SOL    HW226280   1.060   1.333  15.100  0.3211 -1.2495  0.4284
 4883SOL     OW26281   2.886   3.954   6.663 -0.2427 -0.3846 -0.0685
 4883SOL    HW126282   2.904   3.879   6.718 -0.1977 -1.0916 -1.0489
 4883SOL    HW226283   2.887   4.017   6.735 -0.5559 -1.1351  0.5889
 4884SOL     OW26284   3.630   4.401   0.125 -0.5362  0.3655  0.6784
 4884SOL    HW126285   3.544   4.401   0.165 -0.1881 -2.0252  1.4105
 4884SOL    HW226286   3.689   4.381   0.198  1.3227 -0.7277 -1.1176
 4885SOL     OW26287   0.823   4.243   4.495 -0.0152  0.8780  0.2737
 4885SOL    HW126288   0.820   4.168   4.436  0.0085  1.7893 -0.8758
 4885SOL    HW226289   0.861   4.311   4.441  1.7368  2.0889  3.0265
 4886SOL     OW26290   2.421   0.558  17.391 -0.3657 -0.0934  0.1888
 4886SOL    HW126291   2.338   0.597  17.364 -2.1026 -2.0741  2.6451
 4886SOL    HW226292   2.387   0.505  17.463 -0.5632 -0.3696 -0.1085
 4887SOL     OW26293   1.767   0.173   4.449 -0.1355 -0.0269  0.9624
 4887SOL    HW126294   1.786   0.111   4.379  1.1329  1.0020  0.3854
 4887SOL    HW226295   1.721   0.235   4.392  2.0914  1.7284  1.0633
 4888SOL     OW26296   1.907   4.483   6.129  0.0883 -0.7816 -0.0324
 4888SOL    HW126297   1.882   4.449   6.215 -0.8973 -0.8698 -0.3537
 4888SOL    HW226298   2.001   4.467   6.127  0.4891  1.5349 -0.1454
 4889SOL     OW26299   4.640   1.054   2.250 -0.4038  0.8954 -0.1264
 4889SOL    HW126300   4.661   1.120   2.317  0.0420  0.7212 -0.0986
 4889SOL    HW226301   4.644   1.102   2.167  1.9109  1.2442  0.1805
 4890SOL     OW26302   0.501   1.579   1.867  0.9508 -0.0890 -0.1150
 4890SOL    HW126303   0.478   1.647   1.804  3.1856 -0.0068 -0.8178
 4890SOL    HW226304   0.413   1.549   1.891  0.3378  1.3952 -0.5301
 4891SOL     OW26305   1.212   3.950   7.959  0.0825 -0.0819  0.4676
 4891SOL    HW126306   1.259   3.924   7.879  2.1537  0.3669  1.5432
 4891SOL    HW226307   1.257   3.901   8.028 -1.3774 -1.5645  0.3911
 4892SOL     OW26308   4.625   2.325  14.554 -0.5833 -0.5400  0.7206
 4892SOL    HW126309   4.716   2.297  14.543  0.3779  1.9502  2.4516
 4892SOL    HW226310   4.576   2.257  14.507 -2.1060 -0.4948  2.2798
 4893SOL     OW26311   2.933   4.484  11.870 -0.0068  0.5552  0.2684
 4893SOL    HW126312   2.845   4.513  11.846 -0.5846  0.5538  2.4092
 4893SOL    HW226313   2.928   4.389  11.875 -0.1664  0.4561 -1.8125
 4894SOL     OW26314   0.005   3.957  10.599  0.2927  0.1888  0.5845
 4894SOL    HW126315   4.695   4.015  10.540  1.3611 -0.0688 -0.5310
 4894SOL    HW226316   0.028   3.883  10.543 -0.7942  1.5571 -1.6686
 4895SOL     OW26317   3.854   2.409   5.809  0.1792  0.1415 -0.4316
 4895SOL    HW126318   3.943   2.376   5.796 -0.5014 -0.6651 -3.0961
 4895SOL    HW226319   3.836   2.411   5.903  1.0224 -1.2464 -0.2368
 4896SOL     OW26320   4.220   3.431   1.035 -0.2627 -0.0998  0.1074
 4896SOL    HW126321   4.305   3.407   0.997  1.4893  1.0959  3.3401
 4896SOL    HW226322   4.154   3.411   0.968 -1.9630 -0.6205  1.9347
 4897SOL     OW26323   0.981   3.585  13.535 -0.1471  0.5198 -0.6886
 4897SOL    HW126324   0.888   3.580  13.560  0.2485  0.7902  0.8356
 4897SOL    HW226325   1.016   3.547  13.615  0.0897  0.7649 -0.6754
 4898SOL     OW26326   0.634   0.239  12.430 -0.2057 -0.6186 -1.0215
 4898SOL    HW126327   0.670   0.161  12.473 -0.4363  0.2170  0.7257
 4898SOL    HW226328   0.566   0.263  12.494  1.1147 -1.6323  0.7817
 4899SOL     OW26329   0.714   1.909   2.178  0.2897 -0.2803  0.1103
 4899SOL    HW126330   0.667   1.829   2.154 -0.7588  0.5444 -0.6291
 4899SOL    HW226331   0.762   1.885   2.257 -1.8038  0.5543  1.6595
 4900SOL     OW26332   0.889   0.621   6.727 -0.0919 -0.0009  0.1347
 4900SOL    HW126333   0.825   0.684   6.696  0.1367  1.5936  2.9191
 4900SOL    HW226334   0.874   0.625   6.821 -2.9033 -1.1734 -0.2586
 4901SOL     OW26335   2.819   4.333   1.469  0.2163 -0.6641 -0.2986
 4901SOL    HW126336   2.781   4.279   1.539 -0.5309  0.9301  0.5170
 4901SOL    HW226337   2.809   4.277   1.392 -2.8726 -0.2230 -0.2013
 4902SOL     OW26338   1.001   2.267   5.784 -0.0359 -0.0635  0.3479
 4902SOL    HW126339   0.944   2.221   5.845  0.0055  0.8949  1.1104
 4902SOL    HW226340   0.960   2.352   5.771 -1.5705 -0.7837  0.5104
 4903SOL     OW26341   1.283   2.665   1.019  0.3520  0.6008 -0.2987
 4903SOL    HW126342   1.252   2.675   0.930 -1.5906 -2.6798  0.0286
 4903SOL    HW226343   1.209   2.639   1.074  0.6459  0.6297  0.1177
 4904SOL     OW26344   2.330   4.230   2.980 -0.3146  0.2330  0.0028
 4904SOL    HW126345   2.284   4.278   2.912 -1.8991  1.7514  2.1458
 4904SOL    HW226346   2.328   4.141   2.943  1.1709 -0.4527  1.5549
 4905SOL     OW26347   4.674   4.227   6.941  0.1893 -0.1341 -0.8452
 4905SOL    HW126348   4.606   4.163   6.962 -0.1161 -0.3860 -2.6449
 4905SOL    HW226349   0.014   4.180   6.913 -0.5176 -2.5827  1.3228
 4906SOL     OW26350   3.575   3.026   5.371 -0.1835 -0.2570 -0.3510
 4906SOL    HW126351   3.670   3.038   5.379 -0.3039 -0.3232  1.1830
 4906SOL    HW226352   3.554   2.969   5.444 -0.9455 -1.0837 -1.2312
 4907SOL     OW26353   1.984   3.161   7.934  0.0089  0.2882  0.7469
 4907SOL    HW126354   1.915   3.159   8.001 -1.3948 -0.0544 -0.7169
 4907SOL    HW226355   2.054   3.153   7.999  2.1119  1.2405 -1.4324
 4908SOL     OW26356   2.567   0.403   2.446 -0.8346 -0.4685 -0.1047
 4908SOL    HW126357   2.610   0.488   2.455 -0.7208 -0.2936 -2.3158
 4908SOL    HW226358   2.541   0.387   2.536  0.4212  0.7671  0.4665
 4909SOL     OW26359   3.654   3.374   3.036 -0.8791  0.7056 -0.4416
 4909SOL    HW126360   3.711   3.449   3.052 -1.8070  1.2786  0.2379
 4909SOL    HW226361   3.675   3.317   3.110  0.1756 -1.4605 -2.4107
 4910SOL     OW26362   0.273   4.422  15.519  1.0358  0.1288 -0.3198
 4910SOL    HW126363   0.188   4.441  15.559  1.3629 -2.0166  1.3852
 4910SOL    HW226364   0.337   4.416  15.589  2.0511 -0.2942 -1.2718
 4911SOL     OW26365   0.051   0.048   1.621  0.3518  0.0306 -0.1674
 4911SOL    HW126366   0.096   0.055   1.536 -1.4870 -0.0149 -1.1492
 4911SOL    HW226367   0.120   0.067   1.684  2.0107  0.0744 -1.9964
 4912SOL     OW26368   2.798   1.694   6.224 -0.8194  0.4360 -0.1320
 4912SOL    HW126369   2.742   1.654   6.158 -0.2150 -0.1834 -0.2721
 4912SOL    HW226370   2.883   1.662   6.193 -1.9101 -2.0593 -0.5226
 4913SOL     OW26371   1.050   0.458   4.409 -0.0348 -0.1177  0.1335
 4913SOL    HW126372   1.036   0.472   4.503  2.4758  0.2810  0.4505
 4913SOL    HW226373   1.086   0.370   4.405  1.3624  0.5878 -2.3716
 4914SOL     OW26374   2.732   2.155   8.040  0.2499 -0.0271 -0.1698
 4914SOL    HW126375   2.661   2.212   8.070 -0.2051 -1.0517  0.7160
 4914SOL    HW226376   2.697   2.067   8.054  1.4085 -0.2900  0.9919
 4915SOL     OW26377   1.707   0.880  10.149 -0.0399 -0.4325  0.5601
 4915SOL    HW126378   1.628   0.931  10.132 -0.8672 -2.4166 -1.5945
 4915SOL    HW226379   1.779   0.925  10.105 -1.5377  0.7521 -0.7018
 4916SOL     OW26380   2.844   4.301   2.916  0.5362  0.2261  0.4194
 4916SOL    HW126381   2.801   4.284   2.999  0.7869 -1.0817  0.2803
 4916SOL    HW226382   2.910   4.364   2.947 -1.2955  2.0352  0.6230
 4917SOL     OW26383   3.705   1.319  12.274 -0.2117 -0.5105 -0.0552
 4917SOL    HW126384   3.627   1.267  12.294  1.3301 -3.0879 -0.7091
 4917SOL    HW226385   3.751   1.328  12.357 -0.2066  1.0509 -0.2293
 4918SOL     OW26386   0.558   2.637   2.623  0.2974  0.6678 -0.1097
 4918SOL    HW126387   0.542   2.731   2.630  3.3926  1.1402  0.3852
 4918SOL    HW226388   0.560   2.611   2.715  2.8286  2.1700  0.2547
 4919SOL     OW26389   3.090   1.730   0.921 -0.6626 -0.1073 -0.3940
 4919SOL    HW126390   3.156   1.798   0.935 -2.1499  1.0941  0.8325
 4919SOL    HW226391   3.085   1.694   1.010 -1.8464 -0.0924 -0.4591
 4920SOL     OW26392   2.934   1.458   5.061  0.2669  0.0582 -0.5421
 4920SOL    HW126393   3.003   1.407   5.103  0.8061 -0.0642 -1.5582
 4920SOL    HW226394   2.981   1.541   5.047  1.1518 -0.0788  1.6989
 4921SOL     OW26395   2.437   1.857   2.336 -0.3636 -0.8867 -0.2586
 4921SOL    HW126396   2.432   1.776   2.386  0.4594 -0.4855  0.4786
 4921SOL    HW226397   2.361   1.898   2.376  0.0895  1.2389 -1.5755
 4922SOL     OW26398   4.459   1.415   7.593  0.0415  0.1274  0.5267
 4922SOL    HW126399   4.434   1.328   7.562  0.4704  0.8029 -1.6783
 4922SOL    HW226400   4.554   1.410   7.593  0.0470 -0.0320  2.4754
 4923SOL     OW26401   2.706   0.715  12.498 -0.2836  0.2386  0.4706
 4923SOL    HW126402   2.658   0.651  12.446 -1.6808  0.6071  1.2956
 4923SOL    HW226403   2.663   0.799  12.482 -1.1787 -0.8043 -2.6022
 4924SOL     OW26404   2.566   3.953   3.257  0.0198  0.2481 -0.0863
 4924SOL    HW126405   2.591   3.879   3.201 -4.0734 -1.4634  0.3432
 4924SOL    HW226406   2.472   3.942   3.268 -0.1632  1.1456 -0.7672
 4925SOL     OW26407   2.113   0.785   3.667  0.1428 -0.7033  0.2107
 4925SOL    HW126408   2.080   0.870   3.695 -0.3864 -0.7269 -0.3479
 4925SOL    HW226409   2.171   0.762   3.740  0.9379  1.1304  0.1523
 4926SOL     OW26410   3.220   4.407   8.843  0.4391  0.3027 -0.0509
 4926SOL    HW126411   3.190   4.318   8.858  1.2369 -0.5373 -3.2574
 4926SOL    HW226412   3.286   4.397   8.774  1.1800 -0.3772  0.7629
 4927SOL     OW26413   0.558   2.217   4.257  0.0784 -0.0150 -0.1921
 4927SOL    HW126414   0.642   2.171   4.245  1.6222  2.8762 -0.4780
 4927SOL    HW226415   0.508   2.154   4.206  1.0455 -1.5513  0.7448
 4928SOL     OW26416   4.135   2.562   3.083 -0.7925  0.0794  0.3656
 4928SOL    HW126417   4.098   2.650   3.075 -0.8303 -0.0838 -1.2382
 4928SOL    HW226418   4.063   2.518   3.129 -1.6081 -0.0480 -1.0240
 4929SOL     OW26419   1.106   2.025   8.512  0.4597  0.6825 -0.0416
 4929SOL    HW126420   1.077   2.113   8.537 -0.4040 -0.2657  2.2556
 4929SOL    HW226421   1.095   2.019   8.417 -1.2611 -0.2382  0.2279
 4930SOL     OW26422   3.433   2.126   5.732  0.9187 -0.4400 -0.2666
 4930SOL    HW126423   3.404   2.039   5.701 -1.4447 -0.0938  0.9564
 4930SOL    HW226424   3.362   2.141   5.794 -3.2601 -0.5287 -5.0188
 4931SOL     OW26425   3.775   1.087   2.907 -0.2256 -0.6399  0.0339
 4931SOL    HW126426   3.707   1.132   2.858  0.6275 -0.7026 -1.2005
 4931SOL    HW226427   3.844   1.089   2.841  0.3661  1.7773  0.7117
 4932SOL     OW26428   4.164   2.830   9.873  0.6270  0.0732 -0.1964
 4932SOL    HW126429   4.104   2.882   9.927 -0.3847 -1.6309  0.3275
 4932SOL    HW226430   4.119   2.828   9.789 -1.6954  1.5400  0.9955
 4933SOL     OW26431   0.926   2.348  12.025  0.1985 -0.1144  0.6140
 4933SOL    HW126432   0.944   2.442  12.030  1.4243 -0.2204 -2.0781
 4933SOL    HW226433   0.905   2.343  11.932 -3.1018 -0.4716  1.3625
 4934SOL     OW26434   3.303   2.079   7.532  0.3580  0.0823  0.1190
 4934SOL    HW126435   3.216   2.072   7.570 -0.0576  0.9964 -0.6679
 4934SOL    HW226436   3.361   2.027   7.589  0.5426 -0.5602 -0.6585
 4935SOL     OW26437   0.180   4.538   6.321  0.6350 -0.5662 -0.3618
 4935SOL    HW126438   0.153   4.452   6.355  0.1221 -1.3219 -2.6822
 4935SOL    HW226439   0.098   4.566   6.282  0.2099  1.2202  1.8088
 4936SOL     OW26440   4.063   1.898   8.736 -0.0192  0.2205 -0.1244
 4936SOL    HW126441   3.979   1.926   8.773  0.5056  0.9410  0.4956
 4936SOL    HW226442   4.101   1.855   8.813 -1.9426 -1.9343 -0.3501
 4937SOL     OW26443   0.419   3.476   1.750 -0.6645 -0.5886 -0.0667
 4937SOL    HW126444   0.364   3.420   1.804  3.7242 -2.4606  2.4169
 4937SOL    HW226445   0.405   3.565   1.783  1.5404 -0.7973  1.4154
 4938SOL     OW26446   2.896   1.837   7.409 -0.3400  0.3345 -0.6079
 4938SOL    HW126447   2.976   1.786   7.402  0.4657  1.2252  2.0775
 4938SOL    HW226448   2.880   1.879   7.325  1.8490  1.2644 -0.5416
 4939SOL     OW26449   2.832   4.260   8.108  0.2060  0.0623  0.0069
 4939SOL    HW126450   2.744   4.281   8.078  0.1937  0.1640  0.1154
 4939SOL    HW226451   2.807   4.235   8.197  0.3090 -0.4903 -0.1201
 4940SOL     OW26452   3.224   4.613   6.144  0.0001  0.0893  0.4019
 4940SOL    HW126453   3.156   4.601   6.210 -0.8246 -0.8832 -0.6234
 4940SOL    HW226454   3.298   4.557   6.169  1.2521  2.2434  1.5683
 4941SOL     OW26455   2.801   1.024   7.298  0.1088  0.8509 -0.0829
 4941SOL    HW126456   2.779   1.100   7.353  0.7907 -0.0660  1.4492
 4941SOL    HW226457   2.748   0.950   7.329 -0.6409  1.8924  1.1337
 4942SOL     OW26458   1.949   0.933   2.963 -0.0246 -0.1712  0.6869
 4942SOL    HW126459   1.956   1.020   3.003 -3.6142  0.2781  0.2780
 4942SOL    HW226460   2.039   0.916   2.936 -0.2820 -0.1009 -0.2157
 4943SOL     OW26461   4.550   3.900   7.238  0.4345  0.0699  0.1104
 4943SOL    HW126462   4.514   3.836   7.177 -0.1143 -2.7233  3.3545
 4943SOL    HW226463   4.620   3.943   7.188  1.2864 -1.2642  0.1413
 4944SOL     OW26464   1.293   0.343  11.159  0.5001 -0.3227 -0.0092
 4944SOL    HW126465   1.198   0.351  11.167  0.6809 -0.0661  1.7633
 4944SOL    HW226466   1.312   0.421  11.211 -2.5951  0.7792 -0.4964
 4945SOL     OW26467   2.205   3.472  13.863  0.1870 -0.0128 -0.5868
 4945SOL    HW126468   2.175   3.480  13.773 -0.2697  2.9113 -0.1731
 4945SOL    HW226469   2.189   3.378  13.874 -1.0074  0.3822  1.1188
 4946SOL     OW26470   3.830   1.505   7.486  0.1342  0.2065  0.4377
 4946SOL    HW126471   3.860   1.581   7.436 -1.7620 -0.4455 -1.7081
 4946SOL    HW226472   3.886   1.504   7.564  2.6399 -1.2580 -1.3698
 4947SOL     OW26473   4.507   1.762   8.484 -0.1413  0.3775 -0.3582
 4947SOL    HW126474   4.442   1.824   8.517 -0.4741  0.4914 -1.2347
 4947SOL    HW226475   4.448   1.702   8.436  0.2528  1.3183 -2.0120
 4948SOL     OW26476   3.049   4.242   2.278  0.0547  0.7645  0.5263
 4948SOL    HW126477   3.017   4.333   2.281 -0.9574  0.4361 -0.2186
 4948SOL    HW226478   2.983   4.214   2.342 -0.9134 -0.7984 -1.1688
 4949SOL     OW26479   4.279   3.036   4.521 -0.0899  0.2062 -0.5773
 4949SOL    HW126480   4.185   3.049   4.507  0.1660  1.6833 -0.9626
 4949SOL    HW226481   4.308   3.007   4.434 -0.1597  1.4932 -1.0343
 4950SOL     OW26482   2.710   1.318   7.855 -0.3287 -0.0995  0.1191
 4950SOL    HW126483   2.627   1.357   7.883 -0.7300 -1.4668  0.8475
 4950SOL    HW226484   2.700   1.302   7.762  0.5474 -2.2057  0.3813
 4951SOL     OW26485   1.929   0.857   4.825  0.2248  0.2504 -0.3579
 4951SOL    HW126486   1.930   0.888   4.916  1.5125 -1.4131  0.1968
 4951SOL    HW226487   1.836   0.835   4.825  0.7894 -2.1715  1.5138
 4952SOL     OW26488   0.844   3.436   3.810 -0.7301  0.0044 -0.1317
 4952SOL    HW126489   0.859   3.400   3.723  2.7401  1.4267 -0.1352
 4952SOL    HW226490   0.858   3.355   3.859  0.2297 -0.3558 -0.9999
 4953SOL     OW26491   1.407   2.101   6.632 -0.2130  0.3908  0.0047
 4953SOL    HW126492   1.497   2.082   6.656 -0.2777 -0.3342 -0.3214
 4953SOL    HW226493   1.413   2.195   6.619 -0.7490  0.7494  2.4177
 4954SOL     OW26494   1.986   0.230   0.851 -0.3868  0.2869 -0.2562
 4954SOL    HW126495   1.895   0.201   0.850 -1.3616  3.4501 -1.8636
 4954SOL    HW226496   2.005   0.244   0.944  1.6584  0.4209 -0.6753
 4955SOL     OW26497   0.141   3.757   5.718  0.7689 -0.0969  0.2421
 4955SOL    HW126498   0.153   3.679   5.662 -0.6742 -0.2173  0.1225
 4955SOL    HW226499   0.070   3.723   5.772 -0.0844 -1.7759 -1.9050
 4956SOL     OW26500   4.287   3.751   2.267  0.1138  0.2988 -0.1779
 4956SOL    HW126501   4.223   3.802   2.218  0.5706  0.1210 -0.9655
 4956SOL    HW226502   4.261   3.778   2.355  0.1898  1.1116 -0.4069
 4957SOL     OW26503   1.604   0.987   1.937 -0.4486 -0.6381  0.0613
 4957SOL    HW126504   1.662   0.992   2.013 -0.4234  1.7951 -0.1218
 4957SOL    HW226505   1.530   1.042   1.961 -0.0576  0.5097 -1.3818
 4958SOL     OW26506   4.430   1.296  10.110  0.5872  0.7483  0.7429
 4958SOL    HW126507   4.349   1.246  10.104 -0.3399  2.3117  0.1065
 4958SOL    HW226508   4.393   1.379  10.139 -1.4936  0.4050 -0.9026
 4959SOL     OW26509   1.745   1.243   9.866 -0.3106  0.4692 -0.1148
 4959SOL    HW126510   1.756   1.327   9.910  0.5549 -1.6216  3.6843
 4959SOL    HW226511   1.803   1.177   9.904 -0.7636  0.3236  0.3269
 4960SOL     OW26512   2.696   0.349   4.502 -0.2268  0.4106  0.2567
 4960SOL    HW126513   2.609   0.381   4.477 -0.9316 -1.9004 -0.2903
 4960SOL    HW226514   2.723   0.321   4.414 -0.0413 -1.9021  1.0503
 4961SOL     OW26515   4.556   2.976  14.621 -0.2742  0.4267  0.2001
 4961SOL    HW126516   4.617   2.935  14.682  1.3471  1.5645 -0.6195
 4961SOL    HW226517   4.530   2.902  14.567 -1.9440  0.6068  0.7729
 4962SOL     OW26518   1.415   1.232   5.018 -0.9052 -0.7173 -0.4608
 4962SOL    HW126519   1.347   1.174   4.984  0.4176 -1.9347 -1.0286
 4962SOL    HW226520   1.365   1.297   5.067  1.6636 -0.7935  2.2681
 4963SOL     OW26521   2.010   4.041  11.981 -0.4671  0.2828  0.0434
 4963SOL    HW126522   1.938   4.007  11.929 -1.4221  0.9929  0.8960
 4963SOL    HW226523   2.064   3.964  11.998  0.5015  0.4629 -2.1958
 4964SOL     OW26524   1.763   0.178   7.747  0.3766  0.1174 -0.1905
 4964SOL    HW126525   1.824   0.220   7.808 -0.1827  0.4097  0.1638
 4964SOL    HW226526   1.673   0.200   7.771  0.0428  1.8896 -3.0080
 4965SOL     OW26527   1.734   0.917   5.828 -0.1312 -0.2733  0.4023
 4965SOL    HW126528   1.771   0.937   5.742  1.3329  0.8659  1.3196
 4965SOL    HW226529   1.785   0.980   5.878 -0.4145  0.7307 -0.5618
 4966SOL     OW26530   0.731   0.341   8.233  0.0061  0.3302 -0.4243
 4966SOL    HW126531   0.683   0.335   8.315 -1.3582 -1.0582 -1.3412
 4966SOL    HW226532   0.664   0.391   8.187  0.3010 -0.5646 -1.8163
 4967SOL     OW26533   0.778   3.727   8.868 -0.3056  0.0355  0.4245
 4967SOL    HW126534   0.726   3.686   8.798 -1.4930 -0.0730  1.3692
 4967SOL    HW226535   0.751   3.673   8.942  0.5764  0.8583  1.3410
 4968SOL     OW26536   3.288   3.323   5.757 -0.4865 -0.1157  0.8355
 4968SOL    HW126537   3.349   3.394   5.776 -0.3801 -0.1693  0.6912
 4968SOL    HW226538   3.259   3.357   5.673  0.0441 -0.8039  0.3726
 4969SOL     OW26539   2.841   4.475   9.313 -0.6078 -0.2582  0.6634
 4969SOL    HW126540   2.766   4.418   9.331  0.5505 -2.0308 -0.1455
 4969SOL    HW226541   2.800   4.552   9.273 -1.6429 -1.2978 -0.2700
 4970SOL     OW26542   3.049   3.724   6.441  0.4095  0.1757 -0.7903
 4970SOL    HW126543   2.993   3.779   6.386  2.5959  1.5274 -1.6339
 4970SOL    HW226544   3.007   3.641   6.419  1.2314 -0.9065  1.7752
 4971SOL     OW26545   0.110   0.129   2.268 -0.1802 -0.0544  0.0444
 4971SOL    HW126546   0.046   0.063   2.239  2.0811 -1.6087 -1.4846
 4971SOL    HW226547   0.149   0.087   2.345  1.2083  0.7688 -0.2085
 4972SOL     OW26548   0.260   4.014   7.302 -0.1238  0.5140 -0.1879
 4972SOL    HW126549   0.230   3.924   7.317 -0.5523  0.5487 -0.8226
 4972SOL    HW226550   0.182   4.070   7.314 -1.0956 -1.2256  1.5613
 4973SOL     OW26551   4.629   2.848   5.204 -0.2973 -0.5749  0.5095
 4973SOL    HW126552   4.599   2.771   5.157 -0.2809  0.1567 -0.7063
 4973SOL    HW226553   4.713   2.805   5.220  0.0575 -0.2250 -0.3888
 4974SOL     OW26554   1.754   3.229   7.760  0.1401 -0.3625 -0.9565
 4974SOL    HW126555   1.703   3.278   7.825 -0.6742  1.0037 -2.6484
 4974SOL    HW226556   1.743   3.140   7.796 -0.7186  0.2696  0.3741
 4975SOL     OW26557   1.631   0.929   0.802 -0.0859 -0.5669 -0.4271
 4975SOL    HW126558   1.583   0.899   0.725  1.1757 -1.1101 -1.0016
 4975SOL    HW226559   1.711   0.962   0.763  0.0545 -0.5586 -0.1340
 4976SOL     OW26560   3.677   1.399   5.767  0.3839 -0.0242  0.3323
 4976SOL    HW126561   3.688   1.362   5.679 -0.3730 -1.5723  0.9013
 4976SOL    HW226562   3.766   1.420   5.795  0.0384  1.6597  0.1756
 4977SOL     OW26563   4.322   2.235   1.867  0.1640 -0.1028  1.0710
 4977SOL    HW126564   4.381   2.310   1.869 -1.4679  1.1692  0.7472
 4977SOL    HW226565   4.366   2.165   1.916  0.6416 -1.2747 -1.0232
 4978SOL     OW26566   0.513   1.630   7.182  0.2539 -0.0262  0.5114
 4978SOL    HW126567   0.563   1.684   7.243 -1.1928  1.7891  0.0845
 4978SOL    HW226568   0.560   1.628   7.098 -1.9263 -0.0488 -0.7279
 4979SOL     OW26569   1.193   1.443   8.050 -0.0785 -0.2268  0.6966
 4979SOL    HW126570   1.215   1.366   7.997  0.0245 -1.7151  2.9266
 4979SOL    HW226571   1.255   1.506   8.015 -0.4484  0.9286  2.1241
 4980SOL     OW26572   3.356   0.242   8.144 -0.1006  0.9081 -0.2178
 4980SOL    HW126573   3.297   0.172   8.171 -0.2122  0.4770 -1.5631
 4980SOL    HW226574   3.442   0.212   8.174 -0.2932  0.8100  0.2352
 4981SOL     OW26575   2.359   3.086   8.222 -0.3834 -0.0857 -0.2332
 4981SOL    HW126576   2.305   3.018   8.182  0.1148 -0.2801 -0.5778
 4981SOL    HW226577   2.330   3.079   8.313  0.9182  0.8037  0.2468
 4982SOL     OW26578   2.257   1.796   6.036 -0.5774 -0.5510  0.2079
 4982SOL    HW126579   2.245   1.726   6.101  0.2375  1.0449  2.0870
 4982SOL    HW226580   2.352   1.804   6.023 -0.7856  0.1208 -0.8577
 4983SOL     OW26581   0.306   3.706   3.624 -0.0781  0.3193 -0.3129
 4983SOL    HW126582   0.320   3.642   3.693 -0.5168  0.1119 -0.4211
 4983SOL    HW226583   0.292   3.785   3.677 -1.2267 -0.0699 -0.0408
 4984SOL     OW26584   1.862   1.399   0.665  0.0394 -0.6324  0.2832
 4984SOL    HW126585   1.767   1.407   0.653  0.2243 -0.8632 -1.3051
 4984SOL    HW226586   1.872   1.405   0.760  0.2537 -1.0351  0.2887
 4985SOL     OW26587   4.414   1.240   9.791 -0.4760 -0.2309  0.4163
 4985SOL    HW126588   4.414   1.168   9.728 -0.4061  0.6051 -0.5520
 4985SOL    HW226589   4.506   1.260   9.801 -0.4856  0.3464 -0.6253
 4986SOL     OW26590   1.933   4.054   2.058  0.3140  0.3731 -0.0532
 4986SOL    HW126591   1.902   4.069   1.969  0.9429 -0.7710 -0.4687
 4986SOL    HW226592   1.945   3.959   2.062 -0.9824  0.2674  1.2720
 4987SOL     OW26593   0.823   2.675  17.068  0.0828 -0.2914  0.2001
 4987SOL    HW126594   0.823   2.765  17.037  0.2146 -1.2114 -2.4714
 4987SOL    HW226595   0.826   2.636  16.980 -2.5337  0.1997 -0.0932
 4988SOL     OW26596   1.015   0.372   0.242  0.8833 -0.0281  0.2074
 4988SOL    HW126597   0.921   0.376   0.224  1.1220  0.1696 -1.0496
 4988SOL    HW226598   1.025   0.451   0.295 -1.0806  0.8453 -0.6972
 4989SOL     OW26599   4.496   4.436   2.561  0.0987 -0.6023  0.1016
 4989SOL    HW126600   4.459   4.517   2.595  2.1274  0.5257 -0.4112
 4989SOL    HW226601   4.418   4.379   2.555 -0.0573 -0.5269  1.3259
 4990SOL     OW26602   1.705   4.614   9.428 -0.0900 -0.8123 -0.1312
 4990SOL    HW126603   1.733   4.543   9.370  0.6002 -1.1531  0.6150
 4990SOL    HW226604   1.614   4.615   9.399 -0.1037 -2.1204 -0.1057
 4991SOL     OW26605   2.645   1.528   6.715  0.6449  0.0576 -0.2459
 4991SOL    HW126606   2.622   1.580   6.637 -1.1688  0.2493  0.4051
 4991SOL    HW226607   2.615   1.443   6.682 -0.3445 -0.0778  0.9806
 4992SOL     OW26608   1.778   2.176   4.145  0.8501 -0.0158 -0.0641
 4992SOL    HW126609   1.854   2.210   4.192 -0.0674  0.7874  0.8558
 4992SOL    HW226610   1.724   2.158   4.222 -0.9185 -0.4139 -1.3997
 4993SOL     OW26611   0.463   3.633   9.720 -0.1040 -0.1571  0.3820
 4993SOL    HW126612   0.555   3.617   9.700 -0.4077 -0.7202 -0.5656
 4993SOL    HW226613   0.437   3.677   9.639  0.1454 -0.8318 -0.0596
 4994SOL     OW26614   0.243   2.064  10.867 -0.0024  0.1968  0.0698
 4994SOL    HW126615   0.227   2.086  10.775 -0.2587  1.2138  0.3527
 4994SOL    HW226616   0.174   2.000  10.881 -0.1091  0.1864 -0.5028
 4995SOL     OW26617   2.380   3.376   8.557 -0.1208  0.3021 -0.1160
 4995SOL    HW126618   2.428   3.293   8.557 -1.0798 -0.2542  1.6730
 4995SOL    HW226619   2.365   3.393   8.650  0.4957 -1.6766  0.3317
 4996SOL     OW26620   4.454   0.147   0.025 -0.2247  0.5141  0.5298
 4996SOL    HW126621   4.395   0.220   0.006  0.3709  0.6706 -0.7000
 4996SOL    HW226622   4.531   0.198   0.048  0.0860 -1.1378  3.1757
 4997SOL     OW26623   0.057   3.551   3.721  0.4904 -0.3329 -0.1499
 4997SOL    HW126624   0.146   3.539   3.755  1.1781  0.4803 -1.6457
 4997SOL    HW226625   0.049   3.638   3.759  0.9402 -1.1191  1.7542
 4998SOL     OW26626   3.400   4.040   7.605  0.7710 -0.4361  0.5576
 4998SOL    HW126627   3.472   4.017   7.547  0.1540  0.1534 -0.4533
 4998SOL    HW226628   3.322   4.007   7.560  0.6038 -1.0488  1.2951
 4999SOL     OW26629   0.074   0.257  10.681 -0.7062  1.0732 -0.7816
 4999SOL    HW126630   0.008   0.244  10.749 -0.6795 -0.7369 -1.1187
 4999SOL    HW226631   0.119   0.173  10.690 -0.3766  1.2464 -0.7996
 5000SOL     OW26632   1.387   4.380   3.245 -0.4106 -0.0696  0.2535
 5000SOL    HW126633   1.296   4.401   3.226 -0.7862 -0.3233  1.7775
 5000SOL    HW226634   1.391   4.395   3.340 -0.9530  0.3112  0.2137
 5001SOL     OW26635   2.103   3.437  14.391 -0.3044  0.1054  0.4230
 5001SOL    HW126636   2.115   3.387  14.311  2.1692  2.2262 -0.5278
 5001SOL    HW226637   2.123   3.524  14.357 -0.1343 -0.2351 -0.3429
 5002SOL     OW26638   0.820   3.537   4.550 -0.4682 -0.1543 -0.0961
 5002SOL    HW126639   0.893   3.480   4.529  1.5366  1.5872  2.0822
 5002SOL    HW226640   0.767   3.477   4.602  4.7062 -3.0632  1.7557
 5003SOL     OW26641   3.680   4.258   7.598  0.3554  0.2277 -0.0471
 5003SOL    HW126642   3.591   4.241   7.629 -0.0774  2.5650  0.0315
 5003SOL    HW226643   3.701   4.166   7.585  1.9100  0.3087  1.8634
 5004SOL     OW26644   0.725   4.528  12.779 -0.0036  0.5761 -0.3484
 5004SOL    HW126645   0.803   4.471  12.776 -1.7663 -1.8829  0.2594
 5004SOL    HW226646   0.760   4.585  12.847  1.1523  1.3156 -1.5680
 5005SOL     OW26647   4.700   3.655  12.230  0.2279 -0.0258  0.2421
 5005SOL    HW126648   0.010   3.613  12.301  0.0629 -0.1926  0.2522
 5005SOL    HW226649   0.014   3.736  12.231 -0.8819  0.7036 -0.9540
 5006SOL     OW26650   0.479   0.591   7.193  0.6518  0.1822 -0.4952
 5006SOL    HW126651   0.423   0.558   7.263 -1.0740  1.4988 -1.2826
 5006SOL    HW226652   0.442   0.543   7.120 -0.2320  1.6828 -1.0350
 5007SOL     OW26653   0.148   4.124  14.733  0.2665 -0.3854 -0.6003
 5007SOL    HW126654   0.085   4.157  14.797 -0.4295 -2.5598 -0.1322
 5007SOL    HW226655   0.117   4.033  14.731  0.5875 -0.5081  0.3262
 5008SOL     OW26656   4.677   2.384   7.464  0.0885  0.6197 -0.3063
 5008SOL    HW126657   4.710   2.400   7.552 -0.7173  0.1371  0.0854
 5008SOL    HW226658   4.628   2.465   7.450 -1.2689 -0.1793 -0.2284
 5009SOL     OW26659   2.139   1.323   3.996  0.0037  0.0717  0.0300
 5009SOL    HW126660   2.127   1.418   3.994 -4.1532 -0.4589 -0.6458
 5009SOL    HW226661   2.235   1.322   3.997  0.0477  2.6537  1.0571
 5010SOL     OW26662   4.023   0.978   5.083  0.3071 -0.1514 -1.1415
 5010SOL    HW126663   3.976   1.048   5.128  0.3563 -0.0522 -1.2445
 5010SOL    HW226664   4.113   1.008   5.097 -0.4323  1.5400  0.0018
 5011SOL     OW26665   4.452   1.310  12.022 -0.5752 -0.1591  0.4001
 5011SOL    HW126666   4.362   1.300  12.051 -0.7756  1.5974  0.3886
 5011SOL    HW226667   4.481   1.387  12.071 -0.6934  0.5498 -0.6345
 5012SOL     OW26668   2.461   2.961   0.106  0.5239 -0.0640 -0.2452
 5012SOL    HW126669   2.517   2.930   0.177  1.3881  0.3679 -0.7301
 5012SOL    HW226670   2.384   2.909   0.129  0.9773 -0.7277 -0.2014
 5013SOL     OW26671   3.712   0.826   2.897  0.1084  0.4743 -0.6873
 5013SOL    HW126672   3.738   0.917   2.914 -2.1320  0.4535  2.7296
 5013SOL    HW226673   3.619   0.829   2.920  0.5593  0.1486  1.1771
 5014SOL     OW26674   1.123   1.671   4.980  1.0492  0.0573 -0.2162
 5014SOL    HW126675   1.058   1.723   4.933  0.6947  1.6483  2.0208
 5014SOL    HW226676   1.098   1.698   5.069 -0.0525 -0.3945 -0.3842
 5015SOL     OW26677   3.875   1.854   0.545 -0.3296 -0.1745 -0.1460
 5015SOL    HW126678   3.887   1.763   0.516  0.8886 -0.2791  0.6658
 5015SOL    HW226679   3.954   1.871   0.597  0.1070 -0.6353 -0.6520
 5016SOL     OW26680   0.870   2.553  16.612  0.5735 -0.2789  0.3231
 5016SOL    HW126681   0.814   2.515  16.680 -0.9766  0.2982 -0.6332
 5016SOL    HW226682   0.809   2.597  16.553  0.7803 -1.1645 -0.5551
 5017SOL     OW26683   1.700   2.084  11.069 -0.2428 -0.1587 -0.3520
 5017SOL    HW126684   1.689   2.089  11.164 -2.4820  0.7328 -0.6448
 5017SOL    HW226685   1.740   1.997  11.065 -0.9071 -0.3888 -1.8308
 5018SOL     OW26686   0.281   1.736  17.467  0.0156  0.1324 -0.0361
 5018SOL    HW126687   0.193   1.766  17.492 -0.3137  0.2993 -1.3798
 5018SOL    HW226688   0.278   1.730  17.372 -1.2859  1.5404 -0.0861
 5019SOL     OW26689   0.826   2.557   2.609 -0.4206 -0.3696  0.4164
 5019SOL    HW126690   0.740   2.596   2.623 -0.9750 -0.9579 -1.3653
 5019SOL    HW226691   0.804   2.505   2.532 -0.1199 -0.6115  0.4893
 5020SOL     OW26692   3.423   3.446   5.150 -0.0862  0.0507  0.4044
 5020SOL    HW126693   3.382   3.374   5.198 -0.2600  1.1012  1.8097
 5020SOL    HW226694   3.510   3.407   5.164 -0.5178 -1.3321 -0.7968
 5021SOL     OW26695   4.483   3.278   8.756  0.1805  0.6031 -0.1586
 5021SOL    HW126696   4.517   3.345   8.697 -0.0985 -0.0974 -1.1255
 5021SOL    HW226697   4.558   3.220   8.744 -0.4199 -0.0714 -0.7449
 5022SOL     OW26698   4.608   4.118   9.378  0.0462 -0.3442 -0.0974
 5022SOL    HW126699   4.597   4.023   9.380  1.7304 -0.5709 -1.4824
 5022SOL    HW226700   4.665   4.142   9.305 -0.6234  1.0127 -0.1625
 5023SOL     OW26701   1.050   0.723   5.748  0.5966 -0.4833 -0.5800
 5023SOL    HW126702   0.970   0.671   5.746  0.5772 -0.4444 -0.7938
 5023SOL    HW226703   1.054   0.765   5.662  1.2359  0.9242  0.1232
 5024SOL     OW26704   1.608   0.702   8.111 -0.1570 -0.3823 -0.4852
 5024SOL    HW126705   1.621   0.645   8.035  0.4406  0.0928 -0.7414
 5024SOL    HW226706   1.555   0.646   8.167 -0.9945  0.3955 -0.5118
 5025SOL     OW26707   3.389   4.469   0.245 -0.0229 -0.2010  0.4107
 5025SOL    HW126708   3.302   4.506   0.229  1.3670  2.1797 -1.7359
 5025SOL    HW226709   3.444   4.546   0.230  0.6883 -0.8137 -0.1538
 5026SOL     OW26710   4.482   0.707   8.253  0.0082 -0.1755  0.1128
 5026SOL    HW126711   4.464   0.789   8.298  0.6855 -0.2198  0.4620
 5026SOL    HW226712   4.527   0.654   8.319  2.0415  0.0247 -1.1192
 5027SOL     OW26713   4.251   2.891   3.747  0.0394 -0.0620  0.0917
 5027SOL    HW126714   4.300   2.901   3.666 -1.2549  0.1395 -0.6736
 5027SOL    HW226715   4.174   2.943   3.722 -0.6596 -1.2705 -0.2741
 5028SOL     OW26716   3.383   3.480   7.751  0.1632 -0.2956  0.3384
 5028SOL    HW126717   3.409   3.507   7.663  0.6021 -0.9628  0.2640
 5028SOL    HW226718   3.358   3.563   7.792 -0.3919  0.2160 -1.0345
 5029SOL     OW26719   3.241   3.128  15.393  0.1897  0.4687  0.1820
 5029SOL    HW126720   3.171   3.154  15.334  0.6782  0.3128 -0.4714
 5029SOL    HW226721   3.223   3.036  15.415  0.5562 -0.1162 -2.0048
 5030SOL     OW26722   2.874   2.230   8.483 -0.1489  0.3385 -0.1912
 5030SOL    HW126723   2.837   2.166   8.422 -2.6178  1.3469  0.2496
 5030SOL    HW226724   2.965   2.222   8.455 -0.9008 -1.5350 -2.1066
 5031SOL     OW26725   2.209   3.063   6.845 -0.0343 -0.5834 -0.0253
 5031SOL    HW126726   2.205   3.154   6.876 -1.0739 -0.9584  0.9625
 5031SOL    HW226727   2.216   3.080   6.751  0.7090 -0.7355  0.0016
 5032SOL     OW26728   3.893   3.571   1.387 -0.5118 -0.5552  0.6264
 5032SOL    HW126729   3.853   3.652   1.354  1.7684  0.7527  1.1054
 5032SOL    HW226730   3.818   3.519   1.416  0.7325 -1.6983  1.7798
 5033SOL     OW26731   3.736   2.479   6.911 -0.0314 -0.3905 -0.3366
 5033SOL    HW126732   3.749   2.565   6.871 -3.3671  0.3351  0.1865
 5033SOL    HW226733   3.759   2.507   6.999 -1.7922  0.3105 -0.0993
 5034SOL     OW26734   0.567   3.990   8.068  0.0618 -0.4522  0.2825
 5034SOL    HW126735   0.655   3.995   8.105 -0.3238  0.0376  1.1304
 5034SOL    HW226736   0.587   3.916   8.010  0.8067 -1.1110  1.3828
 5035SOL     OW26737   2.230   4.628   5.101  0.4800 -0.0806  0.2201
 5035SOL    HW126738   2.300   4.579   5.144 -0.5806 -0.8828  1.0283
 5035SOL    HW226739   2.255   4.720   5.109  0.6820  0.0435 -1.7257
 5036SOL     OW26740   4.364   3.177   9.716  0.4766 -0.2589 -0.3404
 5036SOL    HW126741   4.295   3.234   9.751  0.6392 -0.1230 -0.2425
 5036SOL    HW226742   4.442   3.230   9.729 -0.6019  0.7779  1.8781
 5037SOL     OW26743   3.181   3.535   7.034 -0.2854 -0.1381  0.2919
 5037SOL    HW126744   3.091   3.556   7.009 -0.1128  2.1985  1.6381
 5037SOL    HW226745   3.225   3.532   6.950  0.0313  1.4656  0.4113
 5038SOL     OW26746   0.491   1.171   4.743 -0.3023  0.4262  0.0224
 5038SOL    HW126747   0.514   1.085   4.709  0.0120  0.6545 -0.3433
 5038SOL    HW226748   0.495   1.227   4.666 -1.2527 -0.8167 -0.9137
 5039SOL     OW26749   2.635   1.001   9.300 -0.2570 -0.3142  0.3223
 5039SOL    HW126750   2.709   1.013   9.359  1.2456  1.2926 -1.9327
 5039SOL    HW226751   2.676   1.003   9.214  0.1285  2.0180  0.5595
 5040SOL     OW26752   2.899   2.239   6.533 -0.3573 -0.3416  0.9008
 5040SOL    HW126753   2.845   2.303   6.486 -1.5304 -0.6408  1.8417
 5040SOL    HW226754   2.926   2.292   6.608 -1.4178  0.7509  0.5055
 5041SOL     OW26755   2.997   0.351  14.040  0.0848 -0.3051 -0.7930
 5041SOL    HW126756   2.950   0.432  14.060  1.0539 -0.3001  1.4853
 5041SOL    HW226757   3.070   0.363  14.100  0.3468  0.5654 -1.2904
 5042SOL     OW26758   0.027   4.656   8.616  0.1106 -0.3178 -0.2966
 5042SOL    HW126759   0.059   4.734   8.662  0.6070 -0.3308 -0.6167
 5042SOL    HW226760   4.737   4.609   8.694 -2.3396  1.4885 -0.0911
 5043SOL     OW26761   1.017   3.182   3.716 -0.2207 -0.4665 -0.4019
 5043SOL    HW126762   0.990   3.175   3.807 -0.5336 -1.9577 -0.6119
 5043SOL    HW226763   1.084   3.251   3.723 -0.3712 -0.3586 -0.0582
 5044SOL     OW26764   3.407   1.783   9.893  0.6011  0.1717  0.2822
 5044SOL    HW126765   3.450   1.801   9.809 -3.1376 -0.6312 -1.7704
 5044SOL    HW226766   3.331   1.841   9.892 -0.5404 -1.3428  0.3711
 5045SOL     OW26767   2.253   3.584   5.765  0.4315 -0.7778 -0.4188
 5045SOL    HW126768   2.285   3.507   5.717 -1.4240 -1.1746 -1.0530
 5045SOL    HW226769   2.259   3.558   5.857 -0.1911 -1.0043 -0.4446
 5046SOL     OW26770   3.850   1.254   9.878 -0.3900  0.0398  0.2163
 5046SOL    HW126771   3.914   1.325   9.874 -0.9579  0.5406  0.0575
 5046SOL    HW226772   3.839   1.218   9.789 -0.3372  1.8757 -0.5358
 5047SOL     OW26773   4.254   0.937   6.352  0.6653 -0.6312  0.2109
 5047SOL    HW126774   4.281   0.849   6.326  0.6773  0.3451 -3.0809
 5047SOL    HW226775   4.287   0.937   6.442  2.1242  0.4452 -0.3255
 5048SOL     OW26776   4.232   3.085   7.857 -0.3866 -0.8026  0.4190
 5048SOL    HW126777   4.227   3.168   7.810 -1.9166 -0.6967  0.7866
 5048SOL    HW226778   4.156   3.074   7.914 -0.5504 -0.6351  0.2277
 5049SOL     OW26779   4.173   2.640   7.977  0.2930  0.2124  0.2809
 5049SOL    HW126780   4.212   2.662   7.893  1.3890 -0.9139  0.4900
 5049SOL    HW226781   4.240   2.588   8.022 -1.6451 -2.8874 -0.4277
 5050SOL     OW26782   1.434   2.802   9.244 -0.2612  0.0285  0.4468
 5050SOL    HW126783   1.498   2.861   9.285 -0.6253  0.7101  0.0236
 5050SOL    HW226784   1.470   2.785   9.157  0.6097 -1.6526  1.1147
 5051SOL     OW26785   3.615   1.178   4.658  0.3937 -0.2849 -0.1518
 5051SOL    HW126786   3.526   1.151   4.680  1.3588 -3.2319  0.2365
 5051SOL    HW226787   3.643   1.204   4.746  1.3512  0.7318 -0.7619
 5052SOL     OW26788   2.239   1.228   7.861  0.0508  0.7482  0.0652
 5052SOL    HW126789   2.232   1.248   7.768  0.7075  1.2718  0.1331
 5052SOL    HW226790   2.325   1.263   7.884  1.2491 -1.4353 -1.0200
 5053SOL     OW26791   1.537   1.698   5.268 -0.4446  0.1185  0.2325
 5053SOL    HW126792   1.470   1.765   5.275 -0.4081  0.3618 -1.6805
 5053SOL    HW226793   1.594   1.737   5.201  0.7488  0.9692  1.7678
 5054SOL     OW26794   3.187   4.669   0.344  0.2522 -0.6222 -0.1528
 5054SOL    HW126795   3.234   4.734   0.291  1.5204 -1.8819 -0.5725
 5054SOL    HW226796   3.170   4.719   0.424 -0.1276  0.9294 -1.2024
 5055SOL     OW26797   2.106   4.111   4.601 -0.8310  0.1896  0.8660
 5055SOL    HW126798   2.128   4.086   4.691 -1.0124 -1.9753  0.2950
 5055SOL    HW226799   2.016   4.134   4.624 -1.5801 -1.6142 -0.2599
 5056SOL     OW26800   4.369   3.753   6.443 -0.2695 -0.7223  0.7582
 5056SOL    HW126801   4.464   3.756   6.432 -0.1499  0.5344  2.0170
 5056SOL    HW226802   4.337   3.778   6.357  0.3489 -0.9701  0.4541
 5057SOL     OW26803   1.634   0.155   1.725 -0.1624  0.5375 -0.4211
 5057SOL    HW126804   1.706   0.208   1.758  0.1807 -1.0229  1.2877
 5057SOL    HW226805   1.640   0.175   1.632 -2.3177  1.3951 -0.3792
 5058SOL     OW26806   4.643   4.303   5.130 -0.2186 -0.4113 -0.7747
 5058SOL    HW126807   4.596   4.296   5.047 -1.6995 -0.5098  0.0679
 5058SOL    HW226808   4.713   4.366   5.110 -1.7430  1.2786 -0.8037
 5059SOL     OW26809   3.511   3.861   3.920 -0.2427 -0.4457  0.2254
 5059SOL    HW126810   3.419   3.871   3.941 -0.4845 -1.1294 -0.5253
 5059SOL    HW226811   3.551   3.826   3.999 -0.3133  1.2579  1.0225
 5060SOL     OW26812   0.737   3.408   4.290 -0.5080 -0.1337 -0.0341
 5060SOL    HW126813   0.769   3.458   4.365  0.7460 -2.8678  1.2552
 5060SOL    HW226814   0.816   3.391   4.240 -0.3002  3.4863 -0.8827
 5061SOL     OW26815   2.582   3.159  11.946 -0.4909 -0.1001  0.5587
 5061SOL    HW126816   2.662   3.211  11.942 -0.1718 -0.7159 -1.1290
 5061SOL    HW226817   2.522   3.229  11.970  2.2102  2.9445 -1.4562
 5062SOL     OW26818   3.205   0.293   6.598  0.0034 -0.0085 -0.0285
 5062SOL    HW126819   3.204   0.340   6.515 -1.1647 -0.1209 -0.0767
 5062SOL    HW226820   3.118   0.309   6.635 -0.5596  3.1217 -2.7466
 5063SOL     OW26821   0.623   3.464   9.439 -0.5817  0.1188  0.3736
 5063SOL    HW126822   0.583   3.541   9.400 -3.8560 -0.2342  2.9884
 5063SOL    HW226823   0.636   3.493   9.529  2.3434 -0.8023  0.2525
 5064SOL     OW26824   3.599   1.475  13.215  0.1119  0.4618  0.0261
 5064SOL    HW126825   3.526   1.438  13.264  0.4492 -1.1259 -0.7013
 5064SOL    HW226826   3.615   1.543  13.281 -0.6569  1.1613 -0.5186
 5065SOL     OW26827   1.862   2.568  15.207  0.6526 -0.0197  0.2129
 5065SOL    HW126828   1.885   2.494  15.150 -0.2652 -0.3792  0.3122
 5065SOL    HW226829   1.775   2.597  15.181  0.6490  0.7855  1.1179
 5066SOL     OW26830   0.777   2.095   4.151 -0.4139  0.4537 -0.0939
 5066SOL    HW126831   0.779   2.110   4.056  0.0551 -2.2430 -0.5063
 5066SOL    HW226832   0.862   2.051   4.154 -1.1015 -0.9154 -0.2383
 5067SOL     OW26833   0.492   1.959   5.319 -0.5319 -0.0133 -0.4394
 5067SOL    HW126834   0.484   1.869   5.352 -0.7615 -0.5630 -2.0089
 5067SOL    HW226835   0.461   2.003   5.398  1.0283 -0.9615  0.7152
 5068SOL     OW26836   0.076   3.718  11.861  0.0738  0.1968 -0.5141
 5068SOL    HW126837   0.093   3.747  11.771 -0.9051  0.0415 -0.7473
 5068SOL    HW226838   0.153   3.661  11.866  0.8406  1.3281  0.5889
 5069SOL     OW26839   4.703   3.797  10.337  0.2940  0.0715 -0.2885
 5069SOL    HW126840   4.685   3.703  10.347 -3.0400  0.7396  0.0365
 5069SOL    HW226841   0.035   3.801  10.271  0.7098 -1.7518  0.0490
 5070SOL     OW26842   0.128   2.187   2.508  0.6157  0.6644  0.1514
 5070SOL    HW126843   0.077   2.228   2.438 -0.9182 -3.2466 -1.0065
 5070SOL    HW226844   0.048   2.149   2.545 -1.0250  1.1007 -2.9355
 5071SOL     OW26845   3.549   2.403   8.246 -0.2782 -0.2875  0.2375
 5071SOL    HW126846   3.584   2.437   8.164  0.0376 -2.5754 -0.5631
 5071SOL    HW226847   3.456   2.404   8.226 -0.5816  1.5179  1.7111
 5072SOL     OW26848   2.916   2.964   4.405  0.1512 -0.3550  0.8421
 5072SOL    HW126849   2.920   2.935   4.496  0.0071 -1.5050  0.4814
 5072SOL    HW226850   3.005   2.999   4.408  0.0886 -0.3457  2.4484
 5073SOL     OW26851   1.599   0.704  16.587  0.2261  0.1524  0.1146
 5073SOL    HW126852   1.514   0.735  16.554  0.5646  2.4787  1.4542
 5073SOL    HW226853   1.647   0.688  16.506 -1.0887 -2.0394 -0.2333
 5074SOL     OW26854   0.615   1.787   8.581 -0.0015  0.3084  0.4760
 5074SOL    HW126855   0.672   1.864   8.574 -2.0679  2.0278  2.6020
 5074SOL    HW226856   0.625   1.775   8.676  2.0112 -0.5824  0.1677
 5075SOL     OW26857   3.144   0.523   1.304 -0.0589  0.2076 -0.3948
 5075SOL    HW126858   3.179   0.572   1.378  0.6540 -2.2045  0.8649
 5075SOL    HW226859   3.227   0.490   1.270  0.4092 -0.4385  1.3689
 5076SOL     OW26860   0.765   3.557   7.753 -0.1097 -0.5348  0.1192
 5076SOL    HW126861   0.846   3.594   7.787 -1.0116  1.7210 -0.1992
 5076SOL    HW226862   0.776   3.583   7.661  0.8011  1.0443  0.6850
 5077SOL     OW26863   1.450   3.193  13.159  0.3379  0.1825  0.2921
 5077SOL    HW126864   1.368   3.147  13.147 -1.5355  3.8806 -1.0737
 5077SOL    HW226865   1.410   3.275  13.189 -0.4224 -0.5017  1.1314
 5078SOL     OW26866   0.331   4.464   3.629 -0.1233 -0.0203 -0.0143
 5078SOL    HW126867   0.241   4.432   3.627  0.5741 -2.0018 -0.3916
 5078SOL    HW226868   0.339   4.481   3.535  0.2243 -0.9867 -0.1691
 5079SOL     OW26869   2.632   1.412   2.657  0.0590 -0.1770 -0.5924
 5079SOL    HW126870   2.698   1.351   2.624  1.2339  0.8275 -0.0942
 5079SOL    HW226871   2.552   1.388   2.609 -0.5204  1.6186 -0.5214
 5080SOL     OW26872   0.691   0.190   6.633  0.0273  0.9458  0.1459
 5080SOL    HW126873   0.735   0.107   6.616 -3.2470 -0.8148  0.4296
 5080SOL    HW226874   0.763   0.250   6.615 -0.2616  1.1298 -0.3925
 5081SOL     OW26875   4.730   0.583  14.068 -0.8906  0.1481 -0.4164
 5081SOL    HW126876   4.731   0.495  14.106 -1.1517  0.2688 -0.1363
 5081SOL    HW226877   0.005   0.570  13.974 -0.5140 -1.1614 -0.1814
 5082SOL     OW26878   3.057   0.522   0.503  0.5834  1.3008  0.1305
 5082SOL    HW126879   3.020   0.513   0.415  2.0405 -0.4129 -0.3089
 5082SOL    HW226880   3.032   0.608   0.537  0.4121  1.0560  0.6185
 5083SOL     OW26881   2.771   1.792   4.803  0.5545  0.4903  0.5073
 5083SOL    HW126882   2.764   1.869   4.859  0.9197  2.2351 -1.8776
 5083SOL    HW226883   2.693   1.743   4.829  0.7184  0.3561  0.7528
 5084SOL     OW26884   4.687   2.113   0.214 -0.6147  0.0025 -0.1069
 5084SOL    HW126885   4.730   2.139   0.295 -1.3245 -1.6722  0.8039
 5084SOL    HW226886   0.025   2.106   0.156 -0.3916  1.1415  0.0659
 5085SOL     OW26887   4.330   0.134   2.311 -0.1320  0.4050 -0.8685
 5085SOL    HW126888   4.293   0.069   2.251 -0.1889  1.6225 -2.1538
 5085SOL    HW226889   4.249   0.157   2.359  0.9616  0.3291  1.0346
 5086SOL     OW26890   4.676   0.564   7.796 -0.4951 -0.0325 -0.4603
 5086SOL    HW126891   4.719   0.527   7.719  1.3077  1.1371  0.0012
 5086SOL    HW226892   0.008   0.614   7.838 -0.0498 -0.4090 -0.7592
 5087SOL     OW26893   0.561   4.659   3.005  0.1057  0.1465  0.1700
 5087SOL    HW126894   0.604   4.634   3.087  0.8984 -0.6697 -0.4976
 5087SOL    HW226895   0.543   0.013   3.021 -1.0538 -0.2660  1.2518
 5088SOL     OW26896   3.519   1.394   9.888  0.1005 -0.0709  0.5939
 5088SOL    HW126897   3.511   1.377   9.795  0.0707  3.9386 -0.1581
 5088SOL    HW226898   3.594   1.454   9.895 -2.0550  2.8453 -1.7195
 5089SOL     OW26899   1.330   3.036   4.424 -0.2280 -0.1341  0.1205
 5089SOL    HW126900   1.276   2.967   4.463  0.7101  0.5871  2.7042
 5089SOL    HW226901   1.278   3.116   4.432 -0.3630 -0.2500  0.4291
 5090SOL     OW26902   2.105   1.312   0.567  0.3088  0.1775  0.4604
 5090SOL    HW126903   2.020   1.347   0.593 -0.0406 -0.5056  0.2334
 5090SOL    HW226904   2.125   1.245   0.632  1.1896  1.7974  1.8470
 5091SOL     OW26905   3.312   3.686   5.239  0.3613 -0.3561  0.2755
 5091SOL    HW126906   3.284   3.744   5.168  0.6713  0.1569  0.5701
 5091SOL    HW226907   3.335   3.603   5.199  1.1856 -0.5995  1.2690
 5092SOL     OW26908   4.321   4.493   7.280  0.2683  0.3269  0.1454
 5092SOL    HW126909   4.343   4.408   7.317 -1.3081  0.3883  1.2308
 5092SOL    HW226910   4.232   4.504   7.313  0.6846 -1.6418  1.9171
 5093SOL     OW26911   1.285   3.809   3.589  0.0335  0.5142 -0.6976
 5093SOL    HW126912   1.329   3.728   3.612  0.1012  0.5788 -0.6022
 5093SOL    HW226913   1.263   3.841   3.676  3.0425 -2.2661  1.0508
 5094SOL     OW26914   0.770   1.397  16.025 -0.1855 -0.1560 -0.5079
 5094SOL    HW126915   0.810   1.332  15.966  1.7224 -0.4714  1.1527
 5094SOL    HW226916   0.756   1.336  16.097 -2.5359  1.9465  0.7936
 5095SOL     OW26917   0.972   0.647  16.432 -0.2549 -0.1222 -0.7007
 5095SOL    HW126918   0.891   0.683  16.469 -0.6138 -1.2136 -0.4155
 5095SOL    HW226919   1.009   0.726  16.392  0.4055  0.1829  0.4948
 5096SOL     OW26920   3.932   0.382  11.496  0.0755  0.2146  0.4469
 5096SOL    HW126921   3.969   0.343  11.417 -2.5744  3.9435 -2.6418
 5096SOL    HW226922   4.007   0.431  11.531 -0.5242 -0.5307  2.7535
 5097SOL     OW26923   1.526   3.089   9.300 -0.1404 -0.7354 -0.0209
 5097SOL    HW126924   1.511   3.125   9.387 -2.0929  0.2001 -0.7444
 5097SOL    HW226925   1.615   3.116   9.274 -0.8797  1.7972  0.0953
 5098SOL     OW26926   0.717   3.263   7.519 -0.3412 -0.4469 -0.4114
 5098SOL    HW126927   0.702   3.170   7.534 -2.1301 -0.1972 -0.5352
 5098SOL    HW226928   0.636   3.278   7.468 -1.0113 -2.4678  0.0526
 5099SOL     OW26929   3.015   0.676   6.296 -0.1451  0.0639 -0.2430
 5099SOL    HW126930   2.985   0.767   6.297 -0.0703  0.1085 -2.3031
 5099SOL    HW226931   3.057   0.665   6.211  1.4801  2.8833  0.1965
 5100SOL     OW26932   1.150   2.080   5.239  0.0417  0.1725  0.0035
 5100SOL    HW126933   1.062   2.074   5.202 -0.5661 -1.3608  1.6683
 5100SOL    HW226934   1.138   2.072   5.334  2.0686  1.0530  0.3224
 5101SOL     OW26935   1.647   1.346  11.632  0.5866 -0.4032 -0.1362
 5101SOL    HW126936   1.738   1.329  11.655  0.1103 -0.3427  1.7383
 5101SOL    HW226937   1.621   1.411  11.696 -1.7127 -1.4946  0.0517
 5102SOL     OW26938   3.671   0.784   6.422 -0.5078  0.4549  0.4823
 5102SOL    HW126939   3.704   0.865   6.383  0.3919  0.1113  0.5198
 5102SOL    HW226940   3.704   0.728   6.352 -0.2794 -0.1152  1.0478
 5103SOL     OW26941   4.059   3.281  16.599 -0.3350 -0.5765 -0.1547
 5103SOL    HW126942   3.990   3.226  16.561 -0.4666 -0.3108 -0.2982
 5103SOL    HW226943   4.082   3.342  16.529 -0.4070 -0.7793 -0.3549
 5104SOL     OW26944   3.840   4.619  15.165 -0.2917  0.9824  0.0822
 5104SOL    HW126945   3.862   4.669  15.086  0.1624  0.2573 -0.2534
 5104SOL    HW226946   3.766   4.565  15.136  1.4090 -0.9506 -0.6416
 5105SOL     OW26947   2.912   2.999   2.840  0.3083  0.4574 -0.0252
 5105SOL    HW126948   2.988   3.022   2.786 -0.3760  1.0149 -0.7452
 5105SOL    HW226949   2.852   2.949   2.785  0.5520 -0.3035  0.3901
 5106SOL     OW26950   2.571   0.027   5.435 -0.5016 -0.3089  0.0907
 5106SOL    HW126951   2.657   4.734   5.408 -1.0550 -0.7171 -1.1969
 5106SOL    HW226952   2.601   0.100   5.489 -1.5356  0.0606  0.1644
 5107SOL     OW26953   3.994   3.751  14.292  0.0947 -0.1933  0.2366
 5107SOL    HW126954   4.036   3.701  14.362  0.0875  1.3044  1.3052
 5107SOL    HW226955   4.069   3.765  14.235  0.5600  0.9409  1.1333
 5108SOL     OW26956   4.540   4.722   8.940 -0.6537 -0.4371  0.2023
 5108SOL    HW126957   4.589   0.066   8.948 -0.2023 -0.8122  1.2915
 5108SOL    HW226958   4.532   4.694   9.031 -0.1772 -0.3116  0.2809
 5109SOL     OW26959   2.298   0.416   9.551 -0.0462 -0.0198  0.5780
 5109SOL    HW126960   2.225   0.438   9.610  0.2085  1.6831  0.2674
 5109SOL    HW226961   2.272   0.467   9.474 -2.7813 -1.8003  0.3101
 5110SOL     OW26962   0.234   4.128   5.681  0.3084 -0.2794 -0.1087
 5110SOL    HW126963   0.292   4.060   5.714 -1.2221 -1.4175  0.2067
 5110SOL    HW226964   0.297   4.199   5.697 -0.6394  1.0222 -2.0757
 5111SOL     OW26965   3.698   3.169   5.756 -0.3816  0.5951  0.1427
 5111SOL    HW126966   3.665   3.231   5.690  0.1302  0.1873 -0.4921
 5111SOL    HW226967   3.643   3.094   5.734  0.3855 -0.1206  0.7070
 5112SOL     OW26968   0.453   3.145  17.467 -0.2662 -0.4945 -0.2144
 5112SOL    HW126969   0.404   3.187  17.538 -0.6841  0.0621 -0.8401
 5112SOL    HW226970   0.434   3.051  17.477  1.6483 -0.9022 -0.3944
 5113SOL     OW26971   1.591   0.467  11.549  0.1441 -0.0412  0.2958
 5113SOL    HW126972   1.525   0.487  11.483 -0.5976 -3.0613  0.0954
 5113SOL    HW226973   1.659   0.431  11.491 -1.5838 -1.0435 -1.1141
 5114SOL     OW26974   4.042   2.047   5.360 -0.0919 -0.1770  0.0470
 5114SOL    HW126975   4.093   2.078   5.435  3.1365  0.9407 -2.5732
 5114SOL    HW226976   4.029   1.956   5.384 -1.0823  0.6277  2.5278
 5115SOL     OW26977   2.632   0.338  14.801 -0.6846 -0.8151 -0.0570
 5115SOL    HW126978   2.586   0.257  14.824 -0.6034 -0.1284  2.5643
 5115SOL    HW226979   2.583   0.397  14.858  0.5529  1.4292 -1.3282
 5116SOL     OW26980   4.107   4.034  14.554 -0.0994 -0.2748  0.1278
 5116SOL    HW126981   4.027   4.061  14.597  0.4347 -1.4292  1.8301
 5116SOL    HW226982   4.081   4.056  14.465 -0.6263 -1.8299 -0.1011
 5117SOL     OW26983   1.620   0.440   9.850  0.1347 -0.2342  0.2169
 5117SOL    HW126984   1.539   0.486   9.830  0.2850  0.2781  0.8044
 5117SOL    HW226985   1.647   0.490   9.926 -0.3900 -0.5003  0.5750
 5118SOL     OW26986   3.647   2.194  10.438  0.1421  0.3415  0.1465
 5118SOL    HW126987   3.599   2.216  10.358 -0.4760 -0.7065  0.2329
 5118SOL    HW226988   3.677   2.106  10.416 -0.4359  0.2049 -0.0737
 5119SOL     OW26989   3.338   2.303   2.457  0.2758  0.1873 -0.2822
 5119SOL    HW126990   3.318   2.378   2.513 -1.0432 -1.4299  1.4409
 5119SOL    HW226991   3.328   2.341   2.370 -0.8049  0.1840 -0.1609
 5120SOL     OW26992   0.251   3.692   8.869  0.0266 -0.3913 -0.0322
 5120SOL    HW126993   0.235   3.598   8.856  1.5152 -0.8481  1.4221
 5120SOL    HW226994   0.296   3.679   8.953  1.6541  3.1923 -0.3330
 5121SOL     OW26995   1.309   3.312   2.737 -0.1787 -0.9190 -0.1577
 5121SOL    HW126996   1.286   3.251   2.667 -1.2531  2.8143 -3.0499
 5121SOL    HW226997   1.318   3.393   2.688  2.3154 -0.7570  0.5491
 5122SOL     OW26998   3.773   4.425   8.345  0.1226 -0.1112 -0.3856
 5122SOL    HW126999   3.805   4.509   8.377  2.7001 -0.4774 -1.9808
 5122SOL    HW227000   3.782   4.381   8.430  1.6769 -1.2133 -1.1131
 5123SOL     OW27001   2.822   1.440  17.483 -0.0136 -0.2049  0.4004
 5123SOL    HW127002   2.817   1.431  17.388 -1.0385  1.6955  0.2819
 5123SOL    HW227003   2.736   1.475  17.505 -0.9764 -2.0436 -0.4431
 5124SOL     OW27004   0.172   2.399  14.702  0.9548  0.1954  0.1530
 5124SOL    HW127005   0.206   2.324  14.751 -0.2476  0.8637  2.0107
 5124SOL    HW227006   0.186   2.374  14.611  0.5151 -1.2093  0.4819
 5125SOL     OW27007   0.874   1.830  10.294  0.3797 -0.4138  0.2040
 5125SOL    HW127008   0.922   1.910  10.274 -1.4911  1.2511  2.2570
 5125SOL    HW227009   0.881   1.838  10.390  3.9374  1.7091 -0.2721
 5126SOL     OW27010   2.930   3.778   5.803 -0.4737  0.0393 -0.1309
 5126SOL    HW127011   2.857   3.723   5.832  0.8384 -1.5432  0.2314
 5126SOL    HW227012   2.901   3.847   5.744 -0.4916 -1.0284 -1.3898
 5127SOL     OW27013   0.349   3.755  14.680 -0.0767 -0.3034 -0.0203
 5127SOL    HW127014   0.313   3.760  14.592 -0.2406  0.2387  0.0747
 5127SOL    HW227015   0.434   3.797  14.668 -0.1044  0.0764  1.0406
 5128SOL     OW27016   3.104   4.321   8.038  0.3205  0.2827 -0.0454
 5128SOL    HW127017   3.009   4.312   8.042  0.0998  1.8715 -1.4379
 5128SOL    HW227018   3.109   4.415   8.017  1.6141  0.2513  0.0697
 5129SOL     OW27019   1.826   3.237  13.245 -0.1396 -0.0460  0.1468
 5129SOL    HW127020   1.822   3.142  13.237 -1.4246 -0.0572  0.9366
 5129SOL    HW227021   1.815   3.266  13.154 -0.0822  2.7699  1.0345
 5130SOL     OW27022   0.257   4.439   4.051  1.2015  0.0251 -0.0430
 5130SOL    HW127023   0.311   4.511   4.082  0.0838  0.4377  0.9415
 5130SOL    HW227024   0.262   4.383   4.129 -1.0952  1.5554  1.1946
 5131SOL     OW27025   4.018   4.101   8.825  0.4412  0.6822 -0.2419
 5131SOL    HW127026   3.968   4.090   8.744 -0.4634  1.0162  0.2673
 5131SOL    HW227027   4.011   4.009   8.849 -0.3724  0.1566 -2.5180
 5132SOL     OW27028   2.982   1.668  11.639 -0.2764 -0.2867 -0.1097
 5132SOL    HW127029   2.931   1.586  11.634  0.4952 -0.7781  0.0754
 5132SOL    HW227030   2.918   1.732  11.670  0.6730  0.2314  0.7805
 5133SOL     OW27031   3.674   3.482   7.725 -0.2726  0.6435 -0.1389
 5133SOL    HW127032   3.667   3.400   7.676 -1.6011 -1.5108  3.6722
 5133SOL    HW227033   3.717   3.447   7.803  0.8102  3.0399  0.3350
 5134SOL     OW27034   3.227   1.520  11.629  0.3878 -0.7163  0.2169
 5134SOL    HW127035   3.151   1.577  11.642  0.7849  0.4393 -2.5597
 5134SOL    HW227036   3.255   1.541  11.540 -1.2167 -1.0296 -0.3618
 5135SOL     OW27037   0.486   4.418  12.718 -0.0525  0.6333  0.5398
 5135SOL    HW127038   0.567   4.442  12.763  1.4077  1.3175 -2.4667
 5135SOL    HW227039   0.421   4.480  12.750  0.1057  1.7173 -1.2573
 5136SOL     OW27040   0.236   2.424   8.743  0.0266 -0.1143 -0.2453
 5136SOL    HW127041   0.251   2.330   8.755  2.1855  0.2103 -0.4103
 5136SOL    HW227042   0.176   2.422   8.669 -1.1141  0.3739  0.6641
 5137SOL     OW27043   1.527   2.462   6.906  0.3949 -0.0765 -0.3402
 5137SOL    HW127044   1.596   2.416   6.952  0.7756 -0.4676 -1.2883
 5137SOL    HW227045   1.570   2.502   6.830  2.3034  0.7485  1.1964
 5138SOL     OW27046   0.582   0.740   3.184 -0.1356  0.0793  0.1759
 5138SOL    HW127047   0.676   0.720   3.186 -0.0240  0.3795 -1.4712
 5138SOL    HW227048   0.559   0.754   3.275 -3.6920  1.3386 -0.9017
 5139SOL     OW27049   0.651   0.057  14.296  0.0192 -0.1384  0.6214
 5139SOL    HW127050   0.675   0.149  14.311  0.0252 -0.0208 -0.1284
 5139SOL    HW227051   0.745   0.037  14.288 -0.2168 -0.2777 -1.6803
 5140SOL     OW27052   2.452   2.950  14.874  0.0788 -0.0218 -0.0261
 5140SOL    HW127053   2.415   3.032  14.907 -1.5234 -1.0364  0.7113
 5140SOL    HW227054   2.545   2.967  14.892  0.3337  0.1083 -1.4848
 5141SOL     OW27055   4.351   1.747  15.245  0.3108 -0.7028 -0.3884
 5141SOL    HW127056   4.409   1.782  15.312  0.5508 -2.8546  0.5385
 5141SOL    HW227057   4.344   1.814  15.177  0.9347 -0.7923 -0.5364
 5142SOL     OW27058   3.561   2.289   2.665  0.1683 -0.7182 -0.3060
 5142SOL    HW127059   3.561   2.384   2.656  0.4327 -0.8421 -1.6417
 5142SOL    HW227060   3.503   2.259   2.594 -0.4365 -0.1304 -0.0570
 5143SOL     OW27061   2.246   2.954   5.544  0.1669  0.0104  0.1639
 5143SOL    HW127062   2.339   2.935   5.535 -0.2207 -0.4306 -2.7524
 5143SOL    HW227063   2.206   2.867   5.554 -0.8182  0.4823  0.3165
 5144SOL     OW27064   2.956   0.761   2.565 -0.3785  0.1197  0.2629
 5144SOL    HW127065   2.875   0.778   2.613 -1.1821 -0.8378 -0.7447
 5144SOL    HW227066   2.998   0.842   2.593  1.9954 -0.3419 -1.9363
 5145SOL     OW27067   4.423   1.897   9.157 -0.3278  0.8242 -0.3855
 5145SOL    HW127068   4.508   1.941   9.153  0.1429 -0.0326  0.4114
 5145SOL    HW227069   4.424   1.883   9.252 -1.7162  1.9129 -0.1947
 5146SOL     OW27070   1.044   2.064   4.483 -0.6284  0.1274 -0.1166
 5146SOL    HW127071   0.989   1.986   4.478  0.1437 -0.3544 -1.0847
 5146SOL    HW227072   1.093   2.040   4.562 -0.1444 -0.8412 -0.7110
 5147SOL     OW27073   3.985   0.775   9.883  0.3695 -0.6761 -0.2323
 5147SOL    HW127074   4.019   0.779   9.972 -1.0251  0.5052  0.2598
 5147SOL    HW227075   4.037   0.705   9.844 -1.1693 -1.9488 -0.0007
 5148SOL     OW27076   1.606   1.069   5.385 -0.2151  0.1665 -0.2265
 5148SOL    HW127077   1.601   1.045   5.478  0.1964 -3.3222 -1.1027
 5148SOL    HW227078   1.526   1.120   5.378 -0.6152 -0.3550  0.5283
 5149SOL     OW27079   1.095   1.075  11.923 -0.3898  0.9573  0.0417
 5149SOL    HW127080   1.069   1.012  11.989  1.2378 -0.5817 -0.8002
 5149SOL    HW227081   1.020   1.113  11.877 -1.2876  0.1940  0.8811
 5150SOL     OW27082   0.513   0.038  16.702  0.2852 -0.0555  0.0732
 5150SOL    HW127083   0.604   0.061  16.683  0.1512 -0.0005 -0.4890
 5150SOL    HW227084   0.479   0.037  16.613  1.4391 -0.0799 -0.3734
 5151SOL     OW27085   4.215   4.623   9.983  0.2804 -0.1432 -0.3329
 5151SOL    HW127086   4.285   4.651  10.042 -0.8234  1.7238  0.0833
 5151SOL    HW227087   4.135   4.652  10.026 -0.4567  1.4533 -2.7781
 5152SOL     OW27088   1.168   0.055   0.514 -0.2879  0.4484  0.2890
 5152SOL    HW127089   1.118   0.094   0.586 -2.1896 -1.0920 -0.1859
 5152SOL    HW227090   1.107   0.017   0.451  0.7899  0.5380 -0.8097
 5153SOL     OW27091   2.248   3.145   5.913  1.0278  0.8206 -0.1626
 5153SOL    HW127092   2.165   3.107   5.883 -0.4183  4.4074 -0.7101
 5153SOL    HW227093   2.310   3.074   5.901  0.9092  0.3477  1.9100
 5154SOL     OW27094   4.478   3.973  14.052 -0.5601 -0.3162  0.3748
 5154SOL    HW127095   4.479   3.877  14.055  4.7967 -0.2815 -0.4526
 5154SOL    HW227096   4.540   3.996  13.983 -1.1309 -0.0801 -0.0597
 5155SOL     OW27097   1.829   2.153   6.421 -0.0291 -0.0990  0.0755
 5155SOL    HW127098   1.924   2.159   6.415  0.0113 -1.8157 -0.8289
 5155SOL    HW227099   1.805   2.223   6.360 -0.4690 -1.2878 -1.1034
 5156SOL     OW27100   2.283   4.606  15.611  0.2386  0.7451  0.0467
 5156SOL    HW127101   2.281   4.651  15.527 -0.1266  0.6983  0.0308
 5156SOL    HW227102   2.211   4.653  15.653  0.8685  1.3816  0.4170
 5157SOL     OW27103   4.666   0.591   8.441 -0.4266 -0.0291  0.2832
 5157SOL    HW127104   4.731   0.542   8.492 -0.6236 -1.5192 -0.9140
 5157SOL    HW227105   4.700   0.680   8.448 -0.3612  0.0629 -1.0989
 5158SOL     OW27106   3.284   3.393  11.042 -0.6350 -0.1932 -0.4665
 5158SOL    HW127107   3.295   3.488  11.047 -0.1979 -0.2284 -0.8694
 5158SOL    HW227108   3.322   3.370  11.127 -1.9419 -0.7944 -0.0421
 5159SOL     OW27109   1.890   3.363   9.817  0.4488  0.8367  0.0654
 5159SOL    HW127110   1.796   3.362   9.834  0.1895  2.9242 -1.3600
 5159SOL    HW227111   1.918   3.279   9.855  0.0393  1.2417  1.2860
 5160SOL     OW27112   0.943   1.568  14.267  0.1383 -0.0291 -0.5114
 5160SOL    HW127113   0.993   1.589  14.187 -2.1340  0.1801 -1.8835
 5160SOL    HW227114   0.916   1.657  14.291 -2.4952 -1.6603  2.5530
 5161SOL     OW27115   0.649   2.890   0.207  0.3982  0.1623 -0.5016
 5161SOL    HW127116   0.582   2.900   0.140 -0.2483  0.5118  0.1942
 5161SOL    HW227117   0.609   2.918   0.290  0.2071  2.6562 -1.4477
 5162SOL     OW27118   0.542   1.968  17.512  0.3467 -0.0658 -0.5583
 5162SOL    HW127119   0.606   1.983  17.582 -0.1673  0.1352 -0.1329
 5162SOL    HW227120   0.542   1.872  17.507  2.1363 -0.1158  0.4013
 5163SOL     OW27121   3.151   2.672   6.096  0.1861 -0.0781 -0.6686
 5163SOL    HW127122   3.111   2.589   6.123  0.0713  0.5460  1.1088
 5163SOL    HW227123   3.071   2.724   6.109 -1.2616 -2.4479 -0.0747
 5164SOL     OW27124   2.975   2.971  11.003 -0.0713  0.0344 -0.9644
 5164SOL    HW127125   2.942   2.898  10.951 -1.1196 -0.0807 -0.1356
 5164SOL    HW227126   2.913   2.949  11.072 -0.4695 -1.5585 -1.8399
 5165SOL     OW27127   3.941   0.799   6.360 -0.4043  0.4781  0.1052
 5165SOL    HW127128   4.027   0.771   6.329 -0.5409  0.3176 -0.1257
 5165SOL    HW227129   3.925   0.740   6.433 -0.2081 -0.0516 -0.2772
 5166SOL     OW27130   3.010   1.805  11.404 -0.1156 -0.1206 -0.5284
 5166SOL    HW127131   3.086   1.843  11.449 -0.0051 -0.2200 -0.6319
 5166SOL    HW227132   2.993   1.731  11.462 -0.5217  2.1125  2.1957
 5167SOL     OW27133   0.783   0.195   7.548  0.4935 -0.4647 -0.5034
 5167SOL    HW127134   0.782   0.201   7.644  0.9142 -0.1405 -0.5216
 5167SOL    HW227135   0.714   0.257   7.524  0.9412  0.1703 -0.1333
 5168SOL     OW27136   2.219   2.434   4.961  0.4119  0.8109 -0.6429
 5168SOL    HW127137   2.196   2.522   4.931 -0.6865  0.9639  0.6721
 5168SOL    HW227138   2.311   2.449   4.982  0.3102 -0.9903  1.0891
 5169SOL     OW27139   1.832   4.147  11.629 -0.0229 -0.1514  0.1838
 5169SOL    HW127140   1.788   4.224  11.664 -0.6183 -0.1080 -0.6613
 5169SOL    HW227141   1.904   4.181  11.575 -0.8036  0.4451 -0.4823
 5170SOL     OW27142   2.702   3.073   4.867  0.4014 -0.1979  0.6424
 5170SOL    HW127143   2.739   3.011   4.929  1.2137  0.2187  0.5636
 5170SOL    HW227144   2.617   3.086   4.908  0.3941  2.5079 -0.2515
 5171SOL     OW27145   2.521   4.701  15.714 -0.1775 -0.3720 -0.5806
 5171SOL    HW127146   2.583   4.665  15.650  3.6177  3.5379  0.8695
 5171SOL    HW227147   2.441   4.696  15.663 -2.1524 -0.8293  2.5706
 5172SOL     OW27148   2.381   2.369   5.547 -0.5958  0.1205  0.5490
 5172SOL    HW127149   2.464   2.413   5.563 -0.1648  0.0529 -1.4487
 5172SOL    HW227150   2.361   2.302   5.612 -1.1318  1.3661  1.6641
 5173SOL     OW27151   1.902   1.901   8.910 -0.8301 -0.2438 -0.0214
 5173SOL    HW127152   1.987   1.887   8.951 -1.2532 -1.1921  0.5393
 5173SOL    HW227153   1.880   1.812   8.883  2.2409 -1.0688  0.1783
 5174SOL     OW27154   3.778   4.346   2.810  0.2009 -0.0454  0.3172
 5174SOL    HW127155   3.848   4.384   2.757  0.9343 -1.7995  0.0145
 5174SOL    HW227156   3.761   4.259   2.775  0.3202  0.0621 -0.0033
 5175SOL     OW27157   3.388   3.229   9.072 -0.5453 -0.6958 -0.2714
 5175SOL    HW127158   3.418   3.206   9.159  0.1669  0.9133 -0.0879
 5175SOL    HW227159   3.428   3.158   9.022 -0.1530 -1.3320  0.9732
 5176SOL     OW27160   1.203   0.415   5.760  0.2551  0.1870 -0.1145
 5176SOL    HW127161   1.157   0.418   5.844  0.1860 -4.0202 -0.0021
 5176SOL    HW227162   1.151   0.473   5.705 -0.5613 -0.6949 -0.2756
 5177SOL     OW27163   3.915   0.544   6.969 -0.0374  0.0342 -0.4356
 5177SOL    HW127164   3.928   0.628   6.925  0.3491  0.4075  0.3945
 5177SOL    HW227165   3.906   0.570   7.061 -1.8756  1.4826 -1.0311
 5178SOL     OW27166   1.481   1.861   3.584  0.2401  0.2160 -0.2186
 5178SOL    HW127167   1.531   1.780   3.592 -0.7009 -0.4113 -0.6912
 5178SOL    HW227168   1.544   1.930   3.606  0.6406 -0.2870  0.2176
 5179SOL     OW27169   4.143   3.732   1.530  0.4380  0.0292  0.3646
 5179SOL    HW127170   4.226   3.688   1.512 -0.8486 -1.4473 -1.8623
 5179SOL    HW227171   4.089   3.689   1.464 -0.5354 -0.9212  1.7921
 5180SOL     OW27172   1.619   1.291   6.971  0.2081  0.8829 -0.1184
 5180SOL    HW127173   1.677   1.341   7.028  2.3730 -1.3206 -0.4059
 5180SOL    HW227174   1.646   1.323   6.885  1.8407  0.4648  0.2446
 5181SOL     OW27175   1.959   0.906  16.727  0.0098  0.2057 -0.0984
 5181SOL    HW127176   1.962   0.860  16.643  0.0144  0.8148 -0.4367
 5181SOL    HW227177   2.038   0.870  16.767 -0.3332 -0.7669 -0.2955
 5182SOL     OW27178   0.551   2.162   7.707  0.2385  0.2781  0.7814
 5182SOL    HW127179   0.504   2.144   7.626  0.5693 -3.1883  1.3332
 5182SOL    HW227180   0.576   2.076   7.742  0.9910  0.2173  0.0961
 5183SOL     OW27181   4.139   0.990   2.537  0.1150 -0.1354  0.4644
 5183SOL    HW127182   4.215   0.944   2.572  0.5789  0.7707  0.6392
 5183SOL    HW227183   4.183   1.042   2.469 -1.0048  2.0120  1.3961
 5184SOL     OW27184   3.363   2.604   3.109  0.0109 -0.3119 -0.6358
 5184SOL    HW127185   3.289   2.575   3.162  2.1242 -1.6651  1.5994
 5184SOL    HW227186   3.321   2.660   3.043  0.9141  1.6848  0.4683
 5185SOL     OW27187   2.857   0.338   8.806  0.4374 -0.0904 -0.2306
 5185SOL    HW127188   2.887   0.390   8.880 -0.4714  1.2393 -0.8019
 5185SOL    HW227189   2.903   0.259   8.836 -2.7477 -1.0892  2.0418
 5186SOL     OW27190   2.644   1.548   6.030 -0.0958  0.2010 -0.6978
 5186SOL    HW127191   2.601   1.463   6.024  0.4589 -0.1454  0.1789
 5186SOL    HW227192   2.708   1.531   5.960  0.1759  2.1846 -0.9318
 5187SOL     OW27193   4.378   4.512   5.938 -0.0824  0.4099  0.2599
 5187SOL    HW127194   4.313   4.445   5.958 -1.1490  0.7005 -2.3408
 5187SOL    HW227195   4.417   4.473   5.860  1.6066  0.3628  1.1228
 5188SOL     OW27196   4.488   1.206   3.471  0.1705 -0.2654 -0.3131
 5188SOL    HW127197   4.448   1.120   3.481 -2.0896  1.2936  3.8206
 5188SOL    HW227198   4.416   1.262   3.442 -0.7969 -0.7584  1.1801
 5189SOL     OW27199   2.323   0.557   0.053 -0.0298 -0.2143 -0.0583
 5189SOL    HW127200   2.279   0.483   0.095 -0.1853  0.3948  0.8343
 5189SOL    HW227201   2.253   0.595   0.000 -1.2741 -1.1657  0.9086
 5190SOL     OW27202   4.132   0.529   8.634 -0.6955 -0.0116  0.1227
 5190SOL    HW127203   4.070   0.583   8.585 -2.2482 -1.0963  0.8998
 5190SOL    HW227204   4.204   0.541   8.572 -0.0589  0.6078  0.9864
 5191SOL     OW27205   2.891   4.466   5.760  0.2923 -0.4621 -0.4896
 5191SOL    HW127206   2.970   4.443   5.710  0.1907 -1.0525 -0.3853
 5191SOL    HW227207   2.847   4.534   5.710  0.1177  0.3969  0.8173
 5192SOL     OW27208   4.387   0.310   7.897  0.0825 -0.1994  0.3955
 5192SOL    HW127209   4.416   0.328   7.987 -3.5703  1.2316  1.2724
 5192SOL    HW227210   4.293   0.325   7.902 -0.0910 -0.5250 -2.0323
 5193SOL     OW27211   1.587   1.716  12.553 -0.1967  0.5080  0.1914
 5193SOL    HW127212   1.496   1.703  12.527  0.8411 -1.5948 -2.4036
 5193SOL    HW227213   1.575   1.784  12.620 -0.7708 -0.5711  1.1872
 5194SOL     OW27214   2.118   0.645   8.578  0.2758 -0.1407  0.1414
 5194SOL    HW127215   2.089   0.735   8.592 -0.8936 -0.5978  0.6353
 5194SOL    HW227216   2.066   0.596   8.642 -2.1841  2.2259 -0.0339
 5195SOL     OW27217   1.253   4.079   8.953 -0.5835  0.3693  0.2558
 5195SOL    HW127218   1.224   4.170   8.940 -2.1623 -0.2796 -0.7776
 5195SOL    HW227219   1.175   4.039   8.915 -1.2071  0.7995  1.0913
 5196SOL     OW27220   0.731   1.694   6.988  0.6155 -0.1765  0.4178
 5196SOL    HW127221   0.811   1.659   7.026 -0.0500 -0.4938  1.5031
 5196SOL    HW227222   0.717   1.623   6.926 -2.9964  1.8597 -1.1308
 5197SOL     OW27223   1.952   0.447  11.583 -0.6941 -0.0574 -0.0118
 5197SOL    HW127224   1.901   0.407  11.512 -0.5710 -0.8703  0.3572
 5197SOL    HW227225   1.905   0.528  11.603  0.7511  0.8819 -0.3931
 5198SOL     OW27226   2.198   0.695   6.247  0.0855  0.5326  0.3975
 5198SOL    HW127227   2.178   0.608   6.280 -1.2082  0.8195  0.3721
 5198SOL    HW227228   2.248   0.724   6.324 -1.5717 -1.3222  2.2010
 5199SOL     OW27229   3.954   1.931   4.496  0.0617  0.5257  0.2342
 5199SOL    HW127230   3.908   1.987   4.434 -0.0976 -1.1058 -1.1098
 5199SOL    HW227231   3.885   1.865   4.507 -0.6046  1.0275 -0.9308
 5200SOL     OW27232   4.319   0.486   8.975 -0.6139 -0.1089 -0.6901
 5200SOL    HW127233   4.298   0.418   8.910 -1.1836  0.2996 -0.9340
 5200SOL    HW227234   4.296   0.573   8.943 -2.3500 -1.0373 -1.9258
 5201SOL     OW27235   2.220   4.394   2.587  0.2870 -0.2009 -0.5728
 5201SOL    HW127236   2.175   4.417   2.506 -2.5753 -1.1042  0.7662
 5201SOL    HW227237   2.282   4.327   2.557  1.2997  1.2401 -1.7029
 5202SOL     OW27238   2.926   1.317   2.052 -0.0468  0.1879  0.1936
 5202SOL    HW127239   2.862   1.246   2.041  0.6074 -0.3185 -0.4188
 5202SOL    HW227240   2.960   1.330   1.963 -0.9654 -0.9398 -0.3279
 5203SOL     OW27241   3.709   2.115   5.753  0.1548  0.4749  0.1402
 5203SOL    HW127242   3.614   2.112   5.751  0.0850  1.7864  1.4549
 5203SOL    HW227243   3.731   2.033   5.708  0.0212  0.5475 -0.0553
 5204SOL     OW27244   0.105   1.175   7.584 -0.9267  0.2148  0.5091
 5204SOL    HW127245   0.038   1.121   7.543 -1.4863  0.0308  1.6687
 5204SOL    HW227246   0.133   1.122   7.659 -0.7320 -0.9114 -0.3772
 5205SOL     OW27247   3.908   0.244   2.295  0.1258  0.3271 -0.0669
 5205SOL    HW127248   3.946   0.284   2.374 -0.8237 -0.3300  0.7248
 5205SOL    HW227249   3.829   0.297   2.282  0.1289  0.1847 -0.6606
 5206SOL     OW27250   0.050   4.693  15.898  0.4752  0.1003  0.2274
 5206SOL    HW127251   0.040   0.043  15.863  2.5017 -0.3571 -1.5109
 5206SOL    HW227252   0.020   4.643  15.822  1.2548  0.2900 -0.2086
 5207SOL     OW27253   2.586   1.665   3.411  0.1409  0.4473  0.0816
 5207SOL    HW127254   2.533   1.688   3.488  0.8848 -0.8967  1.0019
 5207SOL    HW227255   2.634   1.586   3.434 -1.3212 -0.4331  0.1486
 5208SOL     OW27256   3.597   0.880  14.937  0.2168  0.4479  0.3757
 5208SOL    HW127257   3.640   0.960  14.907 -2.1621  1.7326  0.4189
 5208SOL    HW227258   3.583   0.895  15.030  1.6413 -0.6404  0.7724
 5209SOL     OW27259   0.138   1.099   0.235  0.2492  0.0303  0.5724
 5209SOL    HW127260   0.179   1.154   0.302  0.7667 -0.9800  1.0823
 5209SOL    HW227261   0.047   1.125   0.247  0.4071  0.8167  0.0901
 5210SOL     OW27262   4.499   2.266   6.232 -0.5836  0.2676  0.0715
 5210SOL    HW127263   4.477   2.299   6.319 -0.7642 -1.5722  0.7341
 5210SOL    HW227264   4.568   2.329   6.210 -1.4029  1.0008 -0.4155
 5211SOL     OW27265   0.436   3.400  13.845 -0.2610 -0.4416  0.0235
 5211SOL    HW127266   0.481   3.453  13.779  1.5704 -1.3105  0.5663
 5211SOL    HW227267   0.344   3.406  13.817 -0.7494  3.9060  2.5385
 5212SOL     OW27268   4.452   2.391   8.604 -0.6566 -0.8469 -0.1066
 5212SOL    HW127269   4.438   2.427   8.517 -1.1734 -1.1420 -0.1472
 5212SOL    HW227270   4.362   2.382   8.636 -0.8412  1.9250  0.1324
 5213SOL     OW27271   3.205   1.639   5.771  0.6268 -0.1661 -0.3410
 5213SOL    HW127272   3.248   1.678   5.847 -0.7843  2.8908 -1.0739
 5213SOL    HW227273   3.285   1.608   5.728  0.3415 -0.1685 -0.8684
 5214SOL     OW27274   3.098   3.740   7.652 -0.0913 -0.4698  0.1014
 5214SOL    HW127275   3.030   3.673   7.654 -0.2527 -0.3493 -0.8417
 5214SOL    HW227276   3.092   3.760   7.745 -1.2662  1.2277 -0.3289
 5215SOL     OW27277   1.603   1.960   7.066  0.1691  0.3888 -0.6235
 5215SOL    HW127278   1.690   1.997   7.080  0.1186  0.5103 -0.6258
 5215SOL    HW227279   1.622   1.872   7.098 -1.7346  1.3123  3.0379
 5216SOL     OW27280   4.735   1.494   7.232 -0.0493 -0.0397  0.2463
 5216SOL    HW127281   4.675   1.459   7.298 -1.9431 -0.1566 -1.5505
 5216SOL    HW227282   4.671   1.546   7.183 -0.1431  0.8580  1.3001
 5217SOL     OW27283   1.201   0.896   2.333  0.3717  0.4302  0.1766
 5217SOL    HW127284   1.221   0.945   2.253 -0.4679  0.6790  0.1205
 5217SOL    HW227285   1.150   0.962   2.379 -1.1476 -1.3956  1.0794
 5218SOL     OW27286   1.024   3.081   4.519 -0.1241 -0.0188  0.4516
 5218SOL    HW127287   1.083   3.103   4.592 -1.4061  1.4482  1.0406
 5218SOL    HW227288   0.981   3.002   4.553 -0.3967 -0.6230 -1.3181
 5219SOL     OW27289   2.067   4.615   5.505  0.1465  0.3189  0.4036
 5219SOL    HW127290   2.048   4.676   5.434  1.5058  0.3675  0.0887
 5219SOL    HW227291   2.156   4.644   5.526  1.1904 -1.2411 -1.8234
 5220SOL     OW27292   3.626   3.966   3.232  0.1260  0.3255 -0.6783
 5220SOL    HW127293   3.541   3.937   3.266 -0.7831  0.5842 -2.7477
 5220SOL    HW227294   3.690   3.914   3.280 -0.5240  0.1330 -0.0182
 5221SOL     OW27295   0.036   3.364   8.013  0.7396  0.0239 -0.0448
 5221SOL    HW127296   0.043   3.459   8.004  0.1595  0.2473  1.8003
 5221SOL    HW227297   4.724   3.347   8.093 -0.6775 -0.5520 -1.0526
 5222SOL     OW27298   4.198   1.980   8.354 -0.6329  0.0048  0.2217
 5222SOL    HW127299   4.213   2.072   8.330 -0.7342 -0.1365 -0.3837
 5222SOL    HW227300   4.255   1.969   8.430  0.6469 -0.0032 -0.7493
 5223SOL     OW27301   4.368   0.002  11.694 -0.1546  0.0170  0.9325
 5223SOL    HW127302   4.325   0.085  11.673  3.9876  2.0297  0.3933
 5223SOL    HW227303   4.430   0.019  11.766  0.8023  0.6734 -0.0415
 5224SOL     OW27304   0.164   2.431   4.003  0.0719  0.4597 -0.1324
 5224SOL    HW127305   0.203   2.513   4.031  1.1250  0.4472 -1.5924
 5224SOL    HW227306   0.095   2.416   4.068  0.9129 -1.4297  0.3315
 5225SOL     OW27307   0.065   0.319  16.482 -0.2248  0.0351 -0.7933
 5225SOL    HW127308   0.121   0.358  16.415 -2.1225  0.8091 -1.9312
 5225SOL    HW227309   0.117   0.257  16.533  0.4488  1.5868  0.3944
 5226SOL     OW27310   0.984   2.547   2.828 -0.1543 -0.2374  0.4827
 5226SOL    HW127311   0.916   2.563   2.762 -0.6642  0.0951  1.0937
 5226SOL    HW227312   0.968   2.628   2.876  0.1273 -1.3595  2.4631
 5227SOL     OW27313   1.754   0.110   6.246  0.0142  0.3585  0.3247
 5227SOL    HW127314   1.665   0.143   6.234 -0.8450 -1.0683  2.7358
 5227SOL    HW227315   1.759   0.071   6.159 -1.0484  0.7796  0.0802
 5228SOL     OW27316   2.635   1.653  12.088  0.1323  0.2598 -0.1410
 5228SOL    HW127317   2.709   1.646  12.148 -0.0646 -0.2807  0.0360
 5228SOL    HW227318   2.677   1.617  12.010 -0.2336  1.8811 -1.1015
 5229SOL     OW27319   0.308   2.624   4.906 -0.1247 -0.5499  0.0999
 5229SOL    HW127320   0.300   2.529   4.896  2.2777 -0.9363  1.8816
 5229SOL    HW227321   0.261   2.659   4.831 -0.1308 -0.6026  0.0785
 5230SOL     OW27322   4.632   1.002   0.701  0.0492  0.1694  0.1536
 5230SOL    HW127323   4.540   1.029   0.702 -0.3548 -1.2186 -0.1951
 5230SOL    HW227324   4.633   0.939   0.772 -1.4920 -1.1114 -0.9767
 5231SOL     OW27325   3.162   3.114   1.747  0.2787 -0.2356 -0.2809
 5231SOL    HW127326   3.249   3.081   1.725  0.4887 -1.1180  1.8615
 5231SOL    HW227327   3.107   3.078   1.677 -0.1467 -0.6761  0.2882
 5232SOL     OW27328   4.473   3.761   5.852  0.2016 -0.0974  0.1351
 5232SOL    HW127329   4.419   3.784   5.777 -1.1164 -0.7535  0.8680
 5232SOL    HW227330   4.528   3.838   5.862  0.6423 -0.4055  0.0402
 5233SOL     OW27331   3.838   1.952   6.708  0.2793  1.1530 -0.1764
 5233SOL    HW127332   3.871   1.970   6.796  0.4504  0.6767 -0.1457
 5233SOL    HW227333   3.794   1.867   6.711  1.5738  0.4246 -1.4952
 5234SOL     OW27334   1.174   3.186   6.534 -0.1566  0.2185 -0.1757
 5234SOL    HW127335   1.197   3.214   6.623 -0.3485 -0.8759  0.2249
 5234SOL    HW227336   1.199   3.266   6.487  2.6096 -0.7839 -0.4247
 5235SOL     OW27337   4.015   2.078  16.800  0.5384 -0.0159  0.4828
 5235SOL    HW127338   3.953   2.115  16.738  0.8076  0.6147  0.5920
 5235SOL    HW227339   4.031   2.146  16.865  1.0300  0.6570 -0.3436
 5236SOL     OW27340   3.858   4.070   7.327 -0.4460  0.0606  0.0289
 5236SOL    HW127341   3.897   4.116   7.252 -0.1749 -0.2311 -0.0076
 5236SOL    HW227342   3.918   4.099   7.396 -2.0686  1.9594  0.6211
 5237SOL     OW27343   3.765   2.359   2.423  0.4509  0.0281 -0.3474
 5237SOL    HW127344   3.764   2.279   2.371 -0.1192  0.0596 -0.3798
 5237SOL    HW227345   3.715   2.414   2.363 -0.7896 -0.7834 -0.0403
 5238SOL     OW27346   3.314   1.910   5.633 -0.3015 -0.1558  0.2879
 5238SOL    HW127347   3.380   1.884   5.568 -0.7510  0.2165 -0.3265
 5238SOL    HW227348   3.283   1.831   5.676 -2.6298 -0.0623 -1.1714
 5239SOL     OW27349   2.535   3.333   5.905  0.0357  0.3855 -0.2706
 5239SOL    HW127350   2.562   3.248   5.939  0.3591  1.5039  2.2700
 5239SOL    HW227351   2.536   3.312   5.812 -1.5788 -2.1319  0.2949
 5240SOL     OW27352   0.462   1.998   3.829 -0.0419 -0.0336 -0.0383
 5240SOL    HW127353   0.389   1.945   3.798 -0.3226 -0.4844  1.3645
 5240SOL    HW227354   0.494   2.046   3.754 -1.3972  1.4552  0.3413
 5241SOL     OW27355   2.033   2.960   2.493 -0.1634  0.4083 -0.4110
 5241SOL    HW127356   2.090   3.027   2.456  1.7113 -1.9926 -1.8386
 5241SOL    HW227357   2.054   2.891   2.431 -0.9548  0.5410 -0.8366
 5242SOL     OW27358   0.408   2.943   2.728  0.3497  0.4332  0.3405
 5242SOL    HW127359   0.423   3.035   2.748  0.6761  0.4233  0.1313
 5242SOL    HW227360   0.356   2.924   2.806  0.8790  0.8131  0.7880
 5243SOL     OW27361   3.969   0.637   3.722 -0.1144 -0.0351 -0.3110
 5243SOL    HW127362   3.969   0.731   3.743  1.9537 -0.4120  1.3050
 5243SOL    HW227363   4.050   0.607   3.762  0.8295  1.1394 -1.3374
 5244SOL     OW27364   0.917   1.159   5.111 -0.0598  0.1167  0.4481
 5244SOL    HW127365   0.829   1.141   5.078 -0.0278  1.0338 -0.1287
 5244SOL    HW227366   0.911   1.254   5.102 -2.3995 -0.1411 -0.6453
 5245SOL     OW27367   2.841   3.981  12.065 -0.0109  0.4314  0.0891
 5245SOL    HW127368   2.915   4.022  12.110 -0.0902 -0.1327  0.7315
 5245SOL    HW227369   2.772   3.989  12.131  1.4776 -0.1216  1.7119
 5246SOL     OW27370   4.427   1.445   9.595 -0.0687  0.1912 -0.0520
 5246SOL    HW127371   4.496   1.410   9.539  0.5358 -0.2851  0.9808
 5246SOL    HW227372   4.425   1.385   9.669 -1.0468 -1.0115 -1.0671
 5247SOL     OW27373   3.398   4.363   4.638  0.0180 -0.1953 -0.3674
 5247SOL    HW127374   3.431   4.338   4.724 -2.4663  0.9663  0.9372
 5247SOL    HW227375   3.330   4.296   4.634 -1.8459  1.5579  1.6361
 5248SOL     OW27376   3.460   1.158  10.264 -0.4852 -0.5372  0.3657
 5248SOL    HW127377   3.388   1.182  10.206 -0.8163 -1.3585  0.4388
 5248SOL    HW227378   3.534   1.198  10.218 -0.8448 -0.0835  0.1817
 5249SOL     OW27379   0.124   0.536  10.600  0.2210  0.3835 -0.2581
 5249SOL    HW127380   0.191   0.494  10.546  0.3882 -0.6444  0.7605
 5249SOL    HW227381   0.089   0.463  10.651 -0.9196  0.4991 -0.8487
 5250SOL     OW27382   0.328   4.731   6.612 -0.0265  0.6469  0.3997
 5250SOL    HW127383   0.357   0.039   6.690 -1.2751  0.8008  0.7577
 5250SOL    HW227384   0.333   0.071   6.557  0.9825 -0.0468 -0.5093
 5251SOL     OW27385   0.662   1.399   1.742 -0.1121  0.2501 -0.2148
 5251SOL    HW127386   0.743   1.449   1.732 -0.5738  1.1680  0.7519
 5251SOL    HW227387   0.606   1.462   1.787 -0.4320 -0.3763  0.2697
 5252SOL     OW27388   3.863   3.091   5.430  0.1192 -0.1287  0.3499
 5252SOL    HW127389   3.797   3.115   5.495  0.0054 -1.9926  0.8969
 5252SOL    HW227390   3.932   3.045   5.477  0.0634 -2.2007 -1.6151
 5253SOL     OW27391   1.286   4.046   8.370 -0.4263  0.3720  0.0465
 5253SOL    HW127392   1.331   3.990   8.308  3.1455  3.2691 -0.0125
 5253SOL    HW227393   1.312   4.130   8.331 -0.3720 -0.3968 -1.5846
 5254SOL     OW27394   0.960   0.030   9.344 -0.1769  0.6001  0.2207
 5254SOL    HW127395   0.864   0.026   9.340 -0.1283 -0.2325 -0.0469
 5254SOL    HW227396   0.971   0.003   9.436  1.2724 -1.4801 -0.5691
 5255SOL     OW27397   1.998   2.805   7.765 -0.5893  0.1056 -0.2955
 5255SOL    HW127398   1.952   2.811   7.849 -0.0488 -1.8415  0.1489
 5255SOL    HW227399   1.992   2.712   7.742  0.7188  0.5673 -2.5056
 5256SOL     OW27400   4.474   2.578   3.103 -0.0153  0.0231  0.0808
 5256SOL    HW127401   4.432   2.663   3.088  1.8887  0.9433 -0.0256
 5256SOL    HW227402   4.439   2.539   3.023 -0.2290 -1.4420  0.8760
 5257SOL     OW27403   0.081   0.451   4.977  0.6493 -0.3121  0.4002
 5257SOL    HW127404   0.009   0.514   4.971 -0.3673 -1.6125 -1.0700
 5257SOL    HW227405   0.133   0.490   5.047 -0.9802 -0.3754  1.6413
 5258SOL     OW27406   1.287   1.350   7.822  0.5133 -0.0572 -0.3842
 5258SOL    HW127407   1.316   1.276   7.770  2.0694  1.0146 -1.0531
 5258SOL    HW227408   1.327   1.423   7.775 -0.2773 -0.0089 -0.9747
 5259SOL     OW27409   2.010   1.909   7.179 -0.3661  0.6845 -0.0143
 5259SOL    HW127410   2.090   1.959   7.194  1.3756 -1.6424 -1.5292
 5259SOL    HW227411   1.959   1.977   7.134 -2.2209  0.1281  1.2520
 5260SOL     OW27412   1.622   1.958  13.000  0.1226  0.6029  0.0899
 5260SOL    HW127413   1.646   1.868  12.979  0.9731  0.5662  1.2042
 5260SOL    HW227414   1.527   1.949  12.992  0.2450 -0.3503 -0.2856
 5261SOL     OW27415   4.546   1.443   8.321  0.1976  0.0628  0.4460
 5261SOL    HW127416   4.473   1.505   8.316  0.9608  0.7409 -2.2841
 5261SOL    HW227417   4.521   1.387   8.395  1.0534 -0.4752  0.3319
 5262SOL     OW27418   0.136   2.668   4.682 -0.2262  0.5921  0.3512
 5262SOL    HW127419   0.061   2.658   4.741 -0.8340 -0.8801 -0.6458
 5262SOL    HW227420   0.108   2.619   4.604 -1.8786  1.2400  0.5299
 5263SOL     OW27421   2.576   4.707   6.209 -0.6020 -0.0169  0.8052
 5263SOL    HW127422   2.554   4.641   6.275  0.2683 -0.6822  0.4357
 5263SOL    HW227423   2.501   0.027   6.216 -0.7568  0.1094 -1.8942
 5264SOL     OW27424   3.297   4.237  17.676 -0.0975  0.2248 -0.2381
 5264SOL    HW127425   3.391   4.227  17.692  0.0447 -0.3369 -1.4167
 5264SOL    HW227426   3.307   4.228  17.582 -0.2321  0.7512 -0.3025
 5265SOL     OW27427   3.445   4.577   5.352 -0.1663  0.4782  0.6014
 5265SOL    HW127428   3.443   4.576   5.448 -0.9330 -3.3347  0.5234
 5265SOL    HW227429   3.397   4.496   5.335 -0.0376 -0.1390  3.1053
 5266SOL     OW27430   2.330   2.540  13.007  0.3181 -0.2982  0.3475
 5266SOL    HW127431   2.286   2.469  13.055  0.3133  0.5864  1.6568
 5266SOL    HW227432   2.411   2.493  12.985  0.9629  0.9288  0.0865
 5267SOL     OW27433   2.288   1.661   6.494  0.2044 -0.2729  0.0421
 5267SOL    HW127434   2.292   1.619   6.408 -3.1647 -1.1950  0.3595
 5267SOL    HW227435   2.350   1.611   6.547  1.9253  1.1000 -0.6551
 5268SOL     OW27436   3.639   1.009  16.959 -0.4342  0.0880 -0.1113
 5268SOL    HW127437   3.665   0.920  16.934 -0.6536 -0.7752  2.7310
 5268SOL    HW227438   3.728   1.043  16.968 -0.4789  0.5121 -1.2610
 5269SOL     OW27439   3.163   1.764   3.691  0.0453 -0.3814 -0.3557
 5269SOL    HW127440   3.155   1.744   3.784  0.7070 -1.7402 -0.5953
 5269SOL    HW227441   3.234   1.703   3.669 -0.2030 -0.9846  0.5560
 5270SOL     OW27442   1.378   1.784  10.062 -0.6415  0.3490 -0.4485
 5270SOL    HW127443   1.296   1.735  10.068 -0.3296 -0.2038 -0.6646
 5270SOL    HW227444   1.366   1.834   9.981 -2.4538 -1.7637 -1.4765
 5271SOL     OW27445   4.510   3.315   5.117  0.3788  0.0212 -0.1541
 5271SOL    HW127446   4.575   3.267   5.169 -1.3122  0.6064  2.5012
 5271SOL    HW227447   4.494   3.392   5.173  1.2237 -1.0366  1.5397
 5272SOL     OW27448   1.298   3.721  12.638  0.2653 -0.2052  0.9131
 5272SOL    HW127449   1.268   3.749  12.551 -0.7413  1.2269  1.7165
 5272SOL    HW227450   1.338   3.798  12.678 -0.2138  0.1672  0.6705
 5273SOL     OW27451   2.826   4.166   6.036  0.2241  0.4437  0.1000
 5273SOL    HW127452   2.895   4.112   6.073  0.3692 -0.0226 -0.8520
 5273SOL    HW227453   2.863   4.253   6.051  0.1712  0.2685  1.2281
 5274SOL     OW27454   4.598   2.527   2.334  0.3551 -0.3198  0.0694
 5274SOL    HW127455   4.505   2.526   2.357  0.0203  0.9665 -1.2386
 5274SOL    HW227456   4.608   2.434   2.310 -2.5636 -1.4229  3.0668
 5275SOL     OW27457   0.937   3.906   1.401  0.4234  0.1179 -0.1256
 5275SOL    HW127458   0.994   3.830   1.394  2.7957  2.0059 -1.3494
 5275SOL    HW227459   0.969   3.943   1.482  0.0373 -0.8056  0.4502
 5276SOL     OW27460   4.538   0.273   3.730  0.0662 -0.2029 -0.3732
 5276SOL    HW127461   4.455   0.284   3.777  0.3935 -2.5983  0.7501
 5276SOL    HW227462   4.562   0.187   3.764  0.9639 -0.2702 -1.1775
 5277SOL     OW27463   1.445   4.136   5.862  0.1498  0.2239  0.0686
 5277SOL    HW127464   1.399   4.063   5.821 -0.8426  1.6310 -1.3084
 5277SOL    HW227465   1.536   4.122   5.835 -0.5477 -4.2905 -0.0083
 5278SOL     OW27466   3.117   0.289   8.644 -0.7238 -0.0150  0.2305
 5278SOL    HW127467   3.117   0.203   8.685  1.9601  0.0268  0.2993
 5278SOL    HW227468   3.183   0.289   8.574  0.7740  0.3046  1.6358
 5279SOL     OW27469   4.156   0.946   2.208  0.3865 -0.4854  0.0998
 5279SOL    HW127470   4.159   0.870   2.266  1.2054 -0.5158  0.0193
 5279SOL    HW227471   4.208   1.003   2.266  0.7640 -1.4539  0.7150
 5280SOL     OW27472   2.240   1.280   8.639 -0.1798  0.1022  0.2953
 5280SOL    HW127473   2.296   1.355   8.661  0.9301  0.0612 -2.4865
 5280SOL    HW227474   2.188   1.332   8.578  0.7389  1.5593  0.7422
 5281SOL     OW27475   3.932   1.395  15.890 -0.0509  0.3940 -0.1465
 5281SOL    HW127476   3.931   1.489  15.911 -1.7791 -0.0121  1.5471
 5281SOL    HW227477   3.867   1.391  15.820 -1.4377 -0.8138  1.2108
 5282SOL     OW27478   2.316   4.664  15.336 -0.2676 -0.3175 -0.3614
 5282SOL    HW127479   2.224   4.678  15.316 -0.0931 -0.3144 -1.1669
 5282SOL    HW227480   2.323   4.578  15.295  0.2739 -1.6758  2.6300
 5283SOL     OW27481   0.408   1.976   5.054 -0.0883  0.1247 -0.2797
 5283SOL    HW127482   0.321   1.942   5.032  0.2222 -0.9739  0.2001
 5283SOL    HW227483   0.424   1.930   5.136  0.9538 -0.7535 -0.9754
 5284SOL     OW27484   2.715   0.837   2.730 -0.6931  0.5207  0.0761
 5284SOL    HW127485   2.657   0.762   2.745  0.6499 -0.4615  0.3360
 5284SOL    HW227486   2.761   0.841   2.813 -2.1271  0.7356  0.8577
 5285SOL     OW27487   3.012   2.947   7.162  0.0189  0.5563  0.6466
 5285SOL    HW127488   3.003   2.857   7.131 -1.0936  0.7059  0.5319
 5285SOL    HW227489   3.105   2.947   7.142 -0.5308 -0.4004 -1.9560
 5286SOL     OW27490   1.722   1.898   1.487 -0.0248  0.8377 -0.7426
 5286SOL    HW127491   1.805   1.926   1.449 -0.5302  1.9733 -1.0088
 5286SOL    HW227492   1.728   1.947   1.569  1.7967  1.3036 -1.1370
 5287SOL     OW27493   3.334   1.068   2.541  0.6652 -0.2903  0.2659
 5287SOL    HW127494   3.248   1.072   2.499 -0.0704  1.9274  1.9537
 5287SOL    HW227495   3.347   1.160   2.565 -1.8916  0.4733 -1.2973
 5288SOL     OW27496   3.767   3.901  10.001  0.1044  0.5964  0.3205
 5288SOL    HW127497   3.680   3.940  10.012 -0.7334 -1.2516  0.2986
 5288SOL    HW227498   3.819   3.955  10.060  1.2714  0.5826 -0.7012
 5289SOL     OW27499   0.507   1.131   8.426 -0.4634 -0.4080  0.6622
 5289SOL    HW127500   0.499   1.036   8.428 -0.3262 -0.4155  0.8884
 5289SOL    HW227501   0.423   1.174   8.441 -0.2228 -0.2506  1.5499
 5290SOL     OW27502   4.125   2.688   5.408  0.3733 -0.0416  0.4907
 5290SOL    HW127503   4.062   2.757   5.429  0.7563  1.1183 -2.0485
 5290SOL    HW227504   4.195   2.730   5.358 -0.6587 -0.9919 -1.7497
 5291SOL     OW27505   4.456   0.699   7.466 -0.1899 -0.2467 -0.2400
 5291SOL    HW127506   4.470   0.620   7.518 -0.3766  0.9242  1.5961
 5291SOL    HW227507   4.361   0.702   7.457 -0.3518  0.6144  1.7455
 5292SOL     OW27508   4.552   3.531   9.496 -0.5596 -0.4932 -0.0729
 5292SOL    HW127509   4.600   3.473   9.436 -0.3474  1.2423 -1.5735
 5292SOL    HW227510   4.460   3.512   9.477 -0.8759  0.3683  0.5997
 5293SOL     OW27511   0.549   3.688   4.612 -0.3338  0.1360 -0.1259
 5293SOL    HW127512   0.599   3.619   4.655 -0.3941  0.8867  1.1653
 5293SOL    HW227513   0.595   3.769   4.634 -0.4837  1.0742 -3.3287
 5294SOL     OW27514   3.480   0.510  10.987  0.0155 -0.3159  0.0224
 5294SOL    HW127515   3.446   0.532  10.901 -2.0849  1.2551  1.2413
 5294SOL    HW227516   3.512   0.596  11.018 -0.6059 -0.1815  0.2913
 5295SOL     OW27517   3.779   2.314  10.631  0.2312  0.3711 -0.2564
 5295SOL    HW127518   3.731   2.276  10.558  0.5841 -0.0056 -0.2939
 5295SOL    HW227519   3.765   2.408  10.618  3.8672  0.9606 -0.0109
 5296SOL     OW27520   3.076   4.486   9.451  0.6774  0.1767  0.0812
 5296SOL    HW127521   3.084   4.581   9.464 -0.2391  0.2219  0.3252
 5296SOL    HW227522   2.989   4.490   9.412 -0.0417  0.9340  1.7268
 5297SOL     OW27523   4.421   3.469   8.109  0.3449  0.5559  0.3704
 5297SOL    HW127524   4.414   3.509   8.022  0.5099  1.1690  0.6363
 5297SOL    HW227525   4.332   3.488   8.138 -0.2901 -3.3297  0.8967
 5298SOL     OW27526   3.981   0.028  14.984 -0.5108  0.6049  0.6794
 5298SOL    HW127527   4.069   0.057  14.961 -0.4815 -0.2449 -0.2710
 5298SOL    HW227528   3.931   0.109  14.988 -0.4229  0.6330  1.1847
 5299SOL     OW27529   1.534   3.343  15.572 -0.1460 -0.4622 -0.0440
 5299SOL    HW127530   1.439   3.341  15.581 -0.0602  0.8347  1.1215
 5299SOL    HW227531   1.574   3.390  15.645  0.6029 -2.1982  0.6656
 5300SOL     OW27532   1.090   2.498   8.298 -0.3008  0.0807 -0.4657
 5300SOL    HW127533   1.182   2.474   8.311 -0.0497  0.3624 -1.7411
 5300SOL    HW227534   1.086   2.581   8.344 -2.5042 -0.1630 -0.2249
 5301SOL     OW27535   2.185   1.736  11.030  0.0227 -0.4360  0.1788
 5301SOL    HW127536   2.249   1.665  11.033 -1.0622 -1.4612 -0.9213
 5301SOL    HW227537   2.135   1.722  11.110  1.7991 -0.5722  1.2693
 5302SOL     OW27538   0.985   2.910   5.416 -0.8821  0.3225  0.1246
 5302SOL    HW127539   0.980   2.993   5.463 -0.9614  0.7340 -0.6122
 5302SOL    HW227540   1.051   2.861   5.466  0.2845  1.4194 -0.3306
 5303SOL     OW27541   3.175   0.289   4.445 -0.4736 -0.3239  0.1777
 5303SOL    HW127542   3.215   0.202   4.455 -0.8643 -0.7017 -1.6367
 5303SOL    HW227543   3.201   0.304   4.354 -1.3552  1.5450  0.2280
 5304SOL     OW27544   1.497   1.884  15.821  0.6974 -0.0035 -0.1715
 5304SOL    HW127545   1.548   1.816  15.777  0.6127 -1.5741  2.1278
 5304SOL    HW227546   1.476   1.841  15.905 -2.6249  1.0168 -0.5003
 5305SOL     OW27547   4.309   0.549   5.492 -0.1657 -0.2224  0.1660
 5305SOL    HW127548   4.395   0.584   5.517 -0.2333  1.6222 -2.1793
 5305SOL    HW227549   4.242   0.595   5.542  0.1068  1.4474 -0.9818
 5306SOL     OW27550   3.448   3.537   5.805 -0.2433 -1.1425  0.3986
 5306SOL    HW127551   3.456   3.572   5.894 -1.4006  1.1725 -0.4000
 5306SOL    HW227552   3.459   3.617   5.752 -3.3189 -0.4775  0.7973
 5307SOL     OW27553   0.764   0.754   8.087 -0.1755 -0.3542  0.5335
 5307SOL    HW127554   0.856   0.777   8.097  0.0546 -1.8436  1.8461
 5307SOL    HW227555   0.734   0.704   8.163 -3.6807 -3.0416 -2.5795
 5308SOL     OW27556   1.414   3.575   4.758  0.1059  0.4199  0.3712
 5308SOL    HW127557   1.439   3.635   4.688 -0.6611  0.6086  0.2615
 5308SOL    HW227558   1.467   3.599   4.835 -1.3242  1.3144  1.0648
 5309SOL     OW27559   4.579   1.851   6.803 -0.2018  0.2164 -0.1743
 5309SOL    HW127560   4.572   1.917   6.871 -1.8880 -1.5370  1.3366
 5309SOL    HW227561   4.600   1.776   6.858 -0.0079  1.1548  1.0211
 5310SOL     OW27562   1.618   3.097  11.094 -0.2003 -0.4843  0.5656
 5310SOL    HW127563   1.567   3.016  11.089  1.1951 -1.4195  1.5574
 5310SOL    HW227564   1.591   3.139  11.013 -0.1702 -0.9885  0.2957
 5311SOL     OW27565   0.628   2.479   6.508 -0.1212  0.4934  0.5620
 5311SOL    HW127566   0.678   2.534   6.568  0.1069 -2.1818  2.8636
 5311SOL    HW227567   0.671   2.393   6.513  1.3949  1.1600 -0.7932
 5312SOL     OW27568   1.392   2.854   0.017  0.0606 -0.1189 -0.9167
 5312SOL    HW127569   1.450   2.829  17.696 -2.2240  0.1420 -2.8291
 5312SOL    HW227570   1.391   2.948  17.750  0.5378  0.3954  1.5986
 5313SOL     OW27571   0.104   3.507   7.456 -0.1447 -0.5131  0.3934
 5313SOL    HW127572   0.182   3.471   7.499  0.8844 -1.2850 -2.1106
 5313SOL    HW227573   0.063   3.564   7.520 -0.1283 -0.9916  0.8288
 5314SOL     OW27574   4.430   1.707   9.626 -0.0867  0.1268 -0.3831
 5314SOL    HW127575   4.336   1.715   9.643 -0.3273 -0.0967 -1.6166
 5314SOL    HW227576   4.429   1.613   9.608  2.3292  0.0566 -0.1255
 5315SOL     OW27577   3.666   0.291   0.751 -0.6540  0.5480 -0.3708
 5315SOL    HW127578   3.691   0.309   0.661 -0.2550 -0.5062 -0.4721
 5315SOL    HW227579   3.630   0.202   0.749 -1.5534  0.9675 -2.2547
 5316SOL     OW27580   0.605   2.026   4.887  0.1981  0.1073  0.7689
 5316SOL    HW127581   0.605   2.121   4.876  3.5498 -0.1846 -1.7431
 5316SOL    HW227582   0.523   2.014   4.934  0.2353 -3.8534 -0.1657
 5317SOL     OW27583   1.946   2.655   6.466 -0.6439  0.9254 -0.7517
 5317SOL    HW127584   1.935   2.565   6.497  0.1913  2.0058  2.6939
 5317SOL    HW227585   2.019   2.689   6.518 -2.9682  0.0376  3.0808
 5318SOL     OW27586   3.594   4.445   0.520  0.0536  0.0369 -0.0353
 5318SOL    HW127587   3.605   4.403   0.605 -0.3968  1.5603  0.7758
 5318SOL    HW227588   3.501   4.461   0.536  0.5432  1.9426  0.9218
 5319SOL     OW27589   1.810   2.234   5.343  0.3743 -0.0265 -0.7867
 5319SOL    HW127590   1.901   2.245   5.315  0.4518 -0.6366 -0.7848
 5319SOL    HW227591   1.773   2.214   5.258  0.7042 -0.2819 -0.8706
 5320SOL     OW27592   2.850   0.776  17.511 -0.0535 -0.4935 -0.1700
 5320SOL    HW127593   2.780   0.718  17.481 -0.5097  0.7205 -1.4539
 5320SOL    HW227594   2.919   0.726  17.468  0.2559 -0.7143  0.5937
 5321SOL     OW27595   1.068   0.925  17.420 -0.0366 -0.0706 -0.2745
 5321SOL    HW127596   1.028   0.854  17.369 -2.5412  2.1649 -1.4422
 5321SOL    HW227597   1.162   0.918  17.400 -0.5525 -0.9540 -2.3779
 5322SOL     OW27598   3.768   1.355   2.127 -0.6813 -0.1827  0.0444
 5322SOL    HW127599   3.829   1.283   2.140 -1.0915 -0.6033 -0.3718
 5322SOL    HW227600   3.723   1.351   2.211 -1.9566  0.2292 -0.6110
 5323SOL     OW27601   4.482   2.086   2.705 -0.1548  0.0279  0.4719
 5323SOL    HW127602   4.529   2.158   2.662 -2.0346  1.6595  1.1395
 5323SOL    HW227603   4.430   2.055   2.631 -2.1163  0.5189  1.6469
 5324SOL     OW27604   2.872   2.637  16.504 -0.0020  0.0515  0.1697
 5324SOL    HW127605   2.778   2.637  16.486  0.0080 -1.0947  0.1236
 5324SOL    HW227606   2.864   2.573  16.575  1.0581 -0.9416 -0.6102
 5325SOL     OW27607   2.252   2.755   2.011  0.1491 -0.0128 -0.1461
 5325SOL    HW127608   2.200   2.833   1.994  0.0352  0.0074  0.2803
 5325SOL    HW227609   2.333   2.793   2.046 -2.1883  3.5560  1.4034
 5326SOL     OW27610   4.144   1.628   9.004 -0.7273 -0.3296  0.1388
 5326SOL    HW127611   4.136   1.718   9.036 -1.6410 -1.8210  4.0828
 5326SOL    HW227612   4.233   1.630   8.969 -0.7566  0.7174  0.1133
 5327SOL     OW27613   0.669   3.337  17.575  0.1851  0.0056 -0.2191
 5327SOL    HW127614   0.746   3.328  17.519  0.2062 -0.5291 -0.0984
 5327SOL    HW227615   0.598   3.288  17.535 -0.5058  0.6838  0.1624
 5328SOL     OW27616   4.016   0.249   8.719  0.3010  0.0543  0.1602
 5328SOL    HW127617   3.942   0.292   8.763 -0.2990 -0.7712 -0.0477
 5328SOL    HW227618   3.972   0.195   8.653 -1.0555 -0.2604  1.3296
 5329SOL     OW27619   1.964   2.319   0.829  0.4405  0.6994  0.1781
 5329SOL    HW127620   2.026   2.316   0.756  0.6292  0.1339  0.3630
 5329SOL    HW227621   1.892   2.276   0.782  0.7077 -0.7682  1.1189
 5330SOL     OW27622   2.771   1.748   2.137  0.3988  0.1692 -0.4016
 5330SOL    HW127623   2.775   1.697   2.218  0.0912  0.2586 -0.3300
 5330SOL    HW227624   2.865   1.743   2.117  0.7001 -2.0372  1.6261
 5331SOL     OW27625   1.425   0.108  11.992  0.2414 -0.4918  0.3344
 5331SOL    HW127626   1.475   0.182  12.027  1.6146 -0.5172 -1.5492
 5331SOL    HW227627   1.491   0.069  11.934 -2.8247 -4.0192 -0.7426
 5332SOL     OW27628   3.903   4.666  15.601  0.0360 -0.3577  0.1567
 5332SOL    HW127629   3.868   4.706  15.680  0.9048 -1.6632  1.2002
 5332SOL    HW227630   3.989   4.635  15.631 -0.7576 -0.8071  1.9480
 5333SOL     OW27631   3.585   1.492  12.110 -0.3675 -0.4007 -0.1323
 5333SOL    HW127632   3.632   1.452  12.183  0.2800 -0.5138 -0.6191
 5333SOL    HW227633   3.521   1.423  12.094 -1.1548  1.0208 -3.0815
 5334SOL     OW27634   3.865   4.185  14.629  0.1701 -0.3628 -0.4135
 5334SOL    HW127635   3.880   4.270  14.670 -0.3373 -1.7169  2.5301
 5334SOL    HW227636   3.781   4.204  14.587 -0.5289 -2.7219 -0.0426
 5335SOL     OW27637   4.667   3.583   2.514  0.1294 -0.0028  0.0712
 5335SOL    HW127638   4.631   3.507   2.560  0.4102  0.7285  1.5106
 5335SOL    HW227639   4.736   3.543   2.462 -0.0891 -0.8746  0.4417
 5336SOL     OW27640   1.954   4.670   3.636 -0.1558  0.3667 -0.3055
 5336SOL    HW127641   1.877   4.701   3.683 -2.7776 -4.5368 -1.3809
 5336SOL    HW227642   1.968   4.587   3.682 -1.4184  0.7983  0.8434
 5337SOL     OW27643   3.999   1.622  12.775 -0.1950 -0.0764 -0.2523
 5337SOL    HW127644   3.969   1.589  12.859  1.2161  0.1596  0.3408
 5337SOL    HW227645   3.942   1.574  12.714 -0.4460 -0.4552  0.2811
 5338SOL     OW27646   1.750   0.262   2.181  0.2596 -0.3828  0.7404
 5338SOL    HW127647   1.665   0.271   2.224  0.8617 -0.5336  1.9756
 5338SOL    HW227648   1.805   0.315   2.239 -0.6593  0.6945  0.6261
 5339SOL     OW27649   3.559   2.096   4.989 -0.0196  0.1288 -0.1459
 5339SOL    HW127650   3.582   2.044   4.912 -1.2726  1.8888 -1.6971
 5339SOL    HW227651   3.642   2.133   5.020 -0.7666  0.1498  1.7897
 5340SOL     OW27652   1.663   0.222   7.083 -0.3332  0.2688  0.2992
 5340SOL    HW127653   1.727   0.228   7.012  0.7915  0.0570  1.2894
 5340SOL    HW227654   1.654   0.128   7.097 -2.5093  0.3373 -0.7157
 5341SOL     OW27655   0.026   2.317   8.523  0.0564  0.2266 -0.1498
 5341SOL    HW127656   0.016   2.248   8.458  3.0816  1.4376 -1.9184
 5341SOL    HW227657   4.681   2.314   8.571  0.3648 -2.9638  0.1780
 5342SOL     OW27658   1.924   4.474  12.317  0.3246 -0.8742  0.3920
 5342SOL    HW127659   1.877   4.484  12.399 -0.8848 -0.4269 -0.3483
 5342SOL    HW227660   1.969   4.389  12.324  0.9261 -0.5669  0.2211
 5343SOL     OW27661   1.476   3.065   2.855  0.0391 -0.0440 -0.0750
 5343SOL    HW127662   1.382   3.062   2.874 -0.0365  0.7032 -0.3569
 5343SOL    HW227663   1.484   3.156   2.828  0.2397 -0.9011 -2.8683
 5344SOL     OW27664   0.589   3.354   9.839 -0.2642  0.3296  0.0853
 5344SOL    HW127665   0.539   3.431   9.812  1.2769  0.9479 -0.9591
 5344SOL    HW227666   0.591   3.374   9.933  2.1144  2.3781 -0.4013
 5345SOL     OW27667   3.454   0.250   4.539 -0.7980  0.0334 -0.0408
 5345SOL    HW127668   3.406   0.308   4.598 -0.3076  1.4795 -1.0551
 5345SOL    HW227669   3.396   0.175   4.533 -2.4072  1.2484  0.3156
 5346SOL     OW27670   4.492   2.958  13.609 -0.0261 -0.1520 -0.0479
 5346SOL    HW127671   4.400   2.981  13.596 -0.2937 -1.3347 -0.2031
 5346SOL    HW227672   4.469   2.900  13.681 -0.3038  1.3157  1.0502
 5347SOL     OW27673   0.731   3.938   6.018 -0.2406  0.3986  0.9802
 5347SOL    HW127674   0.674   3.861   6.022 -1.4196  1.0802 -2.5101
 5347SOL    HW227675   0.682   4.002   6.070 -2.4043  1.7256 -2.6314
 5348SOL     OW27676   3.444   0.584   3.161  0.2771  0.2449 -0.3926
 5348SOL    HW127677   3.522   0.584   3.105 -0.5055 -0.3547 -1.4972
 5348SOL    HW227678   3.381   0.522   3.125  1.2346 -1.4766  0.8819
 5349SOL     OW27679   1.965   3.838  16.313 -0.0452 -0.2059  0.1728
 5349SOL    HW127680   1.949   3.798  16.227 -1.2289  1.8082 -0.5389
 5349SOL    HW227681   2.061   3.836  16.322  0.0807  0.2219 -1.0629
 5350SOL     OW27682   2.412   2.501   8.246  0.7867 -0.1219 -0.0430
 5350SOL    HW127683   2.497   2.545   8.237  0.3285  0.4111 -1.9084
 5350SOL    HW227684   2.365   2.538   8.170 -1.5527 -0.5512  1.2050
 5351SOL     OW27685   3.502   4.599   8.547  0.0802  0.0922  0.4401
 5351SOL    HW127686   3.545   4.641   8.621  0.5248  0.5184 -0.0576
 5351SOL    HW227687   3.483   4.509   8.575  1.1109  0.4099  2.1007
 5352SOL     OW27688   3.379   3.981   4.698 -0.0849 -0.3748 -0.8655
 5352SOL    HW127689   3.391   3.888   4.715  2.2818  0.2423  0.9790
 5352SOL    HW227690   3.284   3.981   4.696 -0.2313  1.8956  5.3754
 5353SOL     OW27691   1.490   0.289   4.050 -0.0052  0.2345 -0.4829
 5353SOL    HW127692   1.480   0.194   4.044 -1.3988  0.4764 -1.8682
 5353SOL    HW227693   1.404   0.319   4.080  0.0654 -0.6586  0.6268
 5354SOL     OW27694   0.049   1.875   4.005 -0.3185  0.0239  0.2927
 5354SOL    HW127695   4.706   1.926   4.004 -1.7143 -2.2022 -0.3919
 5354SOL    HW227696   0.055   1.829   4.089 -0.1791  1.9945  1.3658
 5355SOL     OW27697   3.408   1.252   2.987 -0.6244 -0.2419  0.3287
 5355SOL    HW127698   3.438   1.342   2.978  3.3197 -1.6458 -0.7650
 5355SOL    HW227699   3.312   1.254   2.994 -0.8568 -1.2704 -2.6067
 5356SOL     OW27700   1.301   0.936   3.417 -0.4076 -0.1207 -0.3364
 5356SOL    HW127701   1.263   0.936   3.329  1.0900  0.1672 -0.9940
 5356SOL    HW227702   1.307   0.841   3.425 -0.1460 -0.2137 -1.6394
 5357SOL     OW27703   0.329   4.709  12.442 -0.8240  0.1963  0.1815
 5357SOL    HW127704   0.297   0.040  12.383 -0.3630  1.1812  1.0819
 5357SOL    HW227705   0.420   4.701  12.413 -0.7592 -0.6416  0.6373
 5358SOL     OW27706   2.715   0.280   0.517  0.0673  0.1817 -0.1744
 5358SOL    HW127707   2.694   0.282   0.610  0.1579 -0.1280 -0.1480
 5358SOL    HW227708   2.744   0.371   0.507 -0.9054  0.6581  1.3921
 5359SOL     OW27709   1.401   4.393   3.510 -0.5805  0.1402  0.3576
 5359SOL    HW127710   1.356   4.419   3.590 -2.7332 -0.3585 -0.7154
 5359SOL    HW227711   1.486   4.384   3.554  0.1801  1.3916 -0.8260
 5360SOL     OW27712   2.122   2.970  13.258 -0.7175 -0.0711 -0.5118
 5360SOL    HW127713   2.160   2.908  13.321  1.4096  0.0823 -1.6304
 5360SOL    HW227714   2.159   2.955  13.170  1.5692  2.2077  0.0630
 5361SOL     OW27715   3.664   0.057   5.922  0.4146  0.3484  0.1140
 5361SOL    HW127716   3.615   0.126   5.877 -1.4025 -0.6132  0.6349
 5361SOL    HW227717   3.644   4.718   5.869 -0.2597  1.5208 -1.3360
 5362SOL     OW27718   0.397   4.679   2.347 -0.4913  0.0795  0.1395
 5362SOL    HW127719   0.437   4.621   2.411 -0.1848 -0.3430 -0.4466
 5362SOL    HW227720   0.308   4.683   2.384 -1.0012 -2.6785 -0.7917
 5363SOL     OW27721   1.902   0.056   9.407 -0.2687  0.1217  0.1913
 5363SOL    HW127722   1.829   0.006   9.443 -0.8165 -1.5772 -3.3267
 5363SOL    HW227723   1.927   4.732   9.339 -0.8366 -0.4000  0.4650
 5364SOL     OW27724   3.317   1.767   5.983 -0.0461 -0.5094  0.3706
 5364SOL    HW127725   3.346   1.717   6.059 -1.9181  1.4433  2.3671
 5364SOL    HW227726   3.305   1.853   6.022  0.7509 -0.3440  0.2654
 5365SOL     OW27727   4.662   1.725  13.400 -0.2127  0.4566 -0.2669
 5365SOL    HW127728   4.645   1.632  13.384  0.4934  0.5934 -1.7906
 5365SOL    HW227729   0.006   1.726  13.448 -2.2349 -1.5974  3.2263
 5366SOL     OW27730   4.198   2.190   3.915 -0.2144 -0.3720  0.5867
 5366SOL    HW127731   4.186   2.253   3.986 -0.1259  0.9015 -0.5303
 5366SOL    HW227732   4.135   2.126   3.946 -0.2281 -0.8112 -0.3324
 5367SOL     OW27733   2.908   0.310  13.219  0.5747  0.2079  0.0808
 5367SOL    HW127734   2.879   0.251  13.288  1.3711 -0.8973 -0.5264
 5367SOL    HW227735   2.871   0.394  13.245 -0.5749 -0.2344 -0.1086
 5368SOL     OW27736   2.961   4.587   8.329 -0.2420  0.1505 -0.0030
 5368SOL    HW127737   3.016   4.646   8.277 -1.0505  1.0093  0.1225
 5368SOL    HW227738   2.926   4.529   8.261 -2.6136  1.9723 -0.3023
 5369SOL     OW27739   0.275   3.017   3.992 -0.9779 -0.4133 -0.3082
 5369SOL    HW127740   0.343   3.051   4.051 -0.4803 -0.3081 -0.9412
 5369SOL    HW227741   0.324   2.964   3.929  0.6286 -0.4465  0.9443
 5370SOL     OW27742   0.950   4.701  10.284 -0.3115 -0.5294  0.1035
 5370SOL    HW127743   1.009   4.636  10.246  0.8669  1.2783 -1.1627
 5370SOL    HW227744   1.012   0.016  10.333  0.1932 -0.7562 -0.2961
 5371SOL     OW27745   4.169   2.771   6.313 -0.3976  0.1991  0.3023
 5371SOL    HW127746   4.118   2.691   6.328  1.8896 -1.0769  1.2321
 5371SOL    HW227747   4.134   2.827   6.383 -2.8747 -1.6128  0.5207
 5372SOL     OW27748   2.023   0.461   2.432  0.2781  0.2544 -0.2915
 5372SOL    HW127749   2.117   0.473   2.442 -0.1869  0.2619  3.8601
 5372SOL    HW227750   2.000   0.500   2.348 -1.8763 -1.2111 -0.4119
 5373SOL     OW27751   1.038   3.460  16.503 -0.1962 -0.1277 -0.1544
 5373SOL    HW127752   1.057   3.529  16.566  0.5673  0.4334 -0.9979
 5373SOL    HW227753   1.119   3.463  16.452  0.2109  0.1789  0.5075
 5374SOL     OW27754   4.436   2.702   9.277 -0.6246  0.3570  0.6077
 5374SOL    HW127755   4.341   2.694   9.269 -0.6118  0.6673  0.1099
 5374SOL    HW227756   4.443   2.780   9.333 -0.3491  0.1694  0.8311
 5375SOL     OW27757   1.231   1.829   0.356  0.3602 -0.4882  0.0983
 5375SOL    HW127758   1.262   1.871   0.436  0.4497  0.0609 -0.2268
 5375SOL    HW227759   1.150   1.783   0.381  0.5902 -0.8145  0.2415
 5376SOL     OW27760   2.827   3.578   5.603  0.2866 -0.3172 -0.4798
 5376SOL    HW127761   2.775   3.612   5.675  0.5863  3.1567 -1.9080
 5376SOL    HW227762   2.821   3.482   5.607  2.7096 -0.4785 -0.4127
 5377SOL     OW27763   3.317   0.544  17.149  0.3093  0.0847  0.3939
 5377SOL    HW127764   3.280   0.467  17.193 -0.2090  0.0213 -0.1434
 5377SOL    HW227765   3.314   0.520  17.056 -1.4762  0.8254  0.2508
 5378SOL     OW27766   4.369   1.586   2.102 -0.7165  0.4201 -0.3502
 5378SOL    HW127767   4.395   1.567   2.012  1.6612 -2.6995  1.0163
 5378SOL    HW227768   4.274   1.570   2.098 -0.7462 -0.0621  1.9113
 5379SOL     OW27769   3.038   1.748   2.115  0.5274  0.0402 -0.1375
 5379SOL    HW127770   3.097   1.685   2.074 -0.7267 -1.7873  0.8801
 5379SOL    HW227771   3.096   1.786   2.181 -0.0060  0.5033  0.0669
 5380SOL     OW27772   4.227   2.354   5.138  0.2867  0.1052 -0.1012
 5380SOL    HW127773   4.239   2.319   5.226 -0.9141  0.7784  0.3348
 5380SOL    HW227774   4.296   2.420   5.144 -0.2296  0.5913  0.5228
 5381SOL     OW27775   1.484   3.480   7.244  0.1517  0.8457  0.3566
 5381SOL    HW127776   1.410   3.489   7.185 -2.0469  1.1137  3.1851
 5381SOL    HW227777   1.560   3.514   7.195  0.6805  0.1180  0.6730
 5382SOL     OW27778   1.494   1.941   4.078  0.0157  0.2496 -0.1574
 5382SOL    HW127779   1.457   1.856   4.056  0.5947  0.0523 -0.3676
 5382SOL    HW227780   1.561   1.928   4.144  1.0754  2.9697 -0.6807
 5383SOL     OW27781   4.267   1.893  14.316  0.5389 -0.1645  0.1262
 5383SOL    HW127782   4.329   1.823  14.295  1.4446  0.2984  1.2811
 5383SOL    HW227783   4.261   1.892  14.411 -0.4114  2.6885  0.1007
 5384SOL     OW27784   2.219   3.874   2.040 -0.0290  0.4787  0.7076
 5384SOL    HW127785   2.283   3.807   2.067 -0.7250  0.9365  3.5738
 5384SOL    HW227786   2.135   3.830   2.028 -0.7725  2.7479 -2.1719
 5385SOL     OW27787   2.137   3.711  15.660  0.9946 -0.0883  0.2924
 5385SOL    HW127788   2.193   3.659  15.717  2.2980 -1.0595 -1.9129
 5385SOL    HW227789   2.130   3.663  15.578  1.0225 -0.2671  0.3941
 5386SOL     OW27790   1.863   3.577   5.307 -0.1344  0.2401  0.1618
 5386SOL    HW127791   1.805   3.608   5.377 -1.9643  0.3168 -1.3803
 5386SOL    HW227792   1.882   3.663   5.269  0.6665 -0.6596 -1.4476
 5387SOL     OW27793   3.245   3.822   4.038  0.5598  0.0143 -0.9490
 5387SOL    HW127794   3.232   3.894   4.100 -0.6565 -0.7576 -0.3138
 5387SOL    HW227795   3.214   3.741   4.078  0.0247  0.7907  0.2371
 5388SOL     OW27796   1.416   1.190   1.917  0.0229 -0.3537  0.1597
 5388SOL    HW127797   1.366   1.116   1.885 -2.9851  2.6969 -2.1944
 5388SOL    HW227798   1.417   1.246   1.839 -0.5342 -1.1563 -0.4134
 5389SOL     OW27799   1.765   4.319   6.444 -0.3738  0.0230  0.0944
 5389SOL    HW127800   1.844   4.284   6.404  1.6562  1.9773  2.3765
 5389SOL    HW227801   1.772   4.412   6.424  1.7909 -0.0103  0.7288
 5390SOL     OW27802   0.439   0.996   6.226 -0.0051  0.1947  0.6159
 5390SOL    HW127803   0.363   0.940   6.215  0.1476 -0.2744  2.0118
 5390SOL    HW227804   0.418   1.027   6.314 -2.3737  2.6646 -0.8190
 5391SOL     OW27805   3.406   2.976   1.798  0.1999  0.1378 -0.1898
 5391SOL    HW127806   3.460   2.919   1.743  0.8854  1.1338 -0.5282
 5391SOL    HW227807   3.384   2.910   1.864 -1.7879  0.7737 -0.2092
 5392SOL     OW27808   4.000   4.735   5.968  0.5447 -0.0741  0.1447
 5392SOL    HW127809   4.071   0.060   5.962  1.1224 -0.7146  0.2623
 5392SOL    HW227810   3.921   0.049   5.955 -0.0699 -1.3471 -1.3452
 5393SOL     OW27811   1.779   1.770  16.749  0.0290  0.4123 -0.4052
 5393SOL    HW127812   1.828   1.773  16.667 -0.0301  3.2556 -0.3211
 5393SOL    HW227813   1.844   1.802  16.810  0.9545  0.1599 -1.2606
 5394SOL     OW27814   2.987   1.998  15.602  0.2105  0.4015 -0.1679
 5394SOL    HW127815   2.970   2.054  15.677 -0.6476 -1.2319  0.8470
 5394SOL    HW227816   2.945   2.050  15.533  0.8583 -0.1511 -0.9889
 5395SOL     OW27817   0.782   4.723   7.105 -0.0163  0.0272 -0.2218
 5395SOL    HW127818   0.696   4.720   7.063  0.5214  0.9027 -1.3972
 5395SOL    HW227819   0.831   0.031   7.037 -0.7490 -1.9031 -2.0817
 5396SOL     OW27820   4.164   1.293   6.013  0.4982  0.0819  0.1341
 5396SOL    HW127821   4.249   1.305   6.054  0.3049 -0.5078  0.7056
 5396SOL    HW227822   4.115   1.274   6.093 -1.2980  0.7237 -0.8018
 5397SOL     OW27823   2.837   4.504   7.270 -0.2228  0.0266 -0.0039
 5397SOL    HW127824   2.818   4.530   7.360  3.2638 -1.0978  1.0573
 5397SOL    HW227825   2.782   4.565   7.221 -0.2830 -1.5764 -1.9404
 5398SOL     OW27826   3.946   0.778  11.289  0.4631 -0.8356  0.2966
 5398SOL    HW127827   4.033   0.759  11.326  0.3697  1.2633  1.6212
 5398SOL    HW227828   3.884   0.735  11.348 -1.4023  0.3295 -0.8034
 5399SOL     OW27829   3.186   1.764  15.526 -0.4198 -0.8178  0.3946
 5399SOL    HW127830   3.156   1.847  15.563 -0.1555 -1.4727  2.0646
 5399SOL    HW227831   3.216   1.796  15.441  0.2605  0.4622  1.1184
 5400SOL     OW27832   0.837   3.469  14.472  0.1517  0.1842 -0.2773
 5400SOL    HW127833   0.769   3.524  14.510 -1.2584 -1.6315 -0.1655
 5400SOL    HW227834   0.777   3.411  14.425  1.0294 -0.0241 -1.1421
 5401SOL     OW27835   2.423   0.301   7.821  0.7123 -0.5642 -0.0123
 5401SOL    HW127836   2.395   0.294   7.913 -0.7848  1.9625 -0.2728
 5401SOL    HW227837   2.345   0.312   7.766  2.3415 -2.1601 -2.6084
 5402SOL     OW27838   2.362   3.534  12.836 -0.1816  0.0172 -0.8618
 5402SOL    HW127839   2.378   3.572  12.923 -0.7817  2.0074 -1.6311
 5402SOL    HW227840   2.289   3.478  12.862 -0.7085  0.7870 -0.6803
 5403SOL     OW27841   1.742   1.428   3.027 -0.2655  0.0466 -0.1402
 5403SOL    HW127842   1.775   1.508   2.987  0.4233 -0.0762  0.1865
 5403SOL    HW227843   1.696   1.452   3.107  1.3085  0.6482  0.5844
 5404SOL     OW27844   4.573   0.834   3.859 -0.4227 -0.2433 -0.2007
 5404SOL    HW127845   4.480   0.824   3.838 -0.1609  1.4926 -2.2408
 5404SOL    HW227846   4.615   0.839   3.773  0.4775  2.4484  0.4099
 5405SOL     OW27847   2.377   4.271   7.620 -0.0804  0.3838 -0.1926
 5405SOL    HW127848   2.472   4.282   7.618 -0.3679  2.5095 -1.5172
 5405SOL    HW227849   2.351   4.328   7.692  1.4700 -1.5857  1.9079
 5406SOL     OW27850   0.525   0.327   7.512  0.0161  0.0495 -0.3270
 5406SOL    HW127851   0.473   0.248   7.500 -0.9050  1.0142 -2.5370
 5406SOL    HW227852   0.463   0.390   7.477 -2.4992 -1.8930  0.6438
 5407SOL     OW27853   2.456   2.535  13.646  0.2151 -1.1107  0.0675
 5407SOL    HW127854   2.469   2.463  13.708 -0.1584 -1.8341 -0.6912
 5407SOL    HW227855   2.517   2.599  13.683  0.2572 -0.9735 -0.2393
 5408SOL     OW27856   0.382   3.026  10.098 -0.8229 -0.0854 -0.5997
 5408SOL    HW127857   0.405   3.062  10.012 -0.6939  0.7392 -0.2201
 5408SOL    HW227858   0.469   2.994  10.120 -1.2230 -1.0663 -0.4299
 5409SOL     OW27859   0.755   0.457   6.045 -0.0169 -0.3712 -0.3374
 5409SOL    HW127860   0.797   0.520   5.986 -1.3204 -0.3588 -1.2462
 5409SOL    HW227861   0.733   0.515   6.118  1.8007 -1.9530  1.4495
 5410SOL     OW27862   4.076   4.492   4.718  0.5996  0.0531 -0.3405
 5410SOL    HW127863   4.131   4.469   4.644 -1.4435 -0.2772 -1.7666
 5410SOL    HW227864   4.127   4.450   4.788  1.9266 -0.3064 -1.5319
 5411SOL     OW27865   1.074   3.192  17.687  0.4315 -0.5082  0.1179
 5411SOL    HW127866   1.006   3.257  17.704 -0.8106 -1.8192  0.1186
 5411SOL    HW227867   1.032   3.114  17.722 -1.3734  1.1347  1.6665
 5412SOL     OW27868   3.877   1.630   2.603 -0.4273 -0.1525  0.3443
 5412SOL    HW127869   3.892   1.560   2.667  1.4674  0.2310  0.3283
 5412SOL    HW227870   3.841   1.696   2.662 -0.6356 -0.9742  1.1288
 5413SOL     OW27871   0.392   1.820   0.932  0.3613  0.4140  0.5542
 5413SOL    HW127872   0.322   1.771   0.975  1.4007 -0.0749  1.6839
 5413SOL    HW227873   0.446   1.745   0.908  0.4611 -0.5634  3.8383
 5414SOL     OW27874   0.903   4.121   1.571 -0.2722 -0.1731  0.2361
 5414SOL    HW127875   0.816   4.098   1.605  0.0486 -0.5596  0.7987
 5414SOL    HW227876   0.955   4.092   1.646 -1.7139 -2.1517  0.4512
 5415SOL     OW27877   1.151   0.563   9.521 -0.4568  0.0906 -0.0433
 5415SOL    HW127878   1.214   0.602   9.460  1.6911 -1.7016  1.0450
 5415SOL    HW227879   1.078   0.623   9.505 -1.0767 -1.1738 -1.9780
 5416SOL     OW27880   0.068   4.699  11.000  0.5010  0.0992 -0.0628
 5416SOL    HW127881   0.024   0.045  11.011 -0.9273 -0.8426  1.4878
 5416SOL    HW227882   0.134   4.726  10.936  2.1600  2.3029  2.5973
 5417SOL     OW27883   2.888   0.943   1.187  0.0334  0.6086  0.4701
 5417SOL    HW127884   2.876   0.985   1.272  2.9863 -1.5078  1.9317
 5417SOL    HW227885   2.964   0.985   1.145  0.3435 -0.1790  0.2455
 5418SOL     OW27886   4.298   2.279   5.917  0.1150 -0.4727 -0.2376
 5418SOL    HW127887   4.305   2.353   5.977  0.8849  0.0591 -0.9792
 5418SOL    HW227888   4.339   2.212   5.971 -3.6905 -2.0788  0.6772
 5419SOL     OW27889   4.163   2.458   6.685  1.0948 -0.1758  0.0291
 5419SOL    HW127890   4.096   2.431   6.622 -0.2743  2.1294  0.4990
 5419SOL    HW227891   4.174   2.550   6.660  0.4126  0.3077  1.5119
 5420SOL     OW27892   2.717   1.976   6.791  0.4856 -0.0346 -0.3735
 5420SOL    HW127893   2.633   1.937   6.765  0.0704  0.3253  0.4265
 5420SOL    HW227894   2.751   2.001   6.706 -0.6638 -0.2075 -0.8850
 5421SOL     OW27895   3.708   4.567   6.853 -0.2662 -0.1843  0.2591
 5421SOL    HW127896   3.701   4.641   6.914  2.1972 -0.4449  0.8779
 5421SOL    HW227897   3.638   4.594   6.794 -0.4707  1.3219  1.1830
 5422SOL     OW27898   3.145   4.722   2.413  0.0510 -0.8949  0.3085
 5422SOL    HW127899   3.150   4.627   2.418 -0.3794 -0.9495 -0.3619
 5422SOL    HW227900   3.240   4.734   2.421  0.0028 -1.2008  1.3439
 5423SOL     OW27901   2.158   2.551   6.249 -0.1955 -0.5727  0.3404
 5423SOL    HW127902   2.152   2.645   6.235 -1.6554 -0.9075 -1.3046
 5423SOL    HW227903   2.094   2.542   6.320 -1.3460  0.4934 -0.5479
 5424SOL     OW27904   3.028   0.684   9.148 -0.5803  0.0554 -0.4417
 5424SOL    HW127905   3.014   0.767   9.192 -2.1545  0.9324 -2.5712
 5424SOL    HW227906   2.981   0.697   9.066 -0.9875  2.6639  0.2315
 5425SOL     OW27907   2.309   3.336   4.748 -0.3546  0.1767  0.0013
 5425SOL    HW127908   2.346   3.306   4.666  3.0083  1.3782  1.0835
 5425SOL    HW227909   2.357   3.415   4.771 -0.2445  0.2175 -0.3784
 5426SOL     OW27910   1.579   2.152   2.873  0.0258  0.5611 -0.2776
 5426SOL    HW127911   1.616   2.104   2.948  0.3908  1.4524  0.1085
 5426SOL    HW227912   1.562   2.081   2.811  1.7620  1.0218 -1.2530
 5427SOL     OW27913   0.270   1.702   1.280  0.2502  0.2706 -0.2512
 5427SOL    HW127914   0.309   1.789   1.289  2.7984 -1.0428  1.3957
 5427SOL    HW227915   0.289   1.679   1.372  0.9389  1.1878 -0.1672
 5428SOL     OW27916   2.383   0.387   6.043  0.2260 -0.5855  0.3145
 5428SOL    HW127917   2.292   0.378   6.015  0.7078 -0.4138 -1.2965
 5428SOL    HW227918   2.389   0.479   6.066  0.0514 -0.6236  0.5158
 5429SOL     OW27919   3.447   2.013   6.366  0.2096 -0.4327 -0.4913
 5429SOL    HW127920   3.376   1.964   6.324 -1.3477 -1.1282  2.9780
 5429SOL    HW227921   3.492   1.942   6.411  1.1888  1.1186  0.9551
 5430SOL     OW27922   3.667   2.446  13.465 -0.2617 -0.5747  0.1689
 5430SOL    HW127923   3.648   2.387  13.538 -0.5820  0.3398  0.8148
 5430SOL    HW227924   3.628   2.525  13.502 -0.3396 -0.3747 -0.3451
 5431SOL     OW27925   4.537   4.706  16.459 -0.0048  0.6902 -0.5990
 5431SOL    HW127926   4.484   0.024  16.402 -0.2034  1.6510  0.5433
 5431SOL    HW227927   4.478   4.638  16.490  1.4923 -0.0968  0.5504
 5432SOL     OW27928   0.725   2.062   1.533  0.1673 -0.3259 -0.0704
 5432SOL    HW127929   0.664   2.036   1.603 -0.6960 -1.4761 -1.2573
 5432SOL    HW227930   0.791   1.993   1.538 -1.5333 -1.9204  0.5014
 5433SOL     OW27931   0.210   4.112   1.352  0.2685 -0.0042 -0.1332
 5433SOL    HW127932   0.266   4.124   1.428  0.6041 -1.9046 -0.0853
 5433SOL    HW227933   0.219   4.018   1.337  1.2561  0.2595 -1.1510
 5434SOL     OW27934   3.574   2.290   3.645  0.0742  0.0285  0.1952
 5434SOL    HW127935   3.663   2.284   3.681  0.5836  0.5857 -0.9358
 5434SOL    HW227936   3.539   2.373   3.678 -0.3789  0.1981 -0.7069
 5435SOL     OW27937   2.294   0.693   2.089  0.0455 -0.0021  0.1769
 5435SOL    HW127938   2.266   0.744   2.013  1.2451  1.2895  0.6106
 5435SOL    HW227939   2.208   0.693   2.131 -0.1890  1.1716 -0.2887
 5436SOL     OW27940   3.370   0.798   2.859  0.0762 -0.7944  0.1159
 5436SOL    HW127941   3.370   0.876   2.914 -1.1510 -0.1780 -0.7461
 5436SOL    HW227942   3.282   0.769   2.883 -0.4031 -0.9528 -1.8373
 5437SOL     OW27943   3.122   3.394   7.735  0.4866 -0.1423  0.5123
 5437SOL    HW127944   3.195   3.443   7.774 -0.0576  0.9093  0.1779
 5437SOL    HW227945   3.137   3.408   7.642 -2.3264 -0.4222  0.0158
 5438SOL     OW27946   4.149   3.393  16.827 -0.8569  0.2633  0.5454
 5438SOL    HW127947   4.126   3.346  16.747  0.4566  0.1814  0.2038
 5438SOL    HW227948   4.191   3.318  16.868 -0.1008  0.8289  0.8175
 5439SOL     OW27949   3.584   0.483   4.890 -0.4838 -0.1017 -0.2132
 5439SOL    HW127950   3.520   0.423   4.928 -0.3098  1.0203  1.8552
 5439SOL    HW227951   3.667   0.451   4.925 -1.0603 -1.9978 -0.5909
 5440SOL     OW27952   1.077   2.825   0.280  0.2731  0.2510  0.2058
 5440SOL    HW127953   1.020   2.760   0.238 -0.1163  1.1695 -0.6895
 5440SOL    HW227954   1.166   2.790   0.274 -0.7256 -1.9705 -1.4771
 5441SOL     OW27955   4.737   1.783   0.720 -0.2610 -0.5745  0.3158
 5441SOL    HW127956   0.052   1.790   0.640  0.6388  0.1290  0.9810
 5441SOL    HW227957   0.021   1.868   0.756  2.6134 -0.4546 -1.7747
 5442SOL     OW27958   1.431   0.851   0.583  0.1694 -0.6272 -0.6712
 5442SOL    HW127959   1.504   0.880   0.528  0.5459  0.3087  0.3329
 5442SOL    HW227960   1.438   0.756   0.570  0.3389 -0.6980 -0.0591
 5443SOL     OW27961   0.285   3.480  16.735  0.4425  0.3954  0.1663
 5443SOL    HW127962   0.221   3.432  16.787  0.3514  0.5751  0.2219
 5443SOL    HW227963   0.221   3.510  16.671 -0.3495  1.1723  1.3225
 5444SOL     OW27964   2.878   2.400  12.336 -0.1830 -0.3765 -0.2269
 5444SOL    HW127965   2.906   2.312  12.364 -1.1449 -1.0882 -1.4938
 5444SOL    HW227966   2.962   2.441  12.317  0.2799 -1.5803 -0.7763
 5445SOL     OW27967   2.909   4.360   8.796 -0.1483  0.3550  0.4651
 5445SOL    HW127968   2.818   4.360   8.765  0.0442 -0.6959 -0.0973
 5445SOL    HW227969   2.953   4.418   8.734  0.6616 -0.3805  0.3603
 5446SOL     OW27970   2.515   1.665   1.809  0.0854 -0.0439 -0.3147
 5446SOL    HW127971   2.423   1.643   1.822 -0.4823  2.3254 -0.3039
 5446SOL    HW227972   2.527   1.741   1.866  0.5134 -0.1460 -0.2743
 5447SOL     OW27973   4.309   1.027  17.707  0.0884 -0.5066 -0.1208
 5447SOL    HW127974   4.238   1.046   0.017  1.6131 -0.5208  1.6442
 5447SOL    HW227975   4.274   0.979  17.632 -3.1837  2.3320 -0.4086
 5448SOL     OW27976   2.862   3.526   7.576 -0.0535  0.5612 -0.5826
 5448SOL    HW127977   2.829   3.451   7.527  0.1260  0.9175 -1.2437
 5448SOL    HW227978   2.946   3.526   7.529 -0.1833  3.3687 -0.8441
 5449SOL     OW27979   1.303   1.145   9.521 -0.6032  0.0207 -0.1846
 5449SOL    HW127980   1.294   1.216   9.458 -0.3107  0.2805  0.0667
 5449SOL    HW227981   1.371   1.182   9.577 -0.3326 -0.6583 -0.0541
 5450SOL     OW27982   2.113   2.258  10.871 -0.0453  0.0922 -0.4863
 5450SOL    HW127983   2.084   2.170  10.846  1.2564 -0.7510  0.9627
 5450SOL    HW227984   2.054   2.284  10.941 -0.0625 -0.2749 -0.3608
 5451SOL     OW27985   1.852   1.491   4.249  0.0670  0.1790  0.1053
 5451SOL    HW127986   1.857   1.510   4.343 -0.5104 -0.1879  0.2088
 5451SOL    HW227987   1.869   1.397   4.248  0.5283  0.2574  0.6192
 5452SOL     OW27988   3.853   0.453   6.351 -0.2701  0.6734 -0.0501
 5452SOL    HW127989   3.789   0.392   6.389  0.1138  0.1822 -0.2033
 5452SOL    HW227990   3.799   0.518   6.305  2.1250  1.6696 -1.4285
 5453SOL     OW27991   0.245   3.329   8.249 -0.6020  0.5588  0.1595
 5453SOL    HW127992   0.335   3.319   8.279 -0.9372  0.3943  1.1033
 5453SOL    HW227993   0.249   3.340   8.154 -1.5696 -0.3297  0.0204
 5454SOL     OW27994   4.053   0.001   8.002 -0.2249 -0.3178  0.2074
 5454SOL    HW127995   4.115   0.010   7.929  0.7126 -2.7441  0.7006
 5454SOL    HW227996   4.087   4.677   8.066 -1.7334 -0.5475  0.7759
 5455SOL     OW27997   2.138   4.377   6.268 -0.6327 -0.1807  0.1965
 5455SOL    HW127998   2.074   4.311   6.293 -2.4636  1.1954 -0.7921
 5455SOL    HW227999   2.217   4.331   6.238 -1.2868 -0.6694 -0.7966
 5456SOL     OW28000   0.667   0.492   0.543 -0.6194 -0.0295 -0.0128
 5456SOL    HW128001   0.701   0.525   0.626  0.9280  1.8347 -1.3936
 5456SOL    HW228002   0.572   0.501   0.545 -0.6799 -0.2377 -1.9613
 5457SOL     OW28003   2.377   0.862   8.052  0.1474 -0.6288 -0.0965
 5457SOL    HW128004   2.395   0.789   7.993 -0.2137 -1.4692  0.8326
 5457SOL    HW228005   2.397   0.825   8.138  0.9711  1.0494  0.4364
 5458SOL     OW28006   0.683   2.188   2.183 -0.1168 -0.1863 -0.1628
 5458SOL    HW128007   0.675   2.100   2.222 -0.2611 -0.5846 -1.0860
 5458SOL    HW228008   0.597   2.188   2.142 -1.1803  0.0389  2.0320
 5459SOL     OW28009   1.403   0.327   3.404  0.7753 -0.0655  0.1670
 5459SOL    HW128010   1.362   0.342   3.489 -0.3206  0.4643 -0.4524
 5459SOL    HW228011   1.378   0.406   3.355 -0.5466 -0.0679  0.8321
 5460SOL     OW28012   1.243   2.994   5.011  0.0877 -0.1247 -0.1065
 5460SOL    HW128013   1.286   2.914   4.980  0.3241  0.2929 -0.8694
 5460SOL    HW228014   1.222   2.968   5.100 -1.9630 -0.4073 -0.6861
 5461SOL     OW28015   4.662   3.136   1.090  0.0898  0.3664 -0.0781
 5461SOL    HW128016   4.701   3.068   1.145 -1.0542 -0.9673 -0.9195
 5461SOL    HW228017   4.710   3.208   1.131  2.1854  0.3078 -2.3804
 5462SOL     OW28018   4.638   0.226   7.625 -0.5780  0.0254  0.2792
 5462SOL    HW128019   4.683   0.159   7.676 -0.0008  1.0026  1.0478
 5462SOL    HW228020   4.637   0.191   7.536 -0.9122 -0.5817  0.5224
 5463SOL     OW28021   0.898   0.724   2.740  0.6855 -0.0098 -0.1778
 5463SOL    HW128022   0.839   0.682   2.678  0.3742 -0.9791  0.7808
 5463SOL    HW228023   0.982   0.708   2.697  0.7934 -0.7278  0.2862
 5464SOL     OW28024   4.028   0.274  10.154  0.1243 -0.0901 -0.0963
 5464SOL    HW128025   3.969   0.292  10.227  0.5931 -1.7285  0.6841
 5464SOL    HW228026   4.103   0.290  10.212  0.4425  3.0762 -1.4080
 5465SOL     OW28027   2.825   3.892  15.225 -0.5352  0.2362  0.4963
 5465SOL    HW128028   2.864   3.951  15.160 -0.8060  0.2672  0.3579
 5465SOL    HW228029   2.734   3.921  15.215 -0.6480  0.3224  1.8588
 5466SOL     OW28030   4.145   3.995   0.877  0.1157  0.0989  0.1877
 5466SOL    HW128031   4.097   3.980   0.959 -0.6953 -2.4706 -0.7569
 5466SOL    HW228032   4.190   4.074   0.906  1.4013 -0.3883 -0.5127
 5467SOL     OW28033   0.479   1.540   2.566 -0.1224 -0.3806 -0.1120
 5467SOL    HW128034   0.438   1.565   2.648 -2.1886  3.3668 -2.2734
 5467SOL    HW228035   0.551   1.602   2.562  0.2960 -0.7851  1.3565
 5468SOL     OW28036   1.323   3.507  16.614  0.3035  0.2132 -0.1460
 5468SOL    HW128037   1.325   3.573  16.544 -3.3837  1.8049  1.2236
 5468SOL    HW228038   1.308   3.562  16.690 -2.4494  2.9016 -2.6087
 5469SOL     OW28039   2.929   1.135   8.613 -0.1996  0.0228 -0.0613
 5469SOL    HW128040   2.858   1.197   8.602 -0.6946 -0.3443  1.1251
 5469SOL    HW228041   2.898   1.087   8.536  3.7128 -3.5449  0.5779
 5470SOL     OW28042   1.113   0.947  11.256 -0.4023 -0.1163 -0.1097
 5470SOL    HW128043   1.070   0.901  11.183  2.2017 -2.8445  0.0497
 5470SOL    HW228044   1.196   0.900  11.257 -0.3698 -0.0929 -1.9875
 5471SOL     OW28045   2.373   0.633   8.743  0.0629 -0.4451  0.2346
 5471SOL    HW128046   2.415   0.558   8.701 -1.7137 -0.3811 -1.6375
 5471SOL    HW228047   2.281   0.612   8.725  0.6401 -2.0066 -0.9549
 5472SOL     OW28048   1.052   2.361   9.014 -0.6149 -0.2218  0.3976
 5472SOL    HW128049   0.967   2.375   9.056 -1.2290 -0.6642 -0.7187
 5472SOL    HW228050   1.028   2.291   8.953  1.1257  1.0057 -1.6830
 5473SOL     OW28051   0.429   0.903   8.137  0.6999  0.2012 -0.2711
 5473SOL    HW128052   0.450   0.904   8.231 -3.5184 -0.9166  0.6928
 5473SOL    HW228053   0.347   0.953   8.141  1.5315  1.5122  0.5012
 5474SOL     OW28054   0.606   2.241  12.855  0.4693 -0.3995 -0.3566
 5474SOL    HW128055   0.661   2.183  12.907  1.2190  0.0506 -0.6473
 5474SOL    HW228056   0.520   2.209  12.880  0.4310 -0.7034 -0.8818
 5475SOL     OW28057   1.746   1.449   8.818 -0.4282 -0.3529  0.2361
 5475SOL    HW128058   1.658   1.460   8.854  0.1783  0.0551  1.6003
 5475SOL    HW228059   1.772   1.360   8.840 -1.5634 -1.1681 -1.6836
 5476SOL     OW28060   1.013   1.527  16.425  0.4715 -0.5963  0.1107
 5476SOL    HW128061   1.013   1.619  16.448 -1.8230 -0.3433 -0.8639
 5476SOL    HW228062   0.917   1.519  16.430  0.4068  0.3341  0.3261
 5477SOL     OW28063   2.406   0.759  17.631 -0.1721  0.7084  0.5845
 5477SOL    HW128064   2.495   0.792  17.647  0.0078  0.7533 -0.5538
 5477SOL    HW228065   2.413   0.691  17.698 -1.5417 -0.9039 -0.9175
 5478SOL     OW28066   0.992   2.276  10.599  0.4545 -0.2109 -0.0809
 5478SOL    HW128067   1.068   2.330  10.580 -0.8728  1.2409 -1.2030
 5478SOL    HW228068   0.975   2.247  10.509  1.9744  0.9913 -0.7587
 5479SOL     OW28069   1.174   1.287   2.582 -0.2699  0.0645 -0.4611
 5479SOL    HW128070   1.131   1.256   2.661  1.7055 -0.3611  0.4413
 5479SOL    HW228071   1.262   1.250   2.594 -0.8881 -1.5744 -0.9974
 5480SOL     OW28072   2.055   0.990  17.607 -0.0347  0.3550 -0.1584
 5480SOL    HW128073   2.071   1.054  17.676  0.2546  1.9066 -1.6634
 5480SOL    HW228074   2.023   1.053  17.543 -1.9577 -1.4110 -0.9599
 5481SOL     OW28075   3.691   0.765  16.846 -0.0050 -0.5224 -0.1835
 5481SOL    HW128076   3.773   0.769  16.796  0.0850 -1.6155 -0.1365
 5481SOL    HW228077   3.717   0.735  16.932  1.8301  0.8096 -0.2864
 5482SOL     OW28078   1.502   4.079  16.349 -0.0955 -0.0762 -0.3828
 5482SOL    HW128079   1.572   4.017  16.371 -1.2552 -0.8419  1.1835
 5482SOL    HW228080   1.444   4.023  16.299 -1.4419  1.1291 -0.1629
 5483SOL     OW28081   3.145   3.013   1.477  0.0808 -0.2175 -0.7128
 5483SOL    HW128082   3.119   3.098   1.441 -1.3396 -0.1857  0.3722
 5483SOL    HW228083   3.203   2.979   1.409  0.3480  0.7644 -0.9817
 5484SOL     OW28084   3.241   1.729   1.378 -0.3306 -0.1110 -0.0606
 5484SOL    HW128085   3.314   1.674   1.348 -1.1232 -1.4755  0.4931
 5484SOL    HW228086   3.177   1.665   1.411 -1.4827  1.6369  1.0758
 5485SOL     OW28087   2.109   2.473   7.817 -0.4356  0.0250 -0.5631
 5485SOL    HW128088   2.022   2.511   7.804 -0.3825  0.3810  0.0918
 5485SOL    HW228089   2.078   2.386   7.791  1.5097 -1.0926  0.8291
 5486SOL     OW28090   4.704   3.675   7.991 -0.1246 -0.4337  0.4807
 5486SOL    HW128091   4.654   3.697   8.070  0.9307 -0.1689  1.0787
 5486SOL    HW228092   0.053   3.710   8.014 -0.2629 -0.7707  1.5159
 5487SOL     OW28093   2.041   0.625   1.390 -0.7062 -0.3170 -0.1552
 5487SOL    HW128094   2.127   0.599   1.355 -0.6864  0.8223 -0.9348
 5487SOL    HW228095   2.001   0.679   1.323  1.6859  0.5723 -0.8906
 5488SOL     OW28096   0.988   0.098   8.427 -0.2558 -0.2032  0.0917
 5488SOL    HW128097   1.069   0.149   8.418 -1.0356  0.7666 -1.3007
 5488SOL    HW228098   0.991   0.060   8.515 -0.7637  0.9463  0.6051
 5489SOL     OW28099   4.651   1.096   9.417 -0.2677  0.2643  0.1879
 5489SOL    HW128100   4.644   1.113   9.511  1.0937 -0.0111  0.3408
 5489SOL    HW228101   4.562   1.061   9.419  0.2090 -1.0684 -2.2652
 5490SOL     OW28102   3.210   2.862   7.482  0.1628  0.3981 -0.1176
 5490SOL    HW128103   3.167   2.777   7.495 -0.2603  0.5498 -0.5479
 5490SOL    HW228104   3.146   2.932   7.486  1.5655  1.6642 -0.0307
 5491SOL     OW28105   3.465   1.870   5.211 -0.2607 -0.1994 -0.4643
 5491SOL    HW128106   3.529   1.848   5.277  0.3712  2.6858 -0.1080
 5491SOL    HW228107   3.392   1.817   5.243  1.4733 -1.2629  1.6857
 5492SOL     OW28108   3.831   0.247  14.947  0.4990 -0.2662  0.3283
 5492SOL    HW128109   3.763   0.222  15.010  1.3152 -4.8811 -0.5797
 5492SOL    HW228110   3.773   0.233  14.872  0.0928  2.1947  0.2003
 5493SOL     OW28111   2.807   1.915   5.855  0.2671 -0.3942 -0.0669
 5493SOL    HW128112   2.816   1.926   5.760  1.3518 -2.4897 -0.2105
 5493SOL    HW228113   2.828   1.822   5.861 -0.8748 -0.6686 -0.4395
 5494SOL     OW28114   3.042   1.248   2.401 -0.3715  0.1967 -0.1617
 5494SOL    HW128115   3.087   1.323   2.362  0.2966 -1.1045 -1.8963
 5494SOL    HW228116   3.060   1.176   2.340  1.1298  2.6965 -2.6166
 5495SOL     OW28117   1.020   3.851   1.002  0.1669 -0.3508 -0.5915
 5495SOL    HW128118   0.930   3.858   0.968  0.6566  0.6487 -1.6841
 5495SOL    HW228119   1.081   3.820   0.935  0.6123 -3.4676  1.2502
 5496SOL     OW28120   1.138   4.262   5.182  0.4426  0.1176  0.5605
 5496SOL    HW128121   1.058   4.261   5.235 -0.1792 -1.7700 -0.3955
 5496SOL    HW228122   1.172   4.174   5.198  3.9357  1.1387 -1.3477
 5497SOL     OW28123   2.231   3.675   2.998 -0.0637  0.1556 -0.2074
 5497SOL    HW128124   2.273   3.723   3.070 -0.8293  1.1934 -0.4522
 5497SOL    HW228125   2.142   3.681   3.032  0.9144  1.5612  2.1079
 5498SOL     OW28126   1.441   3.741   5.413  0.2764  0.1463  0.1358
 5498SOL    HW128127   1.392   3.713   5.490  2.2636 -2.3254  0.5125
 5498SOL    HW228128   1.422   3.678   5.343  1.8694 -1.4582  1.1332
 5499SOL     OW28129   2.301   2.625   6.507 -0.0558  0.2648  0.1970
 5499SOL    HW128130   2.338   2.692   6.565 -0.3464 -0.1850  0.9027
 5499SOL    HW228131   2.293   2.679   6.428 -2.3930 -1.1036 -0.5028
 5500SOL     OW28132   1.144   2.792   5.207  0.0037  0.1440 -0.1724
 5500SOL    HW128133   1.233   2.820   5.228 -0.0282 -2.1194  2.8689
 5500SOL    HW228134   1.096   2.830   5.281 -1.2323  0.1227 -0.9537
 5501SOL     OW28135   4.716   3.668   4.839 -0.5634 -0.7092  0.2379
 5501SOL    HW128136   4.717   3.595   4.776  1.5237 -1.2607  0.9358
 5501SOL    HW228137   4.718   3.617   4.920 -0.3697 -1.0746  0.0065
 5502SOL     OW28138   0.143   4.615   4.294 -0.1319 -0.1540 -0.1474
 5502SOL    HW128139   0.220   4.558   4.295 -0.5116 -0.6890 -0.8771
 5502SOL    HW228140   0.129   4.632   4.201  1.1439  0.8282 -0.1536
 5503SOL     OW28141   3.844   2.909   2.356 -0.1421 -0.3054 -0.0085
 5503SOL    HW128142   3.879   2.954   2.279  1.7932  1.0690  1.6737
 5503SOL    HW228143   3.782   2.970   2.396 -0.4447 -0.3833 -0.3564
 5504SOL     OW28144   2.935   2.443   7.659 -0.3223 -0.1506  0.1669
 5504SOL    HW128145   2.887   2.518   7.625  0.3689  0.2230  0.0122
 5504SOL    HW228146   2.992   2.426   7.583 -1.2063 -2.4443  0.0093
 5505SOL     OW28147   3.942   1.744   4.073  0.0243 -0.2410 -0.0120
 5505SOL    HW128148   3.996   1.739   3.994  0.4082  1.7101  0.1459
 5505SOL    HW228149   3.986   1.810   4.126 -1.3329  0.2323  0.5291
 5506SOL     OW28150   1.855   1.301   4.458  0.0269  1.1345  0.1866
 5506SOL    HW128151   1.772   1.253   4.449  0.0490  0.8675  1.3783
 5506SOL    HW228152   1.848   1.335   4.548  0.0159  1.5391  0.0307
 5507SOL     OW28153   4.644   2.044  10.762 -0.1620 -0.3046 -0.2730
 5507SOL    HW128154   4.599   2.087  10.835 -0.7932 -1.1401 -0.1738
 5507SOL    HW228155   4.631   2.101  10.687 -0.0613  0.4953  0.3183
 5508SOL     OW28156   2.497   1.065   2.406 -0.0500  0.1302 -0.0104
 5508SOL    HW128157   2.586   1.058   2.373  0.3996 -0.7837  1.4061
 5508SOL    HW228158   2.450   1.122   2.345 -1.4678  3.3408  4.0804
 5509SOL     OW28159   0.715   3.122   3.380 -0.7460  0.3241 -0.4353
 5509SOL    HW128160   0.709   3.046   3.440 -0.4200 -0.7862 -1.8137
 5509SOL    HW228161   0.795   3.164   3.411 -0.5901  1.3941 -2.3433
 5510SOL     OW28162   0.227   3.264  12.979  0.4591 -0.0045  0.1951
 5510SOL    HW128163   0.215   3.193  13.042  0.1232 -0.7917 -0.7593
 5510SOL    HW228164   0.201   3.343  13.028  2.9535  0.5836  0.5996
 5511SOL     OW28165   2.081   0.068  13.029  0.4855 -0.0426 -0.2051
 5511SOL    HW128166   2.030   0.066  12.948 -0.1215  0.9487  0.1497
 5511SOL    HW228167   2.012   0.085  13.093  0.3832 -1.6370  0.1085
 5512SOL     OW28168   4.279   2.762   2.130 -0.4696 -0.1662 -0.3286
 5512SOL    HW128169   4.233   2.832   2.178  0.1666  0.3265 -0.4247
 5512SOL    HW228170   4.335   2.821   2.080  0.2876 -1.1319 -0.6171
 5513SOL     OW28171   3.445   0.689   9.990 -0.2769  0.1249  0.1612
 5513SOL    HW128172   3.501   0.684   9.912 -1.5336  1.5350 -0.8222
 5513SOL    HW228173   3.402   0.774   9.982  0.5925  0.5034 -0.5971
 5514SOL     OW28174   1.170   1.960   2.798 -0.2894  0.0843  0.1648
 5514SOL    HW128175   1.104   1.933   2.863  0.3632 -1.4117  0.1972
 5514SOL    HW228176   1.202   1.871   2.788  0.2567  0.3361 -0.3481
 5515SOL     OW28177   4.094   3.908   7.953  0.0066 -0.1429  0.4535
 5515SOL    HW128178   4.182   3.944   7.941  0.3210 -1.6843 -1.8669
 5515SOL    HW228179   4.049   3.992   7.951  0.1398 -0.0989 -0.5852
 5516SOL     OW28180   2.818   0.549  10.631 -0.6843  0.0981 -0.6369
 5516SOL    HW128181   2.903   0.517  10.661 -1.0465 -0.2405  0.0072
 5516SOL    HW228182   2.763   0.531  10.706  0.8531  1.2597  0.7665
 5517SOL     OW28183   1.352   1.142   7.647  0.6043 -0.0944  0.4448
 5517SOL    HW128184   1.298   1.063   7.648 -0.1886  0.4420 -0.4904
 5517SOL    HW228185   1.404   1.153   7.567  1.0350 -2.0261  0.4777
 5518SOL     OW28186   0.388   2.534   3.057  0.5509  0.2381  0.3099
 5518SOL    HW128187   0.465   2.549   3.002 -0.9158  0.9432 -1.5505
 5518SOL    HW228188   0.424   2.554   3.144  1.2268 -1.0305  0.3157
 5519SOL     OW28189   1.639   0.841   4.216 -0.7116 -0.2010 -0.4299
 5519SOL    HW128190   1.628   0.896   4.139  1.8153 -0.1725 -0.7695
 5519SOL    HW228191   1.723   0.878   4.244 -0.0401 -0.6867 -1.8297
 5520SOL     OW28192   2.916   1.094  12.214 -0.3250 -0.6284 -0.0653
 5520SOL    HW128193   2.840   1.144  12.242  0.4846 -0.3304  1.5901
 5520SOL    HW228194   2.880   1.007  12.233  1.0386 -1.8879 -3.2837
 5521SOL     OW28195   2.434   2.665  12.284 -0.0441 -0.2950  0.3615
 5521SOL    HW128196   2.516   2.627  12.251  0.3374 -2.4339  3.7224
 5521SOL    HW228197   2.382   2.585  12.289  2.2378 -1.8793 -1.4115
 5522SOL     OW28198   2.568   1.048   0.797 -0.1970  0.1660 -0.2723
 5522SOL    HW128199   2.659   1.045   0.826 -0.5789  1.2310  1.0028
 5522SOL    HW228200   2.585   1.050   0.702 -0.0878 -0.7956 -0.2699
 5523SOL     OW28201   0.541   1.489   2.889 -0.4566  0.2975 -0.2530
 5523SOL    HW128202   0.522   1.577   2.859  0.2047  0.5172 -0.0252
 5523SOL    HW228203   0.631   1.491   2.922 -0.7995  2.5609  0.5149
 5524SOL     OW28204   0.962   1.419   8.332 -0.0264  0.5222 -0.2899
 5524SOL    HW128205   1.036   1.362   8.311  0.4021  0.3203  1.7580
 5524SOL    HW228206   0.891   1.368   8.294  0.4769 -0.0129 -0.5077
 5525SOL     OW28207   3.637   3.662  13.148 -0.1305 -0.0676 -0.4923
 5525SOL    HW128208   3.639   3.668  13.053  1.2374  2.1017 -0.3387
 5525SOL    HW228209   3.577   3.733  13.169  1.2141  0.6755  0.8958
 5526SOL     OW28210   3.310   0.074   0.567 -0.3338  0.3195 -0.3940
 5526SOL    HW128211   3.263   0.133   0.626 -0.2843  0.9004 -0.9372
 5526SOL    HW228212   3.377   0.129   0.527  0.8008 -0.1190  0.9319
 5527SOL     OW28213   2.562   0.016   6.592 -0.4462 -0.6567 -0.3576
 5527SOL    HW128214   2.618   0.093   6.582 -0.9638 -0.2731 -0.2886
 5527SOL    HW228215   2.476   0.050   6.566  0.1411  1.0571 -0.0101
 5528SOL     OW28216   4.099   0.712  10.647  0.0008  0.7251  0.1430
 5528SOL    HW128217   4.115   0.732  10.739 -0.8438 -0.1394  0.4899
 5528SOL    HW228218   4.184   0.731  10.608 -0.8072 -0.8820 -2.4084
 5529SOL     OW28219   2.759   1.241   4.937 -0.4537  0.0621 -0.0308
 5529SOL    HW128220   2.824   1.277   4.998 -1.0597  1.8553 -0.4408
 5529SOL    HW228221   2.791   1.274   4.853 -0.9730 -0.9320 -0.6189
 5530SOL     OW28222   0.676   2.911  17.034 -0.1027  0.2154  0.3786
 5530SOL    HW128223   0.609   2.881  16.973  1.6988 -1.0306 -0.9665
 5530SOL    HW228224   0.661   3.005  17.019  0.0505  0.2807  0.6285
 5531SOL     OW28225   3.978   1.217   4.435 -0.9574  0.3241 -0.3853
 5531SOL    HW128226   3.896   1.266   4.435 -0.2019  1.6061 -2.1675
 5531SOL    HW228227   4.015   1.223   4.524 -2.2638 -2.1013  0.3122
 5532SOL     OW28228   2.321   3.649   3.449 -0.2602  0.4412  0.2144
 5532SOL    HW128229   2.394   3.628   3.507 -1.1268 -0.0350  1.1264
 5532SOL    HW228230   2.252   3.656   3.515 -0.6622 -1.0016 -0.0641
 5533SOL     OW28231   1.746   0.372   8.406  0.1616 -0.1028  0.2295
 5533SOL    HW128232   1.732   0.314   8.332  1.4474  0.5826 -0.5623
 5533SOL    HW228233   1.755   0.311   8.479  2.3040 -1.3373 -1.0818
 5534SOL     OW28234   1.713   2.792   6.098  0.4051 -0.4569 -0.6011
 5534SOL    HW128235   1.658   2.741   6.038 -3.0710  1.3488  1.0129
 5534SOL    HW228236   1.774   2.830   6.035  0.6092 -0.5489 -0.4570
 5535SOL     OW28237   0.050   4.291  16.492  0.6969  0.1659 -0.0621
 5535SOL    HW128238   0.010   4.299  16.579 -3.2338 -0.5567 -1.8040
 5535SOL    HW228239   0.133   4.338  16.502  0.3585  0.3977  1.6969
 5536SOL     OW28240   0.134   3.682  10.561  0.3362  0.1745  0.7197
 5536SOL    HW128241   0.189   3.603  10.553 -1.3576 -0.6448 -2.6892
 5536SOL    HW228242   0.189   3.754  10.532 -0.2127  0.2955 -0.0159
 5537SOL     OW28243   3.208   1.909  17.579  0.1204  0.2288 -0.1434
 5537SOL    HW128244   3.204   2.001  17.605  1.5571  0.1511  0.3149
 5537SOL    HW228245   3.183   1.863  17.659 -0.4561  1.3449  0.3191
 5538SOL     OW28246   4.524   2.658  15.639  0.5739  0.7550  0.1026
 5538SOL    HW128247   4.477   2.722  15.586  3.5802  2.1742 -0.8309
 5538SOL    HW228248   4.473   2.655  15.720  1.6353 -2.7899  0.6489
 5539SOL     OW28249   1.726   4.258   8.519  0.2627  0.1835  0.5528
 5539SOL    HW128250   1.767   4.234   8.437 -1.7778 -1.2348 -0.0548
 5539SOL    HW228251   1.662   4.188   8.532 -0.1817  0.9559  2.6252
 5540SOL     OW28252   4.708   4.231  17.023 -0.0589  0.0531 -0.3524
 5540SOL    HW128253   4.680   4.225  17.115  1.2097 -0.4606 -0.0005
 5540SOL    HW228254   4.727   4.139  17.003 -0.5461  0.4902 -2.7354
 5541SOL     OW28255   4.155   2.066   2.645 -0.1516  0.4925 -0.2238
 5541SOL    HW128256   4.188   2.055   2.555 -2.0520 -2.4752 -0.5420
 5541SOL    HW228257   4.086   2.129   2.624 -1.2776 -0.8960 -0.6271
 5542SOL     OW28258   4.154   0.871   0.875  0.0653  0.6949  0.1081
 5542SOL    HW128259   4.199   0.833   0.799  1.6088 -0.2068  1.4554
 5542SOL    HW228260   4.072   0.899   0.834 -0.4744 -0.4695  0.3947
 5543SOL     OW28261   0.697   3.156   2.743 -0.1465  0.2015  0.1196
 5543SOL    HW128262   0.634   3.194   2.805  0.6858  1.7503  0.0126
 5543SOL    HW228263   0.777   3.201   2.770  1.3684 -2.2127 -0.3890
 5544SOL     OW28264   4.331   1.704   5.728  0.2070  0.1474 -0.2487
 5544SOL    HW128265   4.378   1.657   5.658  0.8655 -0.6954  0.7502
 5544SOL    HW228266   4.281   1.637   5.774  1.9041 -0.2937  0.9485
 5545SOL     OW28267   2.601   2.190   7.089 -0.4553 -0.2095  0.3933
 5545SOL    HW128268   2.512   2.166   7.111 -0.6801  0.8808  0.6879
 5545SOL    HW228269   2.592   2.283   7.108  3.5588  0.1994  0.4229
 5546SOL     OW28270   0.416   2.075   1.500  0.2524  0.1120 -0.2041
 5546SOL    HW128271   0.457   2.155   1.531 -1.2424  1.4354 -1.6527
 5546SOL    HW228272   0.466   2.055   1.421  2.1376  0.5600  0.8691
 5547SOL     OW28273   0.803   1.333   5.509 -0.0048  0.4348 -0.4838
 5547SOL    HW128274   0.776   1.292   5.591  1.6906 -0.5806 -0.4329
 5547SOL    HW228275   0.799   1.259   5.448 -2.0156 -0.1777  0.3729
 5548SOL     OW28276   1.652   1.721  10.013 -0.1867 -0.6829 -0.3603
 5548SOL    HW128277   1.556   1.721  10.023 -0.2668  2.2021 -0.9345
 5548SOL    HW228278   1.659   1.805   9.967  1.8171  0.1214  1.4435
 5549SOL     OW28279   0.468   0.678   4.758  0.1649  0.0596 -0.4734
 5549SOL    HW128280   0.517   0.610   4.711  2.3366 -0.3054  2.3747
 5549SOL    HW228281   0.378   0.648   4.748 -0.0997  1.2872 -1.7463
 5550SOL     OW28282   2.600   4.163  11.454 -0.4212 -0.7328 -0.1097
 5550SOL    HW128283   2.630   4.165  11.545 -0.9448 -2.6269  0.1123
 5550SOL    HW228284   2.606   4.070  11.432  1.6323 -0.7728  0.6638
 5551SOL     OW28285   2.628   3.141  16.743  0.0332  0.1537  0.0476
 5551SOL    HW128286   2.578   3.101  16.814 -3.0050  0.0958 -2.1512
 5551SOL    HW228287   2.645   3.067  16.684 -0.2948 -0.0045  0.1477
 5552SOL     OW28288   2.181   1.164   2.651  0.1222 -0.5338  0.8971
 5552SOL    HW128289   2.179   1.093   2.715 -1.6809 -2.0713 -0.8686
 5552SOL    HW228290   2.092   1.150   2.619  0.1917  1.8355 -0.3302
 5553SOL     OW28291   1.502   0.929   9.825 -0.2586  0.8673 -0.1996
 5553SOL    HW128292   1.452   0.932   9.906  0.5746 -1.1579  0.4026
 5553SOL    HW228293   1.521   0.835   9.826 -0.4180  0.8411  0.5269
 5554SOL     OW28294   0.652   0.166   1.711 -0.0714 -0.2193  0.3464
 5554SOL    HW128295   0.594   0.103   1.668 -1.2937  1.1119  0.0289
 5554SOL    HW228296   0.670   0.214   1.630 -1.6156 -1.3610 -0.6705
 5555SOL     OW28297   1.155   3.090   6.010  0.0724  0.1382 -0.0784
 5555SOL    HW128298   1.217   3.140   5.956  0.8533 -0.4824  0.2598
 5555SOL    HW228299   1.163   3.002   5.974  1.0645  1.0858 -2.1730
 5556SOL     OW28300   2.573   0.800   6.946  0.1964 -0.0123 -0.3060
 5556SOL    HW128301   2.590   0.889   6.975  0.7331 -0.9194  2.0912
 5556SOL    HW228302   2.483   0.793   6.979  1.5588  1.1951  3.5740
 5557SOL     OW28303   3.330   0.041  10.020 -0.3038  0.0120 -0.5109
 5557SOL    HW128304   3.380   0.122  10.027 -0.5689  0.1553 -0.3076
 5557SOL    HW228305   3.272   0.068   9.949 -0.8039 -0.0925 -0.1443
 5558SOL     OW28306   2.166   1.504   1.259 -0.0921 -0.3102 -0.1101
 5558SOL    HW128307   2.178   1.452   1.180 -2.9264  0.3856 -0.9615
 5558SOL    HW228308   2.223   1.454   1.318  0.1900  0.2918  0.1261
 5559SOL     OW28309   4.061   0.975   1.766  0.5849  0.4730 -0.2070
 5559SOL    HW128310   4.008   1.041   1.721  1.0350  0.9484 -0.0310
 5559SOL    HW228311   4.122   0.932   1.706  0.3385  0.6233 -0.5690
 5560SOL     OW28312   2.169   0.041  16.969 -0.1301  0.0406 -0.2488
 5560SOL    HW128313   2.227   0.090  16.911  1.4536  0.3711  1.6055
 5560SOL    HW228314   2.101   0.012  16.908 -0.2286  0.7513 -0.4686
 5561SOL     OW28315   0.202   1.882  15.803 -0.1083  0.2017  1.1203
 5561SOL    HW128316   0.191   1.804  15.748  0.2589 -0.1056  1.4837
 5561SOL    HW228317   0.222   1.843  15.888  1.2034  1.4883  1.4003
 5562SOL     OW28318   0.857   1.659   6.664  0.0666 -0.8377 -0.1268
 5562SOL    HW128319   0.789   1.725   6.655 -0.9053 -1.8459 -0.1743
 5562SOL    HW228320   0.906   1.698   6.737 -0.0748 -1.3952  0.2713
 5563SOL     OW28321   3.655   2.987  14.218  0.2852  0.4173  0.1483
 5563SOL    HW128322   3.595   3.006  14.291  2.1985  1.5599  1.4252
 5563SOL    HW228323   3.610   3.032  14.146  1.8521  2.0089  0.1580
 5564SOL     OW28324   4.004   3.475   6.626  0.0883  0.1879 -0.2311
 5564SOL    HW128325   3.989   3.529   6.548  0.5578 -1.6370 -1.6005
 5564SOL    HW228326   4.034   3.534   6.694 -1.9908 -2.5551  3.0808
 5565SOL     OW28327   3.076   2.405   2.573  0.3457 -0.2221 -0.0632
 5565SOL    HW128328   2.996   2.430   2.526 -1.0237 -2.8858  0.8311
 5565SOL    HW228329   3.042   2.335   2.629  0.6504 -0.5477 -0.2900
 5566SOL     OW28330   3.055   1.634  13.313 -0.3847  0.1887  0.1672
 5566SOL    HW128331   3.100   1.618  13.230 -0.6138  0.5414 -0.0260
 5566SOL    HW228332   2.977   1.684  13.288 -0.8509 -0.4659  0.2910
 5567SOL     OW28333   0.713   4.149  13.772 -0.0152  0.3536  0.3312
 5567SOL    HW128334   0.749   4.137  13.860  0.2353  0.0840  0.1935
 5567SOL    HW228335   0.749   4.235  13.750  0.8039  0.1939  0.9929
 5568SOL     OW28336   2.433   1.310   8.919 -0.1018 -0.2649 -0.3926
 5568SOL    HW128337   2.510   1.341   8.966 -1.0040  0.3514  0.6661
 5568SOL    HW228338   2.371   1.302   8.992  0.3771 -0.9245 -0.0459
 5569SOL     OW28339   2.984   1.724   4.983  0.0690  0.5878 -0.2571
 5569SOL    HW128340   2.919   1.711   4.914  0.2046 -0.9081 -0.1052
 5569SOL    HW228341   2.932   1.783   5.039 -1.2019 -0.3726 -0.4142
 5570SOL     OW28342   1.375   3.821   7.761 -0.5212  0.2622  0.0355
 5570SOL    HW128343   1.376   3.808   7.667 -0.3693 -0.1579  0.0964
 5570SOL    HW228344   1.462   3.855   7.782 -0.6304  0.6496 -0.1479
 5571SOL     OW28345   1.320   2.607   3.427  0.3581  0.1816 -0.0896
 5571SOL    HW128346   1.324   2.595   3.522  2.0887  0.4393 -0.1320
 5571SOL    HW228347   1.389   2.545   3.402 -0.1577  1.0344 -3.6260
 5572SOL     OW28348   1.960   3.903   0.832 -0.0051  0.0594 -0.1562
 5572SOL    HW128349   1.898   3.839   0.867 -1.4063  0.1713 -2.4326
 5572SOL    HW228350   1.967   3.968   0.903 -1.9096  0.2986 -0.1929
 5573SOL     OW28351   1.144   4.465   3.023 -0.3726  0.4238  0.3351
 5573SOL    HW128352   1.071   4.524   3.006  0.0791  0.9003  0.0447
 5573SOL    HW228353   1.093   4.384   3.018  0.3889 -0.0561  0.2548
 5574SOL     OW28354   4.084   2.544  16.143 -0.1115 -0.8747 -0.0910
 5574SOL    HW128355   4.076   2.590  16.227 -2.4038  2.1889 -1.9590
 5574SOL    HW228356   4.048   2.456  16.154 -4.9455  0.9193 -1.3824
 5575SOL     OW28357   0.081   1.453  15.835 -0.2119 -0.2679 -0.2254
 5575SOL    HW128358   0.051   1.497  15.915 -0.1766  1.5330 -1.2174
 5575SOL    HW228359   0.082   1.519  15.766  0.5102  0.2273  0.2528
 5576SOL     OW28360   3.788   1.504   9.579  0.2038 -0.0488  1.1662
 5576SOL    HW128361   3.707   1.498   9.530 -0.0757  0.3617  1.5731
 5576SOL    HW228362   3.765   1.548   9.661  0.6695  1.3902  0.5416
 5577SOL     OW28363   1.357   1.629   6.449 -0.2693 -0.4761 -0.2258
 5577SOL    HW128364   1.358   1.721   6.474 -2.1203  0.1799 -2.5911
 5577SOL    HW228365   1.275   1.595   6.486  0.2768 -0.9580  0.5344
 5578SOL     OW28366   0.071   2.897   7.109  0.2626 -0.4589  0.1388
 5578SOL    HW128367   0.153   2.884   7.156 -0.3151 -1.2470  0.9390
 5578SOL    HW228368   0.047   2.806   7.094  1.2752 -0.7646  0.3754
 5579SOL     OW28369   0.664   2.880   3.520 -0.2318 -0.2264 -0.3452
 5579SOL    HW128370   0.711   2.796   3.526  0.6284  0.0429 -3.4882
 5579SOL    HW228371   0.584   2.856   3.473 -0.6712  0.9265 -0.1769
 5580SOL     OW28372   4.169   0.405   3.220  0.0152 -0.5114  0.1490
 5580SOL    HW128373   4.130   0.456   3.149  2.9571 -1.1898 -1.9568
 5580SOL    HW228374   4.235   0.346   3.184 -0.5097  1.0374 -3.3657
 5581SOL     OW28375   1.849   2.959  13.241  0.0834 -0.0055 -0.8535
 5581SOL    HW128376   1.930   2.915  13.213 -0.7724 -2.1536  0.1123
 5581SOL    HW228377   1.863   2.967  13.335 -0.9890 -0.8890 -0.6268
 5582SOL     OW28378   1.216   3.861   3.881 -0.0444 -0.2013 -0.0429
 5582SOL    HW128379   1.173   3.946   3.866  2.5161  0.7401 -2.2855
 5582SOL    HW228380   1.268   3.882   3.959  2.5609 -0.9499 -1.5771
 5583SOL     OW28381   4.081   2.641   4.423  0.4294  0.5205  0.1686
 5583SOL    HW128382   4.101   2.687   4.341  0.4617 -0.5936 -0.4543
 5583SOL    HW228383   4.023   2.705   4.463  0.2450  0.3255  0.2156
 5584SOL     OW28384   2.465   2.957   3.641 -0.0871  0.4491 -0.1865
 5584SOL    HW128385   2.532   2.979   3.576 -2.4563  2.1419 -2.0591
 5584SOL    HW228386   2.469   3.034   3.697  1.2575  2.4932 -3.1130
 5585SOL     OW28387   4.244   1.603  17.159  0.3355 -0.2627  0.2030
 5585SOL    HW128388   4.201   1.537  17.214 -1.8530  0.5440 -0.5569
 5585SOL    HW228389   4.313   1.550  17.118 -0.8161  0.9180 -3.1966
 5586SOL     OW28390   3.979   3.274   3.770 -0.5543  0.0400 -0.3311
 5586SOL    HW128391   4.027   3.261   3.852  0.5000 -0.0742 -0.9723
 5586SOL    HW228392   4.018   3.212   3.708  0.6031 -1.9164  2.3257
 5587SOL     OW28393   0.491   4.401   2.190 -0.3622 -0.2577  0.5460
 5587SOL    HW128394   0.500   4.476   2.248 -1.7608 -0.4479  1.0073
 5587SOL    HW228395   0.573   4.407   2.142 -2.1458  1.1578 -2.3155
 5588SOL     OW28396   4.544   3.236   7.354 -0.6087  0.0426  0.1264
 5588SOL    HW128397   4.517   3.150   7.387 -1.5169 -0.1321 -1.0672
 5588SOL    HW228398   4.608   3.264   7.419 -1.1298  1.0676  0.1912
 5589SOL     OW28399   0.582   2.884   8.567  0.2994  0.3104 -0.1917
 5589SOL    HW128400   0.501   2.935   8.576  0.6116  0.2655  2.7453
 5589SOL    HW228401   0.611   2.901   8.478  1.0467 -1.5235 -0.3014
 5590SOL     OW28402   0.356   2.294   0.279 -0.2702  0.4551  0.0749
 5590SOL    HW128403   0.366   2.366   0.342  0.2276 -1.9822  2.8054
 5590SOL    HW228404   0.447   2.275   0.256  0.2861  2.4583  0.6437
 5591SOL     OW28405   0.583   2.418  17.502 -0.2936 -0.3302  0.2104
 5591SOL    HW128406   0.585   2.495  17.559  0.7847  2.0636 -3.0665
 5591SOL    HW228407   0.590   2.456  17.415  2.0606 -1.6378 -0.1718
 5592SOL     OW28408   1.144   3.564  11.449  0.2121  0.0369 -0.0155
 5592SOL    HW128409   1.184   3.596  11.530  0.2871  1.9895 -0.8255
 5592SOL    HW228410   1.050   3.570  11.468  0.7353 -2.1789  3.2389
 5593SOL     OW28411   3.566   2.045   3.380  0.2777  0.1613 -0.3257
 5593SOL    HW128412   3.658   2.037   3.406  0.3774 -0.8157 -0.9779
 5593SOL    HW228413   3.554   2.135   3.349  2.3891  0.5422 -0.0079
 5594SOL     OW28414   4.615   3.062  17.632 -0.2401  0.6088 -0.0767
 5594SOL    HW128415   4.661   2.984  17.662 -0.2758  0.6899  0.1908
 5594SOL    HW228416   4.662   3.134  17.675  0.4678 -1.2455  2.2516
 5595SOL     OW28417   0.714   2.762   0.958  0.0302 -0.4775  0.0926
 5595SOL    HW128418   0.656   2.688   0.941 -1.3884  0.7919 -0.5421
 5595SOL    HW228419   0.755   2.763   0.871  0.9353  1.3327  0.5510
 5596SOL     OW28420   4.297   2.889  16.392  0.0178  0.5556 -0.0139
 5596SOL    HW128421   4.232   2.901  16.322 -0.5152 -1.1874  0.1818
 5596SOL    HW228422   4.373   2.925  16.346  0.2738 -0.5977 -0.4861
 5597SOL     OW28423   0.679   0.818  12.999 -0.1150  0.1589 -0.5933
 5597SOL    HW128424   0.755   0.871  13.022 -0.6647  0.3744  0.6906
 5597SOL    HW228425   0.600   0.872  13.005 -1.0011 -1.5702  3.1402
 5598SOL     OW28426   2.281   1.646  11.566 -0.1703 -0.0112  0.3779
 5598SOL    HW128427   2.323   1.672  11.649  0.8253 -1.1898  0.2380
 5598SOL    HW228428   2.195   1.618  11.597  0.1524 -1.4297 -0.0520
 5599SOL     OW28429   2.052   4.017   0.325 -0.3490 -0.0144 -0.3360
 5599SOL    HW128430   2.073   4.023   0.232 -1.3069  0.9799 -0.4862
 5599SOL    HW228431   2.129   4.053   0.367  0.1294 -0.0351 -1.1967
 5600SOL     OW28432   2.734   3.065   5.213  0.5336 -0.2200 -0.4728
 5600SOL    HW128433   2.769   3.154   5.220 -0.0160 -0.1868  1.8140
 5600SOL    HW228434   2.810   3.008   5.225 -0.6147 -1.7893 -0.5960
 5601SOL     OW28435   1.724   4.726   2.125  0.1326 -0.4129  0.4082
 5601SOL    HW128436   1.747   0.077   2.150  0.2725 -0.0926 -0.8814
 5601SOL    HW228437   1.704   4.689   2.212 -0.5934 -1.2086 -0.0934
 5602SOL     OW28438   1.500   1.554   7.867 -0.3814  0.7479  0.0094
 5602SOL    HW128439   1.430   1.620   7.868 -2.2092 -1.1631 -0.5615
 5602SOL    HW228440   1.509   1.533   7.960  0.8520  1.7103  0.1019
 5603SOL     OW28441   1.354   3.992   4.496 -0.0219  0.3072 -0.1692
 5603SOL    HW128442   1.270   4.024   4.530 -0.3232  0.9334 -1.5043
 5603SOL    HW228443   1.384   4.075   4.459 -0.2410  0.8043  0.7648
 5604SOL     OW28444   0.059   1.018   2.729  0.4518  0.0018 -0.5667
 5604SOL    HW128445   0.019   1.046   2.811  0.4865  0.3267 -0.6609
 5604SOL    HW228446   0.136   0.981   2.771 -1.4993 -2.7718  0.5997
 5605SOL     OW28447   1.782   4.487  16.152 -0.3455 -0.5764  0.1928
 5605SOL    HW128448   1.821   4.401  16.168  1.0507  0.0351  0.1397
 5605SOL    HW228449   1.732   4.502  16.232 -1.1761  0.8900 -0.5998
 5606SOL     OW28450   2.977   4.696   7.542  0.4496  0.0114  0.2584
 5606SOL    HW128451   2.999   0.049   7.560 -0.6908  0.4011 -0.3155
 5606SOL    HW228452   2.882   4.708   7.550  0.6516  2.6559 -1.2631
 5607SOL     OW28453   2.485   4.641   4.764 -0.4354 -1.0731 -0.0173
 5607SOL    HW128454   2.520   4.568   4.714  1.8937 -0.3648  0.6187
 5607SOL    HW228455   2.552   4.709   4.757 -1.2136 -0.1305  1.5813
 5608SOL     OW28456   2.160   1.927   4.600  0.5777 -0.6520 -0.3206
 5608SOL    HW128457   2.171   2.020   4.579  0.0842 -0.7166 -0.8439
 5608SOL    HW228458   2.186   1.929   4.692 -2.6146  1.0270  0.5566
 5609SOL     OW28459   2.855   3.305   5.188 -0.3137  0.1512  0.3740
 5609SOL    HW128460   2.840   3.356   5.109 -1.3170 -1.1287 -0.2643
 5609SOL    HW228461   2.887   3.374   5.247  0.8374  1.4791 -1.8193
 5610SOL     OW28462   3.926   1.090   2.175  0.0218 -0.0242 -0.0473
 5610SOL    HW128463   3.949   1.159   2.238  1.0038 -0.5402  0.1579
 5610SOL    HW228464   4.009   1.043   2.163 -0.0484  0.0625 -0.8536
 5611SOL     OW28465   2.793   1.829  11.795  0.1383  0.0091  0.5369
 5611SOL    HW128466   2.777   1.748  11.844 -2.3744 -0.5025 -1.1501
 5611SOL    HW228467   2.760   1.889  11.862  0.9630  1.7366 -0.6012
 5612SOL     OW28468   1.588   4.057  12.418 -0.0548 -0.0558  0.1302
 5612SOL    HW128469   1.669   4.006  12.424  0.9937  1.5488 -0.1251
 5612SOL    HW228470   1.613   4.132  12.364  1.9616 -0.7220  0.1501
 5613SOL     OW28471   4.536   3.046   7.953 -0.2437  0.2853 -0.0051
 5613SOL    HW128472   4.496   2.990   7.887 -0.3289  1.2721 -0.7843
 5613SOL    HW228473   4.544   3.125   7.900  2.2913 -0.7360 -1.1472
 5614SOL     OW28474   2.188   2.958   0.367  0.5175  0.2492  0.2818
 5614SOL    HW128475   2.185   3.009   0.286  0.0903  0.2678  0.3084
 5614SOL    HW228476   2.277   2.924   0.359  0.0690 -0.3570 -2.2488
 5615SOL     OW28477   3.089   3.505   5.704 -0.3669 -0.3625  0.0044
 5615SOL    HW128478   3.080   3.566   5.777 -2.6009  0.7930 -1.2499
 5615SOL    HW228479   3.019   3.537   5.648  0.0898 -0.7461 -0.7856
 5616SOL     OW28480   3.344   0.102   9.313  0.0392  0.3053 -0.6306
 5616SOL    HW128481   3.389   0.044   9.252  0.5827 -0.8344  0.8850
 5616SOL    HW228482   3.421   0.154   9.335  0.1863 -1.4495  2.8878
 5617SOL     OW28483   0.354   2.497   6.419  0.6932  0.2115 -0.0952
 5617SOL    HW128484   0.322   2.506   6.509  2.2708  1.3885  0.3452
 5617SOL    HW228485   0.448   2.507   6.436  0.3818 -0.7009  2.1677
 5618SOL     OW28486   1.635   2.589   7.691 -0.1268 -0.0700  0.4211
 5618SOL    HW128487   1.587   2.511   7.718 -0.3443 -0.0537  0.0802
 5618SOL    HW228488   1.578   2.617   7.619 -0.0870 -0.5211  0.2171
 5619SOL     OW28489   1.653   0.708  11.376 -0.2926 -0.8591  0.2163
 5619SOL    HW128490   1.588   0.651  11.335 -0.8459 -1.6658  2.2178
 5619SOL    HW228491   1.732   0.690  11.326 -0.7089 -0.5287 -0.5528
 5620SOL     OW28492   2.583   2.740  16.344 -0.1760  0.6687  0.0118
 5620SOL    HW128493   2.497   2.757  16.306 -1.4817  0.4808  2.8324
 5620SOL    HW228494   2.563   2.668  16.404  0.3878 -0.9068 -1.7180
 5621SOL     OW28495   0.356   2.952  11.933 -0.4981 -0.2748  0.3415
 5621SOL    HW128496   0.374   2.982  12.022  3.3853  2.4011 -1.3588
 5621SOL    HW228497   0.423   2.884  11.940 -1.2221 -0.8119  2.1373
 5622SOL     OW28498   1.419   2.984   8.072  0.0106  0.5832 -0.4797
 5622SOL    HW128499   1.459   2.901   8.047  0.9916  0.6928  0.7396
 5622SOL    HW228500   1.484   3.012   8.137 -0.2452  0.7636 -0.2993
 5623SOL     OW28501   3.294   0.083   5.733 -0.0132  0.7618  0.3895
 5623SOL    HW128502   3.256   0.083   5.821  0.4626  1.0144  0.5914
 5623SOL    HW228503   3.363   0.148   5.746  0.0711  0.6606  0.4474
 5624SOL     OW28504   1.543   2.447  15.250 -0.5314  0.0323 -0.4665
 5624SOL    HW128505   1.533   2.524  15.306 -1.7241 -0.1149 -0.4748
 5624SOL    HW228506   1.487   2.390  15.303 -0.6118  0.7594  0.2251
 5625SOL     OW28507   4.151   2.365   4.513  0.1866  0.5829  0.1980
 5625SOL    HW128508   4.113   2.441   4.470  0.3793 -0.2321 -1.4106
 5625SOL    HW228509   4.080   2.348   4.576 -0.5495  0.1616 -0.7335
 5626SOL     OW28510   1.380   0.430   8.470  0.4863  0.1682  0.0171
 5626SOL    HW128511   1.467   0.401   8.442  0.0700 -0.1252 -1.0065
 5626SOL    HW228512   1.405   0.513   8.511 -1.3012  0.5218  0.3737
 5627SOL     OW28513   1.758   0.161   5.220 -0.3239  0.0589  0.1137
 5627SOL    HW128514   1.751   0.125   5.132 -0.5958  1.6186 -0.4989
 5627SOL    HW228515   1.754   0.256   5.204  0.8286 -0.1878 -1.6622
 5628SOL     OW28516   2.730   1.366   0.147  0.6631 -0.1999  0.1546
 5628SOL    HW128517   2.754   1.351   0.239 -2.4849  2.5000  1.4122
 5628SOL    HW228518   2.735   1.462   0.145 -1.8338 -0.0774 -0.5808
 5629SOL     OW28519   1.445   3.231   3.828  0.1049 -0.4120 -0.0079
 5629SOL    HW128520   1.364   3.268   3.794  0.6538 -0.0572 -0.9398
 5629SOL    HW228521   1.436   3.137   3.813  1.0311 -0.9840  2.9919
 5630SOL     OW28522   1.985   4.715   1.514  0.0170 -0.2198  0.7967
 5630SOL    HW128523   2.071   4.728   1.553 -0.5260 -1.4673  2.4167
 5630SOL    HW228524   2.000   4.679   1.427 -1.2109  0.6857  0.1991
 5631SOL     OW28525   3.004   3.391  10.993 -0.5640 -0.5411  0.0166
 5631SOL    HW128526   3.007   3.487  10.999  1.4928 -0.5718 -0.3456
 5631SOL    HW228527   3.098   3.382  11.009 -0.3898  4.1963  1.7008
 5632SOL     OW28528   2.588   3.363   0.261 -0.1530 -0.7649 -0.4317
 5632SOL    HW128529   2.682   3.382   0.255 -0.3918  0.3358 -0.7600
 5632SOL    HW228530   2.557   3.453   0.271 -1.5638 -1.3608  0.5900
 5633SOL     OW28531   2.105   0.513   8.808  0.3767  0.1435  0.2092
 5633SOL    HW128532   2.057   0.435   8.780  0.6869  0.6795 -1.8016
 5633SOL    HW228533   2.120   0.494   8.901 -0.9966  0.2710  0.4608
 5634SOL     OW28534   2.026   4.478   5.766  0.0913 -0.6905  0.2939
 5634SOL    HW128535   1.974   4.467   5.686  1.8113  0.8533 -1.0300
 5634SOL    HW228536   2.035   4.573   5.757  3.5146 -0.9589  0.8946
 5635SOL     OW28537   4.126   3.311   8.617 -0.3446  0.7491 -0.2449
 5635SOL    HW128538   4.075   3.300   8.537 -2.5604  1.2601  1.0715
 5635SOL    HW228539   4.195   3.247   8.599  0.1524  1.7312 -1.8650
 5636SOL     OW28540   1.390   1.907   7.323 -0.2898  0.2612 -0.4588
 5636SOL    HW128541   1.482   1.889   7.342 -0.4751  1.0789  1.2164
 5636SOL    HW228542   1.353   1.917   7.410  2.6070 -1.4138  0.9928
 5637SOL     OW28543   1.708   4.554   0.190 -0.1419 -0.3967  0.5711
 5637SOL    HW128544   1.803   4.553   0.180 -0.2117  0.2952 -0.2426
 5637SOL    HW228545   1.691   4.462   0.173 -1.3741  0.0457 -0.5937
 5638SOL     OW28546   3.207   1.055  14.140  0.0139 -0.0733 -0.0735
 5638SOL    HW128547   3.195   1.040  14.046 -1.2654  0.4177  0.0078
 5638SOL    HW228548   3.263   1.133  14.145 -0.6636  0.3295  1.2879
 5639SOL     OW28549   2.919   3.615   6.980 -0.2872 -0.4729  0.3230
 5639SOL    HW128550   2.882   3.699   6.951 -1.3169 -1.7736 -2.1356
 5639SOL    HW228551   2.885   3.613   7.069 -0.0058 -1.2466  0.4128
 5640SOL     OW28552   3.152   1.527   0.738  0.1519  0.1957 -0.3748
 5640SOL    HW128553   3.135   1.475   0.817 -2.1604 -2.2038 -2.4950
 5640SOL    HW228554   3.136   1.614   0.775  2.3012  1.2903 -2.0452
 5641SOL     OW28555   1.383   2.358  13.910  0.0682  0.1569 -0.0632
 5641SOL    HW128556   1.362   2.304  13.834 -0.3176  1.2377 -0.7250
 5641SOL    HW228557   1.434   2.431  13.873 -0.2042  0.1716 -0.4106
 5642SOL     OW28558   4.124   4.452   9.580 -0.5214  0.2755 -0.4530
 5642SOL    HW128559   4.174   4.420   9.655 -1.3512 -1.4177 -0.6206
 5642SOL    HW228560   4.041   4.476   9.621 -0.0411 -1.2188  1.4088
 5643SOL     OW28561   4.265   3.208   7.545 -0.3602  0.4111 -0.3845
 5643SOL    HW128562   4.178   3.168   7.554 -0.4494  0.6856 -0.0597
 5643SOL    HW228563   4.307   3.127   7.515  0.1472  0.3700  0.4356
 5644SOL     OW28564   3.988   3.205   4.740  0.9251  0.0328 -0.2268
 5644SOL    HW128565   3.954   3.275   4.684 -0.6403  0.1348  0.8632
 5644SOL    HW228566   3.906   3.175   4.780  2.0500 -0.9352  1.3294
 5645SOL     OW28567   0.297   1.282   9.165  0.3540 -0.2865  0.5733
 5645SOL    HW128568   0.251   1.326   9.094 -0.6799 -0.7304  0.9669
 5645SOL    HW228569   0.331   1.359   9.210  1.8193 -0.3427 -0.4227
 5646SOL     OW28570   2.016   2.115   2.906 -0.0275 -0.0491 -0.0460
 5646SOL    HW128571   2.062   2.097   2.824  2.8889  0.9354  1.3617
 5646SOL    HW228572   1.989   2.205   2.885 -1.0860  0.0173  1.5884
 5647SOL     OW28573   3.081   4.550  15.593 -0.0096  0.0436  0.8680
 5647SOL    HW128574   3.161   4.523  15.638  1.5306  0.1288 -1.8664
 5647SOL    HW228575   3.108   4.636  15.562 -1.4307  0.5024  0.8698
 5648SOL     OW28576   0.817   0.459  12.339 -0.1300  0.2612  0.5178
 5648SOL    HW128577   0.820   0.430  12.430  2.3943  0.2967  0.4593
 5648SOL    HW228578   0.761   0.386  12.314  0.3015  0.0505  0.1655
 5649SOL     OW28579   0.058   1.107   3.861  0.2123  0.7200  0.4255
 5649SOL    HW128580   0.092   1.193   3.837  1.4916 -0.2478 -1.2407
 5649SOL    HW228581   4.718   1.134   3.909  0.4219  0.7646  0.7435
 5650SOL     OW28582   4.474   4.386   7.049  0.3075 -0.6371 -0.2495
 5650SOL    HW128583   4.539   4.348   6.989  2.5024  0.8991  1.1875
 5650SOL    HW228584   4.520   4.386   7.133  2.6483  2.5707 -1.5751
 5651SOL     OW28585   4.617   2.240  10.577  0.0108 -0.2860  0.1200
 5651SOL    HW128586   4.582   2.192  10.501 -1.2545 -0.8256  1.0504
 5651SOL    HW228587   4.616   2.333  10.557  2.0050 -0.5439 -1.2737
 5652SOL     OW28588   3.025   4.032   3.882  0.5226 -0.2082 -0.3176
 5652SOL    HW128589   2.945   4.079   3.906  1.3952  0.9972  0.1675
 5652SOL    HW228590   3.030   3.975   3.959  1.7157 -0.8678 -0.8853
 5653SOL     OW28591   0.123   1.006   7.002  0.1071 -0.2305  0.0893
 5653SOL    HW128592   0.104   1.094   7.035 -0.0133 -0.2427  0.0519
 5653SOL    HW228593   0.215   1.010   6.976 -0.8627  0.0182 -3.3546
 5654SOL     OW28594   1.896   2.663   9.907  0.0073  0.2551  0.0111
 5654SOL    HW128595   1.802   2.683   9.903  0.2086  0.9340 -1.2590
 5654SOL    HW228596   1.913   2.569   9.905 -1.5182 -0.0899  2.1666
 5655SOL     OW28597   1.923   0.773   1.144  0.1980 -0.6206  1.0014
 5655SOL    HW128598   1.834   0.764   1.108 -0.9481 -4.6974  4.8292
 5655SOL    HW228599   1.970   0.729   1.073  0.6830  0.9412  0.3639
 5656SOL     OW28600   1.817   0.543   8.914 -0.1481 -0.4977 -0.1103
 5656SOL    HW128601   1.824   0.464   8.861 -0.0744 -0.1110 -0.6723
 5656SOL    HW228602   1.793   0.612   8.853 -1.0312 -0.2561  0.5112
 5657SOL     OW28603   2.456   0.477  17.111 -0.3889  0.8261 -0.0727
 5657SOL    HW128604   2.496   0.509  17.192  0.7025 -0.9750  0.1225
 5657SOL    HW228605   2.387   0.419  17.144  2.2843 -1.2392  1.9522
 5658SOL     OW28606   3.430   0.979   6.177  0.0114  0.4650 -0.0198
 5658SOL    HW128607   3.462   0.914   6.115 -0.0269 -2.4118  2.9548
 5658SOL    HW228608   3.428   0.923   6.255  0.4256  0.8080  0.2346
 5659SOL     OW28609   1.397   1.876   9.624  0.1430  0.0397  0.4980
 5659SOL    HW128610   1.471   1.936   9.613  0.1415 -0.0798 -0.2097
 5659SOL    HW228611   1.404   1.836   9.537  0.5365 -1.5304  1.2568
 5660SOL     OW28612   1.829   1.613   4.604  0.6563  0.4611 -0.3330
 5660SOL    HW128613   1.757   1.634   4.543  0.3596 -1.9338 -0.8195
 5660SOL    HW228614   1.905   1.618   4.547  1.1088 -2.0584  0.0455
 5661SOL     OW28615   3.777   0.298   4.207 -0.3435 -0.4154  0.2615
 5661SOL    HW128616   3.801   0.282   4.116  0.4712  1.1129  0.2049
 5661SOL    HW228617   3.838   0.369   4.230 -0.5314 -1.0788  2.7982
 5662SOL     OW28618   2.470   4.557   5.783  0.2218  0.5184  0.1134
 5662SOL    HW128619   2.560   4.573   5.754 -0.2956  0.0921 -1.7130
 5662SOL    HW228620   2.492   4.513   5.866  0.2730 -0.0791 -0.2141
 5663SOL     OW28621   3.802   4.090   6.133  0.5146 -0.1043 -0.4987
 5663SOL    HW128622   3.783   4.133   6.216  0.7007 -0.7189 -0.1385
 5663SOL    HW228623   3.758   4.005   6.138  2.0357 -0.7342  2.1036
 5664SOL     OW28624   0.909   1.999   5.124 -0.2674 -0.2456  0.0891
 5664SOL    HW128625   0.935   1.910   5.148 -0.9499  0.1391  2.2776
 5664SOL    HW228626   0.850   2.025   5.195 -1.3567 -1.4097 -0.3919
 5665SOL     OW28627   4.168   0.954   7.672  0.2585 -0.1160  0.0519
 5665SOL    HW128628   4.233   0.884   7.682  1.8565  1.7025  2.6559
 5665SOL    HW228629   4.086   0.905   7.673  0.1080  0.1097 -0.9720
 5666SOL     OW28630   1.852   3.243  16.082 -0.3992  0.4419 -0.7117
 5666SOL    HW128631   1.779   3.185  16.105  0.7693 -0.5310  0.5252
 5666SOL    HW228632   1.887   3.195  16.007 -1.2640 -0.7998 -0.3191
 5667SOL     OW28633   4.383   0.214   9.935 -0.1283  0.0959  0.3676
 5667SOL    HW128634   4.424   0.300   9.926  1.0368 -0.7060 -2.0758
 5667SOL    HW228635   4.447   0.167   9.989 -0.0515 -2.1613 -1.6636
 5668SOL     OW28636   0.243   0.047   9.269  0.1838 -0.1656  0.3300
 5668SOL    HW128637   0.316   0.081   9.322 -0.1617  0.3803  0.4497
 5668SOL    HW228638   0.175   0.045   9.336 -1.3699 -0.9567 -1.2601
 5669SOL     OW28639   1.833   3.544   6.372  0.0390 -0.6658 -0.2221
 5669SOL    HW128640   1.833   3.542   6.277  0.3466  0.8616 -0.2635
 5669SOL    HW228641   1.849   3.638   6.380 -0.0769 -0.6549 -0.1165
 5670SOL     OW28642   2.044   2.865   3.681 -0.0280 -0.3491  0.0022
 5670SOL    HW128643   2.133   2.842   3.707 -0.1497  0.3162  0.9678
 5670SOL    HW228644   2.067   2.946   3.634  1.3840 -0.7378  0.0365
 5671SOL     OW28645   1.507   0.029   3.997  0.0581  0.0519  0.0193
 5671SOL    HW128646   1.454   0.034   3.917 -1.2068  0.0302  0.8596
 5671SOL    HW228647   1.555   4.688   3.973 -0.5333  0.3911 -2.3081
 5672SOL     OW28648   1.190   0.753   4.311 -0.0851 -0.0040  0.0681
 5672SOL    HW128649   1.277   0.790   4.325  0.2502 -1.2728  1.3511
 5672SOL    HW228650   1.212   0.660   4.316  0.0355  0.0948  1.4377
 5673SOL     OW28651   3.827   3.974   2.084 -0.1861  0.3368 -0.5782
 5673SOL    HW128652   3.808   3.931   2.001  0.3442 -0.1182 -0.4626
 5673SOL    HW228653   3.743   4.019   2.093 -0.1929  0.4662 -1.2488
 5674SOL     OW28654   2.021   0.729  10.531  0.6674  0.5063  0.0285
 5674SOL    HW128655   2.063   0.814  10.521 -0.0366  0.9275  0.7519
 5674SOL    HW228656   1.943   0.737  10.477 -0.9545 -1.9969  1.9215
 5675SOL     OW28657   0.281   1.889   8.590 -0.1824 -0.2766  0.7563
 5675SOL    HW128658   0.235   1.888   8.506  0.4402  1.8424  0.3970
 5675SOL    HW228659   0.366   1.846   8.579  0.3743  0.2940  2.8851
 5676SOL     OW28660   3.773   4.013   6.744 -0.1327 -0.4102  0.2483
 5676SOL    HW128661   3.818   4.096   6.758  1.1200 -0.3635 -4.1089
 5676SOL    HW228662   3.701   4.014   6.808 -0.3207 -0.9588  0.0456
 5677SOL     OW28663   1.653   0.652   3.157 -0.5338  0.8608 -0.2048
 5677SOL    HW128664   1.606   0.726   3.194 -0.4141  0.7949  0.0751
 5677SOL    HW228665   1.710   0.615   3.224 -2.2437 -1.1917  0.0959
 5678SOL     OW28666   0.737   0.648   2.534 -0.0137  0.6979  0.1042
 5678SOL    HW128667   0.807   0.653   2.469 -0.6688  0.7263 -0.6062
 5678SOL    HW228668   0.671   0.714   2.514  2.0013  3.8341  3.7656
 5679SOL     OW28669   2.234   0.194   2.190 -0.1176  0.0503 -0.1944
 5679SOL    HW128670   2.281   0.144   2.123 -0.7830  1.2953 -1.5962
 5679SOL    HW228671   2.295   0.268   2.189  1.6918 -1.4649 -1.1546
 5680SOL     OW28672   2.549   2.733   0.713 -0.5569 -0.0354  0.3008
 5680SOL    HW128673   2.624   2.783   0.746  1.9665 -2.0794 -2.4242
 5680SOL    HW228674   2.598   2.684   0.648 -0.4042 -0.6504  0.8834
 5681SOL     OW28675   1.401   3.157   7.719  0.1388 -0.5281 -0.2695
 5681SOL    HW128676   1.379   3.145   7.627 -0.4186  1.3930 -0.3972
 5681SOL    HW228677   1.465   3.088   7.734  0.3700  0.0406  1.3760
 5682SOL     OW28678   1.800   2.660   2.568 -0.0013  0.3108 -0.0387
 5682SOL    HW128679   1.765   2.647   2.480  1.1490 -1.9098 -0.1631
 5682SOL    HW228680   1.750   2.592   2.612  2.6996  0.1254  2.7286
 5683SOL     OW28681   1.790   4.039  14.971  0.3338  0.0314  0.0234
 5683SOL    HW128682   1.786   4.067  14.880  0.4620  0.2306  0.0777
 5683SOL    HW228683   1.872   4.069  15.012  0.5383 -0.8999  0.3056
 5684SOL     OW28684   4.292   0.247  12.547 -0.3624 -1.0086 -0.0846
 5684SOL    HW128685   4.342   0.230  12.628  2.5890  1.5584 -1.3714
 5684SOL    HW228686   4.367   0.232  12.489  1.9915  2.6423  1.9569
 5685SOL     OW28687   3.464   3.783   3.052  0.3368 -0.3229 -0.2759
 5685SOL    HW128688   3.528   3.714   3.073 -0.6319 -1.2112 -0.2559
 5685SOL    HW228689   3.439   3.826   3.134 -1.3573  0.1123 -1.0300
 5686SOL     OW28690   2.662   4.417   6.723 -0.1142 -0.0758  0.4309
 5686SOL    HW128691   2.755   4.434   6.738 -0.5914 -0.0113  3.2117
 5686SOL    HW228692   2.627   4.465   6.798  0.3736  1.2459 -0.1772
 5687SOL     OW28693   2.841   2.481   2.461  0.0320  0.2341 -0.4981
 5687SOL    HW128694   2.846   2.518   2.373  2.2925 -0.6012 -0.7198
 5687SOL    HW228695   2.838   2.561   2.513  0.5489 -0.7471  1.0566
 5688SOL     OW28696   4.507   1.502  14.933  0.4687  0.0958  0.1137
 5688SOL    HW128697   4.433   1.507  14.994 -0.7233 -3.4482 -1.0050
 5688SOL    HW228698   4.471   1.450  14.861 -0.3950  0.7234  0.0931
 5689SOL     OW28699   2.311   3.043   2.661 -0.2443 -0.3000  0.4696
 5689SOL    HW128700   2.245   3.074   2.599  1.2642  0.1080 -0.9218
 5689SOL    HW228701   2.320   2.955   2.625  2.7604 -0.6679  2.0977
 5690SOL     OW28702   3.941   3.917   0.160  0.7473 -0.9357  0.1983
 5690SOL    HW128703   3.991   3.987   0.203  2.5259 -3.3569  2.0233
 5690SOL    HW228704   3.998   3.912   0.084 -2.1686  2.0905 -2.1653
 5691SOL     OW28705   4.107   1.058   0.140 -0.0713 -0.3721 -0.4573
 5691SOL    HW128706   4.077   1.149   0.131  0.2873 -0.2221 -0.1379
 5691SOL    HW228707   4.023   1.014   0.125 -0.5750 -0.5944  2.9584
 5692SOL     OW28708   3.589   2.742  17.143  0.6131 -0.1594 -0.2103
 5692SOL    HW128709   3.525   2.810  17.122 -0.4754 -1.1181  0.0081
 5692SOL    HW228710   3.542   2.663  17.118  1.6253 -0.4313 -1.2566
 5693SOL     OW28711   2.214   2.368   6.799 -0.1543 -0.2456  0.2964
 5693SOL    HW128712   2.180   2.454   6.823  1.4014  0.6132 -0.5073
 5693SOL    HW228713   2.212   2.367   6.703  0.3437 -0.3374  0.2852
 5694SOL     OW28714   0.930   4.533   9.924  0.1117 -0.1169 -0.4796
 5694SOL    HW128715   0.861   4.592   9.954 -0.1251 -1.5598  1.8138
 5694SOL    HW228716   0.996   4.523   9.992 -0.6895  0.7794  0.4227
 5695SOL     OW28717   0.662   1.072   6.579  0.8662  0.0749  0.8640
 5695SOL    HW128718   0.741   1.038   6.538  0.8267  1.2255 -0.1626
 5695SOL    HW228719   0.682   1.077   6.673  1.1369 -1.3147  0.8920
 5696SOL     OW28720   0.816   0.581   5.681  0.0353  0.8386  0.4944
 5696SOL    HW128721   0.757   0.624   5.619 -1.4094  0.3249  1.5202
 5696SOL    HW228722   0.795   0.489   5.669 -0.9419  1.3694 -1.8019
 5697SOL     OW28723   2.030   0.159   7.180 -0.2725 -0.5629  0.6438
 5697SOL    HW128724   2.058   0.087   7.237  1.1529  0.1855  0.8929
 5697SOL    HW228725   1.958   0.195   7.231 -1.0722 -0.0245 -0.8537
 5698SOL     OW28726   0.822   2.073   6.017  0.0045 -0.1263  0.4954
 5698SOL    HW128727   0.845   2.026   5.937  0.9128  0.8572  0.1739
 5698SOL    HW228728   0.767   2.011   6.066 -0.4328  0.0023  0.1717
 5699SOL     OW28729   1.683   1.774   0.582 -0.1029  0.2573  0.2693
 5699SOL    HW128730   1.643   1.718   0.515 -1.9141  1.4862  0.3371
 5699SOL    HW228731   1.771   1.736   0.581 -1.3846 -2.7400  0.9014
 5700SOL     OW28732   3.652   4.357  14.459 -0.0286  0.0756 -0.0422
 5700SOL    HW128733   3.597   4.280  14.473 -0.4296  0.1220 -1.3272
 5700SOL    HW228734   3.700   4.333  14.380 -0.4321 -0.2766 -0.1804
 5701SOL     OW28735   3.868   2.022   7.824  0.0560  0.5108  0.4142
 5701SOL    HW128736   3.776   2.048   7.818 -0.0541  0.1111  0.3508
 5701SOL    HW228737   3.904   2.089   7.882  0.4895  0.5087  0.1490
 5702SOL     OW28738   3.697   3.793   3.658  0.4770 -0.0052 -0.0309
 5702SOL    HW128739   3.744   3.762   3.735 -0.8190 -3.8223 -0.7633
 5702SOL    HW228740   3.608   3.760   3.676  0.5428 -0.6474 -0.8490
 5703SOL     OW28741   2.738   0.351  15.898  0.1234 -0.2452  0.3370
 5703SOL    HW128742   2.767   0.405  15.825 -0.2915  2.0664  1.8835
 5703SOL    HW228743   2.764   0.265  15.865  0.2611  0.9592 -2.6971
 5704SOL     OW28744   4.090   4.314   9.324  0.0081  0.3911 -0.7101
 5704SOL    HW128745   4.161   4.250   9.333 -1.4464 -1.1811 -0.3932
 5704SOL    HW228746   4.078   4.349   9.412  0.8203  0.1132 -0.4905
 5705SOL     OW28747   0.638   3.035   0.914 -0.0993 -0.3169  0.3113
 5705SOL    HW128748   0.715   3.071   0.960  0.1144 -1.7683  1.0776
 5705SOL    HW228749   0.641   2.948   0.954 -0.4559 -1.0036 -1.1730
 5706SOL     OW28750   3.011   0.729  14.611  0.7947 -0.5718 -0.3874
 5706SOL    HW128751   2.975   0.750  14.525  0.4789  1.0062  0.1284
 5706SOL    HW228752   2.983   0.805  14.662  1.6585  0.3853 -1.3422
 5707SOL     OW28753   0.987   4.510   0.278  0.3172  0.6301  0.2477
 5707SOL    HW128754   0.982   4.473   0.366 -0.9620 -1.1814 -0.5890
 5707SOL    HW228755   0.952   4.598   0.291  1.0453  0.9621 -0.0068
 5708SOL     OW28756   3.379   0.242   3.396 -0.1510  0.7589  0.3291
 5708SOL    HW128757   3.455   0.217   3.343 -0.9761  0.0884 -0.5571
 5708SOL    HW228758   3.415   0.295   3.467  0.5994  0.5540  0.1052
 5709SOL     OW28759   0.398   0.902   7.167  0.3458  0.7529  0.1625
 5709SOL    HW128760   0.352   0.819   7.163 -1.7895  2.1335 -3.6092
 5709SOL    HW228761   0.349   0.936   7.242  1.6545  1.3672  0.7454
 5710SOL     OW28762   0.998   0.227   5.679  0.2624  0.0325  0.2554
 5710SOL    HW128763   1.047   0.249   5.758 -2.6310  0.9337  1.7824
 5710SOL    HW228764   1.023   0.135   5.666 -1.3423 -0.2261 -0.9650
 5711SOL     OW28765   3.697   3.081   1.720  0.1272  0.2554 -0.0270
 5711SOL    HW128766   3.741   3.077   1.806  1.7998  2.2935 -0.7950
 5711SOL    HW228767   3.612   3.051   1.753 -1.2924  2.4863 -1.6863
 5712SOL     OW28768   1.486   0.017   4.347  0.2739  0.2263  0.5548
 5712SOL    HW128769   1.557   0.016   4.282 -1.1642  0.1883 -0.9994
 5712SOL    HW228770   1.441   4.675   4.322  0.4054  0.5190 -0.5994
 5713SOL     OW28771   3.456   3.756  10.042  0.5349 -0.0756  0.3578
 5713SOL    HW128772   3.416   3.688  10.096  1.6293  0.2065  1.5218
 5713SOL    HW228773   3.452   3.829  10.104  0.5093  1.0350 -0.9363
 5714SOL     OW28774   2.116   2.018  11.505  0.2187 -0.5169  0.1333
 5714SOL    HW128775   2.121   1.958  11.580 -0.5051 -1.2996 -0.4486
 5714SOL    HW228776   2.043   1.974  11.462  0.8716 -0.4265 -1.0489
 5715SOL     OW28777   0.269   4.427  15.225 -0.3122 -0.5242  0.8020
 5715SOL    HW128778   0.225   4.439  15.309 -2.7729  0.1487 -0.5710
 5715SOL    HW228779   0.331   4.500  15.226 -0.9326  0.0472 -2.1087
 5716SOL     OW28780   0.328   3.465   7.624 -0.0273 -0.2398 -0.0541
 5716SOL    HW128781   0.331   3.447   7.717 -1.8644 -0.7830 -0.1028
 5716SOL    HW228782   0.332   3.561   7.617  0.0571 -0.1492  1.3223
 5717SOL     OW28783   0.489   0.337   0.875 -0.3581  0.6741 -0.1006
 5717SOL    HW128784   0.405   0.327   0.830 -1.2360  3.4288  0.9617
 5717SOL    HW228785   0.466   0.406   0.937  0.8943 -1.3450  2.6181
 5718SOL     OW28786   1.923   3.160   4.603 -0.2211 -0.0707  0.4254
 5718SOL    HW128787   1.887   3.171   4.515 -0.0459 -0.3187  0.3231
 5718SOL    HW228788   1.865   3.098   4.647 -0.2911  0.2586  0.7965
 5719SOL     OW28789   4.317   2.664   7.708  0.3728 -1.0540 -0.6915
 5719SOL    HW128790   4.286   2.663   7.618  0.1750  0.5526 -0.6479
 5719SOL    HW228791   4.332   2.571   7.724 -2.0638 -1.4148 -0.5436
 5720SOL     OW28792   0.145   3.848  12.230  0.2162 -0.0888  0.2392
 5720SOL    HW128793   0.228   3.809  12.259 -0.6555 -0.3702  2.3166
 5720SOL    HW228794   0.167   3.899  12.152 -1.6914  0.0706 -0.1941
 5721SOL     OW28795   3.066   0.589  13.432  0.1916  0.0531 -0.1280
 5721SOL    HW128796   3.107   0.503  13.422  0.7685  0.1020  1.8566
 5721SOL    HW228797   2.992   0.575  13.372  1.6351 -0.0309 -1.8898
 5722SOL     OW28798   0.039   0.188  15.775  0.0733  0.2702 -0.5144
 5722SOL    HW128799   0.042   0.258  15.840 -0.0387  0.3804 -0.6270
 5722SOL    HW228800   0.099   0.236  15.717  1.4567  0.1615  0.8350
 5723SOL     OW28801   2.316   1.649  14.689 -0.5716 -0.5094  0.2726
 5723SOL    HW128802   2.274   1.588  14.629 -3.4179  2.5347 -0.8863
 5723SOL    HW228803   2.341   1.586  14.757  0.5033  0.3892  0.7144
 5724SOL     OW28804   4.275   2.468  10.158 -0.6214 -0.5553 -0.0228
 5724SOL    HW128805   4.279   2.469  10.062  0.4080 -0.2054  0.0279
 5724SOL    HW228806   4.196   2.521  10.171 -0.9658 -0.8041 -1.0904
 5725SOL     OW28807   2.005   1.676   2.035  0.3592  0.5740  0.3502
 5725SOL    HW128808   2.003   1.582   2.052  2.4408  0.2826 -1.0534
 5725SOL    HW228809   2.089   1.695   1.993 -0.5294  3.5171 -0.1089
 5726SOL     OW28810   2.263   0.226   6.762  0.4741  0.0116 -0.0800
 5726SOL    HW128811   2.191   0.209   6.702 -0.2585  0.3504  0.6933
 5726SOL    HW228812   2.325   0.259   6.697  1.0870 -0.5713  0.2092
 5727SOL     OW28813   2.014   2.803   0.486 -0.4883 -0.1657  0.3346
 5727SOL    HW128814   1.953   2.872   0.511 -0.9922 -0.1559 -0.9363
 5727SOL    HW228815   2.084   2.850   0.440 -1.9947  1.6387 -0.0948
 5728SOL     OW28816   2.230   4.020   6.527  0.3077 -0.5195  0.2129
 5728SOL    HW128817   2.274   4.103   6.544  1.2038 -1.0098  0.2565
 5728SOL    HW228818   2.178   4.018   6.607  0.3535  0.0052  0.2554
 5729SOL     OW28819   3.907   2.780   9.361 -0.3789 -0.5205 -0.4320
 5729SOL    HW128820   3.818   2.814   9.349  0.3877  2.4490  2.4339
 5729SOL    HW228821   3.939   2.868   9.379 -0.6390 -0.6611  0.6853
 5730SOL     OW28822   3.217   2.377   7.611  0.2287  0.1376 -0.7010
 5730SOL    HW128823   3.168   2.375   7.693 -2.3095  1.6349 -2.1968
 5730SOL    HW228824   3.304   2.399   7.645 -0.2329 -1.7952  1.7488
 5731SOL     OW28825   0.606   1.123   8.915 -0.4959  0.0354  0.2879
 5731SOL    HW128826   0.683   1.067   8.911  0.4084  1.6252 -4.1833
 5731SOL    HW228827   0.544   1.065   8.960 -0.3293  0.2302  0.7670
 5732SOL     OW28828   1.580   3.554  15.741 -0.1338  0.0366 -0.1687
 5732SOL    HW128829   1.539   3.616  15.800 -1.5533 -1.1939  0.1371
 5732SOL    HW228830   1.622   3.609  15.675  0.2844 -1.7138 -1.3702
 5733SOL     OW28831   4.065   1.990   4.147 -0.2116  0.8938  0.0548
 5733SOL    HW128832   4.155   2.001   4.179  0.3667 -0.1523 -1.2031
 5733SOL    HW228833   4.017   2.000   4.229 -0.6365  2.7327 -0.4240
 5734SOL     OW28834   1.225   1.254   5.779  0.1588  0.2880 -0.1332
 5734SOL    HW128835   1.160   1.187   5.760  0.5145  0.0322 -0.4496
 5734SOL    HW228836   1.261   1.228   5.864 -1.9408  1.7250  1.1843
 5735SOL     OW28837   2.205   4.634   4.810 -0.1105 -0.0812 -0.1842
 5735SOL    HW128838   2.221   4.634   4.904  0.5289  0.9357 -0.2936
 5735SOL    HW228839   2.285   4.674   4.777 -0.8245  1.1296 -0.4511
 5736SOL     OW28840   2.428   3.473   6.215 -0.2861 -0.3755  0.4393
 5736SOL    HW128841   2.460   3.382   6.211  0.6481 -0.1315  2.7493
 5736SOL    HW228842   2.407   3.478   6.122  1.3388  0.6197  0.1242
 5737SOL     OW28843   3.493   1.768   2.348 -0.1169  0.1997  0.3918
 5737SOL    HW128844   3.581   1.761   2.310  0.2829 -0.8944  1.5131
 5737SOL    HW228845   3.508   1.740   2.438  0.2951 -2.1247 -0.3812
 5738SOL     OW28846   3.787   3.629   9.379 -0.4123  0.0192 -0.1001
 5738SOL    HW128847   3.733   3.680   9.319 -1.2018 -0.4984  0.1662
 5738SOL    HW228848   3.759   3.662   9.464 -0.5910 -0.9438  0.2176
 5739SOL     OW28849   3.308   0.625   5.218  0.1449  0.2236  0.1924
 5739SOL    HW128850   3.217   0.596   5.215  1.3161 -3.2732 -1.8070
 5739SOL    HW228851   3.309   0.704   5.165 -3.4357  0.4894  0.5271
 5740SOL     OW28852   1.722   0.453   4.607  0.9309  0.2079  0.2398
 5740SOL    HW128853   1.717   0.485   4.517  0.0490 -0.1805  0.1511
 5740SOL    HW228854   1.761   0.531   4.647 -0.8849  0.3146  1.7765
 5741SOL     OW28855   3.852   0.110   3.063  0.0295 -0.3036  0.5826
 5741SOL    HW128856   3.789   0.075   3.001  1.3806 -3.1190  0.8191
 5741SOL    HW228857   3.935   0.089   3.020 -1.9268 -4.0926 -1.2683
 5742SOL     OW28858   3.476   2.972   3.098  0.2899 -0.3693 -0.0492
 5742SOL    HW128859   3.393   2.926   3.082  0.5747 -1.1194  0.6086
 5742SOL    HW228860   3.513   2.892   3.060 -1.8911 -0.8680 -1.1340
 5743SOL     OW28861   2.692   0.581  17.443  0.2974 -0.0719  0.1854
 5743SOL    HW128862   2.596   0.580  17.437  0.2521 -0.1649  0.9208
 5743SOL    HW228863   2.722   0.498  17.406  1.0297  1.3393 -2.3658
 5744SOL     OW28864   0.688   4.309   2.525 -0.2470 -0.0710 -0.5409
 5744SOL    HW128865   0.664   4.232   2.578  0.1891  0.1404 -0.0412
 5744SOL    HW228866   0.762   4.346   2.573 -0.8571 -0.2101  0.5023
 5745SOL     OW28867   4.175   3.372   2.303 -0.2753 -0.7791 -0.2458
 5745SOL    HW128868   4.270   3.364   2.305 -0.1492  0.5276 -1.0159
 5745SOL    HW228869   4.152   3.310   2.372  0.1226 -2.0733 -1.2657
 5746SOL     OW28870   1.645   2.010  13.633 -0.5138  0.3437  0.0023
 5746SOL    HW128871   1.643   2.105  13.639  1.8352  0.4783 -1.2198
 5746SOL    HW228872   1.587   1.986  13.705  2.5031  0.3131  2.4181
 5747SOL     OW28873   3.486   3.054   6.175  0.1337  0.2353 -0.5444
 5747SOL    HW128874   3.511   3.103   6.096  0.0640 -0.3931 -0.9524
 5747SOL    HW228875   3.515   3.108   6.249  2.9019 -0.1264 -1.3939
 5748SOL     OW28876   3.836   3.037   9.432 -0.0504 -0.1599  0.2360
 5748SOL    HW128877   3.800   3.028   9.520  1.6020  0.2079  0.9437
 5748SOL    HW228878   3.818   3.127   9.406 -2.5146 -0.6698  0.1449
 5749SOL     OW28879   0.499   4.425   6.085 -0.3213  0.5319  0.7810
 5749SOL    HW128880   0.510   4.470   6.001  0.9855 -1.8672 -0.3250
 5749SOL    HW228881   0.481   4.499   6.143 -2.9146  0.8473 -0.4422
 5750SOL     OW28882   1.014   0.422   8.322 -0.0795  0.2515 -0.8749
 5750SOL    HW128883   0.921   0.434   8.304 -0.4330  0.5400  1.1510
 5750SOL    HW228884   1.030   0.332   8.294 -3.3082  0.0193 -1.9398
 5751SOL     OW28885   1.006   2.765   4.966 -0.4280  0.3401 -0.4292
 5751SOL    HW128886   1.050   2.760   5.051  0.9656  0.3686 -1.1571
 5751SOL    HW228887   0.925   2.812   4.987 -1.4658 -0.8011 -1.8812
 5752SOL     OW28888   1.223   1.420   5.087  0.3901  0.0506  0.0668
 5752SOL    HW128889   1.223   1.515   5.085  3.1780  0.0365 -0.2368
 5752SOL    HW228890   1.210   1.393   4.996  1.1874 -1.7309  0.4821
 5753SOL     OW28891   0.205   2.481  10.511  0.0183  0.0636 -0.1222
 5753SOL    HW128892   0.225   2.518  10.597 -0.5386 -0.3906  0.1994
 5753SOL    HW228893   0.110   2.479  10.503 -0.0826 -0.2825  1.1380
 5754SOL     OW28894   3.768   3.322   9.359 -0.8621 -0.1637  0.5690
 5754SOL    HW128895   3.711   3.383   9.311  1.6105  0.9759 -0.9315
 5754SOL    HW228896   3.836   3.384   9.387 -1.3891  0.8062 -0.2594
 5755SOL     OW28897   0.668   3.823   8.292  0.6432  0.3088  0.5763
 5755SOL    HW128898   0.635   3.733   8.294  0.6649  0.3572  3.3530
 5755SOL    HW228899   0.753   3.800   8.254  1.0100 -1.0041  2.1988
 5756SOL     OW28900   1.008   3.932   9.656  0.0922  0.0027  0.1880
 5756SOL    HW128901   1.087   3.929   9.601  0.2813 -2.0067  0.5857
 5756SOL    HW228902   0.965   3.856   9.618 -0.7338  0.4341  0.2587
 5757SOL     OW28903   4.425   2.897   7.770 -0.4576  0.0681 -0.3503
 5757SOL    HW128904   4.389   2.809   7.760 -0.8095  0.5009 -3.0017
 5757SOL    HW228905   4.353   2.959   7.779  0.0256  0.6123 -0.2339
 5758SOL     OW28906   2.364   2.188  17.567 -0.2465  0.2129 -0.5945
 5758SOL    HW128907   2.325   2.127  17.629 -2.4635 -0.9212 -3.1100
 5758SOL    HW228908   2.292   2.241  17.532 -0.8093 -0.4612 -0.4554
 5759SOL     OW28909   2.207   2.307   8.304 -0.6606  0.7434  0.6102
 5759SOL    HW128910   2.143   2.371   8.335 -0.3258 -0.4797  3.7764
 5759SOL    HW228911   2.272   2.367   8.268 -1.8605  1.1057 -0.9810
 5760SOL     OW28912   2.726   1.654   4.312  0.0923  0.3102  0.5820
 5760SOL    HW128913   2.787   1.582   4.296 -0.2264  0.1582  0.0795
 5760SOL    HW228914   2.660   1.636   4.245 -0.4071 -0.6334  1.3276
 5761SOL     OW28915   0.264   2.527   6.673  0.4162  0.0364  0.2881
 5761SOL    HW128916   0.286   2.458   6.736  0.0955 -0.3367 -0.0065
 5761SOL    HW228917   0.181   2.557   6.710  0.2523  1.7424 -1.4821
 5762SOL     OW28918   1.992   1.090   7.227 -0.4045  0.1453 -0.1524
 5762SOL    HW128919   2.023   1.173   7.189  0.3981  0.4083  1.0664
 5762SOL    HW228920   1.901   1.086   7.198  0.4855 -2.6163 -2.5080
 5763SOL     OW28921   3.893   2.064   3.955 -0.2932  0.1954 -0.3299
 5763SOL    HW128922   3.951   2.052   4.030  0.8121 -0.3180 -1.2608
 5763SOL    HW228923   3.839   1.988   3.973  0.0031 -0.4859 -2.3259
 5764SOL     OW28924   3.465   3.237   7.795 -0.2122  0.2170  0.2254
 5764SOL    HW128925   3.495   3.202   7.711 -1.2978  1.1939 -0.5682
 5764SOL    HW228926   3.408   3.311   7.771 -0.4319 -0.8048 -2.3921
 5765SOL     OW28927   1.097   0.779   1.542  0.4078 -0.1869  0.4480
 5765SOL    HW128928   1.025   0.836   1.569  0.1692 -0.6611  0.8154
 5765SOL    HW228929   1.155   0.851   1.516 -1.2290  1.6774  1.8781
 5766SOL     OW28930   1.554   1.121   3.745  0.2808  0.2826  0.4964
 5766SOL    HW128931   1.493   1.194   3.751 -0.1956 -0.0758  0.0229
 5766SOL    HW228932   1.587   1.121   3.655  0.8971  0.9781  0.7303
 5767SOL     OW28933   1.898   4.049   2.319 -0.4768 -0.1864  0.1918
 5767SOL    HW128934   1.978   4.101   2.308 -0.4083 -0.5380 -0.9577
 5767SOL    HW228935   1.869   4.046   2.228 -2.1236 -2.8241  0.8012
 5768SOL     OW28936   1.983   0.888   8.207 -0.0157  0.9815 -0.5032
 5768SOL    HW128937   1.998   0.863   8.116 -0.2481 -2.3724  0.3696
 5768SOL    HW228938   1.895   0.921   8.190 -0.8786 -1.1164 -0.2421
 5769SOL     OW28939   4.359   3.234   0.125  0.0789 -0.0594 -0.0950
 5769SOL    HW128940   4.372   3.292   0.200  0.8457 -0.5278  0.1327
 5769SOL    HW228941   4.448   3.201   0.110  0.5237  1.1775 -0.2126
 5770SOL     OW28942   0.204   4.248   4.481  0.2836 -0.0278  0.5253
 5770SOL    HW128943   0.145   4.222   4.409  1.6364  0.7182 -0.8384
 5770SOL    HW228944   0.154   4.212   4.555  0.1800 -0.0376  0.4517
 5771SOL     OW28945   4.602   2.794   6.125  0.2136 -0.3495  0.5263
 5771SOL    HW128946   4.654   2.732   6.074  0.5958  1.2345 -0.9909
 5771SOL    HW228947   4.590   2.872   6.072 -2.2596 -1.2888 -0.2981
 5772SOL     OW28948   1.195   1.446   4.810 -0.0902  0.4769 -0.1848
 5772SOL    HW128949   1.224   1.534   4.835 -1.1853  0.8561 -0.2809
 5772SOL    HW228950   1.108   1.472   4.781 -0.8797  0.6759  2.3466
 5773SOL     OW28951   4.038   0.938   4.394 -0.1107 -0.1930  0.0310
 5773SOL    HW128952   3.993   0.905   4.316 -0.5879 -1.6939  0.9395
 5773SOL    HW228953   4.017   1.031   4.400 -1.2868 -0.5682  1.7985
 5774SOL     OW28954   0.050   4.248   0.367  0.5726 -0.3048  0.0583
 5774SOL    HW128955   0.083   4.250   0.457  0.1417  2.2847  0.1597
 5774SOL    HW228956   4.697   4.272   0.380  0.6181 -1.2843  2.1045
 5775SOL     OW28957   2.552   0.193   0.981 -0.4558 -0.6894  0.1083
 5775SOL    HW128958   2.601   0.231   0.909 -0.3173 -1.3419 -0.1407
 5775SOL    HW228959   2.610   0.209   1.056  0.2962  1.5854 -0.9698
 5776SOL     OW28960   3.596   3.045  12.077 -0.1223 -0.2280  0.2602
 5776SOL    HW128961   3.687   3.018  12.090  0.1001  0.7476  0.7075
 5776SOL    HW228962   3.600   3.138  12.097  0.0995 -0.3327  0.6986
 5777SOL     OW28963   3.152   3.064  13.133  0.3535  0.0368 -0.1963
 5777SOL    HW128964   3.166   3.089  13.224 -2.7584 -0.2875  0.3559
 5777SOL    HW228965   3.127   2.974  13.152 -0.1565  0.2942  0.3408
 5778SOL     OW28966   1.440   1.532   6.963  0.5202 -0.1866  0.1496
 5778SOL    HW128967   1.435   1.613   6.912 -2.5734  0.0434  0.8152
 5778SOL    HW228968   1.516   1.486   6.927 -0.9919 -1.7013 -1.0636
 5779SOL     OW28969   2.056   2.614   0.675 -0.4099 -0.0404 -0.2458
 5779SOL    HW128970   2.136   2.567   0.650  1.2254  2.0696  0.9383
 5779SOL    HW228971   2.069   2.686   0.613  0.0099 -0.0529 -0.1738
 5780SOL     OW28972   4.520   3.586   6.806 -0.4213 -0.3058 -0.0139
 5780SOL    HW128973   4.469   3.621   6.880  1.4888  1.3527  0.4963
 5780SOL    HW228974   4.469   3.506   6.791  1.7364 -1.1237 -2.8990
 5781SOL     OW28975   3.421   0.429   0.060  0.3159  0.1767  0.3005
 5781SOL    HW128976   3.342   0.482   0.055  0.6545  0.4952 -1.6199
 5781SOL    HW228977   3.385   0.352   0.017 -2.3644  1.8116 -0.3852
 5782SOL     OW28978   0.414   1.590   6.063  0.0151 -0.3056 -0.3884
 5782SOL    HW128979   0.488   1.574   6.005  0.6503  1.1047  0.0376
 5782SOL    HW228980   0.405   1.685   6.057 -2.0375 -0.3244  2.2878
 5783SOL     OW28981   4.526   2.989   4.614  0.4505 -0.1910  0.0475
 5783SOL    HW128982   4.432   2.971   4.611  0.1583  1.8267 -3.0337
 5783SOL    HW228983   4.564   2.910   4.574 -0.7607 -0.7310 -0.0340
 5784SOL     OW28984   4.236   0.559   4.958 -0.7744 -0.2624 -1.1179
 5784SOL    HW128985   4.193   0.570   5.042  1.1432 -1.0562 -0.0260
 5784SOL    HW228986   4.244   0.645   4.916 -2.1364  1.2958  1.8083
 5785SOL     OW28987   0.004   1.647   2.194 -0.1700  0.2250  0.0413
 5785SOL    HW128988   0.051   1.638   2.276  1.7010 -0.6042 -1.1133
 5785SOL    HW228989   4.702   1.560   2.184  2.5486 -1.2605  2.0518
 5786SOL     OW28990   0.445   3.103   0.739  0.1503  0.7098 -0.0903
 5786SOL    HW128991   0.477   3.025   0.695  0.3999  0.4925  0.4826
 5786SOL    HW228992   0.488   3.097   0.824 -3.2287  0.8976  1.6240
 5787SOL     OW28993   0.844   4.032   3.279  0.3548  0.0319 -0.8922
 5787SOL    HW128994   0.779   4.101   3.267 -1.1584 -1.1079  0.6970
 5787SOL    HW228995   0.824   3.980   3.201  1.9057  1.0355 -1.9528
 5788SOL     OW28996   4.604   3.671   8.237  0.3019  0.0098 -0.2127
 5788SOL    HW128997   4.673   3.630   8.288 -0.4747  0.7726  1.4636
 5788SOL    HW228998   4.534   3.606   8.222  0.4471  0.2074 -1.7982
 5789SOL     OW28999   0.841   1.057   4.751 -0.1218  0.1560  0.2674
 5789SOL    HW129000   0.767   1.103   4.790 -1.7815 -0.4700 -2.1853
 5789SOL    HW229001   0.891   1.132   4.718 -1.9647  0.8608 -0.8810
 5790SOL     OW29002   2.730   1.413   8.381 -0.5520 -0.0229 -0.1940
 5790SOL    HW129003   2.699   1.366   8.304  0.2015 -0.3396 -0.3022
 5790SOL    HW229004   2.686   1.360   8.447  0.8777  1.1186  1.6931
 5791SOL     OW29005   4.408   4.322   8.237 -0.2397 -0.0346  0.2930
 5791SOL    HW129006   4.484   4.277   8.201 -1.5200 -0.9704 -1.2296
 5791SOL    HW229007   4.438   4.412   8.248  1.9338 -0.7441  0.2399
 5792SOL     OW29008   0.545   4.673   2.112  0.3628  0.2959  0.3204
 5792SOL    HW129009   0.487   4.704   2.181 -0.7791  0.6523 -0.7956
 5792SOL    HW229010   0.576   0.015   2.070 -1.1173  0.2213 -0.9021
 5793SOL     OW29011   2.395   4.724   2.395 -0.8425 -0.2194  0.3715
 5793SOL    HW129012   2.406   4.654   2.331 -3.1905 -2.0077  1.8976
 5793SOL    HW229013   2.375   4.673   2.474 -1.4102  0.5948  0.7592
 5794SOL     OW29014   1.855   3.671  15.647 -0.6292 -0.1080 -0.0440
 5794SOL    HW129015   1.859   3.727  15.724 -1.8744 -0.2152  0.0977
 5794SOL    HW229016   1.923   3.606  15.665  0.8283  0.6074 -3.0574
 5795SOL     OW29017   1.894   3.549   2.371  0.2815  0.1106 -0.3017
 5795SOL    HW129018   1.860   3.534   2.460  0.5265 -1.0898 -0.4023
 5795SOL    HW229019   1.847   3.629   2.347  1.6177  0.0772 -2.9674
 5796SOL     OW29020   3.641   2.047  13.808 -0.1866  0.6003 -0.5385
 5796SOL    HW129021   3.569   2.025  13.750  0.1918 -0.4442 -0.6224
 5796SOL    HW229022   3.696   1.968  13.813  1.0164  1.4455 -0.2691
 5797SOL     OW29023   1.986   1.325  11.732  0.3259  0.5035 -0.6940
 5797SOL    HW129024   2.050   1.294  11.796  0.3902 -0.7073 -1.3423
 5797SOL    HW229025   1.997   1.418  11.750 -1.6678  0.3991  1.0659
 5798SOL     OW29026   4.629   3.112   3.522 -0.0429  0.6195 -0.6522
 5798SOL    HW129027   4.638   3.200   3.557  0.4466 -0.2255  1.3710
 5798SOL    HW229028   4.722   3.103   3.500  0.0406 -0.1400 -0.0229
 5799SOL     OW29029   1.626   0.094  15.955  0.1796 -0.2344  0.8200
 5799SOL    HW129030   1.600   0.169  15.902 -0.1195 -1.5800 -0.9217
 5799SOL    HW229031   1.556   0.103  16.021  2.3071 -0.4729  3.1287
 5800SOL     OW29032   4.628   0.114   2.520 -0.0749 -0.5424  0.0754
 5800SOL    HW129033   4.716   0.092   2.551 -0.4674 -0.9637  0.9036
 5800SOL    HW229034   4.583   0.114   2.604 -1.3457 -1.6581 -0.6018
 5801SOL     OW29035   3.590   2.188   9.026 -0.5749  0.0684  0.3415
 5801SOL    HW129036   3.664   2.205   9.084  0.2105 -2.5597  0.1176
 5801SOL    HW229037   3.610   2.246   8.953  1.0761 -2.7415 -1.4331
 5802SOL     OW29038   2.103   2.928  10.100 -0.6216 -0.0065  0.0865
 5802SOL    HW129039   2.077   2.973  10.019  1.0103  1.4727  0.3773
 5802SOL    HW229040   2.150   2.848  10.076  1.3972  0.6020  1.9840
 5803SOL     OW29041   3.893   0.968   9.359  0.2212 -0.3004  0.3770
 5803SOL    HW129042   3.923   1.003   9.443 -2.8800  1.3984  0.7538
 5803SOL    HW229043   3.903   1.043   9.300 -0.5028 -1.7238 -1.5750
 5804SOL     OW29044   4.028   1.713   8.063 -0.2328 -0.0541  0.1033
 5804SOL    HW129045   4.066   1.800   8.050 -0.2604  0.0719  0.8433
 5804SOL    HW229046   3.936   1.730   8.082 -0.5466 -0.2449 -1.2914
 5805SOL     OW29047   3.621   1.708   3.106  0.1443  0.0710  0.0023
 5805SOL    HW129048   3.707   1.737   3.134  0.2739 -1.7079  1.4639
 5805SOL    HW229049   3.589   1.796   3.088  0.1775  0.2263  0.7122
 5806SOL     OW29050   1.071   1.781  16.495  0.2200 -0.1837  0.1873
 5806SOL    HW129051   1.017   1.854  16.464  0.3022 -0.3542 -0.3515
 5806SOL    HW229052   1.157   1.821  16.511  0.9860 -0.9437 -2.1291
 5807SOL     OW29053   3.193   2.998   4.408  0.3298 -0.0813  0.1481
 5807SOL    HW129054   3.222   3.087   4.427 -2.1367  0.6326  0.6067
 5807SOL    HW229055   3.270   2.944   4.426 -0.2219 -1.0440 -0.3683
 5808SOL     OW29056   2.424   1.213  16.884  0.5912 -0.4246  0.5384
 5808SOL    HW129057   2.510   1.231  16.921  1.3661  1.2548 -2.0646
 5808SOL    HW229058   2.392   1.154  16.952 -2.5420  2.1682  1.3193
 5809SOL     OW29059   3.752   0.329   6.887  0.7416  0.6088  0.2379
 5809SOL    HW129060   3.824   0.393   6.883  1.9412 -0.9706 -3.1380
 5809SOL    HW229061   3.684   0.360   6.827  1.5517 -0.3971 -1.1768
 5810SOL     OW29062   3.965   1.196   3.823 -0.2054  0.1239  0.2653
 5810SOL    HW129063   3.870   1.204   3.829 -0.2656 -0.1309 -0.3464
 5810SOL    HW229064   3.990   1.261   3.889 -1.3296  1.1611 -0.3382
 5811SOL     OW29065   1.574   0.969  10.539 -0.0167 -0.0283  0.0000
 5811SOL    HW129066   1.540   1.056  10.516  1.5559  0.2008 -1.4039
 5811SOL    HW229067   1.536   0.920  10.466  1.9737  0.8194 -1.5753
 5812SOL     OW29068   3.985   3.206   3.342 -0.3017 -0.1582  0.4038
 5812SOL    HW129069   3.913   3.168   3.291 -1.0819  0.0312  1.3542
 5812SOL    HW229070   3.968   3.300   3.335  0.0099 -0.0127  1.6448
 5813SOL     OW29071   2.275   3.081  12.988 -1.0073 -0.5693  0.1773
 5813SOL    HW129072   2.275   2.987  12.967 -1.9874 -0.8411  1.3715
 5813SOL    HW229073   2.364   3.090  13.021 -2.4890 -0.4367  4.0791
 5814SOL     OW29074   2.158   1.121  15.831 -0.3198 -0.4744 -0.1440
 5814SOL    HW129075   2.222   1.176  15.875  0.9719 -0.9003 -1.5058
 5814SOL    HW229076   2.078   1.171  15.846 -0.1597 -0.5816  1.0992
 5815SOL     OW29077   1.173   4.579   5.411  0.3974  1.1183 -0.0394
 5815SOL    HW129078   1.231   4.655   5.400 -0.1156  1.5606  0.3125
 5815SOL    HW229079   1.235   4.507   5.411  0.8254  1.4857 -0.0187
 5816SOL     OW29080   0.311   4.491  17.446  0.2038 -0.3339 -0.7949
 5816SOL    HW129081   0.323   4.493  17.541 -2.4596  1.6295 -0.4990
 5816SOL    HW229082   0.276   4.402  17.444 -1.4800  0.2883  1.3060
 5817SOL     OW29083   0.074   2.029   0.847 -0.4551  0.1565 -0.0838
 5817SOL    HW129084   0.162   2.062   0.864 -0.2846 -0.2761 -0.1290
 5817SOL    HW229085   0.054   2.001   0.937 -1.0723  1.2801  0.1346
 5818SOL     OW29086   4.683   4.436  10.021 -0.4974 -0.5372  0.2359
 5818SOL    HW129087   4.684   4.402  10.111 -1.0322 -1.8568 -0.2600
 5818SOL    HW229088   4.681   4.529  10.044  1.0683 -0.0862 -1.5068
 5819SOL     OW29089   3.150   4.486   6.548  0.4158  0.3277  0.1047
 5819SOL    HW129090   3.122   4.452   6.464  1.1062 -0.2452  0.1026
 5819SOL    HW229091   3.128   4.579   6.537 -2.2349 -0.4359 -0.7959
 5820SOL     OW29092   3.196   1.500   8.071  0.5952  0.2529 -0.6100
 5820SOL    HW129093   3.145   1.581   8.066  0.9341  0.5872  1.2671
 5820SOL    HW229094   3.275   1.524   8.119 -1.3882  0.2634  2.6431
 5821SOL     OW29095   0.747   1.258   3.494  0.5587  0.6280 -0.1996
 5821SOL    HW129096   0.740   1.190   3.562  0.9837  1.0176  0.2415
 5821SOL    HW229097   0.832   1.295   3.521  0.6517  0.0169  0.3423
 5822SOL     OW29098   1.348   2.408   1.029 -0.1051  0.5540 -0.1842
 5822SOL    HW129099   1.402   2.387   0.953 -1.3775 -1.9025 -0.3902
 5822SOL    HW229100   1.270   2.457   1.003  0.9848  2.2771 -0.2289
 5823SOL     OW29101   0.058   4.164   4.262  0.0839  0.6496  0.5586
 5823SOL    HW129102   4.718   4.205   4.225  0.1212 -0.1496 -0.3861
 5823SOL    HW229103   0.018   4.081   4.290  1.9258 -0.8764 -1.4175
 5824SOL     OW29104   1.666   2.861   6.616 -0.2100 -0.3582  0.1791
 5824SOL    HW129105   1.718   2.857   6.535 -0.6189  1.3918 -0.1720
 5824SOL    HW229106   1.587   2.903   6.583 -0.5083 -1.0605 -0.0092
 5825SOL     OW29107   1.553   4.542   3.828 -0.0216 -0.1631 -0.6348
 5825SOL    HW129108   1.461   4.531   3.851 -0.3339  1.6580 -1.0424
 5825SOL    HW229109   1.566   4.463   3.776 -0.4428 -0.6369 -0.0147
 5826SOL     OW29110   3.083   2.903   7.978  0.0326 -0.3149 -0.0833
 5826SOL    HW129111   3.031   2.906   8.058  0.0236  0.2427 -0.1105
 5826SOL    HW229112   3.135   2.983   7.986 -1.6336  0.9877 -2.2542
 5827SOL     OW29113   0.326   0.504   7.413 -0.4822  0.3742 -0.9360
 5827SOL    HW129114   0.269   0.542   7.480 -0.0947  0.5427 -0.7030
 5827SOL    HW229115   0.269   0.439   7.373 -0.0557 -0.2500 -0.5261
 5828SOL     OW29116   4.332   1.846  11.646 -0.0304  0.1500 -0.3707
 5828SOL    HW129117   4.289   1.802  11.573 -0.0190  0.5445 -0.6187
 5828SOL    HW229118   4.308   1.790  11.719 -1.8689  2.1380  0.5590
 5829SOL     OW29119   3.052   3.337   7.240  0.1363  0.8443 -0.2429
 5829SOL    HW129120   3.020   3.281   7.169 -1.5645 -1.3891  2.3134
 5829SOL    HW229121   3.109   3.393   7.187  0.1355  0.2581 -0.8705
 5830SOL     OW29122   3.166   3.584   2.507 -0.7860 -0.3644  0.0091
 5830SOL    HW129123   3.256   3.599   2.535 -1.0053 -1.2193  1.2062
 5830SOL    HW229124   3.174   3.493   2.479  0.8292 -0.3997  0.5801
 5831SOL     OW29125   2.583   4.262  11.115 -0.2071 -0.3705 -0.1148
 5831SOL    HW129126   2.620   4.261  11.203  0.0134  0.3286 -0.2036
 5831SOL    HW229127   2.604   4.177  11.075 -1.0149 -1.4882  1.8153
 5832SOL     OW29128   0.377   3.865   8.684  0.4630 -0.5175  0.2226
 5832SOL    HW129129   0.466   3.835   8.662  0.1818  0.4374 -2.2687
 5832SOL    HW229130   0.343   3.788   8.729  1.4664  0.2994  2.3905
 5833SOL     OW29131   4.505   0.405   8.154 -0.4648  0.2868 -1.0737
 5833SOL    HW129132   4.459   0.486   8.174 -2.4320 -1.0566 -0.1336
 5833SOL    HW229133   4.469   0.342   8.217  0.8860 -1.1939 -1.7704
 5834SOL     OW29134   1.972   4.539   4.688 -0.0971  0.2484 -0.4801
 5834SOL    HW129135   2.063   4.553   4.711 -1.4444  2.3190  3.5687
 5834SOL    HW229136   1.941   4.618   4.645  0.8349  0.6682 -0.3653
 5835SOL     OW29137   1.878   0.018  12.852 -0.5115  0.4319  0.7810
 5835SOL    HW129138   1.842   4.683  12.802  1.5989  1.7522 -2.6962
 5835SOL    HW229139   1.844   0.005  12.940  1.2753 -0.2997  1.3600
 5836SOL     OW29140   0.192   2.813   0.163  0.1957  0.2860 -0.4153
 5836SOL    HW129141   0.186   2.888   0.222  0.3014  0.5795 -0.7741
 5836SOL    HW229142   0.160   2.738   0.213  1.5941 -0.1607 -0.1977
 5837SOL     OW29143   2.185   2.856  16.702  0.0901  0.8238  0.8778
 5837SOL    HW129144   2.090   2.847  16.689 -0.1432  1.0059  2.5225
 5837SOL    HW229145   2.194   2.951  16.699  0.5548  0.7080 -1.8585
 5838SOL     OW29146   3.587   4.054   6.537 -0.3076 -0.1674 -0.7955
 5838SOL    HW129147   3.656   4.010   6.587 -1.2644  0.1774  0.7955
 5838SOL    HW229148   3.611   4.147   6.541  0.8461 -0.4708 -0.3892
 5839SOL     OW29149   4.312   1.513   1.613  0.0756 -0.0963 -0.4418
 5839SOL    HW129150   4.290   1.596   1.654 -0.6176 -0.3214 -0.3550
 5839SOL    HW229151   4.327   1.548   1.525 -1.1728  2.2420  0.2891
 5840SOL     OW29152   1.198   2.837   3.940 -0.1405  0.5405 -0.0481
 5840SOL    HW129153   1.193   2.897   4.015 -1.6152 -1.0640  1.1255
 5840SOL    HW229154   1.176   2.763   3.995 -1.1845  0.5761 -0.4200
 5841SOL     OW29155   3.990   3.613  15.167  0.0416  0.3652  0.5491
 5841SOL    HW129156   3.985   3.540  15.229  0.0895 -0.0366  0.0773
 5841SOL    HW229157   3.914   3.609  15.110 -0.1039  0.1385  0.7603
 5842SOL     OW29158   4.588   1.244   1.748  0.4964  0.7590 -0.6170
 5842SOL    HW129159   4.655   1.175   1.755 -0.1086  0.2043 -0.2716
 5842SOL    HW229160   4.567   1.242   1.655 -2.1144 -0.1260  0.0039
 5843SOL     OW29161   3.489   1.804   2.801 -0.0516 -0.1692  0.0015
 5843SOL    HW129162   3.584   1.802   2.797 -0.0025  0.2418  0.8786
 5843SOL    HW229163   3.464   1.891   2.833 -0.6482  0.1791 -1.4258
 5844SOL     OW29164   1.336   0.833  13.006 -0.2136  0.2942  0.0038
 5844SOL    HW129165   1.429   0.841  12.982  0.0782 -1.3604  0.5560
 5844SOL    HW229166   1.303   0.911  12.962  4.4243  1.2287 -1.8852
 5845SOL     OW29167   3.769   1.201   1.209 -0.2626 -0.2440  0.2846
 5845SOL    HW129168   3.821   1.251   1.272 -1.2794  1.4721 -0.2315
 5845SOL    HW229169   3.697   1.183   1.269  0.8315 -3.3772  0.6348
 5846SOL     OW29170   0.930   2.452   1.269  0.2041 -0.6975  0.5505
 5846SOL    HW129171   0.926   2.481   1.360 -1.4328 -2.6476  1.1161
 5846SOL    HW229172   0.888   2.366   1.268 -1.7942  0.2988 -0.3561
 5847SOL     OW29173   3.406   2.633   3.369  0.2456  0.0715 -0.3776
 5847SOL    HW129174   3.422   2.659   3.278  0.8020 -3.4374 -1.2628
 5847SOL    HW229175   3.342   2.701   3.391  0.6257 -0.1561  1.4629
 5848SOL     OW29176   4.691   3.657   3.386  0.2082  0.3877  0.0743
 5848SOL    HW129177   4.723   3.687   3.471  0.3710  1.1690 -0.2706
 5848SOL    HW229178   4.622   3.593   3.405 -0.5908  1.7334  1.6612
 5849SOL     OW29179   3.147   3.646   5.434 -0.3433 -0.0608 -0.3416
 5849SOL    HW129180   3.211   3.632   5.364 -0.5377  0.2170 -0.5698
 5849SOL    HW229181   3.200   3.695   5.497 -2.7839  0.4393  1.3225
 5850SOL     OW29182   4.192   2.678   0.314  0.1940  0.2792  0.0349
 5850SOL    HW129183   4.265   2.715   0.264  0.1344 -0.3260 -0.4891
 5850SOL    HW229184   4.146   2.761   0.330 -1.3707 -0.3956 -0.9915
 5851SOL     OW29185   2.319   3.563  16.968 -0.1644 -0.4873  0.1894
 5851SOL    HW129186   2.356   3.595  17.050 -1.3153  0.7928  0.1990
 5851SOL    HW229187   2.235   3.532  17.004 -0.7306  1.0319  0.1494
 5852SOL     OW29188   3.140   0.876   5.341  0.2106  0.4475 -0.3098
 5852SOL    HW129189   3.156   0.824   5.263 -0.5345  1.3399 -1.0600
 5852SOL    HW229190   3.209   0.942   5.331  0.9013  0.0586  1.9757
 5853SOL     OW29191   3.268   2.027   4.495  0.0154 -0.0332  0.3093
 5853SOL    HW129192   3.282   1.960   4.562  0.5649 -0.0077  0.2191
 5853SOL    HW229193   3.253   2.104   4.550 -3.1273 -0.9172  0.6864
 5854SOL     OW29194   3.606   4.324   6.602  0.3517  0.2290 -0.1909
 5854SOL    HW129195   3.544   4.359   6.538  1.5704  0.2716 -1.3519
 5854SOL    HW229196   3.600   4.393   6.668  1.4728 -0.6442  0.8182
 5855SOL     OW29197   1.277   0.081   5.454  0.1685  0.3106  0.4171
 5855SOL    HW129198   1.256   0.168   5.489 -0.2796 -0.4736  2.0837
 5855SOL    HW229199   1.354   0.107   5.403 -0.1842 -0.0087 -0.2758
 5856SOL     OW29200   2.555   3.918   8.590 -0.4788 -0.1521  0.1731
 5856SOL    HW129201   2.553   3.835   8.543 -1.1469 -0.7899  1.3259
 5856SOL    HW229202   2.647   3.921   8.616 -0.5057  0.7775  0.1746
 5857SOL     OW29203   3.389   0.242   1.753 -0.5935 -0.3346  0.0381
 5857SOL    HW129204   3.427   0.300   1.818 -1.4918 -0.3456  0.5728
 5857SOL    HW229205   3.330   0.306   1.713 -2.4559 -1.9059  0.2834
 5858SOL     OW29206   1.257   3.729   0.907 -0.7591 -0.4951 -0.5175
 5858SOL    HW129207   1.338   3.757   0.949  1.3505 -2.9425 -2.9105
 5858SOL    HW229208   1.284   3.721   0.815 -0.8909  3.9781 -0.9212
 5859SOL     OW29209   3.594   4.295   4.421 -0.1877  0.2015 -0.4311
 5859SOL    HW129210   3.627   4.366   4.366 -1.5988  0.7851 -0.5275
 5859SOL    HW229211   3.508   4.335   4.427 -0.9226 -1.5047  0.4839
 5860SOL     OW29212   1.051   1.904   1.060 -0.1149  0.3279 -0.3006
 5860SOL    HW129213   1.087   1.851   0.988 -0.3863  0.1314 -0.2943
 5860SOL    HW229214   1.119   1.888   1.125 -0.0890  1.9758  0.0720
 5861SOL     OW29215   4.531   3.139   6.915 -0.4409  0.1604 -0.5612
 5861SOL    HW129216   4.462   3.123   6.851 -0.3788 -1.8481 -0.1080
 5861SOL    HW229217   4.478   3.141   6.995  0.4589 -0.2168  0.0510
 5862SOL     OW29218   2.371   0.425   2.011 -0.5035 -0.1252 -0.4839
 5862SOL    HW129219   2.366   0.517   2.035 -0.6557 -0.7289  1.7786
 5862SOL    HW229220   2.463   0.400   2.025 -0.7586 -0.9280 -0.2361
 5863SOL     OW29221   0.705   3.576   9.076 -0.1221 -0.4518 -0.0756
 5863SOL    HW129222   0.702   3.492   9.122 -2.4493 -0.1091  0.3730
 5863SOL    HW229223   0.613   3.599   9.084 -0.0175 -0.1861  0.3519
 5864SOL     OW29224   1.541   0.895   7.422  0.1616  0.0203 -0.5861
 5864SOL    HW129225   1.577   0.875   7.335  1.1144 -0.8461  0.0117
 5864SOL    HW229226   1.463   0.945   7.398  1.0834  2.1633  0.8449
 5865SOL     OW29227   0.899   2.267   4.995 -0.0257 -0.2044  0.5053
 5865SOL    HW129228   0.978   2.215   4.983  0.9359  1.0912  1.2230
 5865SOL    HW229229   0.831   2.200   4.988 -1.7491  1.6306 -0.7994
 5866SOL     OW29230   0.305   2.884  12.810 -0.3789  0.3221 -0.3650
 5866SOL    HW129231   0.387   2.868  12.763 -0.7310  1.2509 -1.2902
 5866SOL    HW229232   0.246   2.825  12.763 -0.1800  1.8284 -2.4921
 5867SOL     OW29233   1.407   3.329   6.809  0.1691  0.2307 -0.0796
 5867SOL    HW129234   1.497   3.359   6.817  0.7233 -0.4201 -3.8507
 5867SOL    HW229235   1.365   3.410   6.782 -1.6276 -0.5313  0.4292
 5868SOL     OW29236   2.936   2.586   0.636 -0.1029  0.4885 -0.2526
 5868SOL    HW129237   2.928   2.504   0.684  0.8833  1.4253  1.4928
 5868SOL    HW229238   3.023   2.579   0.597  0.0955 -2.0097  0.6411
 5869SOL     OW29239   4.637   0.411  16.108 -0.1699 -0.2237 -0.7105
 5869SOL    HW129240   4.546   0.436  16.089 -0.2195 -0.3399 -0.6235
 5869SOL    HW229241   4.625   0.318  16.128 -1.8066  0.4930  1.7186
 5870SOL     OW29242   0.127   4.429   6.968  0.6110  0.0285 -0.6798
 5870SOL    HW129243   0.149   4.397   7.055  0.8430 -0.8425 -1.0646
 5870SOL    HW229244   0.071   4.361   6.932 -2.0581  2.5118 -1.2645
 5871SOL     OW29245   3.422   1.272   2.201  0.1922 -0.3555  0.1058
 5871SOL    HW129246   3.397   1.229   2.284 -1.1903  1.9864  0.8974
 5871SOL    HW229247   3.472   1.349   2.226  0.4521 -1.2298  2.3143
 5872SOL     OW29248   1.954   1.329   2.208  0.0421 -0.3079  0.3247
 5872SOL    HW129249   2.030   1.358   2.258  2.1441  1.5675 -3.9112
 5872SOL    HW229250   1.991   1.269   2.143  0.5065  0.3168  0.0156
 5873SOL     OW29251   4.621   1.675   1.187 -0.1394  0.1234 -0.4219
 5873SOL    HW129252   4.704   1.664   1.233 -0.1844  0.5223 -0.2472
 5873SOL    HW229253   4.629   1.605   1.121  1.9909  0.6288 -0.6934
 5874SOL     OW29254   0.300   2.030   6.765  0.4260  0.0884  0.0237
 5874SOL    HW129255   0.218   2.071   6.738 -0.4896 -2.5531 -1.1926
 5874SOL    HW229256   0.267   1.964   6.826 -0.0919  1.4549  1.2267
 5875SOL     OW29257   4.136   4.716   4.964 -0.2255  0.4469  0.1631
 5875SOL    HW129258   4.161   0.043   4.898  2.6320 -0.7247  0.0831
 5875SOL    HW229259   4.171   0.013   5.047 -1.0505  0.1886  0.6162
 5876SOL     OW29260   1.845   4.424   3.430  0.6933 -0.4539 -0.1300
 5876SOL    HW129261   1.891   4.507   3.444  1.0074 -0.4886 -0.9773
 5876SOL    HW229262   1.858   4.411   3.336 -0.7049  0.2060 -0.4309
 5877SOL     OW29263   2.672   2.308   2.320  0.0094 -0.7321 -0.2771
 5877SOL    HW129264   2.730   2.352   2.383 -1.0567 -0.0248  0.2088
 5877SOL    HW229265   2.584   2.323   2.354  0.4368  1.2624 -0.0163
 5878SOL     OW29266   4.265   0.545   7.169  0.1745  0.5800  0.2887
 5878SOL    HW129267   4.349   0.508   7.196  0.7152 -1.4390 -4.1713
 5878SOL    HW229268   4.229   0.459   7.147  2.2010 -0.3303  0.4643
 5879SOL     OW29269   0.614   2.205  15.186  0.3793  0.3430 -0.3094
 5879SOL    HW129270   0.554   2.250  15.127 -0.2469  0.8690  0.7299
 5879SOL    HW229271   0.686   2.268  15.180  1.0756 -0.4751 -0.3936
 5880SOL     OW29272   3.091   0.483   9.979  0.5371  0.2576 -0.4514
 5880SOL    HW129273   3.047   0.450   9.900  1.7324 -0.3485 -0.8698
 5880SOL    HW229274   3.093   0.578   9.966  3.5405  0.3729  0.7725
 5881SOL     OW29275   4.060   4.569   7.390  0.7612 -0.4481 -0.4822
 5881SOL    HW129276   3.973   4.538   7.415  0.8472 -0.3073 -0.0093
 5881SOL    HW229277   4.091   4.618   7.466  1.1297  2.0712 -2.2133
 5882SOL     OW29278   0.568   0.414  15.853  0.1502  0.6511  0.0560
 5882SOL    HW129279   0.629   0.340  15.851 -1.0100 -0.2824 -0.9167
 5882SOL    HW229280   0.486   0.375  15.883 -0.2353  0.9914 -0.5528
 5883SOL     OW29281   3.844   4.737   2.181  0.0981  0.1805  0.2828
 5883SOL    HW129282   3.855   0.087   2.217  3.6678 -0.1286 -0.0641
 5883SOL    HW229283   3.855   0.011   2.087  1.4330  0.9373  0.5471
 5884SOL     OW29284   1.480   4.474   5.021 -0.6945  0.2933 -0.1940
 5884SOL    HW129285   1.541   4.529   5.070  0.9652 -0.4738 -1.4111
 5884SOL    HW229286   1.463   4.421   5.099  2.2360  0.4613  0.5305
 5885SOL     OW29287   2.618   2.810  14.670  0.3488 -0.8440  0.8923
 5885SOL    HW129288   2.619   2.732  14.615 -2.7470 -0.2237 -0.0363
 5885SOL    HW229289   2.526   2.828  14.691  0.5021  2.0045 -0.8583
 5886SOL     OW29290   1.345   3.052   8.402  0.0526 -0.5507 -0.0152
 5886SOL    HW129291   1.385   3.127   8.447 -0.6020  0.3499 -0.9163
 5886SOL    HW229292   1.264   3.039   8.450 -0.3128 -2.2909 -1.1246
 5887SOL     OW29293   1.328   4.121  17.195  0.7829  0.3289 -0.3688
 5887SOL    HW129294   1.358   4.055  17.259  0.2554  1.1889  0.7639
 5887SOL    HW229295   1.338   4.203  17.243  1.4588  0.3180 -0.4898
 5888SOL     OW29296   1.227   2.431  17.481 -0.0774 -0.0467  0.2555
 5888SOL    HW129297   1.293   2.460  17.418 -0.6721 -0.7824 -0.7059
 5888SOL    HW229298   1.261   2.489  17.549  1.9080  0.4691 -1.1687
 5889SOL     OW29299   4.061   3.395   1.279  0.7063  0.4095 -0.1346
 5889SOL    HW129300   4.008   3.471   1.303 -1.6012 -0.2278 -3.1634
 5889SOL    HW229301   4.075   3.400   1.185  1.1514  0.0551 -0.0911
 5890SOL     OW29302   1.025   4.283   1.396 -0.1292  0.1367 -0.0006
 5890SOL    HW129303   0.973   4.226   1.454  0.0659 -0.3823 -0.3345
 5890SOL    HW229304   1.038   4.223   1.322 -0.4071 -2.1192  1.7499
 5891SOL     OW29305   4.378   2.270   0.558  0.7971 -0.4008  0.5002
 5891SOL    HW129306   4.332   2.270   0.474  1.9724 -0.4333 -0.1374
 5891SOL    HW229307   4.392   2.176   0.567  0.1577 -0.7536 -2.1824
 5892SOL     OW29308   4.172   0.030   0.528  0.2930 -0.1827  0.8184
 5892SOL    HW129309   4.197   4.677   0.545  0.6395  0.2074  2.4651
 5892SOL    HW229310   4.211   0.036   0.441  0.5611  0.2655  0.9689
 5893SOL     OW29311   3.033   3.242  15.246  0.3101 -0.5007  0.6869
 5893SOL    HW129312   3.053   3.317  15.190 -0.6768 -0.3858  0.4818
 5893SOL    HW229313   2.959   3.275  15.297 -1.2890 -0.3283 -1.6973
 5894SOL     OW29314   3.506   2.371   5.285 -0.6864  0.6294 -0.8633
 5894SOL    HW129315   3.589   2.394   5.325 -1.4247  2.1699 -0.2419
 5894SOL    HW229316   3.504   2.277   5.306  0.6610  1.2163  1.8132
 5895SOL     OW29317   0.630   3.724   4.303  0.2778 -0.1252 -0.4446
 5895SOL    HW129318   0.634   3.629   4.306  0.2130 -0.1078  0.0942
 5895SOL    HW229319   0.700   3.751   4.362 -0.4261  1.0971 -0.1569
 5896SOL     OW29320   1.838   1.839   9.329 -0.0146 -0.2689 -0.1531
 5896SOL    HW129321   1.913   1.894   9.349 -0.2637 -0.3226  0.9501
 5896SOL    HW229322   1.873   1.762   9.285  0.1476 -0.6502  0.6406
 5897SOL     OW29323   1.293   4.534   7.484  0.0935 -0.3970  0.6472
 5897SOL    HW129324   1.208   4.521   7.441 -0.7787  0.1708  2.1707
 5897SOL    HW229325   1.348   4.487   7.422 -2.4768 -0.7140 -1.4138
 5898SOL     OW29326   3.061   4.404   1.716  0.5808  0.5664  0.2401
 5898SOL    HW129327   2.989   4.393   1.779 -0.1273  0.7278 -0.5399
 5898SOL    HW229328   3.027   4.356   1.641  0.5193 -1.1990  1.4032
 5899SOL     OW29329   4.619   4.050   8.862 -0.0414  0.1743 -0.2830
 5899SOL    HW129330   4.641   4.095   8.780  0.0350 -1.2035 -1.0136
 5899SOL    HW229331   4.650   3.966   8.830 -0.8232 -0.2549  0.1004
 5900SOL     OW29332   1.086   4.313   7.600 -0.3976  0.5401  0.3172
 5900SOL    HW129333   1.147   4.242   7.578 -0.8276  0.2782 -0.0262
 5900SOL    HW229334   1.047   4.346   7.520 -0.6668 -0.8616 -0.1426
 5901SOL     OW29335   3.835   0.754   9.071  0.4481 -0.1543  0.4859
 5901SOL    HW129336   3.796   0.838   9.047  0.5242 -0.4534 -0.6705
 5901SOL    HW229337   3.833   0.719   8.982  0.6439  1.1857 -0.0375
 5902SOL     OW29338   3.530   0.585   7.078  0.7259 -0.3241 -0.0465
 5902SOL    HW129339   3.571   0.588   7.165 -0.7294 -0.4496  0.6339
 5902SOL    HW229340   3.444   0.548   7.099  0.1711  0.2493 -1.3830
 5903SOL     OW29341   3.295   2.020   6.079  0.5814  0.6547  0.2120
 5903SOL    HW129342   3.302   2.096   6.136 -1.0780  2.3495 -1.8289
 5903SOL    HW229343   3.242   2.062   6.012  0.7395 -0.1216 -0.4003
 5904SOL     OW29344   2.566   3.094   0.394  0.0102 -0.0746 -0.2144
 5904SOL    HW129345   2.529   3.132   0.473 -0.5708  0.1799 -0.6100
 5904SOL    HW229346   2.570   3.166   0.332 -3.2658 -0.9341 -1.4225
 5905SOL     OW29347   0.235   2.904   4.624  0.1781 -0.4354 -0.4387
 5905SOL    HW129348   0.206   2.816   4.647  2.0588 -0.7793  0.5969
 5905SOL    HW229349   0.317   2.905   4.673 -1.0301 -0.9093  1.5651
 5906SOL     OW29350   1.866   4.405   3.174  0.7748  0.0927 -0.0681
 5906SOL    HW129351   1.808   4.360   3.112 -1.8458  3.5995 -0.1846
 5906SOL    HW229352   1.925   4.447   3.112  0.4405 -0.7532 -0.9755
 5907SOL     OW29353   1.861   1.334   5.825  0.3096  0.2114 -0.0128
 5907SOL    HW129354   1.926   1.354   5.758  0.0680 -0.2042 -0.3742
 5907SOL    HW229355   1.796   1.395   5.791 -0.2905 -1.6168 -2.1689
 5908SOL     OW29356   0.048   1.619   8.934  0.4009  0.0581 -0.3702
 5908SOL    HW129357   0.093   1.694   8.895  0.3852 -0.1298 -0.7524
 5908SOL    HW229358   4.720   1.594   8.870  0.3798 -0.2541 -0.2265
 5909SOL     OW29359   2.427   2.849   6.621 -0.1423 -0.3514  0.0075
 5909SOL    HW129360   2.385   2.921   6.669 -3.1545 -1.2735 -1.2445
 5909SOL    HW229361   2.511   2.890   6.598  1.0635 -1.4218  2.4947
 5910SOL     OW29362   2.598   3.855  14.891 -0.1549 -0.2315  0.4706
 5910SOL    HW129363   2.541   3.882  14.819 -0.1149 -0.8724  0.1914
 5910SOL    HW229364   2.592   3.928  14.951 -0.3801 -2.2193  2.8664
 5911SOL     OW29365   3.490   0.451   6.841 -0.0596 -0.2786  0.4250
 5911SOL    HW129366   3.535   0.502   6.775 -0.9247 -0.6732 -0.4653
 5911SOL    HW229367   3.508   0.508   6.916  0.7590 -0.2477  0.1996
 5912SOL     OW29368   0.870   3.904   7.104  0.0144 -0.0275 -0.1357
 5912SOL    HW129369   0.954   3.877   7.067 -0.8697 -2.9102 -0.1206
 5912SOL    HW229370   0.820   3.924   7.025  0.1427 -1.6289 -0.6373
 5913SOL     OW29371   0.405   4.485   6.947 -0.2229  0.4174 -0.6177
 5913SOL    HW129372   0.322   4.472   6.899 -1.1238  1.9554  0.5455
 5913SOL    HW229373   0.446   4.398   6.942  0.7664  0.8243  0.6818
 5914SOL     OW29374   3.948   1.984   6.150  0.1996  0.0267 -0.2611
 5914SOL    HW129375   3.879   2.043   6.119 -2.2825 -1.9648  1.4878
 5914SOL    HW229376   4.007   2.039   6.202  1.5752 -2.1433  0.5054
 5915SOL     OW29377   3.724   1.298   4.173  0.3931  0.1515  0.3234
 5915SOL    HW129378   3.733   1.318   4.266 -2.6082 -1.1220  0.8932
 5915SOL    HW229379   3.653   1.355   4.143  0.3248  0.2489  0.6681
 5916SOL     OW29380   4.453   2.087   2.088 -0.4498 -0.2971 -0.7394
 5916SOL    HW129381   4.495   2.003   2.066  0.7104 -0.0670  0.6345
 5916SOL    HW229382   4.417   2.071   2.175 -2.3805 -1.9435 -1.8360
 5917SOL     OW29383   4.466   3.502   0.234 -0.0879 -0.0625  0.1186
 5917SOL    HW129384   4.487   3.477   0.323  0.5590 -0.8530 -0.2596
 5917SOL    HW229385   4.371   3.507   0.243 -0.1130  0.8445 -0.5951
 5918SOL     OW29386   4.393   1.736  16.257  0.3527  0.0443  0.5500
 5918SOL    HW129387   4.384   1.710  16.349 -0.0677 -0.1803  0.4439
 5918SOL    HW229388   4.336   1.671  16.215 -1.4382  2.1292 -0.1805
 5919SOL     OW29389   4.122   1.255   3.078  0.1668  0.0414 -0.3911
 5919SOL    HW129390   4.061   1.181   3.074 -1.1978  1.0817  0.8146
 5919SOL    HW229391   4.064   1.332   3.075 -0.8793 -0.6487  1.9120
 5920SOL     OW29392   0.969   4.720   9.622  0.1344  0.5644  0.4774
 5920SOL    HW129393   0.964   0.054   9.685  1.5147  0.8984  0.2046
 5920SOL    HW229394   0.905   4.655   9.651  0.4476  0.6614  1.4134
 5921SOL     OW29395   2.384   3.446  15.004 -0.2163 -0.3888  0.1366
 5921SOL    HW129396   2.350   3.508  15.069  2.3936  0.3861  0.7755
 5921SOL    HW229397   2.461   3.491  14.970  0.8739 -1.3220  1.3546
 5922SOL     OW29398   0.139   3.555   8.404 -0.5240 -0.1258 -0.3855
 5922SOL    HW129399   0.175   3.473   8.372 -0.5050 -0.5710  0.7608
 5922SOL    HW229400   0.221   3.587   8.440 -0.8113  1.3990 -1.0752
 5923SOL     OW29401   3.324   2.360   3.352  0.7479 -0.2421  0.1646
 5923SOL    HW129402   3.325   2.456   3.342 -0.7745  0.0052  2.4997
 5923SOL    HW229403   3.328   2.348   3.446  0.2314  2.5784  0.5427
 5924SOL     OW29404   1.556   3.438   8.719  0.0542  0.1781 -0.1845
 5924SOL    HW129405   1.492   3.410   8.785 -0.6019  2.8387  0.2739
 5924SOL    HW229406   1.638   3.424   8.768 -1.0688 -1.1409  1.3486
 5925SOL     OW29407   2.463   3.091   8.582  0.4278  0.0581 -0.4503
 5925SOL    HW129408   2.554   3.062   8.584  0.6212  0.6064 -1.6473
 5925SOL    HW229409   2.415   3.025   8.532 -0.3056  1.0317 -1.0132
 5926SOL     OW29410   0.186   2.934  11.675  0.0020 -0.1850 -0.0126
 5926SOL    HW129411   0.238   2.920  11.754 -2.2685 -1.1022  1.3072
 5926SOL    HW229412   0.230   3.017  11.656  0.5284 -0.1550  1.4060
 5927SOL     OW29413   1.394   2.044   5.555 -0.2937 -0.2714  0.1553
 5927SOL    HW129414   1.419   1.952   5.548  1.0400  0.0395  0.8005
 5927SOL    HW229415   1.300   2.031   5.562 -0.8003  2.6196 -1.5253
 5928SOL     OW29416   2.501   2.831   0.388 -0.0535 -0.4162 -1.1462
 5928SOL    HW129417   2.557   2.754   0.394  0.6873  0.2870  0.8029
 5928SOL    HW229418   2.559   2.907   0.393 -1.4869  0.3732  3.7861
 5929SOL     OW29419   3.624   2.342   6.126 -0.0704  0.4790 -0.0728
 5929SOL    HW129420   3.655   2.351   6.216 -0.6547  0.1345  0.1609
 5929SOL    HW229421   3.538   2.303   6.143 -0.6979  1.7270 -0.3907
 5930SOL     OW29422   2.839   4.580  16.913  0.1070 -0.2027  0.4422
 5930SOL    HW129423   2.797   4.499  16.883  0.7781 -0.5781  0.5014
 5930SOL    HW229424   2.892   4.599  16.836  0.5719 -2.3005  0.2285
 5931SOL     OW29425   3.750   4.705  10.897 -0.3080  0.2327  0.5616
 5931SOL    HW129426   3.705   4.656  10.828 -0.9559 -0.0521  1.1840
 5931SOL    HW229427   3.698   4.673  10.970  0.6108  0.9550  1.5388
 5932SOL     OW29428   2.800   1.309   5.316  0.0309  0.5414  0.5894
 5932SOL    HW129429   2.787   1.237   5.254  3.7549  0.5536 -0.2255
 5932SOL    HW229430   2.783   1.387   5.264  0.2782 -0.2656 -0.7148
 5933SOL     OW29431   0.431   1.397   3.606  0.1012 -0.2022  0.2095
 5933SOL    HW129432   0.462   1.487   3.617 -0.1189 -0.2698  1.4137
 5933SOL    HW229433   0.464   1.379   3.518  1.0593  1.3806  0.2362
 5934SOL     OW29434   4.594   2.394   4.326 -0.6599 -0.0951  0.1278
 5934SOL    HW129435   4.600   2.299   4.324  0.0899 -0.0348 -0.3857
 5934SOL    HW229436   4.587   2.414   4.233  2.3665  0.6982  0.0750
 5935SOL     OW29437   4.013   3.606  16.770 -0.1553  0.9116  0.0839
 5935SOL    HW129438   3.944   3.602  16.836 -0.1522 -2.8370 -0.1528
 5935SOL    HW229439   4.062   3.533  16.807 -2.7578 -0.9048 -0.0276
 5936SOL     OW29440   0.116   1.977   5.546  0.1126  0.3513 -0.2345
 5936SOL    HW129441   0.052   1.960   5.477 -0.4571 -0.1176  0.4123
 5936SOL    HW229442   0.139   1.895   5.590  0.7399  0.4531 -0.3627
 5937SOL     OW29443   1.188   2.543  10.415 -0.4923 -0.4354  0.1877
 5937SOL    HW129444   1.216   2.605  10.347  1.1410 -1.6334 -0.2387
 5937SOL    HW229445   1.191   2.466  10.358  0.9081  0.4569 -0.9329
 5938SOL     OW29446   4.397   2.474   6.434  0.1459  0.1228  0.5112
 5938SOL    HW129447   4.352   2.465   6.518 -0.4952 -0.4470  0.1052
 5938SOL    HW229448   4.395   2.569   6.420  1.1163  0.1253  0.3981
 5939SOL     OW29449   0.404   3.208  10.556  0.0368 -0.5887 -0.3694
 5939SOL    HW129450   0.409   3.287  10.502 -1.2629 -0.2643 -0.0053
 5939SOL    HW229451   0.493   3.193  10.589 -0.5233  0.7086  1.6997
 5940SOL     OW29452   2.384   2.703   3.445  0.1016  0.1564 -0.2926
 5940SOL    HW129453   2.431   2.748   3.375 -1.4007  3.3345  0.7280
 5940SOL    HW229454   2.432   2.737   3.521 -2.1788  1.0824  0.7462
 5941SOL     OW29455   2.042   0.713   7.613 -0.0366 -0.1477  0.0114
 5941SOL    HW129456   2.131   0.705   7.577  0.8768 -0.4470  2.3261
 5941SOL    HW229457   2.015   0.622   7.600  0.0993 -0.0980 -0.6122
 5942SOL     OW29458   1.626   0.589   2.322 -0.3660 -0.7684  0.0683
 5942SOL    HW129459   1.557   0.633   2.373 -1.6210 -2.1621 -0.4327
 5942SOL    HW229460   1.601   0.499   2.340 -0.9045 -1.0061 -1.8446
 5943SOL     OW29461   4.213   2.534   5.610  0.1655  0.7674  0.4074
 5943SOL    HW129462   4.186   2.601   5.546 -0.5043  2.2981  2.2902
 5943SOL    HW229463   4.224   2.593   5.685 -0.8769  2.6092 -0.8735
 5944SOL     OW29464   0.594   2.170   2.592  0.4562  0.7385 -0.1910
 5944SOL    HW129465   0.509   2.141   2.560  2.1310 -0.3996 -3.6490
 5944SOL    HW229466   0.586   2.184   2.686  0.1429  1.8176 -0.3787
 5945SOL     OW29467   0.083   0.631   4.306  0.1276  0.1085  0.1424
 5945SOL    HW129468   0.012   0.692   4.288 -0.3753 -0.3776  0.4943
 5945SOL    HW229469   0.114   0.609   4.218  2.7769 -0.5739  1.2334
 5946SOL     OW29470   3.207   4.246  10.857 -0.5616 -0.0043 -0.1778
 5946SOL    HW129471   3.233   4.169  10.806 -1.5588 -0.8074  0.5212
 5946SOL    HW229472   3.169   4.291  10.782 -1.5815  1.4583  1.2117
 5947SOL     OW29473   3.054   4.100   6.158 -0.9951 -0.2641  0.6321
 5947SOL    HW129474   3.149   4.114   6.153 -0.8982 -2.2003 -3.2290
 5947SOL    HW229475   3.035   4.097   6.252 -0.0822 -4.1492  0.6964
 5948SOL     OW29476   1.424   4.561   8.968  0.2511  0.1458 -0.0557
 5948SOL    HW129477   1.462   4.477   8.991  0.6306  0.6575  1.1616
 5948SOL    HW229478   1.504   4.614   8.975  1.9498 -2.3509 -0.5738
 5949SOL     OW29479   3.422   2.240  14.998  0.0454 -0.3192 -0.1744
 5949SOL    HW129480   3.387   2.276  15.080  2.4692 -0.9094  1.1502
 5949SOL    HW229481   3.509   2.212  15.028 -0.1114 -0.8864 -0.2442
 5950SOL     OW29482   3.283   3.966  11.565  0.1648 -0.3355  0.4405
 5950SOL    HW129483   3.372   3.931  11.555  0.1263  0.4866 -2.9982
 5950SOL    HW229484   3.235   3.890  11.597 -0.0001 -0.1783  0.5625
 5951SOL     OW29485   1.294   0.434   2.434 -0.5368 -0.5025  0.2312
 5951SOL    HW129486   1.325   0.521   2.408 -0.1806 -0.0769  2.0982
 5951SOL    HW229487   1.255   0.387   2.360 -2.4082  3.6657 -1.5039
 5952SOL     OW29488   3.654   2.520   3.419  0.2269  0.3657  1.0153
 5952SOL    HW129489   3.616   2.460   3.483  1.7767 -1.9299 -0.2163
 5952SOL    HW229490   3.575   2.558   3.381  0.3588 -0.2960  0.0754
 5953SOL     OW29491   3.229   2.033   2.492  0.1091  0.4039  0.3249
 5953SOL    HW129492   3.153   2.072   2.449 -1.5211 -1.5325  1.5043
 5953SOL    HW229493   3.287   2.110   2.492  0.1270  0.3902  0.6063
 5954SOL     OW29494   1.194   3.688   9.832  0.1163 -0.0727 -0.0938
 5954SOL    HW129495   1.239   3.711   9.913  0.6674 -0.7762 -0.1930
 5954SOL    HW229496   1.243   3.734   9.763 -0.3217  0.0391 -0.3302
 5955SOL     OW29497   1.463   0.277   5.148 -0.2489  0.5486  0.6345
 5955SOL    HW129498   1.538   0.331   5.124 -0.1309 -0.2092 -0.7539
 5955SOL    HW229499   1.489   0.234   5.229  2.2723  0.1854 -0.3770
 5956SOL     OW29500   3.355   4.293   6.128 -0.0261 -0.0019 -0.6652
 5956SOL    HW129501   3.304   4.304   6.048 -2.2383  0.8933  0.8706
 5956SOL    HW229502   3.446   4.295   6.098 -0.4772  2.3491 -1.9300
 5957SOL     OW29503   2.352   3.291   3.363 -0.0287 -0.0167 -0.1344
 5957SOL    HW129504   2.355   3.323   3.453 -0.6269  0.3254 -0.2331
 5957SOL    HW229505   2.262   3.260   3.349  0.3288 -0.5586 -1.1989
 5958SOL     OW29506   2.107   2.220   4.281 -0.4601  0.3444  0.2060
 5958SOL    HW129507   2.192   2.184   4.257 -0.1820  0.4865  0.9820
 5958SOL    HW229508   2.111   2.232   4.376  0.9686 -0.3451  0.2236
 5959SOL     OW29509   2.961   2.524   4.570  0.1871  0.5892  0.0242
 5959SOL    HW129510   3.004   2.443   4.541 -0.2542  0.3099  0.1454
 5959SOL    HW229511   3.040   2.577   4.561 -0.5739  2.0875  2.0790
 5960SOL     OW29512   1.043   2.862   0.548 -0.4840  0.5274  0.0158
 5960SOL    HW129513   1.053   2.853   0.454  0.4359 -3.2962  0.4667
 5960SOL    HW229514   0.988   2.940   0.539 -1.1500 -0.3071 -3.0395
 5961SOL     OW29515   0.451   4.122   8.544 -0.1645 -0.2492 -0.0092
 5961SOL    HW129516   0.391   4.150   8.475 -0.4173  0.6863  0.5915
 5961SOL    HW229517   0.402   4.117   8.626  0.3705  0.5160  0.3560
 5962SOL     OW29518   3.654   4.034   4.700 -0.2847  0.0308  0.9769
 5962SOL    HW129519   3.558   4.038   4.706 -0.2850  2.1993 -0.4797
 5962SOL    HW229520   3.686   4.124   4.710  1.0585 -0.6764  3.1313
 5963SOL     OW29521   3.537   4.591   3.617  0.2988 -0.3910 -0.1400
 5963SOL    HW129522   3.478   4.548   3.556 -0.9530 -1.3754  1.7718
 5963SOL    HW229523   3.625   4.564   3.589  1.1797  1.3525  0.9600
 5964SOL     OW29524   3.456   3.304   8.234  0.2361 -0.3894  0.1703
 5964SOL    HW129525   3.384   3.349   8.277  0.5891  2.3993 -2.1421
 5964SOL    HW229526   3.494   3.370   8.175 -0.6695  0.0427  0.0694
 5965SOL     OW29527   2.039   3.916   3.561 -0.1771  0.5392 -0.1866
 5965SOL    HW129528   1.971   3.981   3.546 -2.1410 -1.7020 -1.1365
 5965SOL    HW229529   2.106   3.948   3.501  0.4067 -0.1003  0.1243
 5966SOL     OW29530   0.952   0.090  14.377 -0.2361 -0.1005  0.3846
 5966SOL    HW129531   0.967   0.074  14.470  1.3914  0.2892  0.1985
 5966SOL    HW229532   0.925   4.737  14.364 -0.5264 -0.0797  0.8670
 5967SOL     OW29533   4.060   4.098   9.738  0.7411  0.2578  0.4355
 5967SOL    HW129534   4.144   4.143   9.737  1.3287 -0.8792 -0.4935
 5967SOL    HW229535   4.017   4.146   9.667 -1.4332 -0.9353  0.9388
 5968SOL     OW29536   3.741   0.013   7.353  0.1009 -0.3471 -0.4501
 5968SOL    HW129537   3.692   4.681   7.310 -0.5426 -1.3955  2.0198
 5968SOL    HW229538   3.823   0.020   7.302 -0.5133  1.4940 -1.2053
 5969SOL     OW29539   2.977   3.232  15.583  0.1162  0.7200  0.0437
 5969SOL    HW129540   2.932   3.244  15.500  1.0911 -0.2838 -0.6308
 5969SOL    HW229541   2.903   3.227  15.643 -0.8405  1.5018 -1.0664
 5970SOL     OW29542   2.302   3.903   8.919 -0.1443  0.0809  0.2149
 5970SOL    HW129543   2.230   3.846   8.945 -1.8654  2.1648 -0.0041
 5970SOL    HW229544   2.377   3.844   8.913 -0.7471 -0.7226  0.7043
 5971SOL     OW29545   4.567   1.123  11.472  0.2444 -0.1664 -0.5636
 5971SOL    HW129546   4.494   1.142  11.531 -0.7192 -2.2935 -1.0540
 5971SOL    HW229547   4.637   1.095  11.532 -0.6002 -0.4696  0.2893
 5972SOL     OW29548   3.327   4.146   3.001  0.2701  0.0420  0.2195
 5972SOL    HW129549   3.238   4.135   2.968  0.2666  0.8711 -0.0396
 5972SOL    HW229550   3.311   4.210   3.071 -0.7431  0.3682 -0.3134
 5973SOL     OW29551   3.658   2.178  12.442 -0.3056 -0.3354 -0.4330
 5973SOL    HW129552   3.726   2.245  12.449 -0.5629 -0.1992  0.7892
 5973SOL    HW229553   3.682   2.138  12.358 -1.1819 -0.2644 -0.7153
 5974SOL     OW29554   3.277   2.339  10.410 -0.5399  0.4024 -0.1541
 5974SOL    HW129555   3.247   2.425  10.381 -1.9255 -0.1784 -0.4132
 5974SOL    HW229556   3.317   2.372  10.491 -0.4161  1.7032 -0.7405
 5975SOL     OW29557   4.241   1.301   8.409  0.3120  0.4886 -0.2311
 5975SOL    HW129558   4.232   1.244   8.486  0.9567  0.1767 -0.3846
 5975SOL    HW229559   4.305   1.253   8.357 -0.8306 -1.2293 -0.0357
 5976SOL     OW29560   1.740   0.523   6.623 -0.0201  0.5012 -0.0800
 5976SOL    HW129561   1.808   0.511   6.689 -1.6663 -0.7523  1.3827
 5976SOL    HW229562   1.797   0.532   6.547 -2.2254  1.6125 -1.6234
 5977SOL     OW29563   3.519   3.050   9.896  0.2994  0.3841 -0.5972
 5977SOL    HW129564   3.586   3.110   9.928 -1.0653  1.8555 -0.4534
 5977SOL    HW229565   3.540   3.054   9.802 -2.9245 -2.6142 -1.4306
 5978SOL     OW29566   0.523   3.750  10.363 -0.6317  0.1878  0.4776
 5978SOL    HW129567   0.579   3.673  10.367  1.3100  1.5376 -0.6775
 5978SOL    HW229568   0.589   3.818  10.375  1.4043 -1.5072 -1.2335
 5979SOL     OW29569   4.052   2.824   7.243 -0.2600  0.0407  0.1367
 5979SOL    HW129570   4.061   2.728   7.244 -2.1478 -0.1262  1.5014
 5979SOL    HW229571   4.072   2.838   7.151 -0.9077  0.2834  0.0315
 5980SOL     OW29572   1.866   0.978   5.592  0.5468  0.0042 -0.0962
 5980SOL    HW129573   1.962   0.972   5.585  0.5733 -0.5096  0.7277
 5980SOL    HW229574   1.829   1.036   5.526  0.0192  2.0521  2.0036
 5981SOL     OW29575   4.190   0.069   4.022 -0.2135 -0.2624  0.2839
 5981SOL    HW129576   4.281   0.063   4.051 -0.6963 -0.9122  1.6774
 5981SOL    HW229577   4.143   0.105   4.098  0.7433 -0.7744  1.1165
 5982SOL     OW29578   1.541   1.816   4.763  0.1113 -0.4422 -0.0428
 5982SOL    HW129579   1.521   1.735   4.716  0.3910  0.1005 -1.0881
 5982SOL    HW229580   1.636   1.819   4.762  0.1240 -0.7475  0.1027
 5983SOL     OW29581   3.661   2.489   2.180  0.1884  0.4487 -0.2764
 5983SOL    HW129582   3.656   2.576   2.219 -1.6158  0.0785  0.3443
 5983SOL    HW229583   3.740   2.506   2.128  0.0431  0.4538 -0.4944
 5984SOL     OW29584   1.353   4.619   2.284  0.3809 -0.6684  0.0516
 5984SOL    HW129585   1.435   4.581   2.252  0.4309 -1.2352  0.8652
 5984SOL    HW229586   1.337   4.686   2.218 -1.0118 -0.5019  0.5567
 5985SOL     OW29587   3.928   3.159  12.521 -0.1475 -0.4874 -0.2490
 5985SOL    HW129588   3.888   3.077  12.551 -0.5364  0.3495  1.5549
 5985SOL    HW229589   3.902   3.155  12.429 -1.8517 -0.0160  0.2183
 5986SOL     OW29590   2.653   3.448   2.241 -0.0110 -0.3308 -0.3358
 5986SOL    HW129591   2.694   3.363   2.225 -2.0706 -1.4439  0.4028
 5986SOL    HW229592   2.606   3.429   2.322  0.7854 -0.1144  0.1780
 5987SOL     OW29593   0.993   0.869  13.852  0.3277 -0.4632  0.0803
 5987SOL    HW129594   0.985   0.962  13.834 -1.6832 -0.8603 -1.0036
 5987SOL    HW229595   0.944   0.858  13.934 -1.8797  2.0216 -0.9024
 5988SOL     OW29596   2.748   0.823   4.960 -0.7262  0.2160 -0.2634
 5988SOL    HW129597   2.674   0.814   4.900 -1.8280  2.2100  0.7932
 5988SOL    HW229598   2.784   0.735   4.968  1.0489  0.8548 -1.4412
 5989SOL     OW29599   0.258   2.064  13.710 -0.5157 -0.3894 -0.3322
 5989SOL    HW129600   0.182   2.062  13.651  0.2457 -1.8742 -1.2460
 5989SOL    HW229601   0.251   2.144  13.762  0.1858 -2.2778  2.6622
 5990SOL     OW29602   3.018   1.177   0.678 -0.3394 -0.1735 -0.4237
 5990SOL    HW129603   3.061   1.214   0.755 -1.0272  1.4787 -0.8501
 5990SOL    HW229604   2.928   1.204   0.696  0.5196  1.0447  2.0300
 5991SOL     OW29605   2.531   1.062   7.926  0.2512  0.5820 -0.1850
 5991SOL    HW129606   2.484   1.011   7.992  0.2622  2.2626  1.1086
 5991SOL    HW229607   2.468   1.083   7.858 -0.5081 -0.8904  0.0515
 5992SOL     OW29608   2.948   3.198   7.780  0.2313  0.0886 -0.1873
 5992SOL    HW129609   2.896   3.236   7.851  0.5309 -1.7427  0.9971
 5992SOL    HW229610   3.008   3.269   7.758  0.5742 -0.7717 -2.0039
 5993SOL     OW29611   0.683   4.528  14.018 -0.6795  0.1223 -0.2563
 5993SOL    HW129612   0.595   4.516  14.053  0.0286 -1.8422  0.8557
 5993SOL    HW229613   0.738   4.519  14.095  0.2057  0.7407 -0.8110
 5994SOL     OW29614   1.320   0.756   6.813 -0.2972 -0.0207 -0.0976
 5994SOL    HW129615   1.329   0.681   6.755  0.1094  0.2568 -0.3881
 5994SOL    HW229616   1.395   0.756   6.872 -0.1939 -0.5573 -0.2298
 5995SOL     OW29617   1.610   2.865  15.947 -0.1089  0.8041  0.5483
 5995SOL    HW129618   1.515   2.873  15.959  0.1764  1.2485  2.4590
 5995SOL    HW229619   1.614   2.770  15.935  0.6335  0.7951  0.8765
 5996SOL     OW29620   1.454   1.200   5.605  0.0241 -0.8704 -0.0933
 5996SOL    HW129621   1.381   1.230   5.659  1.0536  1.9421 -0.2328
 5996SOL    HW229622   1.486   1.131   5.663 -1.9612  0.3500  2.4282
 5997SOL     OW29623   1.643   0.256   9.405 -0.3573 -0.5434 -0.0078
 5997SOL    HW129624   1.720   0.263   9.348 -0.3276  1.6490  0.2973
 5997SOL    HW229625   1.595   0.332   9.372  2.5759  1.2081 -0.3113
 5998SOL     OW29626   4.406   0.270   8.389 -0.3413  0.0514 -0.0498
 5998SOL    HW129627   4.360   0.187   8.403 -1.4645  0.4744 -1.2693
 5998SOL    HW229628   4.480   0.261   8.449 -2.4718  0.4920  2.6654
 5999SOL     OW29629   2.387   0.835   3.312  0.2226 -0.4416  0.1422
 5999SOL    HW129630   2.363   0.905   3.373  0.8572  0.1655 -0.3120
 5999SOL    HW229631   2.358   0.767   3.373  1.8205 -0.2866  1.0734
 6000SOL     OW29632   4.433   4.222  13.180 -0.6279  0.6234  0.2761
 6000SOL    HW129633   4.403   4.208  13.091 -0.8405  0.9040  0.3025
 6000SOL    HW229634   4.377   4.159  13.225 -0.2491 -1.2444 -1.8903
 6001SOL     OW29635   0.166   0.044  16.684 -0.3123 -0.1099 -0.2672
 6001SOL    HW129636   0.118   0.009  16.609  1.1976  0.6745 -1.5929
 6001SOL    HW229637   0.196   4.712  16.742 -1.0342  1.0082  1.4707
 6002SOL     OW29638   4.111   3.536   4.731  0.2176  0.4422  0.3952
 6002SOL    HW129639   4.050   3.480   4.684  1.8780 -0.9466 -0.0962
 6002SOL    HW229640   4.104   3.622   4.688 -1.5911  0.2346  0.2874
 6003SOL     OW29641   4.238   3.137   4.996  0.3537  0.2643  0.8887
 6003SOL    HW129642   4.198   3.219   5.025 -1.1438  0.1198 -0.7507
 6003SOL    HW229643   4.231   3.153   4.902  0.3181 -0.4393  0.7703
 6004SOL     OW29644   2.550   4.183   8.891 -0.0631  0.0659  0.2149
 6004SOL    HW129645   2.527   4.181   8.798  0.6540 -0.8881  0.0505
 6004SOL    HW229646   2.521   4.099   8.926  2.4574 -1.1991 -0.7069
 6005SOL     OW29647   3.413   3.288   3.526  0.0023 -0.0186 -0.0276
 6005SOL    HW129648   3.456   3.327   3.450  1.0283 -1.6745 -0.2792
 6005SOL    HW229649   3.403   3.199   3.492  0.2609 -0.0807  0.0647
 6006SOL     OW29650   4.430   2.146   8.769 -0.1100 -0.1991 -0.0260
 6006SOL    HW129651   4.450   2.228   8.723 -0.4198 -0.4187 -0.5540
 6006SOL    HW229652   4.514   2.123   8.810  0.0266  0.9285  0.3299
 6007SOL     OW29653   1.186   1.670  11.549  0.3118 -0.2186  0.2983
 6007SOL    HW129654   1.245   1.628  11.486 -0.2269 -1.1240  0.3939
 6007SOL    HW229655   1.216   1.613  11.620 -0.1162 -1.6231 -0.6543
 6008SOL     OW29656   4.032   1.673   5.735  0.3049  0.1300 -0.1532
 6008SOL    HW129657   4.010   1.582   5.758  1.2206  0.4949  2.1746
 6008SOL    HW229658   4.024   1.714   5.821  1.6854  0.7186 -0.3226
 6009SOL     OW29659   1.787   3.253  15.517  0.5106  0.2786  0.0455
 6009SOL    HW129660   1.743   3.329  15.479 -1.2890  0.6593  2.9208
 6009SOL    HW229661   1.711   3.200  15.542 -0.2669  1.7074  0.6883
 6010SOL     OW29662   2.830   1.583   3.961 -0.4514 -0.6537 -0.3824
 6010SOL    HW129663   2.861   1.492   3.957 -0.3771 -0.6162 -0.6400
 6010SOL    HW229664   2.743   1.568   3.923  0.2176  1.0498 -2.5743
 6011SOL     OW29665   3.598   4.257   7.033  0.4309  0.2690  0.0780
 6011SOL    HW129666   3.666   4.324   7.040  0.2566  0.4239  0.2579
 6011SOL    HW229667   3.528   4.276   7.095 -0.1040 -0.8726 -0.1769
 6012SOL     OW29668   1.383   1.596  13.675  0.1840  0.2492  0.6631
 6012SOL    HW129669   1.390   1.536  13.749  1.2247  0.0932  0.4347
 6012SOL    HW229670   1.365   1.684  13.708  0.9286 -0.6519  3.4059
 6013SOL     OW29671   2.702   0.762  11.512  0.0572  0.4471 -0.2772
 6013SOL    HW129672   2.775   0.700  11.500 -0.4286  0.0509 -1.2175
 6013SOL    HW229673   2.661   0.725  11.590 -0.3272 -0.6419 -0.9893
 6014SOL     OW29674   2.244   3.830  16.269 -0.0953 -0.1702  0.0364
 6014SOL    HW129675   2.305   3.781  16.325 -0.5926 -1.0231 -0.1618
 6014SOL    HW229676   2.281   3.796  16.187 -1.8575 -2.6634  0.2706
 6015SOL     OW29677   3.282   0.800   4.172 -0.8395 -0.9788  0.0942
 6015SOL    HW129678   3.189   0.817   4.187 -0.7119  0.3182 -0.6429
 6015SOL    HW229679   3.273   0.796   4.077  0.6830 -2.2392  0.0054
 6016SOL     OW29680   2.472   1.348  12.614  0.7488  0.4877 -0.1856
 6016SOL    HW129681   2.441   1.370  12.702  1.3224 -1.9106  0.6066
 6016SOL    HW229682   2.411   1.276  12.601 -0.1022  1.1882 -0.1002
 6017SOL     OW29683   3.604   3.260   6.019 -0.2507 -0.1283  0.2804
 6017SOL    HW129684   3.696   3.268   6.043 -0.3473  2.3696 -0.1314
 6017SOL    HW229685   3.621   3.239   5.928  0.5520 -1.8162  0.8155
 6018SOL     OW29686   2.345   1.931  13.699 -0.4655 -0.3393  0.0663
 6018SOL    HW129687   2.287   2.006  13.687  1.7213  0.5058 -5.1636
 6018SOL    HW229688   2.273   1.879  13.736 -1.6434  1.0987 -0.1933
 6019SOL     OW29689   0.881   1.836   9.964 -0.1291  0.0557 -0.7420
 6019SOL    HW129690   0.800   1.789   9.946  0.0623 -0.9783  1.1617
 6019SOL    HW229691   0.846   1.914  10.007  1.2864  1.2279 -1.7057
 6020SOL     OW29692   4.072   3.050  10.026 -0.3791  0.4822 -0.3892
 6020SOL    HW129693   4.111   3.131  10.059 -0.4068  0.2162  0.2889
 6020SOL    HW229694   3.981   3.078  10.013 -0.6124  0.3327  0.9276
 6021SOL     OW29695   3.257   4.116   5.022  0.1177  0.2613 -0.6562
 6021SOL    HW129696   3.183   4.153   4.973 -0.9947 -0.6905  0.2941
 6021SOL    HW229697   3.336   4.154   4.983  1.2597 -0.5284  0.8727
 6022SOL     OW29698   4.319   3.569   1.384  0.0932 -0.4376 -0.7508
 6022SOL    HW129699   4.262   3.561   1.308 -2.2582 -1.0484  1.0606
 6022SOL    HW229700   4.322   3.479   1.415  1.9129 -0.4268 -0.9020
 6023SOL     OW29701   0.069   0.592   4.035  0.1758  0.2466  0.2415
 6023SOL    HW129702   4.713   0.596   4.024  0.1883 -3.9338 -1.2627
 6023SOL    HW229703   0.086   0.645   3.956 -0.9131 -0.3643 -0.3951
 6024SOL     OW29704   1.573   4.558   3.135 -0.3532 -0.0180 -0.1548
 6024SOL    HW129705   1.554   4.515   3.052 -0.7445 -0.2042  0.0332
 6024SOL    HW229706   1.513   4.506   3.188 -0.2020  0.9955  1.0264
 6025SOL     OW29707   0.736   3.084  17.325 -0.0670  0.6010 -0.2479
 6025SOL    HW129708   0.805   3.147  17.304  1.4115 -0.9535 -0.0484
 6025SOL    HW229709   0.670   3.133  17.275 -1.3737  2.2234  3.0613
 6026SOL     OW29710   0.173   3.808   9.278 -0.2116  0.5703  0.8048
 6026SOL    HW129711   0.083   3.806   9.311 -0.0483 -2.4976  1.1384
 6026SOL    HW229712   0.168   3.881   9.217  2.0704 -0.3856 -0.5342
 6027SOL     OW29713   2.069   1.446  17.282  0.6159  1.2185 -0.0012
 6027SOL    HW129714   1.982   1.460  17.245  0.1222 -1.8344  0.0053
 6027SOL    HW229715   2.054   1.455  17.376 -0.3989  0.6036 -0.1093
 6028SOL     OW29716   3.994   2.805   3.992  0.5025  0.0133  0.2706
 6028SOL    HW129717   3.943   2.885   4.004  1.9768  0.3968  3.9414
 6028SOL    HW229718   3.999   2.794   3.897 -1.6100  1.4908 -0.0005
 6029SOL     OW29719   1.520   1.662  16.262  0.9167  0.7038 -0.0940
 6029SOL    HW129720   1.506   1.712  16.182 -0.9292 -1.8035 -1.3538
 6029SOL    HW229721   1.565   1.720  16.323  1.1402  1.0024 -0.5425
 6030SOL     OW29722   1.127   1.912   8.242  0.0228 -0.3598 -0.0853
 6030SOL    HW129723   1.173   1.844   8.292  0.5980  0.3762  0.3903
 6030SOL    HW229724   1.042   1.871   8.226 -0.8574  0.6121  2.0936
 6031SOL     OW29725   0.778   0.894   5.338 -0.2430  0.0579  0.1246
 6031SOL    HW129726   0.745   0.947   5.265  2.5054  2.0760  0.3845
 6031SOL    HW229727   0.863   0.926   5.366 -0.5916  4.2128 -3.4332
 6032SOL     OW29728   2.431   4.364   2.001 -0.0425  1.0240 -0.1520
 6032SOL    HW129729   2.526   4.371   1.996  0.0679  0.3300  0.9341
 6032SOL    HW229730   2.411   4.373   1.908 -1.4302  0.5695  0.1067
 6033SOL     OW29731   0.853   2.669   0.732  0.0766 -0.5743  0.9319
 6033SOL    HW129732   0.928   2.610   0.738  1.4473  1.0841  0.0623
 6033SOL    HW229733   0.884   2.746   0.685 -1.1743  0.3628  1.6369
 6034SOL     OW29734   1.668   3.577   0.150  0.2910 -0.0026  0.1813
 6034SOL    HW129735   1.653   3.610   0.238  1.8425 -0.8764  0.7546
 6034SOL    HW229736   1.763   3.568   0.151  0.1101 -1.9541 -0.4701
 6035SOL     OW29737   3.974   0.017  15.346  0.1473  0.0360  0.0774
 6035SOL    HW129738   3.927   0.004  15.428  0.0729 -1.3334 -0.1859
 6035SOL    HW229739   3.920   4.699  15.291  2.4003 -0.3061 -1.7818
 6036SOL     OW29740   0.031   3.069   9.267  0.6286  0.0992  0.4467
 6036SOL    HW129741   0.011   2.980   9.238 -0.9529 -0.2625  2.6337
 6036SOL    HW229742   0.120   3.090   9.240  0.9471  1.4113  2.4995
 6037SOL     OW29743   1.302   1.290   4.601 -0.1725  0.0594 -0.6333
 6037SOL    HW129744   1.261   1.318   4.682  2.3119  0.4473  0.5130
 6037SOL    HW229745   1.394   1.274   4.625  0.1657  2.2155 -0.4980
 6038SOL     OW29746   1.785   2.332   1.509  0.4697 -0.0781  0.6194
 6038SOL    HW129747   1.712   2.349   1.568  0.3400  1.0546  0.1514
 6038SOL    HW229748   1.753   2.286   1.432 -2.4924  0.2807  1.6470
 6039SOL     OW29749   4.179   4.261  10.467 -0.4968 -0.4436 -0.2994
 6039SOL    HW129750   4.094   4.289  10.500  0.0309 -0.1785  0.8316
 6039SOL    HW229751   4.166   4.268  10.373 -2.2732 -0.6412 -0.0602
 6040SOL     OW29752   2.661   4.374  10.695  0.3492  0.0068 -0.5330
 6040SOL    HW129753   2.660   4.404  10.786  1.7703 -0.8279 -0.2374
 6040SOL    HW229754   2.712   4.443  10.651  1.2778  0.2941  0.9661
 6041SOL     OW29755   1.228   1.064   2.139 -0.9696  0.2282  0.6963
 6041SOL    HW129756   1.227   1.153   2.175 -2.8805 -0.3174  1.9932
 6041SOL    HW229757   1.148   1.071   2.088  0.8045  1.1026 -1.9763
 6042SOL     OW29758   3.765   3.731   2.837 -0.4762  0.1945 -0.5807
 6042SOL    HW129759   3.750   3.819   2.801 -1.2495  0.1962 -0.2661
 6042SOL    HW229760   3.676   3.697   2.847  0.8881 -4.0521 -2.6967
 6043SOL     OW29761   0.862   1.244   8.767  0.1041 -0.7377 -0.0803
 6043SOL    HW129762   0.881   1.308   8.698 -1.4850 -1.7117 -1.4471
 6043SOL    HW229763   0.818   1.174   8.719  0.3575 -0.1257 -1.2099
 6044SOL     OW29764   0.804   2.004   7.618 -0.2012 -0.3976 -0.2515
 6044SOL    HW129765   0.726   1.970   7.574 -0.7602 -1.6335  1.6974
 6044SOL    HW229766   0.821   1.943   7.690  0.5587  2.2242  1.7942
 6045SOL     OW29767   2.798   1.873   3.107 -0.7540  0.3253 -0.2912
 6045SOL    HW129768   2.757   1.944   3.059  0.8208 -0.3401 -2.6359
 6045SOL    HW229769   2.816   1.914   3.191 -0.6313  1.2506 -0.7713
 6046SOL     OW29770   1.061   1.069   4.173 -0.1215 -0.0312 -0.3082
 6046SOL    HW129771   1.088   1.065   4.265 -0.3683 -0.4436 -0.2576
 6046SOL    HW229772   1.036   0.978   4.160 -2.4890  0.8320 -1.7042
 6047SOL     OW29773   4.130   4.636   4.426  0.0161 -0.8428  0.4275
 6047SOL    HW129774   4.102   4.682   4.347  1.3843 -0.0641  0.3789
 6047SOL    HW229775   4.066   4.565   4.427 -0.6362 -0.3431 -3.1335
 6048SOL     OW29776   0.766   0.960   9.507 -0.2623 -0.5959 -0.0707
 6048SOL    HW129777   0.787   1.023   9.576 -4.3112  0.8068 -0.0555
 6048SOL    HW229778   0.767   1.023   9.435  1.8984 -1.8122 -1.0750
 6049SOL     OW29779   1.874   4.166   3.504 -0.1245 -0.4313  0.1557
 6049SOL    HW129780   1.863   4.261   3.506  1.1793 -0.2353 -2.8474
 6049SOL    HW229781   1.783   4.140   3.521 -0.3350  0.6672  0.6786
 6050SOL     OW29782   3.087   3.123   8.708  0.4924  0.4483 -0.5573
 6050SOL    HW129783   3.027   3.159   8.642 -0.4612 -1.2750 -0.6449
 6050SOL    HW229784   3.169   3.151   8.667  0.3699 -0.5096 -1.4751
 6051SOL     OW29785   0.653   1.701  16.120  0.2646  0.9994 -0.5664
 6051SOL    HW129786   0.637   1.607  16.112 -0.0376  1.1061 -1.1852
 6051SOL    HW229787   0.597   1.725  16.193 -0.1477  0.9536 -0.8701
 6052SOL     OW29788   3.202   4.373   0.578  0.1018  0.2030 -0.2456
 6052SOL    HW129789   3.223   4.314   0.650  0.4396  3.3868  2.2516
 6052SOL    HW229790   3.254   4.451   0.597 -1.5195  1.4400 -0.9256
 6053SOL     OW29791   2.961   3.453   6.342  0.2611 -0.1830  0.4134
 6053SOL    HW129792   3.052   3.426   6.353  0.3199 -0.6054 -1.0646
 6053SOL    HW229793   2.914   3.417   6.417 -0.7658  0.9105  0.2858
 6054SOL     OW29794   1.790   2.368   5.050 -0.1792  0.4505  0.7706
 6054SOL    HW129795   1.787   2.273   5.039 -1.1152  0.3553  1.8236
 6054SOL    HW229796   1.698   2.390   5.065 -0.3979  2.1561 -3.0629
 6055SOL     OW29797   3.219   0.273   2.345  0.0142 -0.5289 -0.0351
 6055SOL    HW129798   3.277   0.210   2.302  1.5206  1.5570 -1.0654
 6055SOL    HW229799   3.240   0.264   2.438  0.2260  1.1646  0.0905
 6056SOL     OW29800   3.736   0.141  16.533 -0.3408  0.2598  0.0444
 6056SOL    HW129801   3.735   0.178  16.622 -1.1502 -0.1096  0.1881
 6056SOL    HW229802   3.641   0.146  16.522 -0.2910  1.3073  0.0859
 6057SOL     OW29803   3.823   2.758   6.830 -0.0078 -0.1254  0.2645
 6057SOL    HW129804   3.900   2.815   6.835 -2.1514  2.6665  1.6224
 6057SOL    HW229805   3.752   2.810   6.793  1.5542  2.4611  0.9295
 6058SOL     OW29806   0.933   0.023   0.375  0.5965 -0.5136  0.0364
 6058SOL    HW129807   0.873   0.056   0.308 -1.5707 -1.8756  1.3223
 6058SOL    HW229808   0.936   0.104   0.426  1.8682  0.4607 -1.5971
 6059SOL     OW29809   2.075   1.648  17.545 -0.6721 -0.4683 -0.2827
 6059SOL    HW129810   2.170   1.643  17.554 -0.9606 -0.7314  2.8637
 6059SOL    HW229811   2.051   1.623  17.635  1.2009  1.5242  0.7720
 6060SOL     OW29812   0.799   1.940   3.227  0.5214  0.2226  0.0770
 6060SOL    HW129813   0.773   2.032   3.217  2.4831  0.6016 -1.3946
 6060SOL    HW229814   0.882   1.942   3.273  0.2804  0.7268  0.5003
 6061SOL     OW29815   1.225   0.120   3.996 -0.1658 -0.1861  0.6013
 6061SOL    HW129816   1.205   0.101   4.087  0.1744 -1.6589  0.3694
 6061SOL    HW229817   1.206   0.044   3.940  1.6849  0.8957 -1.5161
 6062SOL     OW29818   3.863   3.062  16.148  0.3762 -0.4435  0.2212
 6062SOL    HW129819   3.857   3.146  16.102 -0.1279 -0.6011  0.0003
 6062SOL    HW229820   3.956   3.038  16.142  0.8079  1.2039  0.2615
 6063SOL     OW29821   1.209   0.378   5.435 -0.3450  0.4890 -0.0977
 6063SOL    HW129822   1.113   0.376   5.434 -0.3197 -0.9025 -0.3879
 6063SOL    HW229823   1.227   0.421   5.351  1.7597 -0.7519 -0.2872
 6064SOL     OW29824   3.481   4.433   6.383  0.4054 -0.0285 -0.0818
 6064SOL    HW129825   3.527   4.396   6.308 -0.3661 -0.7543 -0.1932
 6064SOL    HW229826   3.456   4.517   6.344 -1.5495  1.0466  3.4881
 6065SOL     OW29827   2.695   1.476  12.689 -0.6107 -0.8803  0.1208
 6065SOL    HW129828   2.616   1.423  12.682  0.5273 -2.6215  0.4754
 6065SOL    HW229829   2.752   1.408  12.724 -1.4503 -1.4238  0.4345
 6066SOL     OW29830   0.116   2.316   5.038 -0.1329 -0.0689 -0.2294
 6066SOL    HW129831   0.154   2.365   4.965  0.6384 -0.9492 -0.4298
 6066SOL    HW229832   0.195   2.266   5.059 -0.2035 -1.1379 -2.4267
 6067SOL     OW29833   2.268   1.532   7.334 -0.1697  0.2216 -0.0019
 6067SOL    HW129834   2.341   1.471   7.349  0.4413  0.4179 -2.1627
 6067SOL    HW229835   2.189   1.479   7.325 -0.2068  0.2377  0.2237
 6068SOL     OW29836   1.132   3.643   7.305  0.0790  0.2837  0.7867
 6068SOL    HW129837   1.090   3.583   7.244  0.4203 -1.1122  1.9019
 6068SOL    HW229838   1.188   3.691   7.245 -1.0183 -1.8520 -1.9091
 6069SOL     OW29839   3.931   1.354  12.093  0.0012 -0.0480  0.0009
 6069SOL    HW129840   3.859   1.393  12.043  0.0787 -1.2812 -1.0784
 6069SOL    HW229841   3.901   1.314  12.175  1.5917  1.2632  1.2229
 6070SOL     OW29842   3.903   3.547  10.983  0.0462  1.0355  1.3054
 6070SOL    HW129843   3.943   3.504  11.058 -0.4129 -2.2310 -0.3157
 6070SOL    HW229844   3.980   3.584  10.940 -0.4229 -1.1182 -1.3855
 6071SOL     OW29845   3.519   4.497   9.788  0.0129 -0.0681  0.5241
 6071SOL    HW129846   3.487   4.554   9.718 -1.3509 -0.7727  0.5653
 6071SOL    HW229847   3.576   4.556   9.837 -0.3289  0.8772 -0.2241
 6072SOL     OW29848   2.193   3.353   7.197 -0.4889  0.0763 -0.0027
 6072SOL    HW129849   2.127   3.321   7.136 -2.7310  1.0743  1.9091
 6072SOL    HW229850   2.240   3.273   7.222 -0.6640  0.0467  0.2303
 6073SOL     OW29851   4.736   1.497   4.292  0.2682 -0.0521 -0.1660
 6073SOL    HW129852   0.040   1.411   4.291  0.3263 -0.0377  0.9490
 6073SOL    HW229853   4.660   1.471   4.241  1.0971 -1.6134 -0.6038
 6074SOL     OW29854   1.206   3.690   4.503 -0.3408  0.1998  0.0896
 6074SOL    HW129855   1.283   3.655   4.458 -0.0620 -0.0528  0.7543
 6074SOL    HW229856   1.238   3.778   4.524 -2.1403  1.3019 -1.8812
 6075SOL     OW29857   0.170   1.506  12.541 -0.2265 -0.0877  0.0994
 6075SOL    HW129858   0.249   1.556  12.561  1.2318 -1.6004 -1.9217
 6075SOL    HW229859   0.200   1.444  12.475 -0.0036  1.4408 -1.2555
 6076SOL     OW29860   3.731   1.963   8.522 -0.4200 -0.5272 -0.6192
 6076SOL    HW129861   3.779   2.016   8.586 -0.5398 -0.2100 -0.7945
 6076SOL    HW229862   3.641   1.962   8.556 -0.0142  0.1665  0.4834
 6077SOL     OW29863   3.774   0.322  16.774  0.0516 -0.9034 -0.0438
 6077SOL    HW129864   3.852   0.328  16.829  1.2654 -1.9056 -1.6536
 6077SOL    HW229865   3.720   0.293  16.848  0.9294  0.0998  0.9761
 6078SOL     OW29866   3.095   0.441   5.699 -0.1303 -0.4280 -0.0357
 6078SOL    HW129867   3.057   0.368   5.650 -0.9631  0.2960 -0.4822
 6078SOL    HW229868   3.074   0.519   5.647 -0.4878 -1.0772 -0.8773
 6079SOL     OW29869   3.261   0.737  13.247 -0.3978  0.2459 -0.4251
 6079SOL    HW129870   3.175   0.736  13.205  0.3857  1.1751 -2.0316
 6079SOL    HW229871   3.293   0.652  13.218  2.1517  1.4918 -1.2655
 6080SOL     OW29872   1.473   1.667  16.603 -0.6109 -0.2886  0.0182
 6080SOL    HW129873   1.485   1.642  16.695 -0.5847 -0.3157  0.0073
 6080SOL    HW229874   1.392   1.618  16.591 -0.1569 -0.7277 -1.2631
 6081SOL     OW29875   3.346   3.312   4.313 -0.1067 -0.0654  0.2295
 6081SOL    HW129876   3.414   3.362   4.358 -0.0988 -2.1276  2.4909
 6081SOL    HW229877   3.398   3.263   4.249 -0.9405 -2.2440  1.2328
 6082SOL     OW29878   1.549   2.155   2.463 -0.4745 -0.3052  0.4455
 6082SOL    HW129879   1.457   2.154   2.438 -0.7483  1.3195  1.4498
 6082SOL    HW229880   1.593   2.114   2.388 -2.0944 -0.8660 -0.1989
 6083SOL     OW29881   0.244   0.310   3.365 -0.3294 -0.6842  0.4156
 6083SOL    HW129882   0.151   0.302   3.382 -0.6728  2.8635  0.1910
 6083SOL    HW229883   0.243   0.403   3.344 -0.6832 -0.8575 -0.3511
 6084SOL     OW29884   0.461   3.229   9.390 -0.6577 -0.0157 -0.0668
 6084SOL    HW129885   0.375   3.267   9.408 -0.7063 -0.4658  0.6670
 6084SOL    HW229886   0.511   3.310   9.405 -1.3456 -0.0877  2.6720
 6085SOL     OW29887   0.249   3.950   8.979  0.7640  0.0880 -0.1244
 6085SOL    HW129888   0.339   3.936   9.006  1.3112  2.7086 -0.5208
 6085SOL    HW229889   0.231   3.871   8.928 -1.0682 -0.2250  1.0270
 6086SOL     OW29890   4.247   1.136  14.344  0.3558 -0.2211  0.2635
 6086SOL    HW129891   4.292   1.056  14.317 -0.7465  0.2856 -3.0325
 6086SOL    HW229892   4.242   1.115  14.438  1.1878 -0.7169  0.1939
 6087SOL     OW29893   2.361   1.286   8.195 -0.3204  0.5620  0.0080
 6087SOL    HW129894   2.320   1.250   8.274 -1.6708 -1.3902 -1.5628
 6087SOL    HW229895   2.316   1.238   8.126 -0.9249 -2.6267  2.6093
 6088SOL     OW29896   0.659   3.127  10.642  0.3395  0.1947 -0.1934
 6088SOL    HW129897   0.703   3.166  10.567  1.5431 -0.1293  0.3515
 6088SOL    HW229898   0.733   3.088  10.688  0.8665  3.0105  1.3738
 6089SOL     OW29899   1.295   1.877   6.549  0.3553  0.0871  0.3721
 6089SOL    HW129900   1.201   1.887   6.535  0.7314  1.7745 -1.0031
 6089SOL    HW229901   1.333   1.962   6.573  0.4146  0.1561  0.0296
 6090SOL     OW29902   0.902   3.539   3.149  0.1161  0.1828 -0.1129
 6090SOL    HW129903   0.915   3.453   3.110 -0.6135  0.0572 -0.0838
 6090SOL    HW229904   0.811   3.541   3.178  0.9840  1.5553  2.5534
 6091SOL     OW29905   2.586   0.899   3.517 -0.1871 -0.2653  0.3730
 6091SOL    HW129906   2.514   0.962   3.511  1.3197  1.3795 -0.5963
 6091SOL    HW229907   2.537   0.817   3.506  2.5440 -2.0629  1.6495
 6092SOL     OW29908   2.007   0.400  10.055 -0.2944  0.1682  0.3093
 6092SOL    HW129909   1.947   0.327  10.041 -1.6495  0.9439  2.0180
 6092SOL    HW229910   2.088   0.360  10.024 -1.4195 -1.0564 -1.0190
 6093SOL     OW29911   0.097   4.313   9.846  0.2885  0.3636 -0.0534
 6093SOL    HW129912   0.030   4.280   9.787  2.0253  1.8257 -2.8787
 6093SOL    HW229913   0.042   4.356   9.911 -1.8434 -2.1313 -0.2213
 6094SOL     OW29914   0.533   2.826  12.684 -0.2597 -0.1805 -0.2248
 6094SOL    HW129915   0.619   2.863  12.665 -0.7440 -0.1292 -2.3166
 6094SOL    HW229916   0.547   2.732  12.673  0.3954  0.1904 -2.5599
 6095SOL     OW29917   0.646   3.703   0.183  0.0854 -0.1700  0.1785
 6095SOL    HW129918   0.646   3.671   0.092  2.1640 -0.5079  0.2871
 6095SOL    HW229919   0.583   3.643   0.223 -1.4749 -0.1199 -2.1624
 6096SOL     OW29920   1.738   4.042   6.664 -0.0322  0.3059  0.5454
 6096SOL    HW129921   1.828   4.051   6.633  0.3606 -0.4611  1.4305
 6096SOL    HW229922   1.742   4.071   6.756 -0.4725  1.2348  0.2690
 6097SOL     OW29923   3.033   3.721  12.235  0.0466 -0.2008  0.4719
 6097SOL    HW129924   3.103   3.771  12.276  1.6669  1.6950 -4.5503
 6097SOL    HW229925   2.953   3.771  12.254  0.0758  0.9775 -2.3489
 6098SOL     OW29926   1.151   2.745  14.444  0.2433  0.0030 -0.6542
 6098SOL    HW129927   1.142   2.819  14.505 -1.3734 -0.5781 -0.1877
 6098SOL    HW229928   1.096   2.773  14.371 -0.2490  0.3221 -0.1606
 6099SOL     OW29929   0.182   4.070   9.897 -0.5405  0.0665 -0.3452
 6099SOL    HW129930   0.090   4.054   9.877  0.3187 -1.5714 -2.9415
 6099SOL    HW229931   0.171   4.163   9.877 -0.4403  0.6906  2.4348
 6100SOL     OW29932   0.235   1.128  15.554 -0.0630  0.2749 -0.0282
 6100SOL    HW129933   0.245   1.056  15.491 -0.1303  2.2527 -2.2919
 6100SOL    HW229934   0.144   1.108  15.579 -0.1015  0.1054 -0.2973
 6101SOL     OW29935   3.182   0.979   6.842 -0.1669 -1.0056 -0.5382
 6101SOL    HW129936   3.139   0.976   6.756 -0.3994 -0.7940 -0.4297
 6101SOL    HW229937   3.266   0.944   6.814  0.6594 -0.0047  0.7170
 6102SOL     OW29938   0.794   0.006   2.804  0.4816 -0.1446 -0.3330
 6102SOL    HW129939   0.699   0.016   2.801  0.4878 -0.1460 -0.5224
 6102SOL    HW229940   0.805   0.013   2.710 -0.9298 -3.6709 -0.7228
 6103SOL     OW29941   2.804   2.749  10.999  0.0510 -0.3487  0.4982
 6103SOL    HW129942   2.844   2.679  11.050 -0.3238  0.0119  1.2862
 6103SOL    HW229943   2.736   2.786  11.056  0.6269  1.8516 -0.2383
 6104SOL     OW29944   0.912   4.696  12.365  0.1201  0.2725  0.1112
 6104SOL    HW129945   0.945   4.642  12.437 -1.4696 -0.2859  0.4318
 6104SOL    HW229946   0.817   4.685  12.375 -0.0787  0.8191 -1.2242
 6105SOL     OW29947   4.223   1.038   2.877 -0.3573  0.1131 -0.3661
 6105SOL    HW129948   4.231   0.976   2.805  1.2105 -0.3155  0.1669
 6105SOL    HW229949   4.226   0.980   2.954 -0.3499  1.8984  0.9761
 6106SOL     OW29950   0.956   1.039   1.309 -0.7030 -0.2553 -0.1855
 6106SOL    HW129951   1.045   1.006   1.300  0.1669  1.4990  1.8551
 6106SOL    HW229952   0.955   1.121   1.259  1.2955  0.0987  0.3797
 6107SOL     OW29953   3.656   4.156  15.715  0.1265  0.4287 -0.6392
 6107SOL    HW129954   3.700   4.097  15.776  0.8303  0.7098 -0.8781
 6107SOL    HW229955   3.564   4.129  15.717  0.1806  0.2548 -0.5211
 6108SOL     OW29956   1.805   1.731   4.843  0.2677 -0.5438  0.7660
 6108SOL    HW129957   1.832   1.704   4.755  0.4888  2.6332 -0.1116
 6108SOL    HW229958   1.835   1.657   4.897  1.2046  0.6397  1.8706
 6109SOL     OW29959   0.316   4.444   4.886  0.3051  0.2399  0.9734
 6109SOL    HW129960   0.262   4.444   4.806 -1.1088  2.2907  1.8974
 6109SOL    HW229961   0.254   4.497   4.937 -0.2122 -0.6515  1.2654
 6110SOL     OW29962   3.450   0.038   1.584 -0.4056 -0.0145  0.0896
 6110SOL    HW129963   3.525   4.723   1.611 -1.7634 -1.2356  1.5099
 6110SOL    HW229964   3.445   0.107   1.649 -0.5389 -2.0678  2.2667
 6111SOL     OW29965   4.699   1.445   1.021  0.6200 -0.3699 -0.2540
 6111SOL    HW129966   4.718   1.495   0.942 -0.7741  1.8102  0.7831
 6111SOL    HW229967   4.722   1.354   1.002 -0.3867 -0.6543 -0.1271
 6112SOL     OW29968   0.641   0.219   0.652 -0.0067  0.4426  0.1834
 6112SOL    HW129969   0.592   0.228   0.734 -0.3703  2.0497 -0.2157
 6112SOL    HW229970   0.648   0.308   0.618 -1.7666  1.5364  2.6213
 6113SOL     OW29971   0.207   1.515   0.552 -0.3974  0.4251  0.2140
 6113SOL    HW129972   0.283   1.483   0.600  0.4107 -1.4548 -2.3196
 6113SOL    HW229973   0.231   1.604   0.527 -2.8729  1.1787  0.5515
 6114SOL     OW29974   1.231   0.836   3.135 -0.4565 -0.0206  0.2566
 6114SOL    HW129975   1.139   0.823   3.109 -0.0375 -1.5039 -0.4757
 6114SOL    HW229976   1.254   0.749   3.105 -1.0752  0.7007 -2.3308
 6115SOL     OW29977   3.171   4.620   7.351  0.0577  0.0247 -0.2372
 6115SOL    HW129978   3.198   4.710   7.368  1.8223 -0.5294 -0.1437
 6115SOL    HW229979   3.102   4.621   7.417  1.1242  1.8415  0.8422
 6116SOL     OW29980   4.644   1.244   4.993 -0.3293  0.0976  0.3290
 6116SOL    HW129981   4.664   1.298   5.070 -1.5491 -0.5976  1.1471
 6116SOL    HW229982   4.595   1.301   4.935  1.1436  0.0985 -0.8957
 6117SOL     OW29983   1.670   4.406   4.614 -0.3080  0.0199 -0.0477
 6117SOL    HW129984   1.614   4.477   4.584 -0.4968 -0.6783 -1.3163
 6117SOL    HW229985   1.755   4.451   4.613 -0.6031  0.6099  2.0169
 6118SOL     OW29986   3.677   4.382  14.833 -0.4155  0.5617  0.7840
 6118SOL    HW129987   3.593   4.336  14.834 -0.3465  0.4233 -0.0641
 6118SOL    HW229988   3.698   4.394  14.925  0.4678 -2.4440  0.9875
 6119SOL     OW29989   2.859   2.482   5.855  0.1563  0.4499 -0.1501
 6119SOL    HW129990   2.795   2.411   5.852  0.7584 -0.1047  0.1401
 6119SOL    HW229991   2.902   2.484   5.770 -0.2319  0.4101 -0.3468
 6120SOL     OW29992   4.526   2.675   6.981  0.7629 -0.1243  0.1907
 6120SOL    HW129993   4.620   2.662   6.995  1.1488  3.1069  0.6715
 6120SOL    HW229994   4.506   2.584   6.963 -0.9405  0.7174 -2.1907
 6121SOL     OW29995   3.909   0.631  12.199  0.4930 -0.0885 -0.6532
 6121SOL    HW129996   3.935   0.578  12.123  1.9865 -0.3981  0.0647
 6121SOL    HW229997   3.820   0.655  12.173 -0.5949 -0.4593  2.7995
 6122SOL     OW29998   4.520   0.151  16.192 -0.1266 -0.4279  0.2248
 6122SOL    HW129999   4.432   0.115  16.181 -0.1126 -0.6570  0.8607
 6122SOL    HW230000   4.497   0.207  16.266  2.7205  2.9073 -1.4141
 6123SOL     OW30001   1.899   4.559   4.934  0.2814 -0.3855  0.4757
 6123SOL    HW130002   1.907   4.559   4.839 -1.1892  1.7839  0.3550
 6123SOL    HW230003   1.917   4.651   4.953  2.8864 -1.2406  2.2999
 6124SOL     OW30004   3.042   4.147  12.177 -1.2938 -0.2384 -0.1809
 6124SOL    HW130005   3.084   4.177  12.097  1.0012  0.3408  1.2379
 6124SOL    HW230006   2.982   4.219  12.197  1.1587  1.4493  1.0316
 6125SOL     OW30007   2.518   3.802   8.060 -0.0536  0.2147  0.4798
 6125SOL    HW130008   2.467   3.876   8.026  1.6694  1.1646 -0.0266
 6125SOL    HW230009   2.459   3.729   8.077  2.3379 -2.0473 -1.0160
 6126SOL     OW30010   2.174   0.071   9.407  0.7220 -0.2440  0.5201
 6126SOL    HW130011   2.080   0.056   9.401  0.7153  0.3076 -0.6255
 6126SOL    HW230012   2.191   0.025   9.490 -0.7385 -3.0733 -0.7748
 6127SOL     OW30013   2.090   1.756   1.319 -0.9853 -0.2332 -0.6072
 6127SOL    HW130014   2.128   1.674   1.288  1.4998 -0.3600  2.6941
 6127SOL    HW230015   2.051   1.731   1.403  2.7700 -2.1927  0.5264
 6128SOL     OW30016   1.697   1.063   1.104 -0.0825 -0.6566  0.0907
 6128SOL    HW130017   1.686   1.006   1.029  4.4990 -0.1345 -0.9858
 6128SOL    HW230018   1.784   1.035   1.134 -0.8473  0.0014  2.9661
 6129SOL     OW30019   4.011   0.010  10.089 -0.4695 -0.2876  0.9269
 6129SOL    HW130020   4.017   0.097  10.126 -1.4713  0.1193  0.1151
 6129SOL    HW230021   3.927   4.714  10.118 -1.4519  0.9413 -0.5187
 6130SOL     OW30022   3.819   4.729  15.841 -0.2093 -0.6555 -0.0195
 6130SOL    HW130023   3.889   0.029  15.894  0.4961 -0.1946 -1.2857
 6130SOL    HW230024   3.769   4.672  15.900 -0.8567 -1.8169 -1.7038
 6131SOL     OW30025   0.890   3.763   4.692  0.2068 -0.0481  0.2227
 6131SOL    HW130026   0.897   3.722   4.779  1.3699 -1.5974 -0.5910
 6131SOL    HW230027   0.873   3.692   4.630  0.6284  0.0450 -0.0007
 6132SOL     OW30028   1.510   2.427   5.042  0.1520  0.5760 -0.1346
 6132SOL    HW130029   1.469   2.437   5.128 -1.0349 -1.6758 -0.4448
 6132SOL    HW230030   1.425   2.422   4.999  1.3899 -1.2920 -2.3836
 6133SOL     OW30031   0.442   0.760   5.687  0.0265  0.1778 -0.3613
 6133SOL    HW130032   0.408   0.740   5.600  1.6666 -1.7065 -0.5610
 6133SOL    HW230033   0.423   0.681   5.737 -0.0784 -1.9791 -3.8185
 6134SOL     OW30034   3.549   2.112   6.907 -0.2985 -0.4791  0.1022
 6134SOL    HW130035   3.544   2.152   6.821  1.2889  1.2077  0.7921
 6134SOL    HW230036   3.598   2.178   6.956 -1.9046  0.2159  0.7882
 6135SOL     OW30037   0.948   1.937   8.798  0.9335  0.6963  0.0696
 6135SOL    HW130038   0.966   2.027   8.826 -1.1723  1.1503 -0.0373
 6135SOL    HW230039   0.887   1.906   8.864  1.5049 -2.4058 -0.8681
 6136SOL     OW30040   2.760   0.165   6.323  0.0982  0.1170 -0.1565
 6136SOL    HW130041   2.711   0.088   6.297 -0.1363 -0.2094  1.2361
 6136SOL    HW230042   2.705   0.231   6.282  0.3552  0.7939  0.5782
 6137SOL     OW30043   4.002   4.221   2.413  0.2481  0.6856  0.0614
 6137SOL    HW130044   3.948   4.279   2.358  0.3411  0.2922 -0.4504
 6137SOL    HW230045   3.965   4.135   2.391  1.2020  0.5552 -1.0277
 6138SOL     OW30046   0.521   3.430  10.078 -0.2017 -0.9183 -0.3760
 6138SOL    HW130047   0.446   3.374  10.059 -1.4258  0.6446 -0.1237
 6138SOL    HW230048   0.549   3.413  10.167  0.7446 -0.8177 -0.6549
 6139SOL     OW30049   2.414   2.445   3.200 -0.0833 -0.0159 -0.3515
 6139SOL    HW130050   2.341   2.507   3.203 -0.8314 -0.8628 -1.1129
 6139SOL    HW230051   2.429   2.423   3.292  0.2990  1.1843 -0.1330
 6140SOL     OW30052   4.178   1.847  17.263 -0.5678 -0.0042 -0.1684
 6140SOL    HW130053   4.247   1.900  17.223 -1.5576  0.3154 -1.4547
 6140SOL    HW230054   4.197   1.763  17.220 -0.0502  0.5240 -0.9644
 6141SOL     OW30055   0.234   1.268   0.427 -0.0785  0.0202  0.5927
 6141SOL    HW130056   0.228   1.362   0.447  0.5303  0.1049  0.3768
 6141SOL    HW230057   0.161   1.234   0.478 -0.3487 -1.4934 -0.8238
 6142SOL     OW30058   1.206   1.463   5.614  0.0451 -0.3874  0.2484
 6142SOL    HW130059   1.228   1.398   5.680  0.0231 -1.4463 -0.7993
 6142SOL    HW230060   1.177   1.401   5.548 -0.6888  0.3016 -0.0806
 6143SOL     OW30061   4.562   3.827  12.054  0.2964  0.5084 -0.1044
 6143SOL    HW130062   4.604   3.764  12.111  0.9515 -0.3944 -1.5823
 6143SOL    HW230063   4.473   3.795  12.041  0.6999 -0.7879  0.3795
 6144SOL     OW30064   4.321   1.588   0.598  0.1034 -0.2605 -0.4623
 6144SOL    HW130065   4.412   1.560   0.611 -0.4737 -2.5935 -1.5490
 6144SOL    HW230066   4.290   1.599   0.688 -0.6436 -1.1505 -0.6154
 6145SOL     OW30067   2.495   0.605  13.216  0.6420 -0.5826  0.6017
 6145SOL    HW130068   2.486   0.542  13.145 -0.4002  1.7110 -1.3230
 6145SOL    HW230069   2.515   0.542  13.285 -1.7831 -0.9535  0.9687
 6146SOL     OW30070   3.428   3.341  10.445 -0.1712  0.8823  0.4331
 6146SOL    HW130071   3.503   3.367  10.391  0.7486 -1.3086  0.6768
 6146SOL    HW230072   3.395   3.262  10.403  1.7273  1.2131 -1.6605
 6147SOL     OW30073   0.235   3.606   2.291 -0.0598  0.4675  0.0291
 6147SOL    HW130074   0.181   3.529   2.275  1.0248  0.0666 -1.6769
 6147SOL    HW230075   0.215   3.658   2.212  2.5912  2.4246  0.6529
 6148SOL     OW30076   0.838   2.334   2.958 -0.3431 -0.2902  0.3446
 6148SOL    HW130077   0.898   2.378   2.897  2.5084 -1.0893  2.6176
 6148SOL    HW230078   0.895   2.274   3.005  0.0510  0.3340  0.6557
 6149SOL     OW30079   1.053   4.499   1.826 -0.2054 -0.3332 -0.4955
 6149SOL    HW130080   1.015   4.506   1.914  1.0045  1.0581 -0.0845
 6149SOL    HW230081   0.997   4.559   1.777 -1.4332  0.6008  2.0431
 6150SOL     OW30082   3.936   2.460   0.244  0.3242 -0.1474 -0.3213
 6150SOL    HW130083   3.895   2.493   0.324  1.0939 -0.5680  0.2486
 6150SOL    HW230084   3.861   2.450   0.185  1.2343  1.4571 -1.7583
 6151SOL     OW30085   4.001   0.155   0.712 -0.3442  0.5831 -0.1323
 6151SOL    HW130086   4.090   0.137   0.682 -0.6751  1.2535 -1.5021
 6151SOL    HW230087   3.990   0.240   0.670 -0.0989  1.0192  0.7007
 6152SOL     OW30088   2.660   2.612  15.869  0.1384  0.5956 -0.5025
 6152SOL    HW130089   2.657   2.650  15.957  1.6177  1.6013 -0.8783
 6152SOL    HW230090   2.605   2.536  15.887  2.2756 -0.8883 -0.3887
 6153SOL     OW30091   0.064   0.758   0.045  0.3678 -0.1078  0.1146
 6153SOL    HW130092   0.100   0.846   0.031 -1.7793  0.7205 -0.3048
 6153SOL    HW230093   0.147   0.718   0.071  0.7207 -0.4764 -1.5365
 6154SOL     OW30094   2.051   4.484   7.180  0.7546  0.1597  0.0937
 6154SOL    HW130095   2.004   4.469   7.098 -1.1148 -2.7664  1.7059
 6154SOL    HW230096   2.047   4.398   7.223  1.9023 -1.0014 -2.1360
 6155SOL     OW30097   3.067   1.668   2.671 -0.2702  0.0758 -0.0055
 6155SOL    HW130098   3.066   1.677   2.766  0.8788  0.2757 -0.0130
 6155SOL    HW230099   2.975   1.658   2.645 -0.2218  1.7602 -0.8472
 6156SOL     OW30100   0.077   3.659   1.418 -0.1852  0.0191 -0.2552
 6156SOL    HW130101   0.141   3.690   1.483 -2.0611  0.2735  1.4639
 6156SOL    HW230102   0.014   3.730   1.418 -0.2065  0.0006 -0.8042
 6157SOL     OW30103   1.910   0.213   6.925 -0.3290 -0.5242  0.2833
 6157SOL    HW130104   1.969   0.194   6.997 -0.5372  1.0566  0.8830
 6157SOL    HW230105   1.907   0.126   6.886  0.8314 -0.1770 -0.5982
 6158SOL     OW30106   3.187   1.006   6.507 -0.5326  1.2842 -0.0960
 6158SOL    HW130107   3.106   0.956   6.512  1.0316 -1.2396  0.0875
 6158SOL    HW230108   3.240   0.960   6.443 -1.7414  0.3937 -0.4599
 6159SOL     OW30109   0.716   3.314   0.794  0.5233  0.2596  0.1787
 6159SOL    HW130110   0.806   3.332   0.768  0.0124  1.5293 -0.6933
 6159SOL    HW230111   0.718   3.219   0.780 -1.9770 -0.1883  2.6952
 6160SOL     OW30112   4.709   0.462   1.061 -0.0084  0.0947 -0.1393
 6160SOL    HW130113   0.005   0.491   0.977  2.2409 -1.2326  0.3456
 6160SOL    HW230114   4.636   0.524   1.072  1.5517  1.9276 -0.1362
 6161SOL     OW30115   2.650   4.193   4.730 -0.4773  0.1252  0.1433
 6161SOL    HW130116   2.578   4.218   4.788 -0.1538  1.3757 -0.0012
 6161SOL    HW230117   2.647   4.101   4.758  1.0214  0.1053  0.2482
 6162SOL     OW30118   1.408   3.990  12.093  0.0775 -0.3789 -0.3488
 6162SOL    HW130119   1.476   4.036  12.143  0.1391  0.7462 -1.4708
 6162SOL    HW230120   1.466   3.923  12.057  0.3259  0.0418 -0.7385
 6163SOL     OW30121   1.277   2.399   9.984  0.9460  0.3053  0.0621
 6163SOL    HW130122   1.184   2.376   9.986  0.7950  1.0501  1.5160
 6163SOL    HW230123   1.299   2.372  10.073 -1.0895  1.0832  0.8123
 6164SOL     OW30124   2.521   2.518  16.479  0.3949 -0.4327  0.4051
 6164SOL    HW130125   2.518   2.519  16.574 -0.0438  0.9106  0.3829
 6164SOL    HW230126   2.476   2.438  16.451  2.5541 -1.6795  0.4342
 6165SOL     OW30127   1.025   4.581   0.010 -0.0759  0.3858  0.0570
 6165SOL    HW130128   0.979   4.665   0.010  1.6788  1.3363 -0.0060
 6165SOL    HW230129   0.995   4.536   0.089  0.0899 -0.7247 -0.5025
 6166SOL     OW30130   4.727   0.462   0.497  0.5336  0.3341  0.1431
 6166SOL    HW130131   4.700   0.551   0.518  3.2394  1.3820 -0.8285
 6166SOL    HW230132   4.722   0.478   0.402  1.4227  0.8688  0.1980
 6167SOL     OW30133   2.984   1.601   1.453  0.1644 -0.0641  0.2418
 6167SOL    HW130134   2.897   1.582   1.489  0.0217  1.6589  0.8310
 6167SOL    HW230135   3.031   1.624   1.533  2.2828 -1.1257 -0.6940
 6168SOL     OW30136   2.830   3.319   6.086 -0.2249  0.0169  0.2984
 6168SOL    HW130137   2.920   3.347   6.073 -0.4829  0.6548 -0.1257
 6168SOL    HW230138   2.798   3.389   6.143 -1.1224 -0.0756 -0.0781
 6169SOL     OW30139   2.141   3.750   5.053  0.0480 -0.0300 -0.2611
 6169SOL    HW130140   2.071   3.815   5.056  0.3277  0.3338 -1.6375
 6169SOL    HW230141   2.096   3.673   5.020 -0.2277  0.2721 -0.5877
 6170SOL     OW30142   4.282   1.455   9.890  0.0380 -0.3153 -0.0805
 6170SOL    HW130143   4.328   1.484   9.812 -0.9040 -0.3026 -0.6311
 6170SOL    HW230144   4.309   1.363   9.885  0.4781 -0.1593 -0.4752
 6171SOL     OW30145   4.566   2.003  11.632 -0.2114  0.1938 -0.2759
 6171SOL    HW130146   4.490   1.946  11.643  0.2125 -0.5098 -0.9420
 6171SOL    HW230147   4.604   2.006  11.720 -0.3522  0.0154 -0.2081
 6172SOL     OW30148   4.336   0.485   4.433  0.1206  0.6110  0.0814
 6172SOL    HW130149   4.349   0.393   4.411 -0.0164  0.6368 -0.1069
 6172SOL    HW230150   4.374   0.487   4.521  2.7928 -1.5668 -1.0126
 6173SOL     OW30151   2.470   1.098   1.549 -0.7982  0.6013 -0.4820
 6173SOL    HW130152   2.482   1.106   1.644 -0.6934 -1.5322 -0.3054
 6173SOL    HW230153   2.415   1.019   1.546 -1.1164  0.8017  0.0971
 6174SOL     OW30154   2.100   4.698   7.360  0.4715  0.3406  0.1231
 6174SOL    HW130155   2.090   4.614   7.314  1.2695  0.5055 -0.3533
 6174SOL    HW230156   2.153   4.665   7.433  0.8430  0.3936 -0.1220
 6175SOL     OW30157   0.215   1.573  11.186  0.0193  0.0891  0.8117
 6175SOL    HW130158   0.226   1.635  11.114  1.8633 -0.1208  0.8987
 6175SOL    HW230159   0.299   1.527  11.191 -0.4954 -0.9219  0.1964
 6176SOL     OW30160   2.393   1.161   0.024  0.1126  0.4178  0.2439
 6176SOL    HW130161   2.334   1.088   0.003  1.0350 -0.8191  2.0125
 6176SOL    HW230162   2.467   1.144  17.717 -1.3738 -3.8437 -0.3501
 6177SOL     OW30163   4.576   1.318   8.916  0.0300 -0.2022  0.7442
 6177SOL    HW130164   4.562   1.307   9.010 -1.4655  0.8661  0.6453
 6177SOL    HW230165   4.597   1.227   8.895  0.7758  0.2088 -0.3686
 6178SOL     OW30166   1.872   2.904   6.779  0.0664 -0.3302 -0.2548
 6178SOL    HW130167   1.858   2.999   6.774 -1.1770 -0.4169  1.3947
 6178SOL    HW230168   1.799   2.876   6.724  0.5816 -0.5460 -0.8301
 6179SOL     OW30169   3.176   2.676   4.625 -0.3164  0.2137  0.2254
 6179SOL    HW130170   3.114   2.730   4.674  0.6176  0.9215  0.6166
 6179SOL    HW230171   3.238   2.648   4.691 -0.5752 -1.1239 -0.0999
 6180SOL     OW30172   0.505   3.379  15.665 -0.4306 -0.0703  0.0914
 6180SOL    HW130173   0.455   3.302  15.691 -0.5257  0.1452  0.5434
 6180SOL    HW230174   0.459   3.456  15.696  0.1757  0.3097  0.0436
 6181SOL     OW30175   0.772   1.085  10.665  0.9505 -0.1734  0.2496
 6181SOL    HW130176   0.700   1.110  10.724  0.4982  0.3746 -0.5300
 6181SOL    HW230177   0.743   1.003  10.626  2.7494 -0.2835 -0.8671
 6182SOL     OW30178   0.040   2.914   0.375 -0.2880  0.0589 -0.1076
 6182SOL    HW130179   0.087   2.832   0.394 -0.9557 -0.9127 -2.6676
 6182SOL    HW230180   4.723   2.924   0.453 -0.7723  2.2100 -0.7367
 6183SOL     OW30181   3.179   0.111   8.300  0.3554 -0.0679 -0.5441
 6183SOL    HW130182   3.202   0.036   8.356  1.2798  0.0708 -0.7340
 6183SOL    HW230183   3.101   0.080   8.253 -0.4052 -1.5407  1.6678
 6184SOL     OW30184   1.920   2.264   8.597 -0.2947  0.0278  0.1663
 6184SOL    HW130185   1.919   2.304   8.684  1.5995 -2.5065  1.3601
 6184SOL    HW230186   2.006   2.221   8.596  0.7390  2.1074  0.2358
 6185SOL     OW30187   3.022   3.440   8.546  0.3026 -0.3210 -0.2939
 6185SOL    HW130188   2.980   3.450   8.631  0.4216 -2.2539 -0.0047
 6185SOL    HW230189   3.111   3.466   8.569  1.1952 -2.8119 -0.9130
 6186SOL     OW30190   1.336   3.817   7.489 -0.2426 -0.3828  0.2655
 6186SOL    HW130191   1.298   3.814   7.401 -1.0633 -0.8153  0.6379
 6186SOL    HW230192   1.430   3.827   7.472  0.0937 -0.9949  1.7959
 6187SOL     OW30193   1.835   2.127   9.089 -0.6908  0.2560  0.0140
 6187SOL    HW130194   1.775   2.067   9.133  1.2551 -0.0589  2.2726
 6187SOL    HW230195   1.915   2.075   9.085 -1.3563 -0.8586  1.3229
 6188SOL     OW30196   3.638   3.284   3.957  0.3947 -0.4281  0.1682
 6188SOL    HW130197   3.611   3.342   3.887 -0.1854  1.5829  2.0704
 6188SOL    HW230198   3.707   3.340   3.992 -0.8659  0.3145  1.4410
 6189SOL     OW30199   0.337   1.326   4.027  0.2313  0.0003 -0.1672
 6189SOL    HW130200   0.265   1.332   3.964 -0.3060 -2.9168  0.1973
 6189SOL    HW230201   0.335   1.233   4.049 -1.6069 -0.2038 -1.1477
 6190SOL     OW30202   0.142   2.637   3.031  0.0322 -0.1118  0.2908
 6190SOL    HW130203   0.226   2.593   3.042  1.0542  1.7795  0.1950
 6190SOL    HW230204   0.179   2.724   3.013  0.4778 -0.4547 -0.4745
 6191SOL     OW30205   4.625   1.141   7.407  0.3821 -0.1226 -0.4039
 6191SOL    HW130206   4.616   1.206   7.337  1.0443 -1.2744 -1.5476
 6191SOL    HW230207   4.677   1.075   7.362 -0.2449 -0.3905 -0.7384
 6192SOL     OW30208   0.846   2.817  16.790 -0.8669  0.1733 -0.5835
 6192SOL    HW130209   0.809   2.856  16.711  3.1830  1.4428 -1.8442
 6192SOL    HW230210   0.940   2.831  16.778 -1.2171  1.5435 -1.7453
 6193SOL     OW30211   0.605   2.413   6.991 -0.2623  0.7206 -0.8884
 6193SOL    HW130212   0.638   2.435   7.078 -0.1825  0.6854 -0.9098
 6193SOL    HW230213   0.541   2.479   6.965 -0.8036  0.6077  0.1597
 6194SOL     OW30214   1.745   1.420  11.390  0.3664  0.5629 -0.0968
 6194SOL    HW130215   1.703   1.398  11.473  1.1735  0.7933  0.3708
 6194SOL    HW230216   1.668   1.418  11.333 -0.2189 -2.7861  0.8267
 6195SOL     OW30217   0.063   0.146   3.082 -0.0457 -0.3755 -0.5923
 6195SOL    HW130218   0.006   0.206   3.131 -1.9572 -1.9475 -0.8654
 6195SOL    HW230219   0.115   0.200   3.023 -2.5805 -1.7500 -4.0752
 6196SOL     OW30220   4.646   1.571   6.925  1.0768 -0.1606  0.1569
 6196SOL    HW130221   4.567   1.581   6.978  0.1664 -1.3932 -0.9719
 6196SOL    HW230222   4.654   1.477   6.908 -1.5873 -0.6532  1.7027
 6197SOL     OW30223   4.440   3.057   6.077  0.1429  0.7439  0.2511
 6197SOL    HW130224   4.348   3.080   6.059  0.0012  0.8950  1.1716
 6197SOL    HW230225   4.490   3.138   6.065  0.8597  0.3448  0.6091
 6198SOL     OW30226   2.589   0.281   4.033 -0.2334 -0.2159 -0.0096
 6198SOL    HW130227   2.588   0.223   3.956 -0.9959  1.4226 -1.2462
 6198SOL    HW230228   2.541   0.227   4.096 -0.4536  0.6136  0.5222
 6199SOL     OW30229   1.121   0.485   6.418 -0.0002 -0.2786  0.5582
 6199SOL    HW130230   1.113   0.560   6.476 -3.6120 -1.6247  1.8081
 6199SOL    HW230231   1.216   0.484   6.408  0.1111 -0.9752  1.6822
 6200SOL     OW30232   3.232   0.271   9.543 -0.3054  0.5525 -0.0224
 6200SOL    HW130233   3.309   0.322   9.567 -1.3834  1.8497  0.6372
 6200SOL    HW230234   3.180   0.276   9.623 -0.6768  0.8752 -0.2868
 6201SOL     OW30235   2.172   1.521   9.562 -0.2230  0.5121 -0.1547
 6201SOL    HW130236   2.123   1.484   9.635  2.8091  0.8021  2.0520
 6201SOL    HW230237   2.260   1.490   9.583 -0.0721 -0.2393 -1.8824
 6202SOL     OW30238   2.633   1.519  15.513  0.0891 -0.2053 -0.2561
 6202SOL    HW130239   2.540   1.536  15.525  0.5833  2.3296 -0.1258
 6202SOL    HW230240   2.665   1.593  15.565 -1.4961  0.8895 -0.8555
 6203SOL     OW30241   1.410   4.058  11.313  0.2795 -0.0210  0.6999
 6203SOL    HW130242   1.374   3.974  11.284  1.4358 -0.2802 -0.0220
 6203SOL    HW230243   1.480   4.026  11.370  0.8648  1.3260  0.7301
 6204SOL     OW30244   2.337   0.337   3.122 -0.0348  0.0605 -0.2069
 6204SOL    HW130245   2.308   0.389   3.196  0.4806 -0.5964  0.4515
 6204SOL    HW230246   2.262   0.277   3.124  1.3881 -1.6561  1.1032
 6205SOL     OW30247   0.485   3.445   6.396 -0.0843 -0.5139  0.6329
 6205SOL    HW130248   0.445   3.472   6.479 -2.3270  0.2828 -0.7358
 6205SOL    HW230249   0.542   3.520   6.379 -0.7706  0.4729  2.6185
 6206SOL     OW30250   2.378   2.376   0.790  0.3056 -0.8845 -0.5354
 6206SOL    HW130251   2.337   2.364   0.704 -0.0549  0.5016 -0.5630
 6206SOL    HW230252   2.349   2.291   0.822  2.2609 -1.3470 -0.0116
 6207SOL     OW30253   1.868   3.098   2.239 -0.9093 -0.0409 -0.0081
 6207SOL    HW130254   1.899   3.148   2.163  0.7297  0.5188  1.0318
 6207SOL    HW230255   1.838   3.169   2.296 -1.3637  0.8683 -1.3679
 6208SOL     OW30256   2.185   3.202   2.491 -0.4548  0.1629 -0.4673
 6208SOL    HW130257   2.131   3.213   2.569  0.2311  1.1396 -0.1301
 6208SOL    HW230258   2.204   3.294   2.475  1.7714 -0.2327 -0.0702
 6209SOL     OW30259   1.508   3.985   5.350 -0.2168 -0.4763 -0.4075
 6209SOL    HW130260   1.473   3.901   5.379 -1.9594  0.5120  0.3553
 6209SOL    HW230261   1.537   4.028   5.431 -0.8829  0.8680 -0.8896
 6210SOL     OW30262   2.149   0.775   1.878  0.1833  0.3644 -0.1441
 6210SOL    HW130263   2.065   0.814   1.855 -0.9949 -1.8304  0.4278
 6210SOL    HW230264   2.169   0.714   1.807  0.1485  0.2687 -0.0717
 6211SOL     OW30265   4.146   0.405   7.511  0.4488  0.3594  0.5696
 6211SOL    HW130266   4.115   0.373   7.426 -1.8493 -2.1673  2.3443
 6211SOL    HW230267   4.197   0.328   7.538  0.1210 -0.1981 -0.4000
 6212SOL     OW30268   3.267   3.399   9.312 -0.3898  0.1882  0.2580
 6212SOL    HW130269   3.244   3.336   9.381 -2.2608 -0.2188 -0.7561
 6212SOL    HW230270   3.353   3.429   9.341  0.4846 -1.7541 -0.3108
 6213SOL     OW30271   1.329   1.251   0.497 -0.3035  0.1351  0.1234
 6213SOL    HW130272   1.320   1.330   0.549  1.0842  0.1701  0.3122
 6213SOL    HW230273   1.423   1.239   0.481 -0.1353  1.4242  0.1062
 6214SOL     OW30274   0.711   2.810   8.047  0.0736 -0.2426 -0.0057
 6214SOL    HW130275   0.674   2.721   8.044 -0.8431  0.1936 -1.5413
 6214SOL    HW230276   0.750   2.815   7.961 -1.9511 -0.2247 -0.9317
 6215SOL     OW30277   3.321   1.705  11.856  0.8356 -0.0717  0.0537
 6215SOL    HW130278   3.352   1.729  11.769  0.5840 -0.8667 -0.2533
 6215SOL    HW230279   3.281   1.618  11.849  1.8383 -0.6450  1.4295
 6216SOL     OW30280   3.338   1.073   4.669 -0.1921  0.3282  0.3391
 6216SOL    HW130281   3.278   1.014   4.716 -1.1872  1.5453  0.5836
 6216SOL    HW230282   3.364   1.012   4.600 -1.2247  0.2966 -0.0192
 6217SOL     OW30283   1.981   0.910   0.542 -0.3280  0.6656 -0.1178
 6217SOL    HW130284   1.913   0.886   0.479  0.8478  1.0927 -1.5547
 6217SOL    HW230285   2.059   0.905   0.486 -1.4522  1.2040 -1.7657
 6218SOL     OW30286   1.290   3.982   4.163 -0.0286  0.0588  0.3579
 6218SOL    HW130287   1.356   4.051   4.151 -0.9305  1.2682  2.3930
 6218SOL    HW230288   1.204   4.019   4.180 -1.7123 -3.0918 -1.3734
 6219SOL     OW30289   4.209   0.683  15.340  0.6062 -0.2139 -0.2349
 6219SOL    HW130290   4.190   0.595  15.308  0.0111  0.1346 -0.8268
 6219SOL    HW230291   4.303   0.667  15.348  0.5711 -1.0445 -1.5498
 6220SOL     OW30292   0.500   2.105   3.372  0.1519  0.3859  0.2740
 6220SOL    HW130293   0.589   2.141   3.370 -0.1565  1.1978  1.7813
 6220SOL    HW230294   0.475   2.124   3.281 -1.8157 -1.0328  0.5157
 6221SOL     OW30295   3.070   3.035   2.629  0.3415  0.6401  0.1740
 6221SOL    HW130296   3.010   3.052   2.557  1.5034 -3.2969 -1.7016
 6221SOL    HW230297   3.140   3.004   2.572  1.5794  2.3694  0.7495
 6222SOL     OW30298   2.773   0.621   2.020  0.6510  0.2498  0.5796
 6222SOL    HW130299   2.819   0.573   2.089  2.1960  0.8809 -0.0068
 6222SOL    HW230300   2.686   0.631   2.058  0.4248  2.2029 -0.4710
 6223SOL     OW30301   2.253   0.368   6.970 -0.1549 -0.5516  0.8114
 6223SOL    HW130302   2.255   0.330   6.882 -1.7828 -0.9447  0.9568
 6223SOL    HW230303   2.223   0.459   6.961 -2.3538 -1.2278  1.5624
 6224SOL     OW30304   0.335   0.929   5.337 -0.0142 -0.7612 -0.1720
 6224SOL    HW130305   0.406   0.988   5.364 -0.3719  1.3266 -3.7126
 6224SOL    HW230306   0.300   0.985   5.268 -0.0409  0.1595  0.5923
 6225SOL     OW30307   1.926   2.271   6.757 -0.2859 -0.4175 -0.3616
 6225SOL    HW130308   1.936   2.300   6.848 -0.4243 -0.5758 -0.2945
 6225SOL    HW230309   1.973   2.188   6.768  0.1605 -0.2901 -1.3537
 6226SOL     OW30310   2.635   0.214   1.411  0.7939  0.6940 -0.3271
 6226SOL    HW130311   2.713   0.159   1.407  0.0349 -0.3922  0.0124
 6226SOL    HW230312   2.654   0.280   1.344  0.5411 -0.5596 -1.6164
 6227SOL     OW30313   1.216   4.485  14.929  0.5818 -0.2145  0.6467
 6227SOL    HW130314   1.248   4.396  14.947 -2.2924 -0.9892  1.8584
 6227SOL    HW230315   1.202   4.468  14.836  1.0460 -0.3890  0.6058
 6228SOL     OW30316   2.579   2.088   3.402 -0.1618 -0.2468 -0.5840
 6228SOL    HW130317   2.653   2.029   3.391 -1.8475 -2.4041 -0.2937
 6228SOL    HW230318   2.513   2.038   3.353 -1.0626 -1.2138  1.6017
 6229SOL     OW30319   1.473   3.758  15.877 -0.2299  0.7125  0.7472
 6229SOL    HW130320   1.503   3.771  15.966  2.1520  0.8326 -0.0727
 6229SOL    HW230321   1.416   3.834  15.867 -0.5405  0.4483  0.5155
 6230SOL     OW30322   0.380   3.690   5.982  0.5181 -0.5933 -0.4151
 6230SOL    HW130323   0.307   3.629   5.981 -1.1109  1.3500  0.7577
 6230SOL    HW230324   0.425   3.674   6.065 -0.1587  1.6638  0.3962
 6231SOL     OW30325   1.419   3.025   6.509 -0.1328  0.1556 -0.3317
 6231SOL    HW130326   1.328   3.039   6.537  0.0231 -1.4909  1.0051
 6231SOL    HW230327   1.414   2.935   6.477  0.6305  0.4214 -1.1905
 6232SOL     OW30328   2.429   0.083  11.470 -0.0825  0.1658  0.2193
 6232SOL    HW130329   2.345   0.121  11.442 -0.4433 -0.4556  0.4755
 6232SOL    HW230330   2.464   0.050  11.387 -1.7500 -1.3912  0.1298
 6233SOL     OW30331   1.544   1.958   2.676 -0.0406 -0.3164  0.8477
 6233SOL    HW130332   1.565   2.019   2.605  2.6145  1.9552  3.6102
 6233SOL    HW230333   1.459   1.928   2.645  0.1709  0.0022 -0.0397
 6234SOL     OW30334   1.011   3.633   1.213 -0.0814 -0.0470 -0.0701
 6234SOL    HW130335   0.927   3.617   1.170 -1.0845 -1.4849  2.4836
 6234SOL    HW230336   1.039   3.711   1.164  1.2358  0.7504  1.9289
 6235SOL     OW30337   1.475   1.924  13.836 -0.2058  0.0403 -0.1514
 6235SOL    HW130338   1.384   1.938  13.809  0.8613  3.5302 -1.9346
 6235SOL    HW230339   1.478   1.838  13.877  0.8605 -0.8733 -2.2085
 6236SOL     OW30340   0.230   4.106   2.797 -0.3112  0.2364 -0.0115
 6236SOL    HW130341   0.241   4.174   2.731  1.1185 -0.4296 -0.4601
 6236SOL    HW230342   0.137   4.083   2.791 -0.3576  0.3060  0.4827
 6237SOL     OW30343   4.102   4.121   3.053  0.1511 -0.5667  0.0333
 6237SOL    HW130344   4.073   4.040   3.013 -0.3106 -0.2887 -0.1866
 6237SOL    HW230345   4.178   4.089   3.103  0.6841  1.3338  0.4489
 6238SOL     OW30346   2.865   1.904   4.561 -0.4531 -0.3902  0.1449
 6238SOL    HW130347   2.800   1.858   4.614 -0.7703  1.1175  1.0515
 6238SOL    HW230348   2.935   1.928   4.622 -1.8610  1.9302  0.8269
 6239SOL     OW30349   1.533   3.154   2.312 -0.9787 -0.4133  0.2057
 6239SOL    HW130350   1.536   3.176   2.219  0.2274 -0.1323  0.3084
 6239SOL    HW230351   1.620   3.192   2.328 -0.5413 -1.1277 -0.4324
 6240SOL     OW30352   3.750   4.069   3.674  0.0497 -0.0114  0.1654
 6240SOL    HW130353   3.718   3.980   3.659 -0.6964 -0.1304  2.5548
 6240SOL    HW230354   3.689   4.094   3.743  0.2682  0.5878  0.1399
 6241SOL     OW30355   4.512   0.573  16.758  0.2364  0.0293 -0.2680
 6241SOL    HW130356   4.602   0.595  16.784 -0.4791  2.2057  0.4005
 6241SOL    HW230357   4.504   0.486  16.798 -1.3116  0.5116  0.4631
 6242SOL     OW30358   3.694   1.031   5.420 -0.1237  0.3277  0.0258
 6242SOL    HW130359   3.652   1.001   5.339 -1.7542  0.2741  0.8943
 6242SOL    HW230360   3.695   0.952   5.474 -0.7234 -0.4924 -1.1485
 6243SOL     OW30361   0.080   1.895  17.591 -0.3174 -0.0388 -0.2645
 6243SOL    HW130362   0.008   1.894  17.654  1.1230  3.4073  1.4083
 6243SOL    HW230363   0.141   1.953  17.635 -0.7691 -0.8447  1.4189
 6244SOL     OW30364   1.594   1.586   3.206  0.0811 -0.0374  0.4403
 6244SOL    HW130365   1.601   1.532   3.284 -0.1874 -0.2105  0.3469
 6244SOL    HW230366   1.501   1.600   3.224  0.0620 -1.7212  1.6002
 6245SOL     OW30367   4.022   0.634   8.188 -0.1436  0.3077 -0.7105
 6245SOL    HW130368   4.094   0.571   8.182  0.7621  1.2243  0.6402
 6245SOL    HW230369   4.030   0.693   8.112 -1.3892  0.5389 -0.6587
 6246SOL     OW30370   4.530   1.222   2.543  0.5186 -0.2472  0.5687
 6246SOL    HW130371   4.617   1.261   2.544 -0.5375  2.2030 -2.6430
 6246SOL    HW230372   4.512   1.231   2.637 -0.5838  0.6435  0.2646
 6247SOL     OW30373   3.962   3.989   4.433  0.3896 -0.6501  0.1692
 6247SOL    HW130374   3.899   3.935   4.480 -0.3353  0.2401  0.2239
 6247SOL    HW230375   4.000   4.043   4.503 -0.3825 -1.3507  1.1205
 6248SOL     OW30376   2.484   0.478   3.760  0.2152  0.6487  0.3267
 6248SOL    HW130377   2.567   0.490   3.806  0.3767  3.1871 -0.6511
 6248SOL    HW230378   2.434   0.557   3.779 -2.5677 -0.9356 -0.3737
 6249SOL     OW30379   1.187   1.399  13.934 -0.3971  0.1383  0.0583
 6249SOL    HW130380   1.158   1.309  13.947 -0.0292  0.3568  2.3689
 6249SOL    HW230381   1.276   1.386  13.900 -0.2628  3.2577 -0.8566
 6250SOL     OW30382   2.531   1.955   5.998  0.7241 -0.6347  0.5060
 6250SOL    HW130383   2.616   1.912   6.010  0.9761 -0.1954  0.3172
 6250SOL    HW230384   2.555   2.048   5.995 -0.5370 -0.4201 -2.5428
 6251SOL     OW30385   3.401   1.510   1.767 -0.3851 -0.4488 -0.2131
 6251SOL    HW130386   3.472   1.504   1.831 -0.7273 -0.7277  0.1437
 6251SOL    HW230387   3.364   1.422   1.772 -0.2405 -0.3951  1.7899
 6252SOL     OW30388   4.316   1.576   5.178 -0.1341  0.3150 -0.2301
 6252SOL    HW130389   4.266   1.571   5.096  0.2763 -1.3862 -0.3893
 6252SOL    HW230390   4.284   1.655   5.221  1.1006  0.8924 -0.3824
 6253SOL     OW30391   2.097   1.808   9.104 -0.0799  0.5090 -0.5147
 6253SOL    HW130392   2.093   1.723   9.061  1.3539 -0.2153  0.8066
 6253SOL    HW230393   2.110   1.790   9.197  3.1507  0.7843 -0.9012
 6254SOL     OW30394   2.034   4.418   8.046  0.0532  0.7416  0.0694
 6254SOL    HW130395   2.009   4.438   7.956 -1.2901 -1.7269 -0.1137
 6254SOL    HW230396   2.052   4.504   8.083  1.8909 -0.3378  1.6698
 6255SOL     OW30397   3.047   4.572   8.001 -0.5941  0.5287 -0.1832
 6255SOL    HW130398   3.084   4.639   7.944  1.8916 -1.4019 -0.8787
 6255SOL    HW230399   2.961   4.600   8.032 -0.6002  1.1767 -0.8108
 6256SOL     OW30400   4.215   4.695   6.566 -0.0908  0.2359 -0.4469
 6256SOL    HW130401   4.152   4.707   6.637 -1.1577  0.8357 -1.5041
 6256SOL    HW230402   4.287   4.648   6.609  1.1736  1.8481 -0.8298
 6257SOL     OW30403   1.352   3.405   7.807 -0.1214  0.0306  0.1378
 6257SOL    HW130404   1.354   3.318   7.768 -0.8707 -0.9091  2.1807
 6257SOL    HW230405   1.365   3.456   7.726 -1.9519 -0.3070 -0.3719
 6258SOL     OW30406   3.428   3.225  10.882 -0.5433  0.5569  0.7899
 6258SOL    HW130407   3.423   3.298  10.944 -0.1260  0.4215  0.9802
 6258SOL    HW230408   3.334   3.212  10.865 -0.7154  1.3806  1.0660
 6259SOL     OW30409   0.387   0.042   4.892  0.3832  0.2344 -0.4900
 6259SOL    HW130410   0.481   0.057   4.897  0.7002 -1.3211 -1.8770
 6259SOL    HW230411   0.377   4.717   4.963  2.0500 -0.0100 -0.4839
 6260SOL     OW30412   0.628   2.647   6.285 -0.5968  0.5687  0.1246
 6260SOL    HW130413   0.637   2.569   6.340 -3.0692 -1.0188 -1.7023
 6260SOL    HW230414   0.723   2.662   6.280 -0.5452 -0.6819 -2.6549
 6261SOL     OW30415   4.489   2.897  10.821 -0.1029  0.2801 -0.0333
 6261SOL    HW130416   4.558   2.933  10.765 -0.7409  0.8991 -0.4249
 6261SOL    HW230417   4.445   2.980  10.841 -0.1975 -0.0444  1.1421
 6262SOL     OW30418   0.414   0.494   5.799 -0.0588  0.1179 -0.0154
 6262SOL    HW130419   0.489   0.517   5.854  1.0004  0.1184 -1.4523
 6262SOL    HW230420   0.448   0.412   5.763 -2.6802 -1.3159  0.8415
 6263SOL     OW30421   3.782   4.515   3.851 -0.0914 -0.2858 -0.0410
 6263SOL    HW130422   3.762   4.450   3.783  1.4125 -2.0736  1.2319
 6263SOL    HW230423   3.849   4.470   3.902 -0.4446 -0.8442 -0.0602
 6264SOL     OW30424   1.796   4.593   6.355 -0.4397 -0.2228  0.0938
 6264SOL    HW130425   1.718   4.627   6.400 -0.6702  1.1473 -1.3309
 6264SOL    HW230426   1.801   4.671   6.301  0.6710  0.4774  1.2130
 6265SOL     OW30427   0.165   4.627   0.991  0.2815 -0.3878 -0.2520
 6265SOL    HW130428   0.076   4.661   0.984  1.1196  1.7323 -0.7532
 6265SOL    HW230429   0.215   4.687   1.047  0.5410  0.8916 -1.8404
 6266SOL     OW30430   2.200   3.735   2.348  0.7170  0.2533  0.5576
 6266SOL    HW130431   2.283   3.735   2.394  1.1302 -0.2409 -0.1964
 6266SOL    HW230432   2.202   3.652   2.300  0.8780 -0.7527  2.3108
 6267SOL     OW30433   4.361   1.226   0.137 -0.1004  0.1162 -0.1957
 6267SOL    HW130434   4.402   1.271   0.063  2.1858 -0.0013  0.9945
 6267SOL    HW230435   4.300   1.167   0.094 -1.0320  1.5190 -0.8141
 6268SOL     OW30436   0.878   0.968  13.132 -0.1540  0.0871 -0.3184
 6268SOL    HW130437   0.933   0.911  13.078  0.3919  0.6202 -0.3343
 6268SOL    HW230438   0.868   1.048  13.080  0.1689 -0.3588 -1.0765
 6269SOL     OW30439   1.140   2.639  17.723 -0.0874  0.3109 -0.2359
 6269SOL    HW130440   1.210   2.686   0.018  0.2594 -0.2914 -0.1582
 6269SOL    HW230441   1.134   2.697  17.647 -0.9254 -1.1150 -1.2407
 6270SOL     OW30442   2.551   2.132  17.358  0.0689 -0.2128  0.1343
 6270SOL    HW130443   2.509   2.143  17.444  1.1399 -0.4982  0.6993
 6270SOL    HW230444   2.520   2.210  17.312 -0.7241 -0.4511  0.2631
 6271SOL     OW30445   2.451   4.190  14.566 -0.0801  0.2503  0.4144
 6271SOL    HW130446   2.461   4.236  14.483 -1.7530 -0.0944  0.0360
 6271SOL    HW230447   2.385   4.246  14.608 -0.7609 -1.0326  1.0633
 6272SOL     OW30448   2.803   1.461   2.283  0.5274 -0.3566  0.3684
 6272SOL    HW130449   2.724   1.417   2.252 -0.0060  0.7971  0.1185
 6272SOL    HW230450   2.870   1.400   2.251  0.2126 -0.2167 -0.5474
 6273SOL     OW30451   2.092   1.354   5.637 -0.1449  0.3465  0.2610
 6273SOL    HW130452   2.060   1.444   5.637 -0.6205  0.1762 -0.4665
 6273SOL    HW230453   2.075   1.328   5.546 -0.5941  0.9397  0.1761
 6274SOL     OW30454   0.318   4.388   1.739  1.0456  0.3769 -0.0858
 6274SOL    HW130455   0.306   4.419   1.649  2.7163  0.2395 -0.3719
 6274SOL    HW230456   0.375   4.455   1.776  0.1691  0.3680  1.2803
 6275SOL     OW30457   4.122   4.001  12.867 -0.3120  0.1831  0.2148
 6275SOL    HW130458   4.196   3.974  12.812  0.6184  0.5817  1.2873
 6275SOL    HW230459   4.048   3.973  12.813 -1.3060  2.7168  0.2840
 6276SOL     OW30460   1.273   3.145   1.676  0.0996 -0.1582 -0.3607
 6276SOL    HW130461   1.205   3.127   1.741 -0.3774 -2.6023 -1.5605
 6276SOL    HW230462   1.223   3.137   1.595  3.1644 -1.0289 -2.1462
 6277SOL     OW30463   3.800   3.214   7.462 -0.1306  0.1936  0.0301
 6277SOL    HW130464   3.752   3.279   7.411  0.9731  1.4287  0.5580
 6277SOL    HW230465   3.730   3.156   7.493  0.4280 -0.7435 -0.4337
 6278SOL     OW30466   1.940   3.892   1.645  0.1949 -0.1484 -0.1704
 6278SOL    HW130467   1.887   3.885   1.565  0.7941 -0.8341 -0.5089
 6278SOL    HW230468   1.913   3.972   1.689 -0.0115 -0.2073 -0.1886
 6279SOL     OW30469   3.830   2.265   2.902 -0.1194 -0.5195 -0.3270
 6279SOL    HW130470   3.750   2.277   2.953  1.1630  0.9084  1.3308
 6279SOL    HW230471   3.870   2.347   2.875  0.0465 -1.1529 -2.0167
 6280SOL     OW30472   1.388   0.927   9.057  0.5113  0.5120  0.1718
 6280SOL    HW130473   1.472   0.888   9.032  0.1758 -0.6681  0.9109
 6280SOL    HW230474   1.399   0.919   9.152  2.2727 -3.4389 -0.3896
 6281SOL     OW30475   2.717   1.291   8.658  0.2291  0.4779  0.5447
 6281SOL    HW130476   2.747   1.355   8.723 -1.2090 -0.0038  1.6969
 6281SOL    HW230477   2.634   1.259   8.692  1.0200 -0.7521  1.3157
 6282SOL     OW30478   2.957   2.798   2.500  0.4980  0.3709 -0.1384
 6282SOL    HW130479   2.869   2.832   2.489  0.3057 -0.1850 -0.3565
 6282SOL    HW230480   2.956   2.744   2.579 -1.3654 -1.1872 -1.2065
 6283SOL     OW30481   1.299   3.785  10.604  0.1706 -0.0885 -0.3925
 6283SOL    HW130482   1.327   3.867  10.644  0.7703 -0.0870 -0.8202
 6283SOL    HW230483   1.372   3.730  10.632  0.2984  0.6632  0.7299
 6284SOL     OW30484   0.035   4.062   9.104  0.2391 -0.1963 -0.3890
 6284SOL    HW130485   0.111   4.010   9.078  0.8951  0.3756  0.3891
 6284SOL    HW230486   4.723   4.063   9.023  1.5720 -0.0713 -1.2105
 6285SOL     OW30487   1.676   2.529   5.607  0.2645 -0.3603 -0.0743
 6285SOL    HW130488   1.592   2.493   5.579 -0.0591 -1.4440  2.2113
 6285SOL    HW230489   1.742   2.459   5.596  1.2128  0.5010  0.1110
 6286SOL     OW30490   0.498   0.807  14.769 -0.0388 -0.3476 -0.2322
 6286SOL    HW130491   0.585   0.838  14.743  0.4207 -0.8580  0.6903
 6286SOL    HW230492   0.529   0.774  14.854  0.6723  1.0486  0.0388
 6287SOL     OW30493   1.649   0.489  12.182 -0.7271 -0.4994  0.0172
 6287SOL    HW130494   1.634   0.412  12.127 -0.6624  0.5393 -1.4432
 6287SOL    HW230495   1.725   0.539  12.153 -0.8874 -0.5898 -0.5543
 6288SOL     OW30496   2.443   2.220   5.336  0.0369 -0.3284 -0.3434
 6288SOL    HW130497   2.434   2.135   5.378  1.2395  0.7145  2.0276
 6288SOL    HW230498   2.395   2.275   5.399  1.3387 -2.1613  2.2296
 6289SOL     OW30499   4.557   0.650   5.543 -0.0006  0.0461  1.0769
 6289SOL    HW130500   4.555   0.612   5.456 -0.0690  0.3083  0.9651
 6289SOL    HW230501   4.631   0.711   5.540 -2.1064  2.4459 -0.8953
 6290SOL     OW30502   3.770   3.304   4.369  0.7499  0.3431 -0.3593
 6290SOL    HW130503   3.701   3.238   4.363  1.1039  0.0800 -1.4213
 6290SOL    HW230504   3.828   3.270   4.302 -0.9067 -0.1899 -1.5109
 6291SOL     OW30505   2.062   1.561   8.944 -0.3262  0.1320 -0.2939
 6291SOL    HW130506   2.087   1.590   8.856 -0.1343  1.0910  0.0715
 6291SOL    HW230507   2.063   1.466   8.935  0.7754  0.1788 -0.6930
 6292SOL     OW30508   0.424   4.183   6.150 -0.2623  0.1682 -0.3286
 6292SOL    HW130509   0.357   4.220   6.207  0.6510  0.4074  0.5890
 6292SOL    HW230510   0.455   4.261   6.105 -0.2749 -1.4757 -3.2078
 6293SOL     OW30511   2.545   0.272  10.756  0.0883 -0.2473  0.2635
 6293SOL    HW130512   2.499   0.193  10.725 -1.4085  0.6476  0.2133
 6293SOL    HW230513   2.583   0.236  10.836 -0.0355  0.2998  0.5678
 6294SOL     OW30514   0.943   1.587  16.037 -0.3100 -0.0412  0.0754
 6294SOL    HW130515   0.898   1.645  16.098 -1.1062 -1.5522  0.9353
 6294SOL    HW230516   0.875   1.520  16.026 -0.7204  0.1291  1.5926
 6295SOL     OW30517   4.227   4.631   3.279  0.2410 -0.8283 -0.4038
 6295SOL    HW130518   4.204   4.549   3.323  0.7597 -1.6478 -1.6533
 6295SOL    HW230519   4.229   4.707   3.338  0.6674 -2.6317  1.9056
 6296SOL     OW30520   4.666   3.288   7.616 -0.2234  0.2558  0.5254
 6296SOL    HW130521   4.691   3.375   7.646 -0.0663 -0.0750  1.3483
 6296SOL    HW230522   4.604   3.270   7.687  0.2204  1.8507  1.3123
 6297SOL     OW30523   2.423   1.169   4.379  0.1192 -0.5670 -0.1424
 6297SOL    HW130524   2.451   1.092   4.330 -1.0002 -1.3146  0.3778
 6297SOL    HW230525   2.386   1.223   4.309 -1.1199 -2.2072 -0.7606
 6298SOL     OW30526   0.447   3.341   4.480 -0.4391  0.3020 -0.1231
 6298SOL    HW130527   0.433   3.379   4.394 -0.7643  1.4050  0.4210
 6298SOL    HW230528   0.369   3.370   4.528 -0.0209  1.5610 -0.2009
 6299SOL     OW30529   1.025   3.743  16.979 -0.5602 -0.3619  0.1802
 6299SOL    HW130530   1.106   3.778  17.017 -2.1457  2.5945  0.8273
 6299SOL    HW230531   1.031   3.651  17.007  1.8043 -1.1930 -3.1375
 6300SOL     OW30532   3.109   4.076   3.628  0.2495 -0.2977  0.7044
 6300SOL    HW130533   3.078   4.073   3.719 -0.7630 -0.6163  0.3471
 6300SOL    HW230534   3.096   3.982   3.616  0.2767 -0.3474  1.0662
 6301SOL     OW30535   4.621   0.810  13.830  0.1929  1.0150 -0.1539
 6301SOL    HW130536   4.639   0.845  13.918 -0.8134 -1.2521  0.9446
 6301SOL    HW230537   4.693   0.751  13.813  0.5730  1.4393 -0.0234
 6302SOL     OW30538   1.623   4.449  15.095 -0.0504 -0.0342 -0.3937
 6302SOL    HW130539   1.654   4.435  15.006  0.7106  4.2873 -0.7930
 6302SOL    HW230540   1.642   4.372  15.148 -0.6407  0.2662  0.2610
 6303SOL     OW30541   1.953   3.497   6.594 -0.5752 -0.1432 -0.1191
 6303SOL    HW130542   1.887   3.486   6.526 -0.1564 -2.0416 -0.2195
 6303SOL    HW230543   2.028   3.472   6.540 -0.8081 -1.5259  0.1983
 6304SOL     OW30544   0.373   1.468  10.910 -0.1178 -0.0333 -0.0022
 6304SOL    HW130545   0.313   1.441  10.841 -0.8675 -1.6698  1.2812
 6304SOL    HW230546   0.330   1.545  10.946  1.8136  0.4313  1.3437
 6305SOL     OW30547   1.452   4.657  13.262 -0.3278 -0.8102  0.1912
 6305SOL    HW130548   1.495   4.732  13.303 -1.5571  0.4647 -0.8197
 6305SOL    HW230549   1.526   4.612  13.221  1.6003  1.8269  0.7463
 6306SOL     OW30550   4.573   0.732   4.838  0.2287 -0.6654 -0.2278
 6306SOL    HW130551   4.499   0.746   4.779  0.4028  2.3261  0.2576
 6306SOL    HW230552   4.547   0.665   4.901  2.6741 -0.0362  1.4503
 6307SOL     OW30553   2.587   3.006   7.077 -0.1835  0.4324 -0.5387
 6307SOL    HW130554   2.626   2.948   7.011 -0.7408 -2.5370  1.7393
 6307SOL    HW230555   2.661   3.066   7.079  0.9883 -1.0499  0.5012
 6308SOL     OW30556   1.134   1.151   4.440  0.3792  0.5920  0.0208
 6308SOL    HW130557   1.082   1.232   4.441 -1.3400 -0.5283  0.7204
 6308SOL    HW230558   1.205   1.184   4.497  1.1350 -0.9017 -0.0703
 6309SOL     OW30559   3.277   3.861   6.136 -0.4548 -0.6137 -0.1587
 6309SOL    HW130560   3.329   3.915   6.077  1.7161 -2.0549  0.4614
 6309SOL    HW230561   3.283   3.919   6.213 -3.1345 -2.1880  1.2506
 6310SOL     OW30562   1.606   3.183   3.525 -0.6886 -0.0747  0.3312
 6310SOL    HW130563   1.588   3.277   3.518  1.4836  0.3237  0.2288
 6310SOL    HW230564   1.562   3.151   3.446  0.8033 -0.7283 -0.2350
 6311SOL     OW30565   4.647   1.371   2.228  0.0175  0.0533  0.2498
 6311SOL    HW130566   4.578   1.334   2.173  0.9053 -1.2766  0.0034
 6311SOL    HW230567   4.604   1.383   2.312  0.2176  2.6945 -0.0336
 6312SOL     OW30568   0.959   4.468  16.179 -0.2481  0.1552 -0.6268
 6312SOL    HW130569   0.909   4.389  16.160  0.1906  0.0668 -1.4290
 6312SOL    HW230570   1.048   4.435  16.170  0.1419  0.5665  1.6657
 6313SOL     OW30571   4.015   3.813   4.864  0.0390 -0.2496 -0.0817
 6313SOL    HW130572   3.920   3.805   4.875  0.0247 -1.4611 -1.0381
 6313SOL    HW230573   4.043   3.741   4.921  1.1452 -1.0044 -1.6101
 6314SOL     OW30574   2.115   0.553  11.116 -0.0599  0.2448 -0.4760
 6314SOL    HW130575   2.153   0.558  11.029  2.5418  0.3861  0.6615
 6314SOL    HW230576   2.188   0.515  11.165  0.1344  0.5558 -0.5208
 6315SOL     OW30577   0.924   2.405   3.507 -0.1240  0.3612 -0.0456
 6315SOL    HW130578   1.007   2.426   3.551 -1.0559 -0.5239  2.1333
 6315SOL    HW230579   0.952   2.372   3.421  0.5564 -1.1275  0.7511
 6316SOL     OW30580   1.003   1.671   7.107  0.1988  0.6357 -0.2626
 6316SOL    HW130581   1.054   1.728   7.165 -0.0200  0.3924  0.1613
 6316SOL    HW230582   1.011   1.591   7.158 -0.9087  1.6001  1.4132
 6317SOL     OW30583   0.634   2.784   7.409  0.1113 -0.0297  0.2981
 6317SOL    HW130584   0.664   2.824   7.491 -0.6667  1.0343  0.0714
 6317SOL    HW230585   0.539   2.800   7.409  0.2120  0.5507 -0.0843
 6318SOL     OW30586   2.686   4.666   5.960 -0.2048 -0.3303  0.3715
 6318SOL    HW130587   2.754   4.730   5.979 -0.9468  0.5757 -0.0347
 6318SOL    HW230588   2.646   4.657   6.047  2.7335  0.4471  1.8006
 6319SOL     OW30589   4.277   3.806   6.703  0.2734  0.5150  0.2537
 6319SOL    HW130590   4.363   3.803   6.745  0.0942 -0.2453  0.5659
 6319SOL    HW230591   4.294   3.777   6.613  0.5436  0.6436  0.2619
 6320SOL     OW30592   2.695   3.696  16.863  0.6264  0.4588 -0.3791
 6320SOL    HW130593   2.643   3.775  16.869  2.2176  1.4749  0.1218
 6320SOL    HW230594   2.781   3.734  16.880  1.4337 -1.1439 -0.9148
 6321SOL     OW30595   0.063   3.184   1.953 -0.1454 -0.1910  0.0885
 6321SOL    HW130596   0.002   3.150   2.018  2.3207  0.2017  2.6505
 6321SOL    HW230597   0.090   3.103   1.911  2.3456  1.7985 -2.1565
 6322SOL     OW30598   1.591   4.115   5.557  0.4487 -0.3260 -0.3335
 6322SOL    HW130599   1.625   4.202   5.577 -1.7150  0.2751  0.6318
 6322SOL    HW230600   1.612   4.060   5.632 -0.7082  0.0612  0.2620
 6323SOL     OW30601   3.594   0.964   0.355  0.3262 -0.0358  0.3856
 6323SOL    HW130602   3.632   0.982   0.269 -0.2605  1.6876  0.4793
 6323SOL    HW230603   3.524   1.030   0.358  0.5631  0.1650  1.4893
 6324SOL     OW30604   1.398   2.816   5.287 -0.0767  0.4798  0.6513
 6324SOL    HW130605   1.478   2.769   5.263 -0.1741  0.4271  0.4289
 6324SOL    HW230606   1.430   2.890   5.338  0.3384 -0.1406  1.3008
 6325SOL     OW30607   3.968   1.038  14.779  0.2242  0.4959 -0.5554
 6325SOL    HW130608   3.927   0.986  14.847 -1.0841  1.0940 -0.8885
 6325SOL    HW230609   3.973   0.979  14.704 -0.5800  1.2616 -1.2107
 6326SOL     OW30610   2.377   4.173   2.613  0.0011  0.3931 -0.0128
 6326SOL    HW130611   2.388   4.116   2.537 -0.5163  0.6772 -0.3023
 6326SOL    HW230612   2.332   4.114   2.674 -1.3786  0.4720 -0.9429
 6327SOL     OW30613   4.448   4.569   6.648  0.4648 -0.7682  0.6320
 6327SOL    HW130614   4.425   4.584   6.740 -0.8801  0.8093  0.0442
 6327SOL    HW230615   4.540   4.545   6.646  0.6687  0.0868 -0.4813
 6328SOL     OW30616   2.480   0.808   5.256  0.5563 -0.3797 -0.0254
 6328SOL    HW130617   2.521   0.724   5.234  1.2637 -0.4988  1.6941
 6328SOL    HW230618   2.501   0.818   5.349 -1.9668 -3.4055  0.8767
 6329SOL     OW30619   1.901   3.467   1.170 -0.1510 -0.4205 -0.5159
 6329SOL    HW130620   1.916   3.373   1.173  2.1046 -0.0697 -0.3566
 6329SOL    HW230621   1.806   3.469   1.168 -0.1468  0.4389  0.2802
 6330SOL     OW30622   0.812   1.978   8.542 -0.7481 -0.2247 -0.1127
 6330SOL    HW130623   0.811   2.073   8.531 -2.6455 -0.1925  0.3682
 6330SOL    HW230624   0.880   1.979   8.609 -3.0265  0.0514  2.1888
 6331SOL     OW30625   2.029   0.215  17.679  0.1149 -0.0276 -0.4600
 6331SOL    HW130626   2.088   0.221  17.604 -0.3405  1.2821 -0.7177
 6331SOL    HW230627   1.946   0.239  17.638  0.1033 -0.0590 -0.4550
 6332SOL     OW30628   4.436   2.789  13.815  0.0365  0.0600  0.5712
 6332SOL    HW130629   4.351   2.817  13.849 -0.1330  1.5003 -1.0304
 6332SOL    HW230630   4.489   2.799  13.894 -0.3434  1.3812  0.6649
 6333SOL     OW30631   2.335   0.023   6.972  0.0365  0.4063  0.6452
 6333SOL    HW130632   2.293   0.060   6.894 -2.5779 -2.1203  0.8477
 6333SOL    HW230633   2.360   4.676   6.937 -1.6591  0.6053 -1.0803
 6334SOL     OW30634   3.722   3.709   6.820  0.1756 -0.2597  0.4543
 6334SOL    HW130635   3.796   3.720   6.760  1.2997 -1.9545  1.5416
 6334SOL    HW230636   3.757   3.649   6.886 -1.7970 -0.0840  1.6752
 6335SOL     OW30637   0.903   3.867   5.829  0.0232  0.3887  0.1409
 6335SOL    HW130638   0.929   3.786   5.872  0.1502 -0.4944 -1.6011
 6335SOL    HW230639   0.836   3.898   5.890 -0.1343 -0.4322  0.3855
 6336SOL     OW30640   1.886   2.792   4.364  0.1154  0.9641 -0.2326
 6336SOL    HW130641   1.940   2.724   4.404 -0.6211  0.5672  0.0764
 6336SOL    HW230642   1.944   2.864   4.389  1.7870 -0.4564  0.0062
 6337SOL     OW30643   3.650   0.957  10.039 -0.1747  0.0896 -0.2221
 6337SOL    HW130644   3.708   0.927  10.109  0.5056  2.9803  0.4422
 6337SOL    HW230645   3.658   1.051  10.057  0.6585 -0.6391  3.2987
 6338SOL     OW30646   2.907   0.853   7.006 -0.7998 -0.0354 -0.2093
 6338SOL    HW130647   2.966   0.849   7.081 -0.1266  0.1045 -0.7390
 6338SOL    HW230648   2.883   0.761   6.993 -2.5178  0.2788  0.6766
 6339SOL     OW30649   4.318   1.574   8.404  1.1891 -0.2951  0.4966
 6339SOL    HW130650   4.235   1.621   8.401  0.7368 -1.2852 -2.1497
 6339SOL    HW230651   4.276   1.488   8.411 -1.0974  0.6788 -1.6127
 6340SOL     OW30652   4.015   1.683  10.602  0.3994  0.1307  0.0183
 6340SOL    HW130653   4.060   1.611  10.646  0.4143  1.4628  2.2323
 6340SOL    HW230654   4.053   1.753  10.656 -1.8919  1.7302 -0.4597
 6341SOL     OW30655   2.611   3.939   7.172  0.3241 -0.2766 -0.0951
 6341SOL    HW130656   2.627   3.852   7.208 -0.7022  0.2478  1.6016
 6341SOL    HW230657   2.680   3.992   7.212 -0.9177  0.2396  1.3692
 6342SOL     OW30658   1.259   0.649  15.059 -0.5425  0.5256 -0.3662
 6342SOL    HW130659   1.324   0.708  15.021 -0.6298  2.4243  2.4684
 6342SOL    HW230660   1.301   0.563  15.057 -0.2777  0.7295 -3.2672
 6343SOL     OW30661   3.994   1.483   7.911  0.0812 -0.4918 -0.2633
 6343SOL    HW130662   4.009   1.549   7.978 -2.1258 -2.2980  2.0370
 6343SOL    HW230663   4.045   1.405   7.937  0.2592 -0.8813 -1.8038
 6344SOL     OW30664   0.751   1.617   4.502 -0.2323  0.2895 -0.1943
 6344SOL    HW130665   0.663   1.646   4.527  0.5926  2.8141 -0.1989
 6344SOL    HW230666   0.793   1.633   4.587  0.3299  0.4274 -0.4972
 6345SOL     OW30667   2.258   1.513   5.956 -0.4052 -0.1329  0.6601
 6345SOL    HW130668   2.222   1.426   5.941 -0.4687  0.1552 -0.8738
 6345SOL    HW230669   2.275   1.531   5.863  0.9998 -0.7675  0.7938
 6346SOL     OW30670   4.009   2.753   4.872  0.1931  0.8317  0.0389
 6346SOL    HW130671   3.967   2.720   4.951 -0.5524 -1.4489 -1.2946
 6346SOL    HW230672   4.096   2.713   4.874 -1.0984 -1.9602 -0.1982
 6347SOL     OW30673   1.877   1.279   2.714 -0.1884 -0.1063  0.0209
 6347SOL    HW130674   1.798   1.330   2.696 -0.6978 -0.8943 -0.0238
 6347SOL    HW230675   1.873   1.211   2.647 -3.0371 -2.0365  2.0900
 6348SOL     OW30676   1.586   4.171  15.109 -0.0226  0.2221 -0.0299
 6348SOL    HW130677   1.652   4.136  15.048 -2.0745  1.4405 -2.9665
 6348SOL    HW230678   1.643   4.182  15.185 -0.3934  0.4176  0.2175
 6349SOL     OW30679   0.676   0.624   8.329 -0.3602  0.3258  0.1555
 6349SOL    HW130680   0.709   0.557   8.389  0.5265  1.6864  1.1915
 6349SOL    HW230681   0.585   0.594   8.322 -0.0345 -0.7658  0.6716
 6350SOL     OW30682   0.814   0.918  10.291 -0.6528 -0.5354 -0.0118
 6350SOL    HW130683   0.771   0.835  10.271 -2.0719  0.1179  0.3027
 6350SOL    HW230684   0.878   0.920  10.220 -1.1926  3.2281 -0.3900
 6351SOL     OW30685   2.724   0.241   9.057  0.1347 -0.5800 -0.0808
 6351SOL    HW130686   2.655   0.279   9.002 -1.1386 -0.6372  1.4892
 6351SOL    HW230687   2.784   0.315   9.064 -0.3112 -0.2561  0.3093
 6352SOL     OW30688   3.969   4.523   7.800 -0.4840  0.2447  0.0574
 6352SOL    HW130689   3.904   4.581   7.760  1.5655  0.7828 -2.4410
 6352SOL    HW230690   3.990   4.573   7.879 -2.3810 -0.4749  1.0274
 6353SOL     OW30691   0.736   2.255   8.412 -0.3383 -0.2815  0.4018
 6353SOL    HW130692   0.803   2.253   8.344 -1.1690 -0.8962 -0.3977
 6353SOL    HW230693   0.709   2.347   8.407 -0.9438 -0.6220 -2.3511
 6354SOL     OW30694   2.958   0.110   9.257 -0.7125  0.0457 -0.3566
 6354SOL    HW130695   3.012   0.188   9.243  0.7425 -0.7550  0.7610
 6354SOL    HW230696   2.998   0.076   9.337 -3.9277 -2.2182  0.2861
 6355SOL     OW30697   3.744   2.313   1.860  0.5237  0.2570 -0.7136
 6355SOL    HW130698   3.752   2.279   1.770 -0.3476  0.1190 -0.7379
 6355SOL    HW230699   3.658   2.281   1.887 -0.0131  1.6930 -0.7412
 6356SOL     OW30700   4.339   2.508  13.838 -0.3069 -0.2948  0.9937
 6356SOL    HW130701   4.379   2.586  13.800  0.9293 -0.1766  2.5225
 6356SOL    HW230702   4.389   2.486  13.917  0.6265  0.9897  0.7798
 6357SOL     OW30703   3.801   3.562  14.985 -0.0435  0.0266  0.2565
 6357SOL    HW130704   3.826   3.472  15.005  1.5185  0.9195  2.3190
 6357SOL    HW230705   3.719   3.576  15.033 -0.5669  2.5307 -1.3795
 6358SOL     OW30706   4.425   4.623   4.810 -0.0073 -0.1524  0.2131
 6358SOL    HW130707   4.434   4.712   4.845  0.1188 -0.1015  0.0547
 6358SOL    HW230708   4.366   4.640   4.737  0.6508  1.2211 -0.0142
 6359SOL     OW30709   1.170   4.314   0.226  1.0917  0.4265 -0.4566
 6359SOL    HW130710   1.119   4.392   0.207  0.7281 -0.2338 -2.2328
 6359SOL    HW230711   1.101   4.257   0.261  0.2405  1.3401 -0.6663
 6360SOL     OW30712   4.564   1.817  16.072 -0.3403  0.3053 -0.6646
 6360SOL    HW130713   4.545   1.911  16.069  2.9210  0.8097 -4.9174
 6360SOL    HW230714   4.500   1.798  16.141  0.1018  0.8436 -0.1090
 6361SOL     OW30715   0.424   4.465   2.779  0.0113  0.4282  0.3139
 6361SOL    HW130716   0.484   4.401   2.817  0.0968  0.2999 -0.0355
 6361SOL    HW230717   0.434   4.528   2.850 -1.9383  1.7478 -0.6149
 6362SOL     OW30718   1.780   1.416   3.702  0.1793  0.0659  0.2813
 6362SOL    HW130719   1.800   1.363   3.779 -1.0313  1.9951  1.9107
 6362SOL    HW230720   1.829   1.370   3.634 -0.2147  2.1818 -1.4199
 6363SOL     OW30721   0.477   1.913   1.996 -0.0832 -0.1368  0.1375
 6363SOL    HW130722   0.505   1.993   2.041 -0.9876  1.9741 -3.0742
 6363SOL    HW230723   0.505   1.837   2.048 -1.5599 -0.7622  0.0192
 6364SOL     OW30724   0.673   3.156   3.857  0.1911 -0.2997  0.5940
 6364SOL    HW130725   0.662   3.185   3.948  2.1139 -0.0550  0.7576
 6364SOL    HW230726   0.693   3.064   3.874  0.4994  0.3609  3.9348
 6365SOL     OW30727   1.291   1.418   9.443  0.4323  0.4607 -0.2754
 6365SOL    HW130728   1.263   1.463   9.364 -1.0746 -0.1539 -0.0937
 6365SOL    HW230729   1.241   1.469   9.507 -1.0509  2.7331 -3.2783
 6366SOL     OW30730   3.431   0.172   3.024 -0.6082  0.4791  0.0751
 6366SOL    HW130731   3.460   0.090   2.984 -1.0658 -0.2181  1.1374
 6366SOL    HW230732   3.462   0.169   3.115  1.9352 -0.0216 -0.8133
 6367SOL     OW30733   2.150   0.771   0.718 -0.5730  0.3280 -0.3465
 6367SOL    HW130734   2.158   0.687   0.673 -1.1457 -0.1987  0.5259
 6367SOL    HW230735   2.068   0.807   0.685 -1.5540 -0.8290  0.8129
 6368SOL     OW30736   4.465   0.798   5.224 -0.1604  0.1452 -0.0847
 6368SOL    HW130737   4.420   0.857   5.285 -0.3078  0.4847 -0.5203
 6368SOL    HW230738   4.526   0.858   5.181 -0.4049  0.9410  0.6647
 6369SOL     OW30739   1.813   4.302  13.169 -0.4745  0.1275 -0.5920
 6369SOL    HW130740   1.813   4.214  13.207  1.1875 -0.1247 -1.1515
 6369SOL    HW230741   1.907   4.314  13.153 -0.5383 -0.1620 -1.2032
 6370SOL     OW30742   4.147   4.337   7.684  0.0145  0.2636  0.2807
 6370SOL    HW130743   4.170   4.302   7.770  1.0238  1.7576  0.6302
 6370SOL    HW230744   4.092   4.407   7.719 -2.2415 -1.4096  0.0964
 6371SOL     OW30745   1.775   0.676   6.905  0.2072 -0.6450  0.1922
 6371SOL    HW130746   1.840   0.614   6.871  0.5102  1.1134 -2.4656
 6371SOL    HW230747   1.815   0.763   6.897  2.0748 -1.4453  0.6350
 6372SOL     OW30748   0.728   2.540   2.068 -0.1305 -0.0139 -0.4617
 6372SOL    HW130749   0.809   2.543   2.117 -0.1184 -0.6944 -0.4489
 6372SOL    HW230750   0.770   2.501   1.991 -0.7504  2.2058 -1.9391
 6373SOL     OW30751   1.004   4.454   9.075 -0.6029  0.4046 -0.7632
 6373SOL    HW130752   1.082   4.407   9.044 -0.8950 -0.1826 -0.6110
 6373SOL    HW230753   1.050   4.504   9.143  2.9793 -2.5415 -0.9785
 6374SOL     OW30754   3.651   0.457   2.131 -0.4669  0.0066  0.0680
 6374SOL    HW130755   3.711   0.497   2.194 -2.0844  1.1321  0.8866
 6374SOL    HW230756   3.582   0.522   2.119 -1.0124 -0.6794 -0.5615
 6375SOL     OW30757   2.911   4.069  13.336  0.3648 -0.0122  0.0397
 6375SOL    HW130758   2.843   4.130  13.365 -1.3679 -1.8898 -0.1200
 6375SOL    HW230759   2.984   4.092  13.394 -1.0857  2.2464  0.9701
 6376SOL     OW30760   4.005   3.468   9.982  0.0725 -0.4585 -0.3356
 6376SOL    HW130761   3.915   3.489  10.006 -0.2294 -0.7475 -1.2236
 6376SOL    HW230762   4.058   3.548   9.986 -0.8475  0.2569 -2.1682
 6377SOL     OW30763   2.098   1.747   5.820  0.1402 -0.2192  0.0104
 6377SOL    HW130764   2.145   1.754   5.903 -0.1905  0.7324  0.1218
 6377SOL    HW230765   2.103   1.836   5.785  3.2661 -0.4699 -0.1140
 6378SOL     OW30766   3.553   3.489   4.645 -0.2731  0.0102  0.4647
 6378SOL    HW130767   3.522   3.539   4.570 -0.4639 -0.5028  0.1985
 6378SOL    HW230768   3.500   3.410   4.654 -1.0917  0.5723  0.5322
 6379SOL     OW30769   0.508   3.645  12.605 -0.5810 -0.1708 -0.7107
 6379SOL    HW130770   0.535   3.735  12.586  1.3534 -0.5036  0.4189
 6379SOL    HW230771   0.511   3.646  12.701  5.0248 -1.8697 -0.8496
 6380SOL     OW30772   1.251   4.262  11.225  0.2504  0.3867  0.0344
 6380SOL    HW130773   1.316   4.196  11.250 -0.5238 -0.2767  0.2754
 6380SOL    HW230774   1.204   4.211  11.161  0.7226  1.5883 -1.2673
 6381SOL     OW30775   1.397   1.587   3.823 -0.3937  0.0955 -0.0094
 6381SOL    HW130776   1.405   1.597   3.918  1.0961 -1.2037 -0.0032
 6381SOL    HW230777   1.480   1.630   3.802 -2.5057  2.6333 -3.1264
 6382SOL     OW30778   0.276   3.564   6.881 -0.4884 -0.0829 -0.1323
 6382SOL    HW130779   0.264   3.615   6.961 -0.4843  1.2389 -0.9728
 6382SOL    HW230780   0.263   3.473   6.905  0.4444 -0.1892 -0.0313
 6383SOL     OW30781   1.922   0.301   4.180 -0.3154  0.0623  0.0481
 6383SOL    HW130782   1.870   0.353   4.120 -0.0972 -2.8633 -2.7251
 6383SOL    HW230783   1.982   0.366   4.217  0.1288 -0.5609  0.4405
 6384SOL     OW30784   3.738   1.705   6.710  0.1104 -0.0209 -0.2530
 6384SOL    HW130785   3.756   1.714   6.803 -0.1805 -0.2830 -0.1697
 6384SOL    HW230786   3.797   1.636   6.678  0.9915  1.6377 -2.2113
 6385SOL     OW30787   2.905   2.639   7.124  0.6270  0.2506  0.1249
 6385SOL    HW130788   2.941   2.566   7.176 -0.3895 -1.9211 -2.2487
 6385SOL    HW230789   2.905   2.603   7.036  0.5689 -0.0479  0.2457
 6386SOL     OW30790   0.383   1.317   2.209 -0.2694  0.5129 -0.0699
 6386SOL    HW130791   0.301   1.312   2.159  0.7915  0.5897 -1.8299
 6386SOL    HW230792   0.381   1.235   2.257 -0.9718  1.3200  1.2853
 6387SOL     OW30793   1.684   2.701   0.681  0.6570 -0.1351  0.0863
 6387SOL    HW130794   1.681   2.636   0.751  0.4666  2.4648  2.4555
 6387SOL    HW230795   1.739   2.766   0.724 -0.3052  0.7399  0.0079
 6388SOL     OW30796   0.065   4.104   8.050  0.3873  0.5417  0.0158
 6388SOL    HW130797   0.137   4.166   8.060  1.1066  0.0571 -1.9066
 6388SOL    HW230798   0.071   4.060   8.135 -0.9589  1.6240  0.6599
 6389SOL     OW30799   3.666   2.935   7.666  0.0382  0.1999  0.3704
 6389SOL    HW130800   3.582   2.971   7.637 -1.8171 -1.1676  4.0784
 6389SOL    HW230801   3.694   2.891   7.586 -2.9209 -1.3758  0.2260
 6390SOL     OW30802   2.657   3.787   3.670 -0.0594 -0.5280 -0.3541
 6390SOL    HW130803   2.673   3.849   3.599  1.8193  0.8193  1.2438
 6390SOL    HW230804   2.744   3.752   3.684  1.4506  2.2175 -2.8728
 6391SOL     OW30805   1.209   1.244  14.770 -0.3698 -0.3325  0.1405
 6391SOL    HW130806   1.133   1.292  14.804  1.1196  2.5088 -0.5666
 6391SOL    HW230807   1.283   1.288  14.811 -0.4480 -1.3149  1.3432
 6392SOL     OW30808   1.666   4.679   9.105  0.4448  0.5079  0.2372
 6392SOL    HW130809   1.667   4.732   9.184 -0.3036  0.7291  0.0962
 6392SOL    HW230810   1.697   4.594   9.136  1.0014  1.5253  2.4255
 6393SOL     OW30811   3.689   1.418   6.561 -0.5318 -0.3058 -0.0358
 6393SOL    HW130812   3.741   1.463   6.494 -0.9746 -2.0111 -1.5158
 6393SOL    HW230813   3.642   1.357   6.504  0.2276  0.8677 -1.9406
 6394SOL     OW30814   1.700   1.855   5.091  0.1776  0.3122  0.9428
 6394SOL    HW130815   1.709   1.825   5.001  0.9282 -1.1809  1.5021
 6394SOL    HW230816   1.777   1.815   5.132  2.1442  1.6712 -1.4608
 6395SOL     OW30817   0.465   3.885   4.861 -0.2399 -0.6843 -0.4592
 6395SOL    HW130818   0.387   3.857   4.908  0.5224  0.0085  1.1971
 6395SOL    HW230819   0.449   3.853   4.772  0.3589 -2.2214 -0.0253
 6396SOL     OW30820   2.072   1.268   8.958 -0.3706  0.0962 -0.3154
 6396SOL    HW130821   2.157   1.284   9.000 -1.2402  1.2756  0.9754
 6396SOL    HW230822   2.030   1.221   9.030 -2.2417  0.3398 -1.2488
 6397SOL     OW30823   0.600   0.032   1.330 -0.9722  0.3679 -0.5177
 6397SOL    HW130824   0.633   0.120   1.348 -4.0068  1.7673 -1.7145
 6397SOL    HW230825   0.623   4.736   1.416 -1.1917 -1.2432 -1.0967
 6398SOL     OW30826   2.855   0.961  14.769 -0.5046 -0.1590 -0.0547
 6398SOL    HW130827   2.845   1.012  14.849 -3.0019  0.0051 -0.4693
 6398SOL    HW230828   2.789   1.008  14.718 -1.9849 -1.1375  0.9738
 6399SOL     OW30829   0.165   0.157   8.303 -0.0310  0.4987  0.3210
 6399SOL    HW130830   0.162   0.062   8.294  0.0182  0.6548 -1.2695
 6399SOL    HW230831   0.073   0.176   8.320 -0.1343  1.0008 -0.8332
 6400SOL     OW30832   4.709   0.079  12.597  0.4132 -0.4678 -0.0451
 6400SOL    HW130833   4.666   4.738  12.565  0.4154 -0.2175 -0.6647
 6400SOL    HW230834   4.672   0.144  12.537 -0.0277  0.5260  1.3008
 6401SOL     OW30835   4.333   0.034   4.556 -0.0759  0.7247 -0.0691
 6401SOL    HW130836   4.270   0.077   4.615  1.1374 -2.1071  3.2520
 6401SOL    HW230837   4.269   4.718   4.510  0.1415  0.4178 -0.0036
 6402SOL     OW30838   0.616   4.475   5.607  0.1317  0.0823  0.2020
 6402SOL    HW130839   0.697   4.423   5.615  1.8867  2.6840 -0.5457
 6402SOL    HW230840   0.636   4.555   5.655  1.0668 -0.0722  0.0739
 6403SOL     OW30841   4.715   0.796   9.436  0.0613  0.1925  0.5962
 6403SOL    HW130842   4.673   0.881   9.442  0.2480  0.2809  0.6601
 6403SOL    HW230843   4.645   0.735   9.457 -1.7331  1.8724 -0.4772
 6404SOL     OW30844   2.053   2.450   5.696  0.0588 -0.6146 -0.9248
 6404SOL    HW130845   2.035   2.429   5.788  0.7660  2.5554 -0.0394
 6404SOL    HW230846   1.983   2.394   5.662  0.3223 -1.2529 -0.4165
 6405SOL     OW30847   0.634   0.426   3.437  0.1094  0.2011 -1.2545
 6405SOL    HW130848   0.724   0.458   3.427  0.5530 -0.5659  0.2587
 6405SOL    HW230849   0.615   0.474   3.518  0.0712  1.3138 -1.9312
 6406SOL     OW30850   3.522   1.481  16.906 -0.4435  0.2894  0.3015
 6406SOL    HW130851   3.567   1.446  16.983  0.8289  0.8310 -0.1985
 6406SOL    HW230852   3.564   1.429  16.837  1.3895  0.4417  1.2908
 6407SOL     OW30853   3.132   2.700   9.988 -0.5794 -0.1979 -0.1354
 6407SOL    HW130854   3.205   2.680  10.047 -0.0225 -0.7797 -1.0301
 6407SOL    HW230855   3.179   2.775   9.951 -2.3611  0.4608 -1.0434
 6408SOL     OW30856   1.126   4.690   0.893  0.3024  0.1375 -0.2575
 6408SOL    HW130857   1.118   4.697   0.988  1.2377  1.4328 -0.2572
 6408SOL    HW230858   1.219   4.716   0.890  1.1800 -2.7548  2.2159
 6409SOL     OW30859   3.129   1.040   4.359 -0.2002  0.3022 -0.4670
 6409SOL    HW130860   3.159   1.005   4.443 -1.5256 -1.1682 -0.5987
 6409SOL    HW230861   3.205   1.076   4.315  0.8895  1.3302  2.2612
 6410SOL     OW30862   4.145   3.630   3.605  0.2673 -0.1559 -0.1445
 6410SOL    HW130863   4.172   3.713   3.565  0.9754 -0.4606 -0.2927
 6410SOL    HW230864   4.200   3.626   3.683 -0.3626 -0.3756  0.2858
 6411SOL     OW30865   2.051   2.138  12.621  0.3950 -0.2500 -0.3454
 6411SOL    HW130866   2.065   2.134  12.526 -1.5162 -1.9239 -0.5369
 6411SOL    HW230867   2.126   2.188  12.653 -1.0457 -0.3625  3.1146
 6412SOL     OW30868   0.536   1.947   7.907 -0.4878  0.0616  0.1364
 6412SOL    HW130869   0.562   1.862   7.872  1.2609  0.6625 -0.0535
 6412SOL    HW230870   0.582   1.937   7.990 -0.7903  0.5494  0.3642
 6413SOL     OW30871   1.268   2.546   2.161 -0.2816  0.3183  0.3006
 6413SOL    HW130872   1.363   2.535   2.173 -0.2198  0.7783  0.2259
 6413SOL    HW230873   1.253   2.534   2.254  0.3785 -0.8482  0.2670
 6414SOL     OW30874   4.300   2.057   3.692  0.7893 -0.0357  0.1240
 6414SOL    HW130875   4.296   1.962   3.701 -1.3492 -0.0499 -1.0816
 6414SOL    HW230876   4.309   2.094   3.780  0.3628  0.2695  0.0380
 6415SOL     OW30877   0.684   1.962  15.233  0.3132  0.0479  0.3430
 6415SOL    HW130878   0.662   2.054  15.219  2.7195  0.6002  0.1094
 6415SOL    HW230879   0.658   1.919  15.153  1.3057  0.0318  0.0243
 6416SOL     OW30880   1.863   3.875   3.873  0.6303  0.8959 -0.1538
 6416SOL    HW130881   1.932   3.928   3.912  0.6336  1.9319 -1.5698
 6416SOL    HW230882   1.890   3.788   3.901  0.7908  0.8550 -0.4423
 6417SOL     OW30883   3.051   0.657  17.357 -0.5390  0.2464 -0.4901
 6417SOL    HW130884   3.132   0.653  17.408 -1.7299 -1.1756  1.2742
 6417SOL    HW230885   3.043   0.564  17.332 -2.0540  0.4257 -0.6732
 6418SOL     OW30886   4.257   4.560   2.348 -0.1043  0.0977 -0.1614
 6418SOL    HW130887   4.163   4.570   2.336 -0.0924  2.2455  1.5968
 6418SOL    HW230888   4.287   4.572   2.258  0.7344  0.0376  0.1058
 6419SOL     OW30889   1.524   1.666   0.382 -0.6446  0.0945  0.4396
 6419SOL    HW130890   1.594   1.629   0.329 -2.1726  2.3556 -3.1243
 6419SOL    HW230891   1.474   1.723   0.323  0.9704  0.2810 -0.7407
 6420SOL     OW30892   4.735   3.827   8.791 -0.2148 -0.1733  0.0640
 6420SOL    HW130893   4.698   3.776   8.718 -0.6777 -2.6708  2.0567
 6420SOL    HW230894   0.078   3.781   8.814 -0.9477 -2.3607 -1.6941
 6421SOL     OW30895   1.180   2.020  13.167 -0.2252  0.2034  0.2051
 6421SOL    HW130896   1.154   2.086  13.231  0.2741  0.3490  0.2541
 6421SOL    HW230897   1.203   1.950  13.227  2.7898  0.9602 -0.0848
 6422SOL     OW30898   3.408   0.177   6.724 -0.3927  0.0655  0.0093
 6422SOL    HW130899   3.417   0.242   6.794  0.8002  1.7108 -1.6819
 6422SOL    HW230900   3.344   0.211   6.661 -0.6177  0.0616  0.2368
 6423SOL     OW30901   4.200   0.665   7.396 -0.6259 -0.2477 -0.0324
 6423SOL    HW130902   4.180   0.584   7.443 -1.2340 -0.5703 -0.8554
 6423SOL    HW230903   4.220   0.633   7.308  0.7862 -0.7467  0.4713
 6424SOL     OW30904   1.544   4.311   8.966  0.2366 -0.2566 -0.1812
 6424SOL    HW130905   1.538   4.220   8.936 -1.2780 -0.1673 -0.1299
 6424SOL    HW230906   1.562   4.294   9.059 -2.9521  0.1778  0.5154
 6425SOL     OW30907   1.604   2.613   6.606  0.1904  0.4418 -0.1987
 6425SOL    HW130908   1.621   2.706   6.622  0.0691  0.5549 -0.7176
 6425SOL    HW230909   1.682   2.570   6.640  0.5069  1.4196  0.3198
 6426SOL     OW30910   0.670   4.112   6.299 -0.7057  0.0051  0.1546
 6426SOL    HW130911   0.724   4.033   6.290 -1.6126 -0.5882 -0.1031
 6426SOL    HW230912   0.652   4.118   6.393 -3.2301 -0.2963 -0.3116
 6427SOL     OW30913   0.296   1.268   7.361  0.2668  0.5045 -0.1929
 6427SOL    HW130914   0.315   1.307   7.447 -1.7571 -1.6189  1.2182
 6427SOL    HW230915   0.363   1.304   7.303  0.6331  0.9926  0.5205
 6428SOL     OW30916   0.129   4.267   6.391  0.7591 -0.1525  0.0562
 6428SOL    HW130917   0.113   4.200   6.324 -0.4373  0.9786 -0.7813
 6428SOL    HW230918   0.044   4.262   6.436 -0.8668  1.7093 -2.7840
 6429SOL     OW30919   4.279   2.548   0.626  0.1262  0.0881 -0.0345
 6429SOL    HW130920   4.314   2.610   0.561  0.1910 -1.3444 -1.3572
 6429SOL    HW230921   4.343   2.480   0.604 -2.0337 -1.7730 -0.4709
 6430SOL     OW30922   2.121   0.914   6.869 -0.2448 -0.2999  0.3440
 6430SOL    HW130923   2.180   0.987   6.885  1.0914 -1.4619  0.6493
 6430SOL    HW230924   2.109   0.861   6.947 -1.8261 -1.3704 -0.6013
 6431SOL     OW30925   2.741   4.149   2.689  0.4809  0.1876  0.6538
 6431SOL    HW130926   2.671   4.127   2.750 -0.2448 -0.9620 -0.5881
 6431SOL    HW230927   2.791   4.201   2.752 -0.1168  2.3593 -0.6401
 6432SOL     OW30928   4.378   1.052   9.604  0.4309 -0.1141  0.5495
 6432SOL    HW130929   4.356   0.962   9.627  1.1645 -0.7025 -1.0908
 6432SOL    HW230930   4.299   1.080   9.557  0.7546 -0.1464 -0.0146
 6433SOL     OW30931   4.056   1.733   3.810 -0.0620 -0.2733  0.1983
 6433SOL    HW130932   4.051   1.702   3.720 -2.7871 -1.3845  0.7359
 6433SOL    HW230933   4.147   1.760   3.802 -0.3425  0.9800  1.1358
 6434SOL     OW30934   4.292   2.221   2.865  0.0326 -0.4899 -0.3729
 6434SOL    HW130935   4.369   2.184   2.822 -0.0541 -1.1168  0.0089
 6434SOL    HW230936   4.231   2.158   2.825 -1.8006 -0.2833  2.0573
 6435SOL     OW30937   2.690   0.508  10.345  0.0079  0.1734 -0.3385
 6435SOL    HW130938   2.713   0.505  10.252  1.1054 -2.9341  0.0528
 6435SOL    HW230939   2.754   0.456  10.393 -0.2405  0.4061  0.2438
 6436SOL     OW30940   0.793   3.073  11.733  0.5853  0.3290  0.4529
 6436SOL    HW130941   0.710   3.114  11.754 -0.4242 -2.3294  1.6843
 6436SOL    HW230942   0.847   3.140  11.776 -2.2273  2.6718  0.3415
 6437SOL     OW30943   3.138   0.678   4.539 -0.0838 -0.3145 -0.3187
 6437SOL    HW130944   3.180   0.651   4.457  1.1110  0.5147  0.0144
 6437SOL    HW230945   3.133   0.589   4.572  1.7452 -0.0396  0.7238
 6438SOL     OW30946   0.088   2.434   0.097  0.3758 -0.0576 -0.3049
 6438SOL    HW130947   4.733   2.428   0.077  0.3110 -3.3957  1.1013
 6438SOL    HW230948   0.097   2.339   0.100  3.1378  0.2467  0.3321
 6439SOL     OW30949   2.960   3.756   3.692  0.0317  0.2635 -0.2183
 6439SOL    HW130950   3.050   3.733   3.714  0.1247 -1.0151 -1.9641
 6439SOL    HW230951   2.928   3.786   3.777 -0.6595 -1.8250  0.2590
 6440SOL     OW30952   2.255   2.804  12.962  0.0746 -0.6271 -0.5106
 6440SOL    HW130953   2.173   2.765  12.991  0.0844 -0.3724 -0.1519
 6440SOL    HW230954   2.298   2.719  12.947  0.2127 -0.6738  0.1610
 6441SOL     OW30955   3.797   4.450   1.832  0.4857  0.1033 -0.3737
 6441SOL    HW130956   3.874   4.488   1.790 -1.0224  3.1586 -0.4102
 6441SOL    HW230957   3.846   4.394   1.891 -1.8779  0.0420  1.5318
 6442SOL     OW30958   2.951   0.103   8.118 -0.4982  0.2056 -0.3811
 6442SOL    HW130959   2.966   0.128   8.027 -1.2344 -1.5214 -0.9722
 6442SOL    HW230960   2.921   0.187   8.155 -2.3721 -0.9884  0.7845
 6443SOL     OW30961   2.270   1.044   6.301  0.5506  0.3547 -0.1068
 6443SOL    HW130962   2.329   1.052   6.376 -0.8354 -3.2829  1.3456
 6443SOL    HW230963   2.186   1.048   6.348 -0.0403 -0.8288 -1.0619
 6444SOL     OW30964   3.624   4.185   0.721 -0.2074  0.2436  0.2182
 6444SOL    HW130965   3.587   4.105   0.685 -0.4423  0.9370 -1.0574
 6444SOL    HW230966   3.591   4.195   0.810 -0.6802  1.2452 -0.0754
 6445SOL     OW30967   4.337   0.729   3.703  0.1055  0.0923 -0.5261
 6445SOL    HW130968   4.388   0.656   3.669  0.9360  0.5829 -0.3576
 6445SOL    HW230969   4.262   0.678   3.732 -2.6546  2.9618 -2.7132
 6446SOL     OW30970   4.150   3.009  11.087 -0.4916 -0.2987  0.2305
 6446SOL    HW130971   4.195   3.089  11.060  0.5530 -0.6961  0.7852
 6446SOL    HW230972   4.083   2.992  11.021 -1.0537  0.3991  0.6378
 6447SOL     OW30973   2.929   0.395   8.434 -0.0740 -0.1338  0.1710
 6447SOL    HW130974   2.978   0.375   8.513 -0.7992 -0.3733  0.5551
 6447SOL    HW230975   2.852   0.349   8.467 -1.7185  1.1531 -1.8813
 6448SOL     OW30976   2.965   1.233   7.160 -0.1209  0.2889  0.3980
 6448SOL    HW130977   2.918   1.150   7.169 -0.4276  0.5522  1.2073
 6448SOL    HW230978   3.052   1.220   7.196 -0.7304 -0.5001  1.5759
 6449SOL     OW30979   2.474   2.219   6.020  0.2999  0.2604 -0.5591
 6449SOL    HW130980   2.408   2.152   6.039  0.4272  0.2589 -0.1167
 6449SOL    HW230981   2.419   2.295   6.041 -1.4628 -1.2994  0.5412
 6450SOL     OW30982   1.815   2.360  13.833 -0.2797 -0.3235 -0.7251
 6450SOL    HW130983   1.811   2.280  13.885 -2.3979 -0.3466 -0.9170
 6450SOL    HW230984   1.812   2.344  13.738  0.0081  0.8821 -0.9398
 6451SOL     OW30985   3.892   4.462  17.344 -0.3417 -0.5814 -0.3061
 6451SOL    HW130986   3.928   4.390  17.292 -1.9992 -1.0409 -0.8283
 6451SOL    HW230987   3.895   4.430  17.434 -0.9899  1.3687  0.4031
 6452SOL     OW30988   0.845   0.252   8.677 -0.2382 -0.7219  0.3221
 6452SOL    HW130989   0.851   0.157   8.675  1.1938 -0.6246 -0.2129
 6452SOL    HW230990   0.933   0.289   8.665 -0.1757 -1.2619 -0.8967
 6453SOL     OW30991   1.025   3.543   9.628 -0.4816 -0.2311  0.1122
 6453SOL    HW130992   1.083   3.562   9.554 -0.2993 -1.1406  0.0261
 6453SOL    HW230993   1.067   3.607   9.686  0.6410 -0.8411 -0.0309
 6454SOL     OW30994   1.681   0.229  11.751 -0.1079 -0.2982  0.2355
 6454SOL    HW130995   1.685   0.296  11.683  1.1220 -0.3134  0.3060
 6454SOL    HW230996   1.588   0.207  11.742 -0.1531  0.8176 -2.1102
 6455SOL     OW30997   1.046   0.575   0.420 -0.2168  0.5810 -0.1422
 6455SOL    HW130998   1.071   0.668   0.414 -0.3413  0.7017  1.1614
 6455SOL    HW230999   1.058   0.555   0.512 -1.3175 -0.9289 -0.3270
 6456SOL     OW31000   1.151   0.236   6.567  0.6940 -0.6580  0.6041
 6456SOL    HW131001   1.073   0.291   6.579  0.7036 -0.2933 -0.9656
 6456SOL    HW231002   1.124   0.167   6.627 -1.1261  0.7932  1.4855
 6457SOL     OW31003   3.917   3.002   0.687  0.3436  0.0690 -0.1258
 6457SOL    HW131004   3.863   2.980   0.610 -0.9973 -0.2350  0.9105
 6457SOL    HW231005   3.848   3.013   0.753 -0.5119 -0.3654 -0.9400
 6458SOL     OW31006   3.534   2.965   5.699 -0.3503  0.1511 -0.3051
 6458SOL    HW131007   3.507   2.895   5.641 -1.2841 -0.5200  0.9538
 6458SOL    HW231008   3.567   2.910   5.770 -0.7730 -0.5207 -0.6384
 6459SOL     OW31009   3.023   4.098  12.773 -0.5080 -0.3288 -0.7052
 6459SOL    HW131010   2.994   4.031  12.836  2.5746  0.4774  1.5781
 6459SOL    HW231011   3.008   4.183  12.815  2.0987  0.7754 -2.0350
 6460SOL     OW31012   4.175   4.316  13.414 -0.0808  0.6533 -0.3036
 6460SOL    HW131013   4.213   4.228  13.404  2.6105  1.9583 -1.4875
 6460SOL    HW231014   4.173   4.325  13.509 -1.7358 -0.3094 -0.2505
 6461SOL     OW31015   0.170   0.081   1.355 -0.1525 -0.3704 -0.2457
 6461SOL    HW131016   0.205   0.159   1.397  0.3133 -0.8597  0.2618
 6461SOL    HW231017   0.144   0.129   1.276  0.5525 -1.0197 -0.8704
 6462SOL     OW31018   3.737   1.226   4.974  0.2470 -0.3018 -0.2548
 6462SOL    HW131019   3.726   1.319   4.994 -1.1199 -1.0984  2.6611
 6462SOL    HW231020   3.788   1.200   5.050  1.1431 -1.7119 -1.3438
 6463SOL     OW31021   4.708   0.103   7.360  0.3993 -0.0017  0.4344
 6463SOL    HW131022   4.634   0.043   7.354  1.6018 -1.2534 -1.9242
 6463SOL    HW231023   0.037   0.036   7.377  1.0839  1.1260  2.0976
 6464SOL     OW31024   1.228   0.465   7.099  0.0316 -0.1886  0.3391
 6464SOL    HW131025   1.176   0.510   7.033 -1.1916  1.0270  2.1379
 6464SOL    HW231026   1.302   0.431   7.048  1.2202  0.6357  1.4987
 6465SOL     OW31027   3.007   0.948   7.556 -0.5850 -0.2600 -0.5202
 6465SOL    HW131028   2.936   0.980   7.611 -1.6126 -4.0001  0.3292
 6465SOL    HW231029   3.068   1.021   7.544 -0.9229 -0.0892 -1.2505
 6466SOL     OW31030   0.528   4.679   9.108  0.6418  0.0587  0.2735
 6466SOL    HW131031   0.485   4.679   9.194  1.2658 -2.5123  0.5925
 6466SOL    HW231032   0.602   4.625   9.135 -1.1675 -2.5625  0.0009
 6467SOL     OW31033   0.135   1.178   5.613  0.0038  0.4168  0.0754
 6467SOL    HW131034   0.114   1.134   5.530  0.2545 -0.8541  0.6802
 6467SOL    HW231035   0.230   1.169   5.603 -0.1184 -0.3098 -0.4762
 6468SOL     OW31036   0.565   3.886  12.592 -0.0195  0.6153 -0.5938
 6468SOL    HW131037   0.626   3.907  12.663 -1.0802 -1.6217  0.9435
 6468SOL    HW231038   0.518   3.967  12.571 -0.9561  0.0685 -0.5748
 6469SOL     OW31039   0.376   4.702   4.551  0.2760 -0.3409 -0.4099
 6469SOL    HW131040   0.341   4.625   4.595  1.6530  0.3212  1.8704
 6469SOL    HW231041   0.294   0.013   4.551  0.4406 -0.1027 -3.4503
 6470SOL     OW31042   3.804   4.427   7.429  0.3791  0.0897  0.2038
 6470SOL    HW131043   3.733   4.465   7.378 -1.2587 -0.6350  1.9062
 6470SOL    HW231044   3.759   4.360   7.481  0.0901 -0.3232 -0.5796
 6471SOL     OW31045   0.926   1.074   3.055  0.0314  0.4467  0.2015
 6471SOL    HW131046   0.963   0.986   3.049 -0.5736  0.3082 -1.5739
 6471SOL    HW231047   0.902   1.072   3.147  2.2533 -0.7521  0.7559
 6472SOL     OW31048   2.092   2.389   5.397  0.3809 -0.0712  0.3359
 6472SOL    HW131049   2.150   2.410   5.470 -0.3533 -0.8247  1.1321
 6472SOL    HW231050   2.111   2.470   5.350 -1.7654 -0.1721 -0.7239
 6473SOL     OW31051   1.446   0.794   7.689 -0.2588 -0.5278  0.5095
 6473SOL    HW131052   1.503   0.718   7.677  1.7707  1.2796 -1.1464
 6473SOL    HW231053   1.358   0.765   7.664  0.5124 -2.5480  0.1500
 6474SOL     OW31054   3.942   0.762  17.002 -0.4005  0.2971  0.3748
 6474SOL    HW131055   4.000   0.688  16.982 -1.5368 -0.5530  0.2068
 6474SOL    HW231056   3.991   0.838  16.974 -1.3952  0.5690 -0.6023
 6475SOL     OW31057   0.737   0.426   0.290 -0.0166  0.1891 -0.2102
 6475SOL    HW131058   0.702   0.424   0.379  1.3489 -2.5586  0.2763
 6475SOL    HW231059   0.743   0.520   0.276 -0.4169  0.3641  0.8490
 6476SOL     OW31060   2.933   3.370   3.299  0.5209  0.0475  0.0796
 6476SOL    HW131061   2.917   3.432   3.369 -2.0286  2.0690 -2.3038
 6476SOL    HW231062   2.969   3.430   3.234 -1.4176  2.5208  1.3186
 6477SOL     OW31063   3.505   0.491   1.893 -0.8070 -0.4765 -0.1806
 6477SOL    HW131064   3.554   0.561   1.936 -0.4942  0.1733 -1.6030
 6477SOL    HW231065   3.421   0.515   1.934 -0.8043 -0.5903 -0.1056
 6478SOL     OW31066   0.242   0.765   9.226 -0.4908 -0.2439 -0.8095
 6478SOL    HW131067   0.206   0.852   9.243 -2.3487 -0.7798 -1.9564
 6478SOL    HW231068   0.162   0.715   9.210  0.4250 -2.0441  0.1979
 6479SOL     OW31069   1.231   4.713   3.742  0.0022 -0.0317  0.5988
 6479SOL    HW131070   1.263   4.625   3.762 -2.0679 -0.4040  2.2655
 6479SOL    HW231071   1.192   4.699   3.655  0.4272  1.6768  0.1217
 6480SOL     OW31072   0.122   3.622   6.216 -0.0906  0.6817  0.1986
 6480SOL    HW131073   0.140   3.562   6.144  1.4386  1.6143 -0.2070
 6480SOL    HW231074   0.178   3.696   6.190 -0.1067  0.0716 -1.5671
 6481SOL     OW31075   1.257   2.724  15.258  0.0016 -0.2559 -0.4811
 6481SOL    HW131076   1.240   2.672  15.337 -0.3962  0.4952 -0.0716
 6481SOL    HW231077   1.174   2.764  15.232 -0.8894 -2.0110 -0.3448
 6482SOL     OW31078   2.858   3.813  13.276  0.4279  0.3043 -0.1347
 6482SOL    HW131079   2.884   3.775  13.360 -1.5878 -0.7828 -0.0084
 6482SOL    HW231080   2.880   3.905  13.286 -1.6216  0.6944  0.6646
 6483SOL     OW31081   3.365   2.280   6.222 -0.4738  0.5140  0.3494
 6483SOL    HW131082   3.295   2.344   6.236 -1.1208 -0.0375 -0.3547
 6483SOL    HW231083   3.346   2.215   6.290 -1.6639  1.8814  1.3214
 6484SOL     OW31084   3.434   0.976  10.843  0.1110 -0.4486 -0.1260
 6484SOL    HW131085   3.489   0.999  10.918 -0.1385  0.6546 -0.2870
 6484SOL    HW231086   3.415   1.060  10.802  1.7618  0.7934  1.6548
 6485SOL     OW31087   4.548   0.299   4.044  0.6728 -0.8148 -0.7334
 6485SOL    HW131088   4.631   0.341   4.069  2.1165 -2.2555 -3.0684
 6485SOL    HW231089   4.497   0.374   4.013  0.7603  0.5402  2.4455
 6486SOL     OW31090   1.001   4.579  12.127  0.3290  0.5236  0.1576
 6486SOL    HW131091   0.963   4.612  12.208 -0.7493 -0.0896 -0.1040
 6486SOL    HW231092   1.081   4.626  12.104  0.5757  0.2491  0.4574
 6487SOL     OW31093   3.736   0.917   2.265  0.2819 -0.0056  0.0822
 6487SOL    HW131094   3.780   0.853   2.209 -0.1631 -1.1773  1.0702
 6487SOL    HW231095   3.795   0.990   2.249 -0.4300  0.5232 -0.1208
 6488SOL     OW31096   3.653   3.746   7.753 -0.0894  0.3140  0.4392
 6488SOL    HW131097   3.633   3.658   7.721  1.2148  0.1596  0.0377
 6488SOL    HW231098   3.746   3.738   7.772  0.0263 -0.8392 -0.5550
 6489SOL     OW31099   0.315   3.481   4.277  0.2838 -0.1676  0.1270
 6489SOL    HW131100   0.312   3.575   4.295  0.1333 -0.3801  1.2173
 6489SOL    HW231101   0.231   3.487   4.230  0.9292 -0.5258 -1.0660
 6490SOL     OW31102   0.305   1.710  15.986 -0.3681 -0.4435  0.0184
 6490SOL    HW131103   0.355   1.631  16.008  0.9129  0.4685  0.3714
 6490SOL    HW231104   0.215   1.678  15.995 -0.1611 -0.8922  0.5469
 6491SOL     OW31105   4.449   2.407   5.638 -0.6740  0.2171  0.3891
 6491SOL    HW131106   4.415   2.322   5.610 -0.8805  0.2226  0.6287
 6491SOL    HW231107   4.365   2.451   5.630 -0.1939  0.9051 -0.7965
 6492SOL     OW31108   3.734   1.596   9.844  0.5456 -0.0760 -0.3567
 6492SOL    HW131109   3.821   1.557   9.852  0.1281 -1.5458 -2.8619
 6492SOL    HW231110   3.748   1.690   9.856 -1.4508  0.4100 -1.8186
 6493SOL     OW31111   3.071   2.886   5.906 -0.5902 -0.0136  0.1543
 6493SOL    HW131112   3.047   2.976   5.883  0.9496  0.3719  0.0313
 6493SOL    HW231113   3.106   2.895   5.994 -0.6415  1.6543 -0.0052
 6494SOL     OW31114   4.155   4.289  10.199  0.2572 -0.3303 -0.2845
 6494SOL    HW131115   4.229   4.246  10.156 -0.1338 -1.1556 -0.1304
 6494SOL    HW231116   4.090   4.289  10.129  0.1669  0.8563 -0.2130
 6495SOL     OW31117   0.217   2.977   5.650 -0.3010 -0.1345  0.4051
 6495SOL    HW131118   0.236   2.965   5.557  2.2339 -0.9575  1.0142
 6495SOL    HW231119   0.305   2.987   5.687  1.1775  0.1154 -3.1260
 6496SOL     OW31120   0.404   3.467  16.104  0.4576 -0.0453 -0.1832
 6496SOL    HW131121   0.488   3.507  16.129 -0.3542  1.4357  0.1440
 6496SOL    HW231122   0.352   3.545  16.084  1.9260  0.2010 -3.0720
 6497SOL     OW31123   4.401   0.977   7.157 -0.5312  0.0179 -0.0081
 6497SOL    HW131124   4.328   0.986   7.095 -0.9935 -1.7960  0.2479
 6497SOL    HW231125   4.353   0.989   7.239  1.1181  0.9739  0.8093
 6498SOL     OW31126   2.071   0.816   5.122  0.3781  0.1910  0.6561
 6498SOL    HW131127   2.127   0.794   5.047 -1.7750 -0.2823 -0.8226
 6498SOL    HW231128   2.035   0.899   5.091 -0.3393  0.1771  1.4465
 6499SOL     OW31129   4.533   4.121   5.299 -0.1467 -0.0411  0.3426
 6499SOL    HW131130   4.448   4.158   5.276 -0.9730 -1.8231  0.5345
 6499SOL    HW231131   4.582   4.165   5.230 -0.7938  0.5922  0.2883
 6500SOL     OW31132   1.582   0.589   9.082 -0.2740  0.5474  0.2781
 6500SOL    HW131133   1.632   0.670   9.088 -0.9256  1.1295 -2.1171
 6500SOL    HW231134   1.653   0.529   9.057 -0.8378 -0.1455  0.3294
 6501SOL     OW31135   4.687   3.035  11.689  0.1811  0.8707 -0.2826
 6501SOL    HW131136   0.030   2.992  11.663 -0.0264 -0.4825  1.3354
 6501SOL    HW231137   4.714   3.083  11.768  1.7903 -0.8794  0.2285
 6502SOL     OW31138   3.068   2.589   7.898 -0.5388  0.2446  0.3564
 6502SOL    HW131139   3.071   2.671   7.947  0.0058  0.7854 -0.5750
 6502SOL    HW231140   3.041   2.621   7.812 -1.3272  2.3964  1.4071
 6503SOL     OW31141   3.284   3.578  13.432  0.0197 -0.0474  0.1510
 6503SOL    HW131142   3.227   3.655  13.438  1.4379  0.9014  1.3547
 6503SOL    HW231143   3.275   3.552  13.341  1.3576  0.5183 -0.1380
 6504SOL     OW31144   1.600   4.590   5.784 -0.4684 -0.3969 -0.2587
 6504SOL    HW131145   1.666   4.564   5.848 -0.6652 -0.7078 -0.1844
 6504SOL    HW231146   1.586   4.501   5.752 -2.2157  0.5208 -2.0762
 6505SOL     OW31147   4.628   0.090   6.466 -0.1966  0.0881  0.1004
 6505SOL    HW131148   4.637   0.046   6.381 -1.5778 -0.2543  0.1292
 6505SOL    HW231149   4.692   0.044   6.520  1.4483  0.6473 -1.3816
 6506SOL     OW31150   1.697   1.494  16.858  0.3536 -0.9684  0.6113
 6506SOL    HW131151   1.748   1.574  16.845  0.1408 -1.2076 -1.7108
 6506SOL    HW231152   1.715   1.444  16.778  0.0818 -0.1880  0.0644
 6507SOL     OW31153   4.191   0.783   1.959 -0.0657  0.3940  0.2540
 6507SOL    HW131154   4.207   0.824   2.043  0.2349  1.9389 -0.5615
 6507SOL    HW231155   4.201   0.852   1.894 -0.0466 -0.4963 -0.7012
 6508SOL     OW31156   0.380   3.540  10.555 -0.4529  0.4699  0.0721
 6508SOL    HW131157   0.457   3.541  10.612 -1.2164 -0.9212  1.1191
 6508SOL    HW231158   0.405   3.556  10.464  0.7509  0.2284  0.3679
 6509SOL     OW31159   1.909   1.106   7.495 -0.4303 -0.3823  0.0752
 6509SOL    HW131160   1.827   1.076   7.533 -1.4574  1.9998 -0.2362
 6509SOL    HW231161   1.911   1.065   7.408 -0.5289  0.1805 -0.1961
 6510SOL     OW31162   1.832   2.561   0.892 -0.1978 -0.1654  0.0144
 6510SOL    HW131163   1.880   2.478   0.886  1.5865  0.9653 -1.6789
 6510SOL    HW231164   1.900   2.615   0.850 -2.0283  3.8044  2.1573
 6511SOL     OW31165   1.313   3.572   1.966 -0.0848  0.0085  0.5249
 6511SOL    HW131166   1.324   3.658   1.925 -1.1430  0.1677  0.5907
 6511SOL    HW231167   1.227   3.579   2.008 -0.0900 -1.2841  0.7363
 6512SOL     OW31168   1.685   3.561   4.861 -0.7146  0.3598  0.7531
 6512SOL    HW131169   1.744   3.608   4.921  0.0647 -0.1768  0.4064
 6512SOL    HW231170   1.695   3.468   4.877  2.3935  0.7652  1.2777
 6513SOL     OW31171   0.026   0.118   5.042  0.0722  0.6273  0.3903
 6513SOL    HW131172   0.072   0.199   5.064 -2.7048  1.5481  2.8023
 6513SOL    HW231173   0.045   0.098   4.951  0.0977 -0.6795  0.6710
 6514SOL     OW31174   0.187   4.674   7.357  0.3877  0.0886  0.3021
 6514SOL    HW131175   0.243   4.709   7.427  0.1649 -2.5195  1.7829
 6514SOL    HW231176   0.248   4.659   7.284 -0.6575  0.6045 -0.6751
 6515SOL     OW31177   3.737   1.369   2.460 -0.0837 -0.3224 -0.1295
 6515SOL    HW131178   3.709   1.385   2.550  1.3116 -0.1311  0.2713
 6515SOL    HW231179   3.717   1.276   2.448 -1.1079 -0.1108 -0.0877
 6516SOL     OW31180   3.052   3.075   7.534  0.2587  0.0669  0.1321
 6516SOL    HW131181   3.031   3.086   7.627  0.8140 -1.0957  0.3923
 6516SOL    HW231182   2.973   3.110   7.493 -0.1456 -0.8383  0.1154
 6517SOL     OW31183   1.831   3.075   9.235 -0.1662 -0.0685  0.0483
 6517SOL    HW131184   1.850   3.169   9.233  0.4432 -0.2073 -1.2373
 6517SOL    HW231185   1.854   3.045   9.147  0.9630 -0.1777  0.3781
 6518SOL     OW31186   3.038   0.811   6.650 -0.0176  0.4151 -0.6063
 6518SOL    HW131187   2.974   0.772   6.591 -0.3700 -1.2274  0.8495
 6518SOL    HW231188   2.994   0.892   6.677 -1.0713 -0.1048 -0.7713
 6519SOL     OW31189   1.022   1.164  13.606 -0.1503  0.1112 -0.2145
 6519SOL    HW131190   0.968   1.146  13.682 -1.2201  1.9008 -0.5574
 6519SOL    HW231191   0.957   1.172  13.536  0.8058  1.4450 -0.9337
 6520SOL     OW31192   3.036   0.974   2.974 -0.6119 -0.4060  0.6081
 6520SOL    HW131193   2.947   0.941   2.988 -0.8309 -0.5755 -1.1700
 6520SOL    HW231194   3.089   0.897   2.994  1.1888  0.6060 -0.2730
 6521SOL     OW31195   0.157   3.974   8.565 -0.4577 -0.0061 -0.3400
 6521SOL    HW131196   0.109   3.943   8.643  1.1114  1.9707  1.4104
 6521SOL    HW231197   0.244   3.939   8.584 -0.4569 -0.7371 -1.6734
 6522SOL     OW31198   2.307   0.505   2.443 -0.1754 -0.4487  0.3285
 6522SOL    HW131199   2.396   0.500   2.409 -0.1464  3.5599 -0.1797
 6522SOL    HW231200   2.314   0.455   2.524 -1.7690 -2.6299 -0.8873
 6523SOL     OW31201   2.746   3.625   6.454 -0.2245  0.0654 -0.0273
 6523SOL    HW131202   2.725   3.635   6.547  4.0407 -0.8910  1.0049
 6523SOL    HW231203   2.724   3.713   6.422  0.5767  0.2171 -0.1448
 6524SOL     OW31204   3.516   1.220   5.882 -0.1306  0.5346  0.3762
 6524SOL    HW131205   3.548   1.310   5.873 -0.6434  0.7626  0.8062
 6524SOL    HW231206   3.556   1.207   5.968  0.3802  0.2354  0.0908
 6525SOL     OW31207   0.689   2.273   5.605 -0.3061 -0.0785  0.3988
 6525SOL    HW131208   0.724   2.190   5.573 -1.2320 -0.3510  0.0926
 6525SOL    HW231209   0.670   2.246   5.695 -0.3275  0.0293  0.4266
 6526SOL     OW31210   3.310   0.465   7.455  0.2559  0.3093 -0.0643
 6526SOL    HW131211   3.232   0.509   7.490  0.9148  0.7539  0.8600
 6526SOL    HW231212   3.350   0.420   7.530 -0.6664  2.7143  1.8819
 6527SOL     OW31213   1.673   2.021   8.121 -0.6638 -0.0174  0.5304
 6527SOL    HW131214   1.617   1.943   8.117  0.7741 -1.2503  4.0199
 6527SOL    HW231215   1.755   1.993   8.162  0.3991  1.0410 -0.8839
 6528SOL     OW31216   4.123   1.318   6.486 -0.0363 -0.3492  0.0173
 6528SOL    HW131217   4.080   1.258   6.546  0.6411 -0.2930  0.5632
 6528SOL    HW231218   4.194   1.343   6.545  0.3814  0.7365 -0.9259
 6529SOL     OW31219   1.703   1.938  12.371 -0.4776  0.6465  0.1886
 6529SOL    HW131220   1.613   1.967  12.359 -1.0297 -1.5161 -0.9783
 6529SOL    HW231221   1.699   1.860  12.427 -0.2430 -1.1150 -2.2500
 6530SOL     OW31222   4.602   3.153  10.104  0.4095  0.4183  0.2970
 6530SOL    HW131223   4.519   3.174  10.146  0.0034 -0.9992  0.2069
 6530SOL    HW231224   4.594   3.064  10.070 -0.9874  0.7335 -0.1820
 6531SOL     OW31225   4.278   1.159   5.117 -0.4177 -0.6043  0.1356
 6531SOL    HW131226   4.291   1.214   5.039 -0.4544  0.3562  0.8096
 6531SOL    HW231227   4.303   1.074   5.080  2.8488  0.4427 -0.0589
 6532SOL     OW31228   0.353   1.461   5.497  0.4183  0.3781  0.5077
 6532SOL    HW131229   0.426   1.448   5.557  0.6475 -1.9957 -0.2743
 6532SOL    HW231230   0.356   1.383   5.441  1.1094 -0.5952  1.8866
 6533SOL     OW31231   0.780   0.394   4.684  0.1838  0.0716 -0.2158
 6533SOL    HW131232   0.772   0.416   4.591  1.1044 -0.7268 -0.4905
 6533SOL    HW231233   0.828   0.311   4.678  0.8626  0.4633 -0.1557
 6534SOL     OW31234   0.745   2.693  12.347  0.7051 -0.0266 -0.1094
 6534SOL    HW131235   0.835   2.701  12.315  0.1978  0.5149 -1.3976
 6534SOL    HW231236   0.723   2.606  12.313  3.5776 -0.2741 -1.3513
 6535SOL     OW31237   1.166   3.784   6.600  0.4269  0.6655  0.4112
 6535SOL    HW131238   1.215   3.822   6.527 -0.1002 -0.5142 -0.5551
 6535SOL    HW231239   1.106   3.723   6.558  2.6552 -1.4587  0.3150
 6536SOL     OW31240   4.095   4.159   4.155 -0.7022 -0.0437  0.4528
 6536SOL    HW131241   4.055   4.078   4.126 -0.3639  0.5152 -1.5259
 6536SOL    HW231242   4.038   4.183   4.228 -0.6270  1.1388  0.1280
 6537SOL     OW31243   1.039   4.523   4.104 -0.1284 -0.4168 -0.4536
 6537SOL    HW131244   1.132   4.533   4.084 -0.3560  2.8114  0.0601
 6537SOL    HW231245   1.004   4.598   4.056  0.1472 -1.2760 -1.9619
 6538SOL     OW31246   1.712   2.749   4.820 -0.5199 -0.6994 -0.3083
 6538SOL    HW131247   1.643   2.755   4.886 -1.1048  0.4967 -1.0430
 6538SOL    HW231248   1.665   2.705   4.749 -0.3101  0.9999 -1.4787
 6539SOL     OW31249   4.500   0.020   9.768  0.0652 -0.1231  0.6779
 6539SOL    HW131250   4.559   4.736   9.840  1.1771 -1.9589 -0.8439
 6539SOL    HW231251   4.422   0.057   9.811  0.2531  0.3373  0.6168
 6540SOL     OW31252   2.770   0.843  11.888  0.0849  0.2766 -0.1837
 6540SOL    HW131253   2.728   0.790  11.821  1.0744  0.1216 -0.6708
 6540SOL    HW231254   2.701   0.908  11.903  3.7473  3.3425  3.5583
 6541SOL     OW31255   0.835   2.895   1.140 -0.0771  0.1147 -0.7726
 6541SOL    HW131256   0.777   2.855   1.076 -0.2880 -2.2426  0.8674
 6541SOL    HW231257   0.865   2.971   1.090  0.7337  1.0851  1.1669
 6542SOL     OW31258   1.011   4.166   5.978 -0.0018  0.5707  0.4032
 6542SOL    HW131259   0.926   4.206   5.999  0.6217  1.5912  1.0098
 6542SOL    HW231260   0.999   4.118   5.896  1.2579  0.9889 -0.0275
 6543SOL     OW31261   4.674   4.643   6.195 -0.1224 -0.2339  0.0697
 6543SOL    HW131262   4.650   4.552   6.182 -1.1595  0.1287 -0.5695
 6543SOL    HW231263   4.685   4.669   6.103  0.5169 -0.1784  0.1618
 6544SOL     OW31264   0.146   1.174   3.166  0.1603  0.3030 -0.0118
 6544SOL    HW131265   0.105   1.163   3.080 -1.4653 -0.6284  0.8861
 6544SOL    HW231266   0.187   1.261   3.163  0.6987  0.0377 -0.4130
 6545SOL     OW31267   4.481   4.233   7.738 -0.6180 -0.6649  0.1284
 6545SOL    HW131268   4.531   4.151   7.738  0.6966  0.1513 -1.8748
 6545SOL    HW231269   4.524   4.275   7.813 -0.1129 -1.2607  0.1722
 6546SOL     OW31270   2.514   1.937   4.002 -0.1525  0.4503 -0.7537
 6546SOL    HW131271   2.559   1.872   3.947  0.7017  0.4282 -0.0326
 6546SOL    HW231272   2.593   1.965   4.048 -1.6878  0.8701  1.6238
 6547SOL     OW31273   0.078   2.967   1.276 -0.1612 -0.6685 -0.2751
 6547SOL    HW131274   4.735   2.923   1.251 -0.5276 -1.1645  1.8032
 6547SOL    HW231275   0.076   2.941   1.368  1.4825  0.7960  0.1729
 6548SOL     OW31276   3.176   0.280  13.142 -0.0590 -0.1165  0.3943
 6548SOL    HW131277   3.151   0.280  13.050 -1.8337  0.3257  0.8701
 6548SOL    HW231278   3.092   0.280  13.189 -1.1443  1.9932 -1.5565
 6549SOL     OW31279   1.782   0.107   2.556 -0.7446 -0.1577 -0.5104
 6549SOL    HW131280   1.773   0.120   2.651  1.3323  0.9879 -0.4792
 6549SOL    HW231281   1.874   0.110   2.533 -0.2389 -3.3421  1.0937
 6550SOL     OW31282   1.792   3.960   5.356 -0.1000 -0.0193  0.7836
 6550SOL    HW131283   1.721   4.024   5.361  1.2928  1.5215  0.8162
 6550SOL    HW231284   1.771   3.898   5.426 -1.0664 -0.2162  0.3220
 6551SOL     OW31285   0.839   1.573   2.313  0.4137 -0.0958  0.1332
 6551SOL    HW131286   0.769   1.602   2.370  1.0120  0.1758  0.7324
 6551SOL    HW231287   0.893   1.651   2.323  3.0352 -1.6490 -1.5089
 6552SOL     OW31288   4.165   2.402   3.729  0.1750  0.5528 -0.0398
 6552SOL    HW131289   4.229   2.462   3.768  1.3170 -0.6297 -0.0960
 6552SOL    HW231290   4.192   2.327   3.782  0.8041  1.3237  0.7360
 6553SOL     OW31291   3.768   2.074   2.595  0.1466 -0.0749  0.3382
 6553SOL    HW131292   3.829   2.143   2.621  0.2161 -0.4852  1.2647
 6553SOL    HW231293   3.685   2.119   2.610 -0.2650 -0.9031  0.5269
 6554SOL     OW31294   2.584   2.884  11.987 -0.0426  0.0544  0.2938
 6554SOL    HW131295   2.644   2.854  11.919  1.5659 -0.0584  1.7493
 6554SOL    HW231296   2.576   2.976  11.963  4.0945  0.8144  1.7045
 6555SOL     OW31297   2.777   3.151  15.721 -0.0178 -0.4590 -0.1446
 6555SOL    HW131298   2.722   3.217  15.765 -0.1464 -0.2789 -0.5740
 6555SOL    HW231299   2.715   3.078  15.713 -1.2523  0.6170 -0.3951
 6556SOL     OW31300   2.933   4.483  10.949  0.1521 -0.4643  0.0630
 6556SOL    HW131301   2.927   4.410  10.888 -2.1527  0.1219 -0.4142
 6556SOL    HW231302   2.839   4.494  10.963  0.2233 -0.5021  0.5774
 6557SOL     OW31303   0.917   1.366   9.815 -0.6960 -0.7101 -0.0674
 6557SOL    HW131304   0.846   1.410   9.863 -0.8664 -1.5859  0.4640
 6557SOL    HW231305   0.985   1.370   9.883  1.3028  1.8410 -2.1969
 6558SOL     OW31306   3.341   1.832   4.672 -0.5543 -0.1559  0.2089
 6558SOL    HW131307   3.365   1.740   4.686  0.9750  0.3236  0.8357
 6558SOL    HW231308   3.331   1.862   4.763 -0.9380  0.0572  0.0937
 6559SOL     OW31309   1.037   0.386   8.892  0.0418  0.2966 -0.0982
 6559SOL    HW131310   1.063   0.477   8.877  0.6787  0.4288  1.7390
 6559SOL    HW231311   0.997   0.361   8.809  3.2326  0.0745 -1.5833
 6560SOL     OW31312   0.028   2.797   8.863 -0.3482  0.0292  0.2713
 6560SOL    HW131313   0.007   2.717   8.815 -1.2486  0.5921 -0.2816
 6560SOL    HW231314   4.677   2.827   8.883 -1.4011 -3.4683  0.7702
 6561SOL     OW31315   1.093   2.495   5.473  0.3111 -0.0834  0.0012
 6561SOL    HW131316   1.056   2.556   5.536  1.6996  0.9399 -0.1543
 6561SOL    HW231317   1.024   2.488   5.407  0.0229  1.1055  0.1786
 6562SOL     OW31318   1.673   2.366   9.879  0.2237 -0.2579 -0.1852
 6562SOL    HW131319   1.624   2.355   9.961 -1.9503 -2.0920 -1.7113
 6562SOL    HW231320   1.761   2.333   9.896  0.7641  0.0345 -2.4090
 6563SOL     OW31321   0.412   0.036   1.598 -0.4662 -0.5397  0.5090
 6563SOL    HW131322   0.406   4.721   1.677  2.3741 -1.6301 -0.0004
 6563SOL    HW231323   0.406   4.708   1.529 -1.0594 -0.0334  0.0721
 6564SOL     OW31324   2.374   3.174  14.974 -0.5191  0.2574 -0.0436
 6564SOL    HW131325   2.404   3.265  14.980  1.4392 -0.3731 -0.5942
 6564SOL    HW231326   2.299   3.186  14.915 -0.2841 -1.3683 -0.6610
 6565SOL     OW31327   4.459   1.282   2.795  0.7622  0.7163 -0.1564
 6565SOL    HW131328   4.552   1.294   2.816  1.1033  0.3467 -1.5011
 6565SOL    HW231329   4.427   1.250   2.879  1.8535  0.7235  0.2640
 6566SOL     OW31330   3.028   3.235   5.602  0.0055  0.3539 -0.1203
 6566SOL    HW131331   3.051   3.322   5.634  0.2723  0.5797 -0.9365
 6566SOL    HW231332   2.951   3.261   5.551  0.4290 -0.5058 -1.2032
 6567SOL     OW31333   1.457   1.804  13.216  0.2550  0.2642 -0.6112
 6567SOL    HW131334   1.535   1.847  13.251  0.0357  0.7846 -0.7755
 6567SOL    HW231335   1.433   1.718  13.250 -3.3885  1.6350  0.3020
 6568SOL     OW31336   4.557   3.010   6.589 -0.1308  0.7783  0.0117
 6568SOL    HW131337   4.635   3.065   6.588  1.4701 -1.4990  1.9349
 6568SOL    HW231338   4.522   3.023   6.501  1.3066  2.2360 -0.3459
 6569SOL     OW31339   1.059   3.301   0.472 -0.3084  0.3745  0.1394
 6569SOL    HW131340   1.015   3.365   0.417 -0.8717 -0.9724 -0.9739
 6569SOL    HW231341   1.109   3.264   0.399  1.1779  2.8160 -0.0674
 6570SOL     OW31342   2.868   3.902   2.814 -0.3685  0.1957 -0.0170
 6570SOL    HW131343   2.793   3.957   2.791 -0.2402 -0.1977 -1.3671
 6570SOL    HW231344   2.870   3.838   2.742  0.0911  0.8394 -0.5821
 6571SOL     OW31345   4.503   1.241   2.044  0.0750 -0.4985 -0.1479
 6571SOL    HW131346   4.429   1.180   2.038 -0.2645 -0.0953 -0.0079
 6571SOL    HW231347   4.521   1.248   1.951  0.4959  0.0632 -0.0227
 6572SOL     OW31348   1.081   1.737   4.569 -0.3952  0.0410 -0.3441
 6572SOL    HW131349   1.152   1.700   4.517  0.3926  1.2956 -0.1560
 6572SOL    HW231350   1.132   1.808   4.607 -0.5405  0.2822 -0.5978
 6573SOL     OW31351   1.420   3.289   1.222 -0.1712 -0.4080 -0.1193
 6573SOL    HW131352   1.354   3.355   1.246 -2.0107 -1.9716 -0.9219
 6573SOL    HW231353   1.500   3.341   1.226  0.3850 -1.2519 -0.4792
 6574SOL     OW31354   4.112   0.739   5.563 -1.0919 -0.0466  0.4053
 6574SOL    HW131355   4.089   0.794   5.638 -0.0885  1.8993 -0.7078
 6574SOL    HW231356   4.114   0.815   5.505  2.5153 -0.5807 -0.1363
 6575SOL     OW31357   3.581   0.029   1.893 -0.2752 -0.1568  0.2133
 6575SOL    HW131358   3.646   0.097   1.909 -1.6902  1.4807 -0.9446
 6575SOL    HW231359   3.613   4.720   1.817 -1.8128 -0.0929 -0.4681
 6576SOL     OW31360   2.543   0.196   2.257 -0.0390  0.2111  0.0165
 6576SOL    HW131361   2.510   0.129   2.317 -0.0703 -0.4595 -0.7430
 6576SOL    HW231362   2.567   0.268   2.314 -2.6168 -0.1254  1.5444
 6577SOL     OW31363   3.539   3.486   8.023  0.6275  0.1391  0.1940
 6577SOL    HW131364   3.498   3.565   7.987 -1.4572 -0.3199  1.5988
 6577SOL    HW231365   3.520   3.423   7.953  2.7343  1.8603 -1.9671
 6578SOL     OW31366   4.738   2.927   5.820 -0.3209 -0.3830 -0.1142
 6578SOL    HW131367   0.048   2.970   5.891  0.6973 -2.6026  0.5276
 6578SOL    HW231368   0.072   2.888   5.770 -0.9382  0.2503 -1.5136
 6579SOL     OW31369   4.670   1.763   4.990 -0.3386  0.0728  0.1159
 6579SOL    HW131370   4.704   1.695   4.930 -1.9892 -1.6641  1.1536
 6579SOL    HW231371   4.669   1.712   5.070  0.1442 -1.4848 -0.8620
 6580SOL     OW31372   1.995   2.810   5.867 -0.1396  0.5921  0.1167
 6580SOL    HW131373   1.917   2.755   5.874  0.8045 -0.8143 -0.4625
 6580SOL    HW231374   2.039   2.757   5.801  1.8357  1.5278  0.6628
 6581SOL     OW31375   3.532   0.420   8.423  0.2628 -0.0684  0.5835
 6581SOL    HW131376   3.561   0.329   8.419 -0.9409 -0.3711 -0.8577
 6581SOL    HW231377   3.446   0.403   8.385 -0.7976  1.0868  2.4169
 6582SOL     OW31378   0.066   2.123   3.704  0.2357  0.5104 -0.0016
 6582SOL    HW131379   4.715   2.131   3.670  0.5249 -0.7051 -1.0614
 6582SOL    HW231380   0.117   2.096   3.628  1.4493  1.8226  0.3424
 6583SOL     OW31381   4.540   2.475  10.228 -0.1883 -0.1182  0.5907
 6583SOL    HW131382   4.461   2.476  10.174 -0.8077  2.1647  1.5685
 6583SOL    HW231383   4.501   2.479  10.315  0.0959 -2.3762  0.8314
 6584SOL     OW31384   1.269   0.050   2.085 -0.2594  0.3524 -0.0646
 6584SOL    HW131385   1.202   0.083   2.025  0.1555 -1.6496 -1.6328
 6584SOL    HW231386   1.343   0.037   2.025 -0.1236 -1.0719  0.4047
 6585SOL     OW31387   1.517   0.267  15.495 -0.0437  0.0048  0.2712
 6585SOL    HW131388   1.580   0.254  15.425 -0.6640  1.1984 -0.4920
 6585SOL    HW231389   1.458   0.331  15.457  0.5678  0.2160 -0.3231
 6586SOL     OW31390   2.238   2.585   2.233  0.5590 -0.3858 -0.7400
 6586SOL    HW131391   2.151   2.579   2.273  0.8384  1.1616  0.1183
 6586SOL    HW231392   2.230   2.634   2.152 -0.4651 -0.1613 -0.5054
 6587SOL     OW31393   3.597   0.687   8.843  0.3406 -0.1754 -0.1301
 6587SOL    HW131394   3.573   0.753   8.777 -2.6726 -0.7528  0.3885
 6587SOL    HW231395   3.522   0.684   8.903 -0.3779 -0.3422 -1.0344
 6588SOL     OW31396   0.635   2.723  17.636 -0.0822 -0.4776 -0.7682
 6588SOL    HW131397   0.677   2.807  17.614  0.2435 -0.7834 -1.3076
 6588SOL    HW231398   0.588   2.728  17.719  0.3516 -1.5370 -0.4634
 6589SOL     OW31399   0.945   2.460   3.914  0.0827  0.2110 -0.3415
 6589SOL    HW131400   0.999   2.470   3.836  0.9504  1.3924  0.4146
 6589SOL    HW231401   0.896   2.387   3.876  0.7431 -0.4501  0.0874
 6590SOL     OW31402   0.133   0.303   6.636  0.0676 -0.2758  0.3386
 6590SOL    HW131403   0.104   0.288   6.726  1.0648 -0.1636  0.6792
 6590SOL    HW231404   0.119   0.396   6.623  1.5415 -0.0882  0.0837
 6591SOL     OW31405   4.363   4.105  10.101  0.0491 -0.1143  0.1379
 6591SOL    HW131406   4.274   4.074  10.086 -0.4263  0.6341  1.4568
 6591SOL    HW231407   4.399   4.024  10.137  0.7358 -1.0922 -2.7496
 6592SOL     OW31408   4.239   3.441   2.789  0.1877 -0.1475 -0.5434
 6592SOL    HW131409   4.320   3.421   2.836 -1.7968 -0.9348  2.5479
 6592SOL    HW231410   4.275   3.495   2.718 -1.9475 -0.3397 -1.7882
 6593SOL     OW31411   2.644   0.205  11.016 -0.4729  0.4168 -0.4959
 6593SOL    HW131412   2.719   0.166  11.061 -1.1008 -1.6109 -1.2099
 6593SOL    HW231413   2.568   0.154  11.043  0.5399 -2.4822 -3.1874
 6594SOL     OW31414   4.277   2.149   6.323  0.2415  0.1046 -0.0888
 6594SOL    HW131415   4.233   2.197   6.253  2.1565  0.9246 -0.7375
 6594SOL    HW231416   4.367   2.137   6.293 -0.2002 -1.2807 -0.8607
 6595SOL     OW31417   0.587   0.760   2.033 -0.0159 -0.0259  0.4435
 6595SOL    HW131418   0.504   0.778   2.077 -0.4140 -1.7301  0.3783
 6595SOL    HW231419   0.585   0.664   2.033 -1.2521  0.0033 -2.0091
 6596SOL     OW31420   3.002   4.115  12.507  0.1419 -0.0496  0.5584
 6596SOL    HW131421   3.017   4.096  12.599 -0.6636 -0.9252  0.5232
 6596SOL    HW231422   3.013   4.210  12.509  1.7348 -0.1527 -3.3849
 6597SOL     OW31423   4.478   2.364   9.249 -0.3678 -0.0683 -0.1682
 6597SOL    HW131424   4.476   2.388   9.342  1.3945 -4.6772  1.0675
 6597SOL    HW231425   4.572   2.379   9.244 -0.5091  0.9311  0.1171
 6598SOL     OW31426   0.830   2.524   4.905 -0.6819 -0.2981  0.3829
 6598SOL    HW131427   0.869   2.437   4.918 -1.6272 -0.6866  0.6111
 6598SOL    HW231428   0.899   2.590   4.918 -0.5790  0.0909 -2.1240
 6599SOL     OW31429   1.077   4.019  12.719 -0.4066 -0.0545  0.2537
 6599SOL    HW131430   1.135   4.000  12.793  0.3739  0.4348 -0.2284
 6599SOL    HW231431   1.043   3.931  12.704 -1.9125  0.3976  1.0707
 6600SOL     OW31432   0.614   3.997   1.615 -0.1758  0.4673 -0.0549
 6600SOL    HW131433   0.648   4.043   1.692 -1.2122 -0.6437  1.0878
 6600SOL    HW231434   0.540   4.056   1.597 -0.5298 -0.4659 -1.6832
 6601SOL     OW31435   1.331   1.618  13.393 -0.0547  0.6586 -0.4204
 6601SOL    HW131436   1.240   1.596  13.416  0.9846 -1.6369  1.5563
 6601SOL    HW231437   1.364   1.643  13.480 -0.3198  0.8776 -0.3828
 6602SOL     OW31438   1.061   3.640   0.414  0.1954 -0.7106 -0.4172
 6602SOL    HW131439   1.006   3.718   0.405  0.7445 -0.3159 -0.3658
 6602SOL    HW231440   1.038   3.592   0.335  1.2933 -0.1300 -1.0854
 6603SOL     OW31441   3.860   0.798   6.841 -0.8300  0.7900  0.2987
 6603SOL    HW131442   3.768   0.796   6.866 -0.9758  5.2187  0.1555
 6603SOL    HW231443   3.897   0.878   6.878 -0.2846  1.1630 -1.0225
 6604SOL     OW31444   3.818   3.304   8.688 -0.4473  0.0709 -0.0625
 6604SOL    HW131445   3.808   3.248   8.765  1.2249 -0.8198 -0.4857
 6604SOL    HW231446   3.830   3.386   8.735 -0.2159 -0.8073  1.4305
 6605SOL     OW31447   3.380   4.572   5.629  0.1115  0.0160 -0.2632
 6605SOL    HW131448   3.334   4.641   5.677 -0.7452  0.2847 -1.4746
 6605SOL    HW231449   3.466   4.603   5.656 -1.4158  3.7506  0.4486
 6606SOL     OW31450   2.807   4.218   3.948 -0.2078  0.3371  0.0503
 6606SOL    HW131451   2.775   4.253   4.031  0.1244 -0.0673  0.3522
 6606SOL    HW231452   2.876   4.284   3.942  0.1359  0.3001  3.3518
 6607SOL     OW31453   2.329   0.741   5.023 -0.0126  0.1602  0.0231
 6607SOL    HW131454   2.353   0.791   5.101 -0.4242  1.6801 -0.8359
 6607SOL    HW231455   2.404   0.768   4.971 -0.5422  1.4428 -0.0840
 6608SOL     OW31456   0.450   4.629  14.383  0.4169 -0.2004 -0.7514
 6608SOL    HW131457   0.426   4.598  14.295 -1.1535 -1.0838 -0.0072
 6608SOL    HW231458   0.520   4.692  14.364 -0.0199  0.4716 -0.1176
 6609SOL     OW31459   3.525   3.196   2.248  0.0344  0.0737 -0.5550
 6609SOL    HW131460   3.454   3.211   2.310 -0.8900 -1.7004 -1.1881
 6609SOL    HW231461   3.499   3.244   2.170  0.5795 -2.5580 -2.3446
 6610SOL     OW31462   0.617   0.709   9.438  0.1083  0.5069 -0.0091
 6610SOL    HW131463   0.692   0.690   9.381 -0.3426 -3.3066  0.6433
 6610SOL    HW231464   0.637   0.799   9.464  1.9942 -0.3199  1.4571
 6611SOL     OW31465   0.529   4.461   3.853 -0.1786  0.5080  0.0521
 6611SOL    HW131466   0.586   4.394   3.814 -2.2620 -1.0092 -0.3378
 6611SOL    HW231467   0.451   4.466   3.798  0.8636 -1.0652 -1.5820
 6612SOL     OW31468   4.343   1.631   2.399  0.1476  0.5100 -0.2524
 6612SOL    HW131469   4.367   1.627   2.307 -0.0253  1.2899 -0.3325
 6612SOL    HW231470   4.247   1.641   2.395  0.0620 -0.3577 -0.4491
 6613SOL     OW31471   4.182   3.177  13.492 -0.2047  0.1484 -0.3789
 6613SOL    HW131472   4.174   3.082  13.499 -1.9097  0.5464  3.1490
 6613SOL    HW231473   4.122   3.204  13.422  0.4724 -0.1469 -1.0742
 6614SOL     OW31474   0.889   0.007   1.803  0.8969  0.1091 -0.1124
 6614SOL    HW131475   0.870   0.041   1.716  0.0908  0.7408  0.3169
 6614SOL    HW231476   0.806   0.025   1.847  0.4875  1.6891 -1.5443
 6615SOL     OW31477   0.837   0.099   9.831 -0.1423  0.3689 -0.6116
 6615SOL    HW131478   0.837   0.057   9.916  0.3240  1.5171 -0.0428
 6615SOL    HW231479   0.870   0.181   9.869  0.3850 -0.5507  0.9175
 6616SOL     OW31480   1.621   3.795   8.829  0.7189  0.1594 -0.2202
 6616SOL    HW131481   1.579   3.710   8.815 -0.7320  0.5380  1.8654
 6616SOL    HW231482   1.696   3.801   8.769  2.1452  1.0780  1.6927
 6617SOL     OW31483   1.376   0.533  11.402 -0.2076 -0.2170  0.0842
 6617SOL    HW131484   1.303   0.475  11.424 -0.8450  0.6964  0.3803
 6617SOL    HW231485   1.345   0.620  11.427 -1.1722 -0.6968  0.5792
 6618SOL     OW31486   3.910   2.494   3.814 -0.6249  0.6490  0.1072
 6618SOL    HW131487   3.862   2.476   3.734 -0.2373 -1.1493  0.2800
 6618SOL    HW231488   3.998   2.477   3.781 -1.4229  1.0320 -2.2280
 6619SOL     OW31489   3.688   4.203   2.582  0.3385 -0.1701 -0.5017
 6619SOL    HW131490   3.596   4.226   2.588  0.1821 -1.2072  1.2767
 6619SOL    HW231491   3.709   4.260   2.508 -1.0216  1.3313  0.2529
 6620SOL     OW31492   3.300   4.091   9.559 -0.0016  0.1026  0.7798
 6620SOL    HW131493   3.295   4.118   9.651  2.4179 -0.6902  1.1467
 6620SOL    HW231494   3.258   4.163   9.511  1.8057  0.9677  0.4702
 6621SOL     OW31495   4.373   0.058   1.481 -0.2527 -0.3146 -0.5444
 6621SOL    HW131496   4.438   0.117   1.520 -1.3431 -0.5299  1.6032
 6621SOL    HW231497   4.413   4.716   1.516  1.2804  1.2846  1.3776
 6622SOL     OW31498   3.408   0.053   2.439 -0.5577  0.4501  0.1667
 6622SOL    HW131499   3.436   0.095   2.520 -0.1470  1.5639 -0.5422
 6622SOL    HW231500   3.469   0.083   2.371 -2.9916  0.9755 -1.8101
 6623SOL     OW31501   2.538   3.161   4.080 -0.0808  0.7684  0.2313
 6623SOL    HW131502   2.468   3.213   4.119 -0.6352 -0.6810  1.1551
 6623SOL    HW231503   2.610   3.163   4.142  1.1201 -1.7601 -1.0941
 6624SOL     OW31504   1.569   1.705  17.417 -0.0527 -0.3980  0.0826
 6624SOL    HW131505   1.554   1.789  17.375  1.5873 -1.3434 -2.4379
 6624SOL    HW231506   1.621   1.740  17.489 -0.6500  3.2243 -1.2846
 6625SOL     OW31507   2.815   3.473   7.846  0.6021  0.5706 -0.5185
 6625SOL    HW131508   2.750   3.543   7.845  0.3537  0.3761  1.6690
 6625SOL    HW231509   2.845   3.498   7.759  0.8052 -1.0035 -0.8977
 6626SOL     OW31510   4.179   1.004   6.720  0.3633 -0.1004 -0.5753
 6626SOL    HW131511   4.135   1.085   6.746  1.9311  0.5631  0.0709
 6626SOL    HW231512   4.119   0.952   6.667  0.8478 -0.0464 -1.1911
 6627SOL     OW31513   3.040   3.379   4.751 -0.5289  0.2795 -0.2289
 6627SOL    HW131514   3.039   3.324   4.829  0.4765  1.6581  0.7599
 6627SOL    HW231515   2.956   3.348   4.717 -0.3595  1.5888 -1.8359
 6628SOL     OW31516   3.694   4.448   2.385  0.3052  0.2077  0.0183
 6628SOL    HW131517   3.617   4.471   2.437  0.9273  0.1796  0.9509
 6628SOL    HW231518   3.654   4.478   2.303 -1.5798 -0.4269  0.6845
 6629SOL     OW31519   4.165   2.040   2.369 -0.0500  0.2486  0.0100
 6629SOL    HW131520   4.153   2.133   2.350  1.0737  0.1826 -0.9823
 6629SOL    HW231521   4.075   2.008   2.364 -0.5410  1.4404  1.1156
 6630SOL     OW31522   3.191   1.927   7.332 -0.1431  0.4374 -0.6001
 6630SOL    HW131523   3.204   1.984   7.408  1.6262 -0.4740 -0.2219
 6630SOL    HW231524   3.211   1.845   7.376  1.0136  1.4136  0.7022
 6631SOL     OW31525   4.709   1.302   6.105 -0.2718  0.2682 -0.3641
 6631SOL    HW131526   4.690   1.271   6.016 -1.8046 -0.7315  0.3220
 6631SOL    HW231527   4.633   1.266   6.149  2.1281 -1.0148  2.6888
 6632SOL     OW31528   3.164   2.609   6.937 -0.0873 -0.5783  0.2428
 6632SOL    HW131529   3.123   2.543   6.992 -0.6607 -0.4582 -0.0341
 6632SOL    HW231530   3.204   2.551   6.872  1.1701 -0.1507  0.6350
 6633SOL     OW31531   2.015   1.224  11.438  0.2352  0.3737  0.0363
 6633SOL    HW131532   2.005   1.279  11.516  2.9137  0.5021  0.2858
 6633SOL    HW231533   2.096   1.256  11.399  0.1732  1.0988  0.4973
 6634SOL     OW31534   1.396   1.854   6.926  0.5521 -0.2013 -0.4611
 6634SOL    HW131535   1.321   1.907   6.900  0.1377 -1.3969 -1.7534
 6634SOL    HW231536   1.452   1.908   6.981  1.0184 -1.5992  0.4521
 6635SOL     OW31537   1.931   0.459   6.818 -0.2202 -0.0369  0.2748
 6635SOL    HW131538   1.920   0.370   6.851  0.0727 -0.6023 -1.1534
 6635SOL    HW231539   2.019   0.456   6.781 -0.1593  1.8442  0.2463
 6636SOL     OW31540   0.232   1.241   6.188 -0.3325  0.0056 -0.2837
 6636SOL    HW131541   0.139   1.263   6.185 -0.4141 -0.1578  1.1196
 6636SOL    HW231542   0.259   1.206   6.103 -1.0963 -0.4724 -0.3266
 6637SOL     OW31543   0.950   3.122   7.209  0.1552 -0.0150  0.5040
 6637SOL    HW131544   0.960   3.205   7.255  1.2691  0.6003 -0.8457
 6637SOL    HW231545   1.001   3.067   7.268  2.0935  0.5848 -0.6265
 6638SOL     OW31546   1.282   3.656  11.660  0.0502  0.1331 -0.4408
 6638SOL    HW131547   1.253   3.681  11.747  0.2877  0.4381 -0.4491
 6638SOL    HW231548   1.370   3.693  11.659  0.5838 -1.1763 -0.6628
 6639SOL     OW31549   4.679   3.707   8.564  0.2586 -0.0192  0.2637
 6639SOL    HW131550   0.014   3.664   8.520 -2.0890 -2.5672 -1.1520
 6639SOL    HW231551   4.635   3.627   8.592 -0.0046 -0.6250 -1.8367
 6640SOL     OW31552   4.049   0.646   4.495 -0.1879 -0.2078  0.0594
 6640SOL    HW131553   4.126   0.605   4.454 -0.5439 -0.4309 -0.3862
 6640SOL    HW231554   4.066   0.739   4.479 -0.3185  0.0658  1.5309
 6641SOL     OW31555   2.558   2.931   5.412 -0.1581 -0.0988 -0.4199
 6641SOL    HW131556   2.622   2.992   5.375  0.5912 -1.4710 -1.3925
 6641SOL    HW231557   2.622   2.901   5.477 -2.2375  0.9262  2.1046
 6642SOL     OW31558   3.237   1.974  14.892 -0.0638  0.2680 -0.2842
 6642SOL    HW131559   3.240   2.007  14.982 -0.0353 -0.2879 -0.0814
 6642SOL    HW231560   3.263   2.053  14.846  1.8917  0.1450  0.5910
 6643SOL     OW31561   1.972   2.372  15.058 -0.3168 -0.2313  0.5353
 6643SOL    HW131562   2.046   2.409  15.009 -1.0413 -0.8095 -0.9759
 6643SOL    HW231563   1.981   2.280  15.033 -3.6315 -0.7958  1.3728
 6644SOL     OW31564   1.509   2.354   7.765 -0.1209  0.1272  0.1725
 6644SOL    HW131565   1.425   2.309   7.756 -0.8831  2.1189 -2.7591
 6644SOL    HW231566   1.559   2.296   7.822 -1.5012 -2.7453 -1.5590
 6645SOL     OW31567   0.836   3.383  13.897  0.1988  0.2456 -0.0661
 6645SOL    HW131568   0.804   3.425  13.817 -1.4221  0.1274  0.5108
 6645SOL    HW231569   0.878   3.454  13.945 -0.4994  0.8402 -0.3370
 6646SOL     OW31570   0.299   4.432   9.319 -0.2266  0.0370  0.3495
 6646SOL    HW131571   0.371   4.400   9.265  1.0263  0.9625  1.4647
 6646SOL    HW231572   0.226   4.396   9.268 -0.4625 -1.9237  2.0435
 6647SOL     OW31573   0.517   1.151   9.800  0.4223 -0.2162  0.0517
 6647SOL    HW131574   0.522   1.212   9.726 -0.3367 -1.3912 -0.9552
 6647SOL    HW231575   0.476   1.192   9.876 -0.3338 -0.9582  0.0366
 6648SOL     OW31576   3.370   2.213   8.542 -0.1892 -0.1186  0.0912
 6648SOL    HW131577   3.282   2.180   8.524 -1.3484  1.2902  3.2006
 6648SOL    HW231578   3.375   2.288   8.483 -0.4617  0.0232  0.2490
 6649SOL     OW31579   2.178   2.044   8.229  0.5267  0.0274  0.3049
 6649SOL    HW131580   2.091   2.036   8.269 -0.4685  1.5775 -1.5294
 6649SOL    HW231581   2.190   2.137   8.247 -2.7097  0.9032 -1.9220
 6650SOL     OW31582   1.337   1.887   6.001 -0.3611  0.1175  0.1162
 6650SOL    HW131583   1.319   1.933   6.083  2.6469 -1.7170  1.8074
 6650SOL    HW231584   1.431   1.897   5.989 -0.5054 -0.2965 -1.3071
 6651SOL     OW31585   0.159   2.948  10.275 -0.4756  0.7590 -0.7152
 6651SOL    HW131586   0.232   2.986  10.225 -0.9854  1.9387 -0.5695
 6651SOL    HW231587   0.116   2.905  10.201 -2.2488  1.2644  0.0304
 6652SOL     OW31588   2.275   3.291   7.583 -0.3016  0.2436  0.4361
 6652SOL    HW131589   2.316   3.348   7.649  3.1047 -1.9553  0.1876
 6652SOL    HW231590   2.235   3.216   7.626  0.9449 -1.0960 -0.7514
 6653SOL     OW31591   3.880   3.474   8.226  0.0639  0.0056  0.4996
 6653SOL    HW131592   3.874   3.460   8.320 -1.8785 -1.6249  0.1368
 6653SOL    HW231593   3.831   3.400   8.190  0.6305  0.3770 -1.0611
 6654SOL     OW31594   3.895   1.803   3.182  0.2749  0.0925  0.1514
 6654SOL    HW131595   3.983   1.795   3.145  0.0165  0.8338 -0.6262
 6654SOL    HW231596   3.901   1.894   3.208 -1.1231  0.3295 -0.3046
 6655SOL     OW31597   0.869   1.109   3.978  0.1078  0.1977 -0.0203
 6655SOL    HW131598   0.871   1.014   3.966 -1.0350  0.2418 -0.5916
 6655SOL    HW231599   0.938   1.115   4.045  0.1961 -0.9545  0.0021
 6656SOL     OW31600   2.140   4.081  15.930  0.1291 -0.9276 -0.2529
 6656SOL    HW131601   2.125   4.077  16.025  0.6858 -0.1588 -0.1295
 6656SOL    HW231602   2.210   4.143  15.910 -0.3173 -0.5092 -0.5151
 6657SOL     OW31603   4.531   0.623   0.759  0.0562 -0.0615 -0.0097
 6657SOL    HW131604   4.437   0.629   0.746 -0.1145  0.3615  1.4890
 6657SOL    HW231605   4.558   0.642   0.669  2.6122 -0.7542  0.5889
 6658SOL     OW31606   3.619   2.223  10.981  0.2035 -0.0622 -0.0160
 6658SOL    HW131607   3.608   2.275  11.060  0.2518  0.5355 -0.4062
 6658SOL    HW231608   3.685   2.160  11.009  0.9206 -0.4242 -2.4915
 6659SOL     OW31609   0.200   0.260   1.149 -0.3233 -0.5534  0.4876
 6659SOL    HW131610   0.242   0.190   1.099  0.4050  0.5601 -0.4594
 6659SOL    HW231611   0.118   0.270   1.100 -1.3509  2.2820  2.8319
 6660SOL     OW31612   0.594   1.043   5.476 -0.7114  0.2239 -0.2973
 6660SOL    HW131613   0.633   0.992   5.405 -0.0836 -1.2763  1.1114
 6660SOL    HW231614   0.643   1.003   5.549 -1.2921 -3.5498 -1.9844
 6661SOL     OW31615   1.127   3.839   1.610 -0.5444  0.0514 -1.0370
 6661SOL    HW131616   1.157   3.923   1.645 -0.8920  0.4520 -1.7032
 6661SOL    HW231617   1.195   3.783   1.647 -0.1955 -0.0762 -1.8552
 6662SOL     OW31618   4.703   2.073   0.569 -1.1354 -0.5645  0.4770
 6662SOL    HW131619   4.732   2.083   0.659 -0.4130  0.7881  0.0905
 6662SOL    HW231620   0.022   2.137   0.527  0.4369 -2.2477  0.0709
 6663SOL     OW31621   0.269   4.340   7.813  0.2997 -0.1548 -0.2476
 6663SOL    HW131622   0.283   4.297   7.728  0.0949 -1.2497  0.2685
 6663SOL    HW231623   0.335   4.299   7.869 -1.0285 -1.4009  0.4153
 6664SOL     OW31624   3.062   4.620   5.348 -0.0212  0.3135 -0.2503
 6664SOL    HW131625   3.118   4.689   5.385  1.8189  0.3944 -3.1203
 6664SOL    HW231626   3.069   4.559   5.421 -1.7769  0.6719  0.1975
 6665SOL     OW31627   0.994   1.284   2.259  0.0478  0.1067  0.0851
 6665SOL    HW131628   0.912   1.313   2.217  0.4593  0.3778 -0.5279
 6665SOL    HW231629   0.965   1.210   2.312  0.8518 -0.1102  0.2146
 6666SOL     OW31630   1.513   4.126  14.066 -0.6060  0.1316  0.3257
 6666SOL    HW131631   1.586   4.132  14.127 -0.2865 -0.1146 -0.0289
 6666SOL    HW231632   1.445   4.169  14.117  1.6725  1.7473  1.9467
 6667SOL     OW31633   4.379   2.605   8.432 -0.1250  0.3075  0.4855
 6667SOL    HW131634   4.447   2.672   8.426  0.3578 -0.3721 -1.6178
 6667SOL    HW231635   4.315   2.658   8.480 -1.4113 -0.2420 -0.6392
 6668SOL     OW31636   0.214   3.468  14.719  0.5882 -0.0632 -0.2195
 6668SOL    HW131637   0.132   3.493  14.762  0.4206  0.9445 -1.1132
 6668SOL    HW231638   0.250   3.557  14.721 -0.0755  0.1530  2.0884
 6669SOL     OW31639   1.836   1.671   8.701  0.0647  0.3090 -0.0497
 6669SOL    HW131640   1.922   1.638   8.676  1.1973  2.4769  1.0107
 6669SOL    HW231641   1.803   1.594   8.747  2.1075  0.2018  1.2161
 6670SOL     OW31642   3.849   1.031   4.179  0.1532 -0.4974 -0.4135
 6670SOL    HW131643   3.797   1.095   4.130  2.0963  2.1549  1.0086
 6670SOL    HW231644   3.803   1.033   4.263 -0.5959 -3.6026 -0.7478
 6671SOL     OW31645   3.370   2.992   3.410  0.7395  0.3412 -0.2589
 6671SOL    HW131646   3.302   2.925   3.415  0.1670  0.8123 -1.7730
 6671SOL    HW231647   3.425   2.977   3.333  0.1908 -0.9141 -0.4115
 6672SOL     OW31648   2.355   3.685   4.467  0.4748 -0.6577  0.2633
 6672SOL    HW131649   2.293   3.612   4.475  0.1174 -0.5207 -1.2222
 6672SOL    HW231650   2.391   3.676   4.555  2.1139  0.9675 -0.2501
 6673SOL     OW31651   1.819   0.947   6.880  0.1033  0.0378  0.2675
 6673SOL    HW131652   1.749   0.996   6.837 -0.0771 -2.2905 -2.0924
 6673SOL    HW231653   1.893   1.007   6.885  0.7401 -0.6683 -0.5437
 6674SOL     OW31654   1.984   1.057   6.674  0.3636  0.4566  1.0613
 6674SOL    HW131655   1.937   0.977   6.652 -2.0372  2.0071  0.6005
 6674SOL    HW231656   2.072   1.038   6.707  0.1921 -1.2062  0.5393
 6675SOL     OW31657   4.290   2.272  16.433  0.3069 -0.2462  0.2415
 6675SOL    HW131658   4.195   2.283  16.438  0.2301 -1.1748  0.6725
 6675SOL    HW231659   4.294   2.193  16.380  2.2304 -0.5736  0.8665
 6676SOL     OW31660   2.061   0.895   8.614  0.2100 -0.4760 -0.6279
 6676SOL    HW131661   2.017   0.938   8.540 -2.9607 -2.3363  0.1709
 6676SOL    HW231662   2.063   0.974   8.669  0.5953 -1.7641  1.2262
 6677SOL     OW31663   2.078   2.377   2.504 -0.3211 -0.3650 -0.0094
 6677SOL    HW131664   2.045   2.438   2.438 -0.3601  0.4083  0.7395
 6677SOL    HW231665   2.008   2.312   2.510 -1.0416  0.3732 -0.4541
 6678SOL     OW31666   2.780   1.559  11.855 -0.1767  0.5628  0.1478
 6678SOL    HW131667   2.858   1.505  11.868 -1.1373 -0.8187  0.1841
 6678SOL    HW231668   2.709   1.502  11.826 -0.4515  0.2164  1.4812
 6679SOL     OW31669   2.879   2.900   7.805 -0.5959 -0.5870 -0.0488
 6679SOL    HW131670   2.951   2.879   7.864  0.4903 -2.0765 -1.9091
 6679SOL    HW231671   2.906   2.986   7.773 -2.1871  0.8695  2.4615
 6680SOL     OW31672   1.193   3.543   6.028  0.0603 -0.3406  0.1650
 6680SOL    HW131673   1.161   3.597   6.100 -0.0639  0.3598 -0.4104
 6680SOL    HW231674   1.143   3.587   5.959  0.6696 -0.0723 -0.1139
 6681SOL     OW31675   2.648   3.700   7.828 -0.0323  0.0570  0.2270
 6681SOL    HW131676   2.556   3.687   7.803 -0.3351 -1.1079  1.8925
 6681SOL    HW231677   2.633   3.730   7.918 -3.5257 -0.1722 -0.2536
 6682SOL     OW31678   4.390   1.280  12.666 -0.1098  0.0091 -0.2478
 6682SOL    HW131679   4.316   1.337  12.687 -2.1819 -2.4775 -0.7991
 6682SOL    HW231680   4.378   1.221  12.740 -0.0837  1.0889  0.6164
 6683SOL     OW31681   2.853   0.583   1.287 -0.8009 -0.4377  0.3095
 6683SOL    HW131682   2.864   0.671   1.251  0.8691 -0.0195  1.8556
 6683SOL    HW231683   2.935   0.543   1.258 -0.4571 -0.3173  1.1144
 6684SOL     OW31684   0.142   4.236   2.272  0.2346  0.5373  0.5228
 6684SOL    HW131685   0.141   4.316   2.220 -2.3665 -0.2044 -0.6153
 6684SOL    HW231686   0.052   4.244   2.306 -0.4337 -1.3972 -0.7986
 6685SOL     OW31687   0.844   1.307  13.354  0.2094 -0.3927  0.0325
 6685SOL    HW131688   0.773   1.310  13.290  0.1709  2.7895  0.2579
 6685SOL    HW231689   0.830   1.216  13.381  0.2975 -0.8229 -1.3719
 6686SOL     OW31690   4.004   1.644  16.964 -0.0542  0.5229  0.4125
 6686SOL    HW131691   4.070   1.623  17.030  2.1933  2.1973 -1.3209
 6686SOL    HW231692   4.053   1.717  16.925  2.4959 -1.6608 -0.4410
 6687SOL     OW31693   1.238   3.950   9.436  0.5772  0.1170  0.2468
 6687SOL    HW131694   1.174   3.897   9.390  0.0244  2.7161 -1.9454
 6687SOL    HW231695   1.270   4.012   9.371 -1.5187  1.4692  0.4947
 6688SOL     OW31696   1.660   3.273   8.992  0.7496  0.0142  0.1001
 6688SOL    HW131697   1.673   3.349   9.049  0.7590 -0.2769  0.4829
 6688SOL    HW231698   1.747   3.255   8.956 -0.0929 -1.6642 -1.1163
 6689SOL     OW31699   0.124   3.494   5.534  0.1496 -0.0961 -0.4340
 6689SOL    HW131700   0.091   3.451   5.613 -0.6717  0.4798 -0.4644
 6689SOL    HW231701   0.083   3.437   5.470 -0.8791 -0.7933  0.8346
 6690SOL     OW31702   3.336   4.530  10.122 -0.4513 -0.3322  0.6020
 6690SOL    HW131703   3.345   4.621  10.094 -3.2698 -0.6127 -1.2518
 6690SOL    HW231704   3.269   4.497  10.063 -0.3674  2.7291 -1.2005
 6691SOL     OW31705   0.626   1.186   1.556  0.2687 -0.1097 -0.5101
 6691SOL    HW131706   0.620   1.225   1.469  1.1552 -1.6733 -1.2818
 6691SOL    HW231707   0.637   1.264   1.609 -2.4264  0.1304 -0.2820
 6692SOL     OW31708   0.273   4.630  16.153  0.2775  0.5034  0.6323
 6692SOL    HW131709   0.191   4.679  16.151 -0.7322 -1.2747 -1.8048
 6692SOL    HW231710   0.335   4.686  16.105 -1.7385 -0.4307 -2.9972
 6693SOL     OW31711   2.637   0.899   1.081 -0.3729 -0.5092 -0.2328
 6693SOL    HW131712   2.723   0.917   1.119  0.5511  0.5443 -2.8082
 6693SOL    HW231713   2.645   0.927   0.990  0.6599 -1.1427 -0.3471
 6694SOL     OW31714   0.107   2.483   8.972  0.0772  0.5738  0.1655
 6694SOL    HW131715   0.175   2.483   8.905 -1.5139 -0.8451 -1.4316
 6694SOL    HW231716   0.027   2.514   8.930 -0.8177 -0.6671  0.9621
 6695SOL     OW31717   3.364   0.903  14.309  0.3207 -0.5276  0.9107
 6695SOL    HW131718   3.299   0.832  14.309 -1.1660  0.8285  0.4902
 6695SOL    HW231719   3.324   0.967  14.249  2.1111 -1.0114 -0.8144
 6696SOL     OW31720   2.459   0.385  17.645 -0.3072  0.4058 -0.7956
 6696SOL    HW131721   2.551   0.383  17.673 -1.0537  1.3974  1.6911
 6696SOL    HW231722   2.422   0.448  17.707 -0.8091 -0.6339 -0.0509
 6697SOL     OW31723   0.870   3.288   9.775  0.2331  0.0600  0.3803
 6697SOL    HW131724   0.932   3.332   9.834  0.0972  1.2016 -0.3333
 6697SOL    HW231725   0.785   3.328   9.794 -0.2347 -0.7382 -0.0894
 6698SOL     OW31726   2.813   4.479   5.479  0.3995 -0.1845 -0.4984
 6698SOL    HW131727   2.808   4.575   5.484 -0.0336 -0.3085  1.6059
 6698SOL    HW231728   2.765   4.470   5.397 -1.3912  2.3951  0.2659
 6699SOL     OW31729   0.249   1.223   5.888  0.1443  0.1130  0.3435
 6699SOL    HW131730   0.300   1.145   5.866 -0.7876 -0.7243  1.1427
 6699SOL    HW231731   0.252   1.277   5.809 -0.4243 -0.5050 -0.0989
 6700SOL     OW31732   0.166   2.064   7.479 -0.5709 -0.6210  0.5492
 6700SOL    HW131733   0.258   2.080   7.456 -1.4573  4.6943  0.7312
 6700SOL    HW231734   0.169   1.976   7.516  1.7451 -0.1093  1.6206
 6701SOL     OW31735   1.632   1.589   6.510 -0.0450 -0.4042 -0.8979
 6701SOL    HW131736   1.651   1.647   6.436 -0.6316  0.6674 -0.2053
 6701SOL    HW231737   1.541   1.575   6.485 -0.3892  1.2065 -0.5365
 6702SOL     OW31738   0.104   2.393   3.733 -0.4441 -0.1615 -0.0710
 6702SOL    HW131739   0.106   2.297   3.736  1.6797 -0.1228 -0.1995
 6702SOL    HW231740   0.106   2.405   3.828 -1.1292 -1.1520  0.0714
 6703SOL     OW31741   2.354   0.212   1.139  0.2210 -0.0825 -0.1407
 6703SOL    HW131742   2.303   0.289   1.114  2.0852  0.3595 -2.7035
 6703SOL    HW231743   2.428   0.207   1.078 -0.9516  0.8320 -1.6341
 6704SOL     OW31744   3.600   3.741   8.544  0.3356  0.1605  0.0783
 6704SOL    HW131745   3.686   3.708   8.517  0.8782  1.3398  0.3458
 6704SOL    HW231746   3.625   3.831   8.564  0.7356 -0.0976  0.7582
 6705SOL     OW31747   1.904   0.648  15.057  0.2609  0.6120 -0.0236
 6705SOL    HW131748   1.893   0.558  15.026 -1.2435  0.6517  0.3628
 6705SOL    HW231749   1.945   0.694  14.984  0.8939  3.4765  2.1490
 6706SOL     OW31750   1.067   4.364   6.182 -0.1298 -0.7449  0.2850
 6706SOL    HW131751   1.082   4.301   6.112 -0.4017 -1.0316  0.4849
 6706SOL    HW231752   1.149   4.346   6.230  0.0799  1.9232  0.8933
 6707SOL     OW31753   1.202   4.668   8.284  0.2603 -0.2993 -0.3650
 6707SOL    HW131754   1.291   4.677   8.252  1.0743  0.0785  2.0100
 6707SOL    HW231755   1.161   0.004   8.241 -0.6700 -2.3572 -3.0371
 6708SOL     OW31756   1.051   2.353   7.897  0.2623  0.2751 -0.0180
 6708SOL    HW131757   1.030   2.415   7.967  2.4828  0.3321  0.5913
 6708SOL    HW231758   0.964   2.326   7.867 -0.2263 -0.2804  1.9212
 6709SOL     OW31759   3.481   2.660   6.936 -0.3578  0.2886 -0.3280
 6709SOL    HW131760   3.406   2.655   6.877  0.3578  1.2089 -1.3106
 6709SOL    HW231761   3.554   2.668   6.876  0.7477  0.0274  0.9842
 6710SOL     OW31762   1.943   2.277   8.101  0.2599 -0.3359 -0.3309
 6710SOL    HW131763   2.023   2.315   8.138 -1.0452  1.6607  0.4569
 6710SOL    HW231764   1.879   2.284   8.172 -0.5150  0.4696 -1.1003
 6711SOL     OW31765   4.590   2.504   4.717 -0.0964  0.0410  0.4062
 6711SOL    HW131766   4.640   2.463   4.646 -0.2304  1.2027 -0.3630
 6711SOL    HW231767   4.533   2.572   4.681 -0.4572 -0.4299  0.0830
 6712SOL     OW31768   3.272   2.325   9.089  0.3661 -0.0615 -0.4050
 6712SOL    HW131769   3.187   2.316   9.046 -0.0439 -0.3610  0.4715
 6712SOL    HW231770   3.296   2.232   9.097  0.3987  0.1277  1.7047
 6713SOL     OW31771   1.330   0.754   5.418 -0.2484 -0.3069  0.2218
 6713SOL    HW131772   1.338   0.707   5.335 -1.9247 -1.5738  0.7806
 6713SOL    HW231773   1.363   0.688   5.478  0.9434 -0.2805 -0.3980
 6714SOL     OW31774   1.387   2.578   7.512  0.2934  0.0120 -0.3307
 6714SOL    HW131775   1.315   2.546   7.565 -0.3119  1.1867 -0.4628
 6714SOL    HW231776   1.404   2.500   7.458 -2.3221 -1.0002  0.3158
 6715SOL     OW31777   0.248   2.007   3.499  0.3274  0.4714 -0.0003
 6715SOL    HW131778   0.218   1.940   3.437 -0.5638  1.5177 -0.7004
 6715SOL    HW231779   0.319   2.046   3.449  0.7020 -2.6902 -1.9079
 6716SOL     OW31780   1.571   1.737   1.038 -0.3137 -0.3831  0.2758
 6716SOL    HW131781   1.552   1.785   1.119  2.1315 -1.1561  1.3205
 6716SOL    HW231782   1.558   1.649   1.072 -0.1053  1.1239  4.2744
 6717SOL     OW31783   1.945   3.990  15.397  0.8599 -0.1710 -0.4538
 6717SOL    HW131784   1.885   3.920  15.369  0.9494 -0.4806  0.1301
 6717SOL    HW231785   1.953   3.984  15.492 -3.8066 -1.9922 -0.1626
 6718SOL     OW31786   2.618   2.500   1.625 -0.0257 -0.0413  0.1594
 6718SOL    HW131787   2.555   2.510   1.554 -0.1228  1.1517  0.4090
 6718SOL    HW231788   2.562   2.544   1.689  0.3689  0.1280  0.3906
 6719SOL     OW31789   0.397   3.808  17.143  0.1696 -0.2957  0.4603
 6719SOL    HW131790   0.407   3.749  17.069 -1.8200  0.0870 -0.1216
 6719SOL    HW231791   0.356   3.883  17.099 -0.8035 -0.3007  1.3563
 6720SOL     OW31792   2.224   3.401   2.931 -0.1884 -0.2808  0.9526
 6720SOL    HW131793   2.278   3.424   2.855  0.9895 -0.2054  1.8116
 6720SOL    HW231794   2.214   3.492   2.961 -1.2095  0.0052 -0.2639
 6721SOL     OW31795   4.583   3.185   0.619 -0.1415  0.3363  0.7309
 6721SOL    HW131796   4.549   3.218   0.702 -2.2169  1.9029 -0.7631
 6721SOL    HW231797   4.575   3.090   0.633 -0.5793  0.5337  1.8092
 6722SOL     OW31798   2.275   0.909   6.079  0.0999  0.3433  0.4161
 6722SOL    HW131799   2.258   0.822   6.114  0.8783  0.2086  0.4766
 6722SOL    HW231800   2.274   0.952   6.164  0.1073 -0.1711  0.6737
 6723SOL     OW31801   1.392   3.873  13.967  0.1251 -0.0477  0.0652
 6723SOL    HW131802   1.445   3.945  14.003  0.3849  0.3785 -1.1752
 6723SOL    HW231803   1.452   3.800  13.953  0.3823  0.0123  0.8486
 6724SOL     OW31804   3.689   2.888  15.042 -0.5213 -0.3339 -0.0500
 6724SOL    HW131805   3.644   2.959  14.997 -2.6802 -1.6336  0.1082
 6724SOL    HW231806   3.757   2.879  14.976  1.7967  3.2055  1.8140
 6725SOL     OW31807   3.533   3.089   9.606  0.2396 -0.1575 -0.0567
 6725SOL    HW131808   3.483   3.052   9.533 -0.7083 -0.4041  0.7269
 6725SOL    HW231809   3.577   3.166   9.569  1.2856 -0.3280  0.8481
 6726SOL     OW31810   3.380   1.338   8.510 -0.6915  0.2974  0.2355
 6726SOL    HW131811   3.386   1.432   8.523 -0.9418  0.6362 -2.2657
 6726SOL    HW231812   3.286   1.326   8.498 -0.4920 -0.6499 -0.3888
 6727SOL     OW31813   3.529   1.107   6.619 -0.0925 -0.2669  0.3159
 6727SOL    HW131814   3.454   1.162   6.595 -0.0469 -0.8609 -1.1728
 6727SOL    HW231815   3.480   1.030   6.650 -1.4306  0.4724  0.0483
 6728SOL     OW31816   1.006   2.659   5.715 -0.5189  0.2953  0.4852
 6728SOL    HW131817   0.974   2.586   5.768 -1.3079 -0.0065 -0.4088
 6728SOL    HW231818   0.929   2.713   5.696 -0.3936  1.2173  2.6496
 6729SOL     OW31819   3.991   4.519   2.327  0.0737  0.0955 -0.3829
 6729SOL    HW131820   3.978   4.498   2.234 -1.8862  0.1355 -0.1145
 6729SOL    HW231821   3.901   4.544   2.347  0.9370  2.1199  1.0270
 6730SOL     OW31822   1.868   0.748   1.892  0.0133 -0.4967 -0.2062
 6730SOL    HW131823   1.887   0.658   1.869  0.5860 -0.7809  1.3760
 6730SOL    HW231824   1.797   0.729   1.954 -0.7198 -0.2059 -0.9463
 6731SOL     OW31825   2.087   2.113  12.344  0.4920 -0.0458  0.1492
 6731SOL    HW131826   2.025   2.186  12.348 -0.9120 -1.3591  2.1438
 6731SOL    HW231827   2.040   2.058  12.281  3.2569 -0.9345 -1.1552
 6732SOL     OW31828   3.889   0.153   9.586  0.2576 -0.1460  0.1605
 6732SOL    HW131829   3.866   0.245   9.573 -0.2514 -0.3025 -0.0462
 6732SOL    HW231830   3.858   0.118   9.502 -0.9088  1.9790 -0.2858
 6733SOL     OW31831   0.695   2.982  10.166  0.4793 -0.5072 -0.6206
 6733SOL    HW131832   0.735   3.053  10.115 -0.5230  0.8389  0.4745
 6733SOL    HW231833   0.751   2.992  10.243  1.0756  2.0005 -1.3629
 6734SOL     OW31834   1.487   1.749   0.784 -0.2613  0.2674  0.1742
 6734SOL    HW131835   1.560   1.769   0.725 -1.3115 -1.3323 -1.6652
 6734SOL    HW231836   1.522   1.774   0.869 -1.5296  0.1995  0.7179
 6735SOL     OW31837   0.229   3.763   4.935 -0.0460 -0.0695  0.4015
 6735SOL    HW131838   0.161   3.716   4.886  0.4190  1.7181 -1.9630
 6735SOL    HW231839   0.182   3.828   4.986  1.2384  0.0503  1.4246
 6736SOL     OW31840   2.488   1.201  17.514  0.1289 -0.5495  0.1466
 6736SOL    HW131841   2.473   1.295  17.501 -0.5703 -1.0228 -2.4903
 6736SOL    HW231842   2.500   1.175  17.422  0.5824 -1.5389  0.4955
 6737SOL     OW31843   4.688   3.832   6.758 -0.0812  0.4179  0.4896
 6737SOL    HW131844   4.627   3.898   6.792 -0.8909  0.5257 -1.1476
 6737SOL    HW231845   4.635   3.754   6.775 -0.4232  0.2512 -1.3063
 6738SOL     OW31846   3.210   4.330   8.463  0.1086  0.2196  0.0599
 6738SOL    HW131847   3.276   4.282   8.412 -1.6897 -0.5170 -1.5509
 6738SOL    HW231848   3.167   4.387   8.400 -0.9908 -1.6026 -0.8386
 6739SOL     OW31849   4.361   1.037   1.677  0.2854  0.0606  0.1837
 6739SOL    HW131850   4.318   1.062   1.595 -0.8490 -1.7550  0.2079
 6739SOL    HW231851   4.454   1.039   1.653  0.6708 -1.9463  1.4424
 6740SOL     OW31852   2.573   2.915   3.998  0.9370 -0.0837 -0.2522
 6740SOL    HW131853   2.549   3.005   4.020 -1.1636 -0.3363 -1.5093
 6740SOL    HW231854   2.635   2.893   4.068 -1.0225 -1.8098  0.9854
 6741SOL     OW31855   1.676   2.491   3.404  0.0114  0.4251  0.2522
 6741SOL    HW131856   1.663   2.586   3.402  3.4024  0.9278  2.6894
 6741SOL    HW231857   1.604   2.452   3.455  2.5634  1.2198  4.4225
 6742SOL     OW31858   2.745   2.315   4.056 -0.1098  0.4049 -0.2870
 6742SOL    HW131859   2.819   2.334   4.114 -1.5646 -0.9671  1.9754
 6742SOL    HW231860   2.709   2.233   4.087 -0.3098  0.1290 -1.2494
 6743SOL     OW31861   3.272   1.276   1.742  0.0469 -0.0023 -0.0464
 6743SOL    HW131862   3.192   1.297   1.693 -0.3745 -1.9271 -0.1856
 6743SOL    HW231863   3.242   1.208   1.802  0.8964  1.1580  1.6986
 6744SOL     OW31864   3.686   2.696   8.672  0.3883  0.7096  0.0971
 6744SOL    HW131865   3.609   2.722   8.621 -0.2047  0.4256  0.8552
 6744SOL    HW231866   3.731   2.647   8.603  0.5622  0.6835  0.2312
 6745SOL     OW31867   4.015   2.300  16.478  0.1113  0.1686  0.0962
 6745SOL    HW131868   3.941   2.247  16.508  1.5174 -1.6843  0.3053
 6745SOL    HW231869   4.021   2.358  16.554 -2.2859  0.1498  0.2882
 6746SOL     OW31870   3.253   4.142  14.315 -0.0016  0.5652  0.4523
 6746SOL    HW131871   3.183   4.166  14.376  0.7338  1.0745  1.1004
 6746SOL    HW231872   3.213   4.173  14.234 -0.7393 -0.8455  0.2840
 6747SOL     OW31873   4.225   1.354   3.910 -0.2997 -0.4240 -0.3454
 6747SOL    HW131874   4.190   1.430   3.863 -1.5261 -0.2958  0.7810
 6747SOL    HW231875   4.163   1.346   3.982  0.2080  0.1298  0.1514
 6748SOL     OW31876   2.447   0.506   4.599 -0.1458 -0.0084 -0.0280
 6748SOL    HW131877   2.439   0.421   4.644 -3.9781 -0.5636 -1.8050
 6748SOL    HW231878   2.361   0.500   4.557  0.0924  0.8724 -0.6418
 6749SOL     OW31879   0.013   4.700  16.168 -0.1863 -0.0085  0.1854
 6749SOL    HW131880   4.673   0.012  16.193 -2.0620 -1.4948 -2.6500
 6749SOL    HW231881   4.727   4.672  16.080 -2.1504 -1.4601  1.1808
 6750SOL     OW31882   2.678   4.614   8.924 -0.7651 -0.4316  0.2371
 6750SOL    HW131883   2.602   4.559   8.942  1.9664 -3.7268  1.8607
 6750SOL    HW231884   2.714   4.622   9.012 -2.6390 -0.3146  0.9775
 6751SOL     OW31885   3.172   3.791   9.309 -0.0510  0.1315  0.0299
 6751SOL    HW131886   3.208   3.778   9.397 -1.8588  3.5783  1.3190
 6751SOL    HW231887   3.084   3.820   9.335 -1.2191 -2.3159 -1.2793
 6752SOL     OW31888   4.042   3.323   8.874 -0.2143 -0.4521 -0.8195
 6752SOL    HW131889   4.133   3.320   8.902  0.7379 -1.8777 -4.1642
 6752SOL    HW231890   4.048   3.325   8.779  0.7497 -1.4337 -0.7739
 6753SOL     OW31891   4.453   2.154   5.089  0.0870 -0.3810  0.1888
 6753SOL    HW131892   4.481   2.245   5.097  2.4031 -1.1945  1.1757
 6753SOL    HW231893   4.412   2.156   5.175 -0.6980  0.8384 -0.2072
 6754SOL     OW31894   2.048   3.494  16.809 -0.6010  0.0156  0.1733
 6754SOL    HW131895   1.979   3.553  16.782 -0.3030  0.4408  0.3357
 6754SOL    HW231896   2.024   3.483  16.901  1.7539 -0.3329  0.7485
 6755SOL     OW31897   1.886   2.316   8.891 -0.0999  0.4750  0.3181
 6755SOL    HW131898   1.891   2.238   8.946  1.6726 -0.2326 -0.8441
 6755SOL    HW231899   1.809   2.356   8.930 -0.8607 -0.4948 -0.1973
 6756SOL     OW31900   4.334   3.125   7.090  0.6527 -0.5381 -0.0898
 6756SOL    HW131901   4.258   3.183   7.080  0.1222 -1.3521 -0.8058
 6756SOL    HW231902   4.356   3.142   7.182 -1.0545  1.3775 -0.0195
 6757SOL     OW31903   2.134   3.178   8.693 -0.0710  0.1563 -0.0623
 6757SOL    HW131904   2.164   3.159   8.604  2.7178  0.0064  0.8908
 6757SOL    HW231905   2.173   3.265   8.705  1.6170 -0.3629 -1.7652
 6758SOL     OW31906   0.942   1.018   2.403 -0.7025 -0.5052  0.3703
 6758SOL    HW131907   0.895   0.981   2.329 -0.4521 -0.0205 -0.0329
 6758SOL    HW231908   0.880   1.009   2.475  1.4086 -0.3637  2.2132
 6759SOL     OW31909   0.312   0.372   7.112 -0.0949  0.0083  0.2860
 6759SOL    HW131910   0.254   0.375   7.188 -0.0478 -0.3628  0.3364
 6759SOL    HW231911   0.243   0.380   7.046 -1.0962 -0.6939  1.2506
 6760SOL     OW31912   0.476   3.170   1.122 -0.4847  0.1057 -0.1004
 6760SOL    HW131913   0.515   3.237   1.065 -0.4345 -0.1124 -0.3240
 6760SOL    HW231914   0.527   3.092   1.100  1.3858  1.8355 -1.9106
 6761SOL     OW31915   2.578   3.567   3.835 -0.1461  0.6918  0.4810
 6761SOL    HW131916   2.605   3.502   3.770  0.8352  3.8045 -2.2376
 6761SOL    HW231917   2.585   3.646   3.781  1.5244  2.6521  3.6318
 6762SOL     OW31918   3.538   3.482   9.240  0.6591 -0.0404  0.0433
 6762SOL    HW131919   3.498   3.546   9.180 -0.3056 -0.8274 -0.1465
 6762SOL    HW231920   3.526   3.531   9.322  1.1353  0.9359 -0.4646
 6763SOL     OW31921   0.928   1.081   8.377 -0.4785  0.0520  0.1302
 6763SOL    HW131922   0.933   1.025   8.299 -1.6873  2.4880 -1.6971
 6763SOL    HW231923   1.013   1.124   8.384 -0.3841 -0.1866  0.4380
 6764SOL     OW31924   0.536   2.939  10.837  0.3542 -0.6006  0.3792
 6764SOL    HW131925   0.537   3.012  10.775  1.0777  0.3107  1.4670
 6764SOL    HW231926   0.444   2.912  10.836 -0.0355  0.7618 -0.9051
 6765SOL     OW31927   0.596   4.102   2.632  0.0118  0.5006  0.2620
 6765SOL    HW131928   0.649   4.033   2.672  0.6121 -0.9667 -3.1451
 6765SOL    HW231929   0.517   4.054   2.608 -0.8514  2.8763 -1.6020
 6766SOL     OW31930   1.732   3.782   2.367 -0.5876 -0.0385  0.5442
 6766SOL    HW131931   1.694   3.825   2.444  1.3673  0.1620  1.3869
 6766SOL    HW231932   1.812   3.834   2.362  1.0281 -2.4979  0.9766
 6767SOL     OW31933   4.341   1.944  15.051 -0.3707 -0.3047 -0.1620
 6767SOL    HW131934   4.394   2.023  15.044  0.1080 -0.7582 -1.6837
 6767SOL    HW231935   4.352   1.899  14.967 -2.5943  1.4042 -1.3783
 6768SOL     OW31936   2.156   0.065   0.160  0.3117 -0.0883  1.3629
 6768SOL    HW131937   2.250   0.051   0.155  0.5971  2.0994  0.5405
 6768SOL    HW231938   2.136   0.110   0.078  3.3997 -2.1070 -0.5054
 6769SOL     OW31939   3.807   0.140   9.333 -0.2103 -0.0418  0.7686
 6769SOL    HW131940   3.799   0.045   9.324 -2.8094  0.2313 -0.0078
 6769SOL    HW231941   3.820   0.171   9.244 -2.1744  1.5212  1.0183
 6770SOL     OW31942   0.321   1.124   2.372 -0.1960 -0.4290 -0.1861
 6770SOL    HW131943   0.408   1.089   2.390 -1.0971 -1.9893  1.2046
 6770SOL    HW231944   0.265   1.047   2.381 -0.5438 -0.1838 -0.2381
 6771SOL     OW31945   3.033   1.053   1.771 -0.2091  0.2962  0.3855
 6771SOL    HW131946   3.066   1.087   1.854  0.1847 -0.7991  0.6720
 6771SOL    HW231947   2.955   1.006   1.799  0.2636  0.4976  2.0103
 6772SOL     OW31948   1.254   1.543   4.483  0.8559 -0.1340  0.2930
 6772SOL    HW131949   1.218   1.541   4.395 -2.1294 -3.0045  1.5892
 6772SOL    HW231950   1.287   1.453   4.492  0.0573 -0.3614  0.9935
 6773SOL     OW31951   2.794   1.684   7.629  0.0803 -0.3923 -0.1032
 6773SOL    HW131952   2.836   1.744   7.692 -1.4665  0.4610  0.1211
 6773SOL    HW231953   2.820   1.724   7.546  1.1604 -1.4378 -0.2616
 6774SOL     OW31954   1.123   2.082  10.041  0.0678  0.7850 -0.0441
 6774SOL    HW131955   1.159   2.067  10.129 -0.3001  0.7160  0.0931
 6774SOL    HW231956   1.130   2.002   9.988  2.9417  0.8906  0.1319
 6775SOL     OW31957   2.739   2.069   4.925  0.0980  0.3579 -0.2907
 6775SOL    HW131958   2.771   2.158   4.935 -0.1067  0.6370 -2.0758
 6775SOL    HW231959   2.677   2.057   4.997  1.2864  3.4920  1.2610
 6776SOL     OW31960   1.722   2.419   0.257 -0.6999 -0.4758 -0.4057
 6776SOL    HW131961   1.720   2.496   0.315  1.9806  0.1109 -1.1054
 6776SOL    HW231962   1.805   2.378   0.280  0.1356  1.8611  0.7294
 6777SOL     OW31963   2.593   3.143   3.349  0.0836 -0.3394  0.1242
 6777SOL    HW131964   2.524   3.208   3.364  0.1397 -0.1893 -0.2879
 6777SOL    HW231965   2.630   3.171   3.265  0.2823 -1.9821 -0.3326
 6778SOL     OW31966   0.538   3.882   1.158 -0.3069 -0.1335  0.0952
 6778SOL    HW131967   0.601   3.935   1.206 -1.6593 -0.0015  1.7042
 6778SOL    HW231968   0.517   3.804   1.209  1.2388 -1.1610 -0.8544
 6779SOL     OW31969   4.269   3.762  16.063  0.3353  0.3597  0.0698
 6779SOL    HW131970   4.289   3.845  16.020  3.3299  0.6701  2.0787
 6779SOL    HW231971   4.335   3.756  16.132  0.0953  1.7053  0.4217
 6780SOL     OW31972   3.851   1.115   3.173  0.0586 -0.5428 -0.3325
 6780SOL    HW131973   3.761   1.139   3.194  0.9615  2.2599  0.3845
 6780SOL    HW231974   3.841   1.104   3.079 -0.4502 -0.2219 -0.3198
 6781SOL     OW31975   2.832   0.522  12.661 -0.2762  0.1647  0.0221
 6781SOL    HW131976   2.781   0.592  12.620  0.7843  0.0385 -1.5302
 6781SOL    HW231977   2.909   0.537  12.605  0.0801 -0.4313  0.3550
 6782SOL     OW31978   2.350   0.962   0.922 -0.0183  0.5513  0.3314
 6782SOL    HW131979   2.306   0.944   0.840 -1.8516  2.8181  0.8187
 6782SOL    HW231980   2.428   1.005   0.886  1.0459 -0.7174  1.0870
 6783SOL     OW31981   3.981   2.278   2.584 -0.1290 -0.2754 -0.2059
 6783SOL    HW131982   3.989   2.338   2.658  0.0071  1.2359 -1.4469
 6783SOL    HW231983   3.930   2.338   2.530 -0.0121  1.4735  1.6250
 6784SOL     OW31984   0.244   0.305   4.443 -0.3431  0.0256  0.1372
 6784SOL    HW131985   0.304   0.257   4.386 -0.1765  1.1720 -0.6621
 6784SOL    HW231986   0.187   0.235   4.472 -1.0050  0.1510 -0.8722
 6785SOL     OW31987   4.643   0.653   0.253  0.2097 -0.5344 -0.1582
 6785SOL    HW131988   4.616   0.738   0.287  0.4900  0.0517 -1.4053
 6785SOL    HW231989   4.670   0.670   0.162  3.7190 -2.4694  0.5115
 6786SOL     OW31990   4.506   0.409   7.189 -0.5170 -0.0303  0.5188
 6786SOL    HW131991   4.554   0.432   7.110  0.7151  1.1545  1.6103
 6786SOL    HW231992   4.493   0.314   7.190  0.8360 -0.2148 -0.5807
 6787SOL     OW31993   1.564   0.914   5.615  0.0950  0.0753  0.7348
 6787SOL    HW131994   1.526   0.831   5.586  0.5861  0.3188 -0.6021
 6787SOL    HW231995   1.597   0.886   5.700 -0.5356 -1.1289  0.5709
 6788SOL     OW31996   1.027   0.703  17.286  0.2653 -0.1844  0.0026
 6788SOL    HW131997   1.024   0.627  17.344  2.5202 -0.2852 -0.0209
 6788SOL    HW231998   1.115   0.705  17.249  0.0749 -1.2246 -0.5034
 6789SOL     OW31999   1.486   3.763  11.234  0.1695  0.3613  0.1174
 6789SOL    HW132000   1.411   3.810  11.271 -0.8744 -1.6068  0.5290
 6789SOL    HW232001   1.471   3.790  11.143 -1.1871 -0.5433  0.0586
 6790SOL     OW32002   3.586   4.194  17.713 -0.0135 -0.5397 -0.4472
 6790SOL    HW132003   3.616   4.279  17.746  2.7764 -1.3807 -0.8464
 6790SOL    HW232004   3.628   4.132   0.021  1.3861  0.5871 -0.2796
 6791SOL     OW32005   3.557   0.283   9.812 -0.7562  0.4588 -0.2965
 6791SOL    HW132006   3.522   0.333   9.886 -1.1350 -2.1548  1.3047
 6791SOL    HW232007   3.624   0.242   9.867 -2.3517  0.6659  1.7784
 6792SOL     OW32008   2.822   3.020   1.229  0.4423 -0.2851  0.2792
 6792SOL    HW132009   2.908   3.025   1.271  0.4515 -2.7151  0.5079
 6792SOL    HW232010   2.819   2.931   1.194 -1.5601 -0.7097  1.5380
 6793SOL     OW32011   3.215   4.261  15.406 -0.0102 -0.1743  0.3405
 6793SOL    HW132012   3.195   4.199  15.336  0.8243  0.4398 -0.4438
 6793SOL    HW232013   3.172   4.220  15.482 -0.2384 -3.3692 -1.5176
 6794SOL     OW32014   3.887   3.556   5.450 -0.1244  0.1580  0.5156
 6794SOL    HW132015   3.920   3.628   5.395 -2.4065  1.4572  0.8379
 6794SOL    HW232016   3.821   3.607   5.498 -1.4181 -0.8898 -0.1554
 6795SOL     OW32017   0.020   0.786   1.970  0.7108  0.3063 -0.1252
 6795SOL    HW132018   0.036   0.740   1.887  0.5024 -2.2738  1.2569
 6795SOL    HW232019   4.677   0.749   2.004 -0.7065  0.8304 -2.9423
 6796SOL     OW32020   2.744   3.017   3.820  0.1503  0.5127 -0.5472
 6796SOL    HW132021   2.687   2.982   3.888  0.2928  0.5374 -0.4136
 6796SOL    HW232022   2.796   2.942   3.789 -0.6998 -1.1093  1.9806
 6797SOL     OW32023   0.214   3.008  10.547  0.1262  0.4680  0.2124
 6797SOL    HW132024   0.287   3.069  10.557 -0.5745  1.2875  0.3107
 6797SOL    HW232025   0.199   3.005  10.452 -0.6267  0.0700  0.3467
 6798SOL     OW32026   2.483   1.682  12.954  0.0873 -0.4570  0.6892
 6798SOL    HW132027   2.473   1.742  12.880  1.8868  0.2860  1.0673
 6798SOL    HW232028   2.470   1.740  13.029 -0.7320 -0.1054  0.2751
 6799SOL     OW32029   0.797   1.145   1.824 -0.1043  0.2238 -0.0208
 6799SOL    HW132030   0.754   1.229   1.810 -1.2841 -0.5471 -0.9644
 6799SOL    HW232031   0.751   1.110   1.901 -0.7910  0.4563 -0.3320
 6800SOL     OW32032   1.198   4.076   7.485 -0.2184 -0.2219 -0.1114
 6800SOL    HW132033   1.130   4.048   7.423 -1.7890  1.0330  1.0399
 6800SOL    HW232034   1.231   3.992   7.516 -0.1892 -0.6434 -1.2843
 6801SOL     OW32035   3.167   3.354   8.019  0.4526  0.0937  0.2597
 6801SOL    HW132036   3.209   3.432   8.055  0.9458  0.5909 -1.4186
 6801SOL    HW232037   3.075   3.380   8.025  0.2332 -0.5776 -0.1957
 6802SOL     OW32038   2.408   0.942   1.198 -0.2993 -0.2703  0.0563
 6802SOL    HW132039   2.377   0.957   1.109 -1.8746 -1.5515  0.3833
 6802SOL    HW232040   2.500   0.918   1.190 -0.0195  0.4615  1.0204
 6803SOL     OW32041   3.117   1.733   7.766  0.2068  0.4180 -0.2691
 6803SOL    HW132042   3.076   1.709   7.683  0.7090  0.7434 -0.6084
 6803SOL    HW232043   3.201   1.692   7.745 -0.8682 -0.4369 -2.8685
 6804SOL     OW32044   4.357   3.270   1.295  0.0999  0.0572  0.1236
 6804SOL    HW132045   4.268   3.264   1.262  0.2995 -0.3863 -0.3218
 6804SOL    HW232046   4.343   3.283   1.389  0.5217  0.2592  0.1593
 6805SOL     OW32047   3.840   4.722  16.348  0.0870  0.0714 -0.3977
 6805SOL    HW132048   3.837   0.054  16.413 -0.4676 -0.9420  0.6620
 6805SOL    HW232049   3.756   4.682  16.369  0.5421  0.4671  2.1798
 6806SOL     OW32050   4.623   0.997   6.189  0.0216 -0.5666  0.0142
 6806SOL    HW132051   4.698   1.035   6.143 -1.9832  0.4167 -2.4280
 6806SOL    HW232052   4.570   0.942   6.131 -1.0575  0.1184  0.3590
 6807SOL     OW32053   2.170   2.396  15.312  0.4357  0.2263 -0.7747
 6807SOL    HW132054   2.099   2.389  15.248  1.7665  0.4725 -2.2686
 6807SOL    HW232055   2.113   2.406  15.388 -1.0821 -0.3818 -1.8097
 6808SOL     OW32056   3.057   4.105   1.599 -0.0598  0.7717 -0.9009
 6808SOL    HW132057   2.972   4.121   1.558 -0.3795 -0.4922 -0.7433
 6808SOL    HW232058   3.044   4.018   1.638  0.4255  1.5908  1.1054
 6809SOL     OW32059   2.427   2.740   4.979 -0.1824 -0.1162 -0.4320
 6809SOL    HW132060   2.478   2.677   5.031  0.9813  1.3910  0.2508
 6809SOL    HW232061   2.499   2.773   4.925 -0.1667  0.5198 -0.0254
 6810SOL     OW32062   0.925   4.718   4.353 -0.0209  0.0436 -0.0465
 6810SOL    HW132063   0.831   4.701   4.349 -0.5818  2.8516  1.3029
 6810SOL    HW232064   0.925   0.061   4.403  1.1924  0.5940 -0.9341
 6811SOL     OW32065   1.938   4.190   6.278  0.0041  0.3270 -0.0873
 6811SOL    HW132066   1.872   4.123   6.293  1.5456 -1.5722 -1.7805
 6811SOL    HW232067   2.017   4.138   6.262 -1.1300 -1.7745  1.3076
 6812SOL     OW32068   2.514   0.851   0.381  0.2888 -0.5659 -0.4469
 6812SOL    HW132069   2.552   0.863   0.294  1.3927  1.2538  0.2965
 6812SOL    HW232070   2.513   0.755   0.388  0.0288 -0.6139 -1.1327
 6813SOL     OW32071   1.863   2.983   4.818  0.3425 -0.1176  0.2794
 6813SOL    HW132072   1.804   3.011   4.888 -1.1955 -0.3540 -0.9188
 6813SOL    HW232073   1.812   2.908   4.788  0.9273 -0.0655 -0.8438
 6814SOL     OW32074   0.242   4.721   2.792 -0.0351 -0.1227  0.0252
 6814SOL    HW132075   0.225   4.722   2.887 -0.3420  0.3042 -0.0323
 6814SOL    HW232076   0.217   4.632   2.767  1.9388 -0.7720  0.3465
 6815SOL     OW32077   4.568   0.982  11.057  0.2044 -0.4698  0.7364
 6815SOL    HW132078   4.551   1.032  10.976 -1.3337 -2.6825 -0.3086
 6815SOL    HW232079   4.649   0.942  11.028  0.5479  0.3903  0.5036
 6816SOL     OW32080   4.677   2.576   2.048 -0.0826 -0.0175 -0.3330
 6816SOL    HW132081   4.678   2.625   2.130 -2.4023 -0.1910 -0.2178
 6816SOL    HW232082   4.694   2.485   2.076 -0.1733 -0.0288 -0.3145
 6817SOL     OW32083   0.913   3.866  15.395 -0.1652  0.6039 -0.3248
 6817SOL    HW132084   1.000   3.828  15.399 -0.3319  0.4616  1.6981
 6817SOL    HW232085   0.922   3.955  15.429  1.2659  0.7285 -1.0487
 6818SOL     OW32086   1.943   3.758   6.653 -0.2202 -0.1401  0.3886
 6818SOL    HW132087   1.943   3.662   6.643 -0.7039 -0.2536  1.4939
 6818SOL    HW232088   1.955   3.773   6.559 -2.3833 -0.6897  0.0136
 6819SOL     OW32089   2.720   0.167   3.775 -0.3633  0.5689  0.8111
 6819SOL    HW132090   2.784   0.237   3.770 -1.1736  1.0297 -2.7782
 6819SOL    HW232091   2.700   0.157   3.682  1.7923 -1.5786  0.5488
 6820SOL     OW32092   1.925   1.581   6.804  0.5936 -0.2395  0.1697
 6820SOL    HW132093   1.834   1.553   6.793  1.1386 -1.9339 -0.0859
 6820SOL    HW232094   1.913   1.676   6.807 -0.5209 -0.3433 -0.8775
 6821SOL     OW32095   0.048   2.218   7.297 -0.2156 -0.0705 -0.6708
 6821SOL    HW132096   0.078   2.146   7.354 -0.5980  0.5652  0.3222
 6821SOL    HW232097   0.030   2.280   7.368  2.2354 -0.4929  0.3476
 6822SOL     OW32098   4.003   4.508   0.834  0.0083  0.2858  0.1662
 6822SOL    HW132099   3.985   4.541   0.922 -1.7842 -0.5087  0.0875
 6822SOL    HW232100   3.983   4.414   0.838 -0.5560  0.3421 -1.7514
 6823SOL     OW32101   1.606   0.565  14.211  0.3486 -0.2480  0.0344
 6823SOL    HW132102   1.534   0.623  14.238 -1.1398 -2.6376  1.1585
 6823SOL    HW232103   1.655   0.617  14.148  1.5304 -4.0201 -2.0976
 6824SOL     OW32104   0.946   4.099   0.149  0.4713  0.2390  0.6337
 6824SOL    HW132105   0.862   4.076   0.109  1.8090  0.4935 -2.3407
 6824SOL    HW232106   0.913   4.171   0.203 -0.0420 -1.1660  2.2056
 6825SOL     OW32107   0.767   3.337   9.233  0.3767  0.1790 -0.7756
 6825SOL    HW132108   0.698   3.321   9.168  0.0813  1.3426 -0.7362
 6825SOL    HW232109   0.717   3.363   9.310  0.7620 -0.9686 -0.1318
 6826SOL     OW32110   4.513   1.033   5.516  0.1626  0.0399 -0.2395
 6826SOL    HW132111   4.501   0.987   5.599  0.1348  0.9312  0.2549
 6826SOL    HW232112   4.450   1.104   5.530  0.1111  0.0265 -0.4033
 6827SOL     OW32113   2.509   2.357   6.512 -0.2139  0.2921  0.5086
 6827SOL    HW132114   2.532   2.315   6.595 -0.3870 -3.0689 -1.1613
 6827SOL    HW232115   2.540   2.448   6.517  1.9393 -0.2741 -2.5406
 6828SOL     OW32116   2.931   0.636   3.464 -0.4038  0.2243 -0.0147
 6828SOL    HW132117   2.850   0.609   3.421 -0.0561  0.6690 -0.9556
 6828SOL    HW232118   2.895   0.705   3.521 -1.1826  0.6750 -1.0400
 6829SOL     OW32119   0.399   0.044   1.146 -0.0153 -0.4281 -0.1157
 6829SOL    HW132120   0.456   0.058   1.070 -1.2154  0.8665 -0.7783
 6829SOL    HW232121   0.460   0.031   1.218  1.3254  1.6581 -0.8936
 6830SOL     OW32122   2.857   3.550  14.826  0.0876  0.0095 -0.4879
 6830SOL    HW132123   2.815   3.581  14.745  0.6669 -0.2126 -0.8740
 6830SOL    HW232124   2.910   3.474  14.801 -0.6163 -1.0576  1.2703
 6831SOL     OW32125   2.551   2.949  12.241  0.1454  0.5028  0.4463
 6831SOL    HW132126   2.503   2.873  12.274  0.1469 -0.0829 -0.9071
 6831SOL    HW232127   2.564   2.925  12.150 -2.2819  1.6434 -0.2032
 6832SOL     OW32128   0.825   1.220   6.074 -0.7034  0.2418  0.1684
 6832SOL    HW132129   0.729   1.221   6.065 -0.7923 -2.5227  0.6321
 6832SOL    HW232130   0.843   1.141   6.023 -1.4121 -1.5810  2.6986
 6833SOL     OW32131   0.510   1.199   2.764  0.1083 -0.4472 -0.2647
 6833SOL    HW132132   0.555   1.234   2.687  0.6995 -1.7316 -0.5027
 6833SOL    HW232133   0.516   1.272   2.826 -1.1466 -0.1857 -0.4467
 6834SOL     OW32134   2.203   3.709   3.716 -0.2443  0.5657  0.6815
 6834SOL    HW132135   2.225   3.699   3.809 -2.1534 -0.4443  1.0200
 6834SOL    HW232136   2.156   3.792   3.726 -1.4388  0.0902 -1.0029
 6835SOL     OW32137   0.897   1.806   4.854  0.1561  0.1768  0.1669
 6835SOL    HW132138   0.891   1.876   4.788 -1.2788 -1.1337 -1.0968
 6835SOL    HW232139   0.807   1.807   4.888 -0.0072  1.5804 -0.2771
 6836SOL     OW32140   4.732   2.058   8.402 -0.0327  0.6178  0.3712
 6836SOL    HW132141   4.648   2.041   8.360 -0.3706  1.8475  0.5351
 6836SOL    HW232142   0.056   2.009   8.348 -0.2564  1.4164 -0.6117
 6837SOL     OW32143   3.234   0.654   0.158 -0.1088  0.2683 -0.1764
 6837SOL    HW132144   3.251   0.593   0.230  1.3026  3.3051  2.0642
 6837SOL    HW232145   3.316   0.703   0.161  0.9120 -1.4933  1.1611
 6838SOL     OW32146   2.895   4.009  11.526  0.2780  0.1333  0.5032
 6838SOL    HW132147   2.959   4.064  11.482  1.7148 -0.7559  1.4840
 6838SOL    HW232148   2.915   3.922  11.492 -2.9885 -0.5414  0.2623
 6839SOL     OW32149   3.479   3.001  14.413 -0.1560 -0.1756 -0.0591
 6839SOL    HW132150   3.386   3.007  14.389  0.2001 -0.0426 -1.3937
 6839SOL    HW232151   3.473   2.968  14.502  0.4155 -0.7299 -0.2276
 6840SOL     OW32152   4.441   2.062   2.371  0.7084  0.2919  0.7157
 6840SOL    HW132153   4.349   2.035   2.372  1.2586 -1.5976 -0.2235
 6840SOL    HW232154   4.481   1.982   2.406 -0.3893 -0.3535  0.4980
 6841SOL     OW32155   2.059   0.856  10.223 -0.4017  0.1553  0.1109
 6841SOL    HW132156   2.014   0.789  10.173  0.9894  0.2165 -1.2208
 6841SOL    HW232157   2.130   0.808  10.266  0.9890  1.6139 -0.5166
 6842SOL     OW32158   2.633   2.887   3.405 -0.0818 -0.3301 -0.5096
 6842SOL    HW132159   2.623   2.977   3.374  0.0355 -0.1882 -0.1346
 6842SOL    HW232160   2.640   2.827   3.331 -1.0998  2.2327 -2.6872
 6843SOL     OW32161   3.802   2.166   6.019  0.6010  0.4026 -0.0371
 6843SOL    HW132162   3.730   2.220   6.052  2.3113  0.7012  3.1129
 6843SOL    HW232163   3.774   2.159   5.927  0.3700 -0.4497  0.1001
 6844SOL     OW32164   4.499   4.278   0.793 -0.1032 -0.0532  0.1563
 6844SOL    HW132165   4.550   4.262   0.873  2.0732 -0.0277 -1.2201
 6844SOL    HW232166   4.533   4.365   0.771 -1.8260  0.3589 -0.8298
 6845SOL     OW32167   3.326   0.644   1.472  0.1463 -0.1866 -0.4731
 6845SOL    HW132168   3.356   0.693   1.395 -0.1343  1.0118  0.1717
 6845SOL    HW232169   3.408   0.600   1.493 -0.0489 -0.0850  0.4875
 6846SOL     OW32170   4.028   2.493   7.184 -0.1664  0.1665  0.1296
 6846SOL    HW132171   4.057   2.521   7.097  0.7824  1.7127  0.9323
 6846SOL    HW232172   3.933   2.503   7.178 -0.0380  1.1854 -0.3676
 6847SOL     OW32173   4.009   4.275  12.764 -0.1464  0.5494  0.3600
 6847SOL    HW132174   4.076   4.207  12.759 -1.2964 -0.5014 -0.7676
 6847SOL    HW232175   4.055   4.359  12.768 -0.6250  0.7836  1.1012
 6848SOL     OW32176   4.248   4.245   8.941  0.4269  0.2690  0.6510
 6848SOL    HW132177   4.175   4.188   8.917 -0.8234  1.8274  0.7706
 6848SOL    HW232178   4.308   4.179   8.975  0.8950 -0.1374 -0.9560
 6849SOL     OW32179   0.027   4.185   6.119 -0.0761  0.0198  0.1803
 6849SOL    HW132180   4.718   4.121   6.065 -0.8457  0.3656  0.4478
 6849SOL    HW232181   0.105   4.196   6.065 -0.2015 -2.9406 -0.6446
 6850SOL     OW32182   2.872   1.430   4.279 -0.2967  0.1570 -0.6176
 6850SOL    HW132183   2.891   1.346   4.322 -1.5621 -0.0931 -0.5280
 6850SOL    HW232184   2.920   1.422   4.197  1.0192  0.2032  0.1543
 6851SOL     OW32185   2.855   2.177   6.948 -0.1622 -0.1141 -0.0885
 6851SOL    HW132186   2.827   2.105   6.891  0.8778  0.4751 -1.3318
 6851SOL    HW232187   2.775   2.203   6.993  0.9531  1.0734  1.2030
 6852SOL     OW32188   3.209   0.159   5.188 -0.2796  0.0967 -0.3347
 6852SOL    HW132189   3.262   0.090   5.148 -3.1933  0.2026 -4.3041
 6852SOL    HW232190   3.149   0.194   5.123 -1.9443  0.3862  1.3789
 6853SOL     OW32191   4.738   0.493   5.324  0.3125 -0.2137 -0.1879
 6853SOL    HW132192   0.077   0.478   5.378 -1.1481  0.4417  2.0706
 6853SOL    HW232193   0.048   0.556   5.270 -1.3509 -0.4130 -1.8888
 6854SOL     OW32194   1.399   4.035   9.191 -0.4424 -0.0886  0.3752
 6854SOL    HW132195   1.332   4.020   9.124 -0.2004 -2.4858  0.6675
 6854SOL    HW232196   1.421   3.942   9.186  2.5391  0.6618 -0.1533
 6855SOL     OW32197   1.539   4.127   4.090 -0.7997 -0.0886 -0.2573
 6855SOL    HW132198   1.562   4.086   4.006 -1.6468  0.8388 -0.9487
 6855SOL    HW232199   1.593   4.074   4.148 -0.4138  0.6181  0.0320
 6856SOL     OW32200   1.430   0.797   1.819  0.0633  0.0990 -0.6420
 6856SOL    HW132201   1.485   0.843   1.883  0.1949  2.3648 -2.3750
 6856SOL    HW232202   1.500   0.767   1.761 -0.4584 -1.1391 -0.6284
 6857SOL     OW32203   3.183   2.720   2.327 -0.1994  0.0941  0.1560
 6857SOL    HW132204   3.098   2.751   2.359 -0.4774 -0.4503 -0.0446
 6857SOL    HW232205   3.151   2.681   2.246 -2.3482 -1.6374  1.8112
 6858SOL     OW32206   2.830   3.038   7.350  0.4360 -0.1727  0.3920
 6858SOL    HW132207   2.898   3.016   7.286 -0.1666 -1.2334  0.1095
 6858SOL    HW232208   2.772   2.962   7.342 -1.1917  1.0814  0.2946
 6859SOL     OW32209   1.033   4.626   5.656  0.0727 -0.3217 -0.0692
 6859SOL    HW132210   1.052   4.537   5.684  0.1448 -0.4322 -0.4730
 6859SOL    HW232211   1.086   4.623   5.577  2.9627  0.4608  1.8201
 6860SOL     OW32212   0.613   0.645  14.977  0.0871 -0.3571 -0.4140
 6860SOL    HW132213   0.562   0.625  15.056  0.8684 -0.5588  0.0306
 6860SOL    HW232214   0.685   0.692  15.018 -0.9548 -2.1824  3.5222
 6861SOL     OW32215   4.690   0.312   7.969  0.7461  0.4555 -0.0461
 6861SOL    HW132216   4.620   0.347   8.024  0.0571  1.8042 -1.7774
 6861SOL    HW232217   4.654   0.324   7.881 -0.0006 -1.1122  0.0626
 6862SOL     OW32218   3.460   0.849   2.604 -0.3510 -0.4141 -0.6825
 6862SOL    HW132219   3.419   0.925   2.565  0.8682  0.6588  0.1282
 6862SOL    HW232220   3.418   0.837   2.689 -2.6654 -0.2249 -1.7909
 6863SOL     OW32221   0.413   3.948   4.458 -0.5316 -0.3384  0.2235
 6863SOL    HW132222   0.467   3.893   4.402  0.9703  0.0060  1.3413
 6863SOL    HW232223   0.352   3.877   4.479 -1.5588  1.1729  2.3685
 6864SOL     OW32224   2.690   3.199   7.949  0.3730  0.1109 -0.0574
 6864SOL    HW132225   2.663   3.158   7.867  0.9423 -0.9559  0.2914
 6864SOL    HW232226   2.723   3.285   7.923  3.1728 -1.0173 -0.1731
 6865SOL     OW32227   3.240   1.303   6.801  0.1227  0.0625 -0.5658
 6865SOL    HW132228   3.302   1.264   6.862 -0.8550  0.5519  0.7475
 6865SOL    HW232229   3.167   1.330   6.857  0.7827  2.2974 -0.7462
 6866SOL     OW32230   0.113   3.255   3.683  0.0776  0.4148  0.8841
 6866SOL    HW132231   0.070   3.337   3.660 -1.7804 -0.3239  1.7574
 6866SOL    HW232232   0.181   3.251   3.616  1.4478 -1.3567  2.3795
 6867SOL     OW32233   4.200   1.920   6.831 -0.3150 -0.1267  0.0860
 6867SOL    HW132234   4.247   2.003   6.821 -0.2519 -0.2953 -1.0380
 6867SOL    HW232235   4.117   1.954   6.799 -1.4852 -1.9922  1.1627
 6868SOL     OW32236   0.816   3.239  10.453  0.1997  0.0868 -1.1179
 6868SOL    HW132237   0.850   3.152  10.430  0.5400 -0.2436  0.7082
 6868SOL    HW232238   0.858   3.289  10.383 -0.8731  1.1292 -1.0165
 6869SOL     OW32239   4.575   2.902   3.774 -0.1247 -0.5029 -0.3030
 6869SOL    HW132240   4.643   2.957   3.814 -0.8996 -0.7797  1.4027
 6869SOL    HW232241   4.607   2.909   3.684 -0.7294  1.3488 -0.3797
 6870SOL     OW32242   3.580   2.944   6.552 -0.3524  0.0992 -0.8213
 6870SOL    HW132243   3.643   2.915   6.486  0.1787 -3.8058  1.3598
 6870SOL    HW232244   3.515   2.975   6.489 -1.9280 -1.8762 -0.1907
 6871SOL     OW32245   2.299   2.353   7.106 -0.2130  0.3910  0.1317
 6871SOL    HW132246   2.334   2.360   7.017  1.7225  0.8607  0.9210
 6871SOL    HW232247   2.256   2.439   7.112 -1.3376 -0.2415  1.1401
 6872SOL     OW32248   2.470   0.348   5.761  0.1950 -0.5782 -0.6730
 6872SOL    HW132249   2.461   0.306   5.846  2.4874  0.1246 -0.0938
 6872SOL    HW232250   2.564   0.333   5.751 -0.2267 -1.3267 -3.5280
 6873SOL     OW32251   2.829   2.586   6.822  0.4697 -0.2726 -0.2476
 6873SOL    HW132252   2.862   2.619   6.738 -2.8919 -0.1077 -1.5092
 6873SOL    HW232253   2.823   2.491   6.810 -0.7264 -0.3049  0.6438
 6874SOL     OW32254   3.362   3.554   7.278 -0.3276 -0.3717 -0.0220
 6874SOL    HW132255   3.372   3.647   7.295  1.1032 -0.0666 -2.5772
 6874SOL    HW232256   3.305   3.556   7.202 -1.2610  1.2125  0.7251
 6875SOL     OW32257   1.174   1.643   9.561  0.0386  0.2142  0.0106
 6875SOL    HW132258   1.129   1.688   9.489 -0.4186  0.4133  0.4201
 6875SOL    HW232259   1.116   1.666   9.633  1.7065 -0.5577  1.6048
 6876SOL     OW32260   2.247   4.032   5.423  0.5542  0.4733  0.1088
 6876SOL    HW132261   2.184   4.104   5.418 -0.0186  0.0659  1.4794
 6876SOL    HW232262   2.232   4.021   5.517 -1.0176  2.7102  0.1256
 6877SOL     OW32263   0.936   3.581   5.204 -0.3560  0.1234  0.1258
 6877SOL    HW132264   0.974   3.506   5.249  1.4994  0.5811 -0.6768
 6877SOL    HW232265   0.875   3.611   5.271  1.9195  1.2189  1.6682
 6878SOL     OW32266   0.032   1.506   3.102 -0.4948 -0.2910  0.2892
 6878SOL    HW132267   0.116   1.553   3.109 -1.0307  0.6425  0.4141
 6878SOL    HW232268   0.017   1.479   3.193  4.0710 -1.4223  0.7331
 6879SOL     OW32269   0.115   0.060   4.476  0.2514  0.3364 -0.1665
 6879SOL    HW132270   0.021   0.047   4.485  0.3610 -1.3315 -1.3606
 6879SOL    HW232271   0.135   4.732   4.409  1.1766 -0.8235  1.2497
 6880SOL     OW32272   4.588   0.798   2.801  0.2446  0.3746  1.0043
 6880SOL    HW132273   4.588   0.876   2.856 -3.7324  2.0963 -1.4781
 6880SOL    HW232274   4.518   0.748   2.844 -0.6107  0.6392 -0.0845
 6881SOL     OW32275   0.795   2.856   1.426  0.2878 -0.8047 -0.1534
 6881SOL    HW132276   0.741   2.914   1.480  1.7883 -0.3855  0.9059
 6881SOL    HW232277   0.808   2.895   1.339 -2.9483 -1.1359 -0.7684
 6882SOL     OW32278   1.445   2.795   8.464 -0.0407  0.2983  0.0146
 6882SOL    HW132279   1.421   2.882   8.431 -0.0131  0.5985  0.7846
 6882SOL    HW232280   1.525   2.812   8.515 -0.2188 -1.1422  0.7792
 6883SOL     OW32281   0.756   0.896   2.239 -0.4216 -0.3187  0.2434
 6883SOL    HW132282   0.707   0.852   2.169 -1.0115  1.0648 -0.1994
 6883SOL    HW232283   0.691   0.941   2.293  0.0488 -0.5098  0.9748
 6884SOL     OW32284   0.169   1.854   1.962  0.1348 -0.5029 -0.1871
 6884SOL    HW132285   0.261   1.879   1.970 -0.2337  0.6318  0.5147
 6884SOL    HW232286   0.144   1.811   2.044 -0.2231 -0.9889 -0.5531
 6885SOL     OW32287   1.894   0.262   1.530  0.1152 -0.2663 -0.0860
 6885SOL    HW132288   1.932   0.180   1.559  1.1720  0.4835  0.6196
 6885SOL    HW232289   1.818   0.218   1.490  1.0137  0.2522 -2.3570
 6886SOL     OW32290   1.527   4.469   8.349 -0.8379 -0.1567  0.7714
 6886SOL    HW132291   1.566   4.524   8.282 -0.7760  0.5430  1.3860
 6886SOL    HW232292   1.502   4.389   8.301  0.8102 -0.7539  0.9180
 6887SOL     OW32293   3.835   2.784  16.295  0.4093 -0.0827  0.9013
 6887SOL    HW132294   3.818   2.696  16.328  1.7337 -1.2197 -1.4275
 6887SOL    HW232295   3.843   2.758  16.203 -1.4845  0.0782  0.6826
 6888SOL     OW32296   2.224   0.345   2.666  0.5180  0.1320  0.1097
 6888SOL    HW132297   2.226   0.404   2.742 -0.0754 -0.5523  0.6518
 6888SOL    HW232298   2.181   0.271   2.708 -0.4162  1.3768  1.3355
 6889SOL     OW32299   1.391   1.983   2.245 -0.2507  0.1734  0.0138
 6889SOL    HW132300   1.354   2.059   2.290 -0.0158 -0.6911  1.6806
 6889SOL    HW232301   1.315   1.944   2.203 -2.1827  0.2557  3.4341
 6890SOL     OW32302   3.701   0.047   6.531 -0.0078  0.2644 -0.1932
 6890SOL    HW132303   3.745   0.054   6.616  0.0534 -0.3556 -0.1735
 6890SOL    HW232304   3.779   0.046   6.475  0.2577 -1.0985  0.2200
 6891SOL     OW32305   1.341   0.956  10.748 -0.9776 -0.0955 -0.6737
 6891SOL    HW132306   1.400   0.962  10.673  0.4831  2.9776  0.7042
 6891SOL    HW232307   1.364   1.035  10.797 -1.7781 -0.7798  0.7873
 6892SOL     OW32308   0.217   3.816   2.837 -0.2216  0.2484  0.0544
 6892SOL    HW132309   0.146   3.800   2.775  1.7299 -2.4135 -1.4804
 6892SOL    HW232310   0.159   3.826   2.913 -1.9717 -2.5167 -0.9239
 6893SOL     OW32311   3.141   0.387  15.707 -0.2173 -0.0533  0.1302
 6893SOL    HW132312   3.181   0.306  15.737 -1.1327 -1.1276 -1.5212
 6893SOL    HW232313   3.216   0.438  15.677  0.7874 -1.2390  0.6528
 6894SOL     OW32314   3.963   3.118   6.265 -0.3216 -0.3802 -0.3026
 6894SOL    HW132315   4.048   3.156   6.286 -0.5616  0.1191 -0.2213
 6894SOL    HW232316   3.930   3.174   6.194  1.1428  0.0960 -0.6179
 6895SOL     OW32317   0.630   2.513   0.159 -0.1345 -0.0637  0.0489
 6895SOL    HW132318   0.697   2.574   0.190 -0.6868  1.5660 -1.9873
 6895SOL    HW232319   0.674   2.430   0.176  0.7048  0.1225 -1.2643
 6896SOL     OW32320   1.949   3.274   2.695  0.2109  0.0999  0.1705
 6896SOL    HW132321   1.998   3.356   2.702 -0.2042  0.2701  1.0965
 6896SOL    HW232322   1.876   3.302   2.751  2.1715  0.2104  2.6685
 6897SOL     OW32323   0.642   2.139  14.866  0.8834  0.1711  0.5673
 6897SOL    HW132324   0.577   2.179  14.924 -0.1025 -0.9133  0.2264
 6897SOL    HW232325   0.616   2.167  14.778  2.3203 -2.3371 -0.6681
 6898SOL     OW32326   4.682   0.876   7.652 -0.3276 -0.3024 -0.3949
 6898SOL    HW132327   4.630   0.930   7.712  2.7832  0.1654  1.8933
 6898SOL    HW232328   4.622   0.815   7.610 -0.9651 -0.0560  0.1460
 6899SOL     OW32329   0.578   2.881   4.365 -1.0757  0.1282  0.0878
 6899SOL    HW132330   0.483   2.892   4.370 -1.1972 -0.8441 -0.1215
 6899SOL    HW232331   0.610   2.963   4.403  0.2580 -2.1248  3.7755
 6900SOL     OW32332   0.109   2.392   0.625  0.2161 -0.3409 -0.0406
 6900SOL    HW132333   0.054   2.390   0.704  2.6757 -1.4007  1.6267
 6900SOL    HW232334   0.177   2.454   0.650  0.7577 -0.0617 -2.2085
 6901SOL     OW32335   0.418   3.211   6.111  0.0945 -0.3647  0.4702
 6901SOL    HW132336   0.491   3.200   6.049 -0.4946 -0.7369 -0.1633
 6901SOL    HW232337   0.469   3.227   6.190 -0.3554 -1.4210  0.9748
 6902SOL     OW32338   0.209   4.720  14.049 -0.3150 -0.3152  0.1944
 6902SOL    HW132339   0.128   0.017  14.014 -1.6587 -1.7200  1.8861
 6902SOL    HW232340   0.212   0.042  14.124 -1.0679 -0.5707  0.4320
 6903SOL     OW32341   1.880   3.119  10.083 -0.0498 -0.2533 -0.6737
 6903SOL    HW132342   1.933   3.157  10.153 -1.5640  0.2577  0.2043
 6903SOL    HW232343   1.938   3.124  10.008 -0.5243  2.4192 -0.8440
 6904SOL     OW32344   0.663   1.674   6.385  0.0072  0.1437  0.8710
 6904SOL    HW132345   0.754   1.650   6.400  0.3042  1.4780  1.1708
 6904SOL    HW232346   0.641   1.712   6.470  1.7488 -2.0971  2.3230
 6905SOL     OW32347   2.082   3.721   9.052  0.1642  0.0257 -0.5412
 6905SOL    HW132348   2.068   3.693   8.961 -2.0936  2.5147 -0.9609
 6905SOL    HW232349   2.010   3.784   9.057  0.8585  0.7235  0.5354
 6906SOL     OW32350   1.610   3.819   6.012  0.3043  0.1886  0.2431
 6906SOL    HW132351   1.571   3.742   6.053 -0.6769 -0.1674 -1.3816
 6906SOL    HW232352   1.557   3.893   6.041 -1.0051 -1.0915  1.1137
 6907SOL     OW32353   1.224   1.293   4.071 -0.1242 -0.2830 -0.1294
 6907SOL    HW132354   1.181   1.208   4.079 -0.9021  0.3252  2.1153
 6907SOL    HW232355   1.178   1.333   3.996 -0.8974 -0.3898  0.2883
 6908SOL     OW32356   1.737   0.067   8.879  0.0336  0.7094 -0.0911
 6908SOL    HW132357   1.724   0.018   8.960  2.4140 -0.8484 -0.6675
 6908SOL    HW232358   1.654   0.115   8.874 -0.3934 -0.0549 -0.4318
 6909SOL     OW32359   3.864   4.315  17.590  0.0044 -0.4281  0.4653
 6909SOL    HW132360   3.814   4.233  17.588  2.2408 -1.7885 -0.2484
 6909SOL    HW232361   3.930   4.293  17.656  0.1226  1.3043  0.9127
 6910SOL     OW32362   0.596   3.569   6.125 -0.2883  0.0319 -0.3514
 6910SOL    HW132363   0.596   3.607   6.213 -2.7187 -2.1729  0.6000
 6910SOL    HW232364   0.689   3.546   6.115 -0.1529  0.7444 -0.7288
 6911SOL     OW32365   2.356   3.910   5.710 -0.2827  0.3522 -0.0635
 6911SOL    HW132366   2.329   3.998   5.737 -2.2423 -0.3108  0.0824
 6911SOL    HW232367   2.327   3.860   5.786 -0.3427  1.0660  0.3850
 6912SOL     OW32368   3.721   3.437  16.273 -0.2012 -0.0124 -0.0776
 6912SOL    HW132369   3.739   3.492  16.197 -1.2268  2.5547  1.5591
 6912SOL    HW232370   3.783   3.474  16.336  0.6781 -0.9245 -0.3984
 6913SOL     OW32371   4.700   0.287  10.455  0.9871  0.0682  0.0542
 6913SOL    HW132372   0.040   0.325  10.416  1.9292 -0.4670  1.4422
 6913SOL    HW232373   4.734   0.256  10.538  1.0694 -0.4274 -0.1639
 6914SOL     OW32374   4.116   1.183   6.269 -0.8343 -0.3168  0.3200
 6914SOL    HW132375   4.167   1.106   6.294 -0.5500 -0.7831 -1.7259
 6914SOL    HW232376   4.117   1.233   6.351 -2.2788  0.1666  0.0524
 6915SOL     OW32377   0.692   0.635   8.849 -0.3730 -0.3376 -0.2211
 6915SOL    HW132378   0.679   0.671   8.936  1.4155  0.4937 -0.3049
 6915SOL    HW232379   0.717   0.709   8.794 -0.8970 -0.2903 -0.3950
 6916SOL     OW32380   0.680   3.905   0.933 -0.3252  0.1560  0.6273
 6916SOL    HW132381   0.653   3.986   0.891 -0.7896 -0.0339  0.5558
 6916SOL    HW232382   0.639   3.907   1.019 -0.5066 -1.6713  0.5887
 6917SOL     OW32383   0.640   3.864   2.760 -0.2197  0.1706 -0.1387
 6917SOL    HW132384   0.582   3.790   2.780 -0.1785  0.3133  0.5317
 6917SOL    HW232385   0.724   3.819   2.771 -1.4374 -1.7747  1.3269
 6918SOL     OW32386   1.346   3.035   1.081  0.0956 -0.1172 -0.5519
 6918SOL    HW132387   1.366   3.119   1.123  2.2922  0.7699 -3.3209
 6918SOL    HW232388   1.285   2.993   1.141 -0.7351  2.8416  0.6470
 6919SOL     OW32389   4.118   1.070  12.583  0.4859 -0.3451 -0.2658
 6919SOL    HW132390   4.155   1.098  12.666  0.0802 -0.3742 -0.0767
 6919SOL    HW232391   4.147   1.139  12.524 -3.3560  1.3459 -0.1815
 6920SOL     OW32392   0.338   1.386   6.686 -0.3123 -0.6110  0.1301
 6920SOL    HW132393   0.344   1.377   6.591 -0.2328 -0.5111  0.1250
 6920SOL    HW232394   0.242   1.385   6.689 -0.2610 -0.3867  2.1241
 6921SOL     OW32395   3.820   2.167   5.282 -0.4163 -0.0721  0.4031
 6921SOL    HW132396   3.903   2.126   5.307  0.4678  1.2455 -0.4079
 6921SOL    HW232397   3.794   2.186   5.372 -0.6106  1.0327  0.1078
 6922SOL     OW32398   3.991   3.284   9.541  0.4609  0.4218 -0.0035
 6922SOL    HW132399   3.916   3.267   9.599  0.7215 -0.7578 -0.0064
 6922SOL    HW232400   4.035   3.353   9.591  1.8022  0.5749 -1.3915
 6923SOL     OW32401   3.927   0.158   4.630  0.2110 -0.3271 -0.2603
 6923SOL    HW132402   3.844   0.131   4.591 -0.5379  0.6973  0.6218
 6923SOL    HW232403   3.909   0.204   4.712  2.4386 -0.2490  0.1991
 6924SOL     OW32404   4.157   2.879   8.291  0.2578 -0.0766 -0.4557
 6924SOL    HW132405   4.082   2.829   8.322  1.2703 -1.3876 -0.1373
 6924SOL    HW232406   4.212   2.852   8.365 -0.3401 -1.5589 -0.5602
 6925SOL     OW32407   1.459   4.416   7.273  0.0648  0.7662  0.1185
 6925SOL    HW132408   1.421   4.385   7.191 -0.0942  3.0551 -0.6702
 6925SOL    HW232409   1.550   4.399   7.249  0.2284  4.1036 -1.6772
 6926SOL     OW32410   0.603   1.800   8.881 -0.0811  0.1520 -0.2764
 6926SOL    HW132411   0.676   1.846   8.924 -1.3439  0.4905  1.4943
 6926SOL    HW232412   0.532   1.836   8.934 -0.2017 -0.6107  0.0812
 6927SOL     OW32413   2.529   1.262   2.899  0.0896 -0.4344  0.7677
 6927SOL    HW132414   2.575   1.225   2.824  0.4286 -1.4099  1.4598
 6927SOL    HW232415   2.593   1.319   2.941 -0.7174 -0.5614  2.1938
 6928SOL     OW32416   3.113   3.255   9.776 -0.4679  0.4305  0.5752
 6928SOL    HW132417   3.063   3.331   9.747  0.2972  1.4324  1.8611
 6928SOL    HW232418   3.122   3.277   9.869  2.2491  0.9947  0.2038
 6929SOL     OW32419   2.909   3.450   8.128 -0.0980 -0.0352  0.3034
 6929SOL    HW132420   2.854   3.490   8.061  0.5564  0.8133  0.2856
 6929SOL    HW232421   2.958   3.527   8.156 -0.1371  0.6866 -1.6658
 6930SOL     OW32422   4.117   3.486   3.029  0.3070  0.1481 -0.1483
 6930SOL    HW132423   4.150   3.411   3.079  0.7787  1.1001  0.9715
 6930SOL    HW232424   4.137   3.452   2.941  1.6984 -1.3101  0.7397
 6931SOL     OW32425   2.705   4.399   5.102 -0.0316 -0.2059  0.3574
 6931SOL    HW132426   2.671   4.312   5.124  0.5238  0.1018  2.4215
 6931SOL    HW232427   2.631   4.448   5.135 -0.0075  0.1887 -0.1635
 6932SOL     OW32428   0.430   2.566   2.390  0.0028  0.1044 -0.4104
 6932SOL    HW132429   0.380   2.495   2.431 -1.9435  1.7904  0.1098
 6932SOL    HW232430   0.479   2.592   2.468  0.7406 -0.3936 -0.6984
 6933SOL     OW32431   3.581   4.379  10.054  0.1091  0.1183 -0.0573
 6933SOL    HW132432   3.599   4.424   9.971 -1.8343  1.9301  0.5225
 6933SOL    HW232433   3.499   4.422  10.077  0.8967  2.3746 -1.4311
 6934SOL     OW32434   4.384   2.501   3.858 -0.6426 -0.2771  0.0734
 6934SOL    HW132435   4.437   2.523   3.782  0.1051 -3.3559 -0.2840
 6934SOL    HW232436   4.396   2.575   3.917 -2.1487  0.0410 -0.0019
 6935SOL     OW32437   2.785   4.475   3.449 -0.3274 -0.2029  0.3767
 6935SOL    HW132438   2.864   4.482   3.502  0.1135 -0.9127 -0.1947
 6935SOL    HW232439   2.794   4.546   3.384 -0.9276 -0.5985 -0.1461
 6936SOL     OW32440   3.742   4.388  11.112  0.1749 -0.6351  0.3370
 6936SOL    HW132441   3.772   4.352  11.029  1.6933  0.2068  0.5250
 6936SOL    HW232442   3.662   4.430  11.079  0.1673 -0.9133  0.0037
 6937SOL     OW32443   3.641   1.235   2.713  0.6539 -0.3167 -0.2158
 6937SOL    HW132444   3.556   1.269   2.685  1.3051  1.4195 -0.0893
 6937SOL    HW232445   3.659   1.162   2.654 -0.7693 -0.6537 -0.2312
 6938SOL     OW32446   1.314   3.679  15.614  0.1989 -0.0627 -0.5578
 6938SOL    HW132447   1.316   3.637  15.699 -0.9409 -0.3116 -0.6448
 6938SOL    HW232448   1.398   3.645  15.583  0.3868 -1.7586  1.8336
 6939SOL     OW32449   2.460   1.693   2.788  0.0012  0.0423 -0.0862
 6939SOL    HW132450   2.436   1.752   2.859 -0.6351  0.3661 -0.5589
 6939SOL    HW232451   2.427   1.610   2.824  0.5276 -0.4524 -0.7354
 6940SOL     OW32452   1.838   3.386  17.425 -0.0791 -0.0560  0.5409
 6940SOL    HW132453   1.911   3.429  17.470 -0.6444  0.6291  0.8036
 6940SOL    HW232454   1.848   3.295  17.454 -2.0930  0.0666  1.6559
 6941SOL     OW32455   2.791   4.631   8.059  0.0448 -0.2943 -0.2261
 6941SOL    HW132456   2.747   4.593   8.134 -0.6364  0.4807 -0.2308
 6941SOL    HW232457   2.778   4.724   8.077 -1.4942 -0.4273 -0.6667
 6942SOL     OW32458   4.506   0.586   9.481 -0.5358 -0.2969  0.0040
 6942SOL    HW132459   4.569   0.520   9.508  1.0353  0.0054 -2.8706
 6942SOL    HW232460   4.446   0.535   9.427 -1.6523  1.4051 -0.3652
 6943SOL     OW32461   2.399   0.109  11.114  0.2029  0.6673 -0.3141
 6943SOL    HW132462   2.432   0.040  11.171 -1.3185  1.5438  1.6393
 6943SOL    HW232463   2.312   0.129  11.150  0.1907  0.2389 -0.1078
 6944SOL     OW32464   2.277   1.064   1.979 -0.4434  0.1682  0.0761
 6944SOL    HW132465   2.284   1.115   2.060 -2.9648 -0.7512  0.8451
 6944SOL    HW232466   2.182   1.055   1.975 -0.5421  1.0874  0.2667
 6945SOL     OW32467   3.384   3.752   3.580 -0.1187  0.3654  0.6814
 6945SOL    HW132468   3.353   3.707   3.501  1.5833 -0.7302  0.6221
 6945SOL    HW232469   3.392   3.841   3.547  0.8595 -0.8041 -2.2433
 6946SOL     OW32470   0.549   4.578   6.550 -0.4608 -0.0998 -0.2550
 6946SOL    HW132471   0.476   4.634   6.577 -0.9464 -1.0046  0.3053
 6946SOL    HW232472   0.551   4.601   6.457 -1.4519 -1.1350 -0.5354
 6947SOL     OW32473   0.875   0.672  12.190 -0.3572 -1.1264  0.0166
 6947SOL    HW132474   0.782   0.683  12.171 -0.2066 -2.1615 -1.2841
 6947SOL    HW232475   0.864   0.604  12.256  1.9527 -0.4837  1.0457
 6948SOL     OW32476   0.187   0.650   3.138  0.2270 -0.5608 -0.1615
 6948SOL    HW132477   0.117   0.612   3.192  1.5081 -0.5518  1.4849
 6948SOL    HW232478   0.256   0.603   3.186  0.8359  0.3209 -0.1806
 6949SOL     OW32479   3.612   3.795   9.592 -0.3318  0.2835  0.2326
 6949SOL    HW132480   3.589   3.887   9.607 -2.0338 -0.4276  2.0022
 6949SOL    HW232481   3.640   3.768   9.679  0.5241  1.4186  0.3111
 6950SOL     OW32482   2.652   2.515  12.202  0.2179 -0.2891  0.3771
 6950SOL    HW132483   2.703   2.461  12.262 -0.0752 -0.5766  0.3687
 6950SOL    HW232484   2.716   2.575  12.164  0.3075 -0.7554 -0.2100
 6951SOL     OW32485   3.275   1.871   1.125  0.1110  0.2947 -0.0255
 6951SOL    HW132486   3.243   1.824   1.202 -0.2579 -0.8234 -0.8635
 6951SOL    HW232487   3.234   1.957   1.138  0.1908  0.4430 -0.7292
 6952SOL     OW32488   0.613   3.274   4.091  0.2357 -1.0611  0.4857
 6952SOL    HW132489   0.549   3.213   4.128 -0.5584 -0.0091  0.8260
 6952SOL    HW232490   0.661   3.302   4.169 -0.1794  0.7921  0.0754
 6953SOL     OW32491   2.450   1.648   2.514  0.9329 -0.2126  0.1335
 6953SOL    HW132492   2.398   1.568   2.517  0.8249 -0.1062  1.4764
 6953SOL    HW232493   2.444   1.690   2.600 -1.8712 -0.2702 -0.0481
 6954SOL     OW32494   4.456   0.526   6.119  0.2662 -0.3211  0.0967
 6954SOL    HW132495   4.421   0.441   6.144  0.1127  0.0186  1.0352
 6954SOL    HW232496   4.551   0.512   6.119  0.4889  1.1549  0.3092
 6955SOL     OW32497   1.113   3.410   7.614  0.4053 -0.1599 -0.2009
 6955SOL    HW132498   1.201   3.446   7.625 -0.3887  1.4624  0.8951
 6955SOL    HW232499   1.064   3.492   7.604  2.5069  1.1976  0.6175
 6956SOL     OW32500   1.661   0.262  12.032  0.1862  0.1053  0.2334
 6956SOL    HW132501   1.751   0.231  12.044  0.6741  2.0400  1.5538
 6956SOL    HW232502   1.668   0.304  11.946  1.4743  2.2499  1.3964
 6957SOL     OW32503   4.152   2.126   7.127  0.0555 -0.1477 -0.5816
 6957SOL    HW132504   4.127   2.144   7.218  0.8846  0.0656 -0.3938
 6957SOL    HW232505   4.187   2.212   7.102  2.0863 -0.8928 -0.3007
 6958SOL     OW32506   2.954   2.355   6.776 -0.1519  0.2874  0.0808
 6958SOL    HW132507   3.049   2.369   6.784 -0.1587 -0.0535  0.7188
 6958SOL    HW232508   2.948   2.284   6.839 -1.5556 -0.9744 -1.4827
 6959SOL     OW32509   3.814   2.624   4.721 -0.0875  0.2689 -0.7374
 6959SOL    HW132510   3.757   2.640   4.796 -1.1925  0.3398 -1.6064
 6959SOL    HW232511   3.883   2.690   4.730  1.0490 -0.8496 -1.1905
 6960SOL     OW32512   3.294   2.334   3.612 -0.2443  0.3012 -0.2925
 6960SOL    HW132513   3.382   2.296   3.613 -0.2484  0.2467 -1.4362
 6960SOL    HW232514   3.244   2.296   3.684 -1.3042 -0.0700 -1.2150
 6961SOL     OW32515   0.255   2.896   6.718  0.2070  0.2269  0.3780
 6961SOL    HW132516   0.175   2.941   6.745 -0.5920  0.1433 -1.8601
 6961SOL    HW232517   0.232   2.869   6.630  0.7393 -1.5561  0.7741
 6962SOL     OW32518   0.265   3.278  10.130 -0.6106 -0.0583  0.1837
 6962SOL    HW132519   0.289   3.185  10.119 -1.3510 -0.0410 -1.6582
 6962SOL    HW232520   0.199   3.273  10.198  0.2489  0.4254  1.0531
 6963SOL     OW32521   1.666   4.552  13.161  0.1919 -0.3936  0.3385
 6963SOL    HW132522   1.725   4.487  13.199  1.3436  0.1380 -0.5301
 6963SOL    HW232523   1.624   4.515  13.084  0.3510 -2.8704  1.4341
 6964SOL     OW32524   3.880   0.023  17.544 -0.6756  0.1237 -0.0117
 6964SOL    HW132525   3.850   0.014  17.453 -0.8739 -2.5624  0.3340
 6964SOL    HW232526   3.824   4.693  17.582  1.2311 -1.4943 -0.1364
 6965SOL     OW32527   1.972   0.329   5.013 -0.2195 -0.0027  0.4582
 6965SOL    HW132528   1.983   0.374   4.929 -4.1465 -1.8333 -1.0511
 6965SOL    HW232529   2.037   0.373   5.068 -0.3182  0.1398  0.4616
 6966SOL     OW32530   4.547   3.672   9.986 -0.0388 -0.3701  0.3187
 6966SOL    HW132531   4.587   3.700   9.903  0.3938  0.6966  0.8885
 6966SOL    HW232532   4.602   3.598  10.009  4.5759  2.9729  0.0702
 6967SOL     OW32533   3.555   1.782  10.124 -0.3014 -0.3833 -0.3988
 6967SOL    HW132534   3.482   1.754  10.069  0.4145 -1.9288 -0.5896
 6967SOL    HW232535   3.629   1.738  10.081 -1.5584 -1.7365 -1.1733
 6968SOL     OW32536   4.165   3.015   6.559 -0.6731 -0.1767  0.3261
 6968SOL    HW132537   4.222   3.021   6.482  0.4688  2.0416  1.3379
 6968SOL    HW232538   4.076   3.026   6.526 -0.5553 -1.0205 -0.2736
 6969SOL     OW32539   1.602   3.013   5.848 -0.0749  0.2963 -0.0726
 6969SOL    HW132540   1.568   3.098   5.820 -0.0257 -0.1565 -1.5039
 6969SOL    HW232541   1.636   2.991   5.761 -1.1902  1.4814 -0.8119
 6970SOL     OW32542   1.998   4.413   1.836  0.2995 -0.0884 -0.3909
 6970SOL    HW132543   2.049   4.491   1.859 -1.2251  0.6941  0.3313
 6970SOL    HW232544   1.911   4.438   1.867  0.5580 -0.8290  0.9633
 6971SOL     OW32545   1.285   2.133   3.204  0.3593  0.0095  0.0886
 6971SOL    HW132546   1.365   2.186   3.202  0.9040 -1.0546 -4.7843
 6971SOL    HW232547   1.325   2.050   3.229  0.5831  0.7819  2.2894
 6972SOL     OW32548   0.156   4.048  10.822  0.1937  0.3482 -0.3995
 6972SOL    HW132549   0.140   3.986  10.751  3.6864  1.1306 -1.8611
 6972SOL    HW232550   0.091   4.111  10.793  0.4629  0.6459 -0.3641
 6973SOL     OW32551   4.190   0.317   5.394  0.3457 -0.0573 -0.3186
 6973SOL    HW132552   4.225   0.311   5.483 -0.3889  0.7636  0.0297
 6973SOL    HW232553   4.220   0.407   5.384  2.1649 -0.5893  0.3022
 6974SOL     OW32554   3.059   4.610   8.932  0.4352  0.3505 -0.1999
 6974SOL    HW132555   3.000   4.541   8.901 -0.3123  0.9539 -0.1008
 6974SOL    HW232556   3.139   4.559   8.918  0.1884 -0.0601 -0.1124
 6975SOL     OW32557   4.409   1.045   8.955 -0.6783  0.1855  0.3316
 6975SOL    HW132558   4.316   1.056   8.976 -0.0729  1.2869  2.3740
 6975SOL    HW232559   4.422   0.992   8.877 -1.4958  2.2934 -1.2459
 6976SOL     OW32560   0.631   3.809   7.863 -0.1060 -0.2644 -0.6989
 6976SOL    HW132561   0.627   3.766   7.778  1.7691 -3.8084  1.0170
 6976SOL    HW232562   0.722   3.838   7.866 -0.9142  2.0511  1.4515
 6977SOL     OW32563   0.217   3.384   9.372 -0.4397  0.4677 -0.1668
 6977SOL    HW132564   0.122   3.370   9.375 -0.2004 -1.3671 -1.1457
 6977SOL    HW232565   0.217   3.453   9.438  0.9317 -0.7475  1.1009
 6978SOL     OW32566   0.208   3.696   9.856  0.9518 -0.6766  0.8061
 6978SOL    HW132567   0.294   3.689   9.814  0.0236 -2.2652 -0.8375
 6978SOL    HW232568   0.246   3.671   9.940 -0.4074 -0.4791  1.4767
 6979SOL     OW32569   3.424   1.166   4.197 -0.4760 -0.2115 -0.2351
 6979SOL    HW132570   3.407   1.160   4.103  0.6863  0.3967 -0.4909
 6979SOL    HW232571   3.478   1.245   4.196  0.7824 -1.0906 -2.2531
 6980SOL     OW32572   0.750   3.589   9.673 -0.1389  0.1807 -0.5706
 6980SOL    HW132573   0.837   3.554   9.652  0.8264  1.0999  1.9198
 6980SOL    HW232574   0.772   3.671   9.628 -1.6610  1.9720  1.9860
 6981SOL     OW32575   0.203   4.164   6.891 -0.8303 -0.3131  0.2420
 6981SOL    HW132576   0.243   4.226   6.951  1.3008 -1.8952  0.4884
 6981SOL    HW232577   0.264   4.171   6.817  1.4199  0.6544  2.1966
 6982SOL     OW32578   1.748   3.882   4.681 -0.5442  0.1460 -0.1479
 6982SOL    HW132579   1.686   3.891   4.754 -0.8036  0.9883 -0.4795
 6982SOL    HW232580   1.767   3.971   4.652 -0.1971  0.4799  1.0914
 6983SOL     OW32581   1.898   1.276  17.556 -0.0942  0.2443 -0.0032
 6983SOL    HW132582   1.881   1.368  17.578  2.6773  1.1967 -1.7709
 6983SOL    HW232583   1.810   1.240  17.549  0.5381 -1.3465  0.2389
 6984SOL     OW32584   3.540   1.467   2.310 -0.9007 -0.1446  0.4899
 6984SOL    HW132585   3.587   1.465   2.393  2.5078 -3.1575 -1.4502
 6984SOL    HW232586   3.476   1.537   2.323  0.3472  1.2139 -0.6457
 6985SOL     OW32587   1.462   0.600   7.438  0.3958  0.3803 -0.3479
 6985SOL    HW132588   1.507   0.683   7.454  0.2711  0.6697 -1.4396
 6985SOL    HW232589   1.417   0.622   7.356  1.3975  0.1199 -0.9812
 6986SOL     OW32590   4.585   1.718   8.737  0.0275 -0.4295  0.1233
 6986SOL    HW132591   4.555   1.749   8.652 -0.8336 -0.6535  0.3431
 6986SOL    HW232592   4.645   1.648   8.709  1.4986  1.4235 -1.3255
 6987SOL     OW32593   1.656   0.864   2.497  0.1130 -0.0355  0.3703
 6987SOL    HW132594   1.607   0.908   2.566  1.0769  3.7846 -1.3622
 6987SOL    HW232595   1.607   0.883   2.417 -1.0022 -1.0520  0.8210
 6988SOL     OW32596   1.719   0.015   3.774 -0.1218  0.4223  0.2629
 6988SOL    HW132597   1.669   0.060   3.707  0.0619  1.1976  0.6493
 6988SOL    HW232598   1.658   4.685   3.801  0.3639  0.5220  1.6465
 6989SOL     OW32599   1.483   4.528   0.573  0.4265 -0.1781  0.7369
 6989SOL    HW132600   1.414   4.518   0.639  0.1629 -2.0098  0.1768
 6989SOL    HW232601   1.449   4.481   0.497  1.2217 -0.0524  0.2995
 6990SOL     OW32602   0.071   0.549  16.923  0.2744 -0.3118 -0.0448
 6990SOL    HW132603   0.068   0.471  16.867  1.5901  1.4126 -2.5153
 6990SOL    HW232604   0.163   0.545  16.949 -0.3124  0.2367  2.0915
 6991SOL     OW32605   3.550   3.187   2.649 -0.3423 -0.0820  0.5299
 6991SOL    HW132606   3.552   3.108   2.703 -0.9275 -1.3223 -1.2308
 6991SOL    HW232607   3.510   3.257   2.700 -0.5780 -1.0054  1.5983
 6992SOL     OW32608   4.370   2.574   5.191 -0.1242 -0.0468 -0.0940
 6992SOL    HW132609   4.420   2.603   5.115 -0.5218 -0.6924 -0.5986
 6992SOL    HW232610   4.378   2.646   5.253 -2.9481 -0.3266  0.6103
 6993SOL     OW32611   1.794   3.349   3.174  0.0655 -0.0272  0.4646
 6993SOL    HW132612   1.857   3.386   3.236 -0.5738  2.2887 -0.2612
 6993SOL    HW232613   1.843   3.363   3.093 -0.5074  0.2599  0.1617
 6994SOL     OW32614   3.951   0.636  11.721 -0.1144 -0.3169 -0.1168
 6994SOL    HW132615   4.044   0.649  11.740  0.1238  0.1803 -1.6693
 6994SOL    HW232616   3.914   0.624  11.809  0.8535 -0.3106  0.2865
 6995SOL     OW32617   1.871   3.591   3.852 -0.7108  0.1688  0.1527
 6995SOL    HW132618   1.842   3.566   3.940 -3.8961  2.0592 -0.3720
 6995SOL    HW232619   1.790   3.591   3.801 -1.3784 -1.4570  1.2049
 6996SOL     OW32620   1.399   4.492   6.120 -0.1449 -0.3482 -0.3097
 6996SOL    HW132621   1.370   4.434   6.191  2.0862 -2.0645 -0.7799
 6996SOL    HW232622   1.376   4.582   6.142  0.3294 -0.0897 -0.8894
 6997SOL     OW32623   3.376   0.571   1.000  0.6309  0.0971 -0.1829
 6997SOL    HW132624   3.360   0.479   0.977 -1.2081  0.0092  1.5425
 6997SOL    HW232625   3.467   0.567   0.969  0.6326  1.5223 -0.3246
 6998SOL     OW32626   1.426   1.535  15.877  0.0693 -0.2427  0.2334
 6998SOL    HW132627   1.371   1.472  15.830  0.9328 -1.8374  1.3542
 6998SOL    HW232628   1.367   1.561  15.948 -1.5435 -3.5350  0.0776
 6999SOL     OW32629   1.083   4.506  10.165 -0.1630  0.0550 -0.2560
 6999SOL    HW132630   1.166   4.458  10.156  2.1587  4.4755 -2.5127
 6999SOL    HW232631   1.021   4.433  10.163 -0.8892  0.6549  0.5166
 7000SOL     OW32632   3.763   3.640   9.013 -0.3086  0.5155  0.8821
 7000SOL    HW132633   3.742   3.547   9.025 -1.0834  0.5627 -0.1282
 7000SOL    HW232634   3.695   3.667   8.951  0.0621 -2.0448 -0.6552
 7001SOL     OW32635   2.874   4.427   7.761 -0.2642  0.1534 -0.0622
 7001SOL    HW132636   2.881   4.506   7.709 -0.1779  1.0643  1.3299
 7001SOL    HW232637   2.917   4.455   7.842 -2.0116 -0.1228  0.9706
 7002SOL     OW32638   4.549   2.483   9.515  0.7767 -0.2933 -0.2361
 7002SOL    HW132639   4.490   2.525   9.578  1.9908  2.3918 -0.9007
 7002SOL    HW232640   4.615   2.452   9.577 -0.5416 -2.1861  0.2220
 7003SOL     OW32641   2.823   1.502   6.921  0.1426 -0.3178 -0.5297
 7003SOL    HW132642   2.778   1.519   6.838 -1.0888 -1.4005 -0.0770
 7003SOL    HW232643   2.871   1.584   6.935  0.1598 -0.3655 -0.3163
 7004SOL     OW32644   3.949   3.979  10.467 -0.4087  0.1718 -0.5456
 7004SOL    HW132645   3.864   3.934  10.471 -0.4294  0.0662 -2.1595
 7004SOL    HW232646   3.942   4.034  10.545  0.2858 -2.0046  1.0713
 7005SOL     OW32647   0.973   1.610   4.103  0.4937  0.1481  0.8507
 7005SOL    HW132648   0.892   1.560   4.113 -0.2480  1.3116  0.7346
 7005SOL    HW232649   0.947   1.681   4.044 -3.6802 -1.9591  0.1901
 7006SOL     OW32650   2.192   3.147   9.524 -0.3629  0.3199 -0.1368
 7006SOL    HW132651   2.282   3.117   9.518  0.1240  1.4910  1.3242
 7006SOL    HW232652   2.189   3.220   9.585 -1.0033  0.2742 -0.1099
 7007SOL     OW32653   3.265   3.246   9.551  0.3836  0.1765  0.2258
 7007SOL    HW132654   3.251   3.154   9.531  1.1234 -0.0492  0.7373
 7007SOL    HW232655   3.213   3.256   9.631 -0.2459  2.7200 -0.4912
 7008SOL     OW32656   4.136   2.155   4.378  0.2235 -0.2328  0.0565
 7008SOL    HW132657   4.147   2.234   4.431  0.5693  0.2089 -0.6716
 7008SOL    HW232658   4.074   2.109   4.434  0.3178  0.2117  0.5319
 7009SOL     OW32659   1.229   1.646   1.136  0.0319 -0.1869  0.5907
 7009SOL    HW132660   1.267   1.733   1.146 -0.5576  0.3161 -1.4397
 7009SOL    HW232661   1.228   1.640   1.040  0.3139 -0.4137  0.6034
 7010SOL     OW32662   1.002   1.320   3.550  0.1523  0.5138  0.0558
 7010SOL    HW132663   1.065   1.253   3.577  0.1191  0.4336 -0.0639
 7010SOL    HW232664   1.058   1.395   3.531 -1.2519  1.5727  0.0841
 7011SOL     OW32665   0.536   3.475   5.343  0.1721  0.6469 -0.0418
 7011SOL    HW132666   0.586   3.546   5.382 -0.8282  0.5555  1.4480
 7011SOL    HW232667   0.600   3.433   5.286 -1.0105  2.7218 -2.8663
 7012SOL     OW32668   1.671   2.214   6.642  0.5197  0.0109  0.1812
 7012SOL    HW132669   1.743   2.244   6.698  1.5996 -1.7675 -0.2526
 7012SOL    HW232670   1.722   2.188   6.566 -0.5418 -0.0772 -0.5070
 7013SOL     OW32671   1.273   0.954   8.337  0.2490 -0.3555 -0.4508
 7013SOL    HW132672   1.353   0.993   8.373  0.2921 -0.8955  0.0340
 7013SOL    HW232673   1.233   0.949   8.424  0.2455 -0.2799 -0.4482
 7014SOL     OW32674   1.104   1.410   8.965  0.0286  0.0892  0.1650
 7014SOL    HW132675   1.153   1.443   9.041 -1.3886  1.3027  0.5694
 7014SOL    HW232676   1.119   1.477   8.899 -2.3907 -0.1953 -0.6916
 7015SOL     OW32677   0.697   1.632   4.238  0.4867 -0.2427 -0.2291
 7015SOL    HW132678   0.670   1.542   4.220  0.5079 -0.4810  0.9147
 7015SOL    HW232679   0.705   1.634   4.334  0.4517  0.0379 -0.2302
 7016SOL     OW32680   3.466   4.305   9.006  0.0082  0.3689 -0.0243
 7016SOL    HW132681   3.440   4.283   9.095  0.1187 -1.6981 -0.4957
 7016SOL    HW232682   3.439   4.229   8.954  0.8763  0.8970 -1.2424
 7017SOL     OW32683   3.980   1.337  13.897  0.6807  0.2858 -0.2817
 7017SOL    HW132684   3.891   1.303  13.906  0.3853  0.7465 -1.4030
 7017SOL    HW232685   4.019   1.298  13.819  4.4357  2.9006  0.3114
 7018SOL     OW32686   0.778   2.317   2.458  0.0827 -0.6179 -0.0830
 7018SOL    HW132687   0.705   2.266   2.493  0.1063  0.0268  0.9128
 7018SOL    HW232688   0.739   2.344   2.375  0.9487  0.1862 -0.2293
 7019SOL     OW32689   4.734   3.464   9.923 -0.5002 -0.4091  0.4021
 7019SOL    HW132690   0.035   3.378   9.907 -0.8948 -0.7104  1.0594
 7019SOL    HW232691   0.074   3.518   9.921 -0.9236  0.2011  0.3447
 7020SOL     OW32692   0.900   1.542   5.375  0.3171  0.1399  0.2351
 7020SOL    HW132693   0.876   1.485   5.448 -1.6789 -0.4162 -0.8861
 7020SOL    HW232694   0.817   1.571   5.339  0.9081  2.1210  0.4511
 7021SOL     OW32695   4.545   3.915   3.357 -0.3504  0.3576  0.8742
 7021SOL    HW132696   4.631   3.929   3.318 -1.1553 -0.7272 -1.2661
 7021SOL    HW232697   4.524   3.824   3.335  1.7123  0.2591 -0.6465
 7022SOL     OW32698   2.386   1.308  11.477 -0.1954 -0.1749  0.0175
 7022SOL    HW132699   2.322   1.371  11.443  0.2209  0.2813  0.0883
 7022SOL    HW232700   2.437   1.307  11.396 -1.3228  0.0083 -0.7103
 7023SOL     OW32701   3.958   2.051   6.451 -0.6541  0.0310 -0.0481
 7023SOL    HW132702   3.940   2.000   6.530 -0.3527  1.1089  0.7239
 7023SOL    HW232703   4.033   2.000   6.420 -0.7087 -0.4832  0.6618
 7024SOL     OW32704   0.376   3.342   4.860  0.1493  0.0484 -0.5511
 7024SOL    HW132705   0.372   3.251   4.889 -0.4392 -0.1927 -1.3686
 7024SOL    HW232706   0.344   3.384   4.939  1.2830 -1.4335  0.6883
 7025SOL     OW32707   4.106   3.762   4.086  0.2325  0.2645 -0.0358
 7025SOL    HW132708   4.116   3.683   4.139 -2.9666 -0.7422 -0.9534
 7025SOL    HW232709   4.026   3.800   4.121  0.1174 -0.8373  0.8975
 7026SOL     OW32710   1.148   0.807   0.698 -0.0749 -0.4808 -0.4990
 7026SOL    HW132711   1.114   0.896   0.689  0.7102 -0.2087 -0.7746
 7026SOL    HW232712   1.239   0.817   0.668  0.3977  0.5756  1.2974
 7027SOL     OW32713   2.666   1.487  12.422 -0.3853  0.0663  0.3292
 7027SOL    HW132714   2.664   1.487  12.517 -2.6650  1.6848  0.2886
 7027SOL    HW232715   2.731   1.556  12.407  0.0671  0.4797  4.4147
 7028SOL     OW32716   3.651   3.565  11.503 -0.0059  0.2130  0.0437
 7028SOL    HW132717   3.620   3.592  11.590  0.3724  3.5054 -0.8246
 7028SOL    HW232718   3.737   3.607  11.494 -0.9390  2.1925  0.3650
 7029SOL     OW32719   2.528   2.655   2.660 -0.1003  0.2375  0.6368
 7029SOL    HW132720   2.452   2.616   2.703 -0.6655 -0.1516 -0.7263
 7029SOL    HW232721   2.514   2.636   2.567 -0.8938 -0.0208  0.8042
 7030SOL     OW32722   3.128   2.174   8.439 -0.1641  0.3391 -0.2466
 7030SOL    HW132723   3.112   2.091   8.395 -0.5407 -1.2640  2.8862
 7030SOL    HW232724   3.173   2.211   8.363 -0.3335 -0.1391 -0.5806
 7031SOL     OW32725   1.121   2.960   3.593  0.0726  0.1312  0.4153
 7031SOL    HW132726   1.066   3.030   3.630 -0.8294 -0.6950  0.6415
 7031SOL    HW232727   1.209   2.995   3.606 -0.2393  0.7857  0.7993
 7032SOL     OW32728   2.832   2.953   6.765  0.2144 -0.1569  0.4118
 7032SOL    HW132729   2.777   2.902   6.825 -3.3642  1.5947 -1.4164
 7032SOL    HW232730   2.919   2.915   6.781 -0.2650 -1.7207 -0.8350
 7033SOL     OW32731   0.792   0.344   2.759  1.2743  0.1947  0.0261
 7033SOL    HW132732   0.826   0.304   2.679 -2.5928  2.5589 -2.8338
 7033SOL    HW232733   0.874   0.367   2.802  1.5855 -0.0657 -0.4329
 7034SOL     OW32734   1.833   3.661   5.888  0.5582 -0.4879 -0.0159
 7034SOL    HW132735   1.843   3.623   5.801  0.0898  1.8339 -1.1022
 7034SOL    HW232736   1.827   3.754   5.864 -1.1516 -0.8079 -0.7787
 7035SOL     OW32737   3.990   3.426   0.644 -0.2650  0.1908  0.2393
 7035SOL    HW132738   3.979   3.386   0.558  0.2639  1.5964 -0.4869
 7035SOL    HW232739   3.921   3.491   0.630 -0.1422  0.0450 -1.0201
 7036SOL     OW32740   2.822   0.985   4.291  0.2748  0.4614 -0.0956
 7036SOL    HW132741   2.917   0.998   4.290  0.1693  1.1598 -1.2014
 7036SOL    HW232742   2.814   0.900   4.248  0.7074  0.0930  0.5609
 7037SOL     OW32743   3.874   4.296  15.631  0.2478 -0.0652  0.1447
 7037SOL    HW132744   3.885   4.332  15.719 -0.9544 -0.3737  0.4202
 7037SOL    HW232745   3.796   4.241  15.641 -1.1334  2.2428  2.0821
 7038SOL     OW32746   4.675   0.371   5.632  0.1884  0.3891  0.1332
 7038SOL    HW132747   4.616   0.347   5.561  2.2170 -1.3005 -1.0022
 7038SOL    HW232748   4.610   0.390   5.700 -0.0867  0.0571 -0.0355
 7039SOL     OW32749   4.628   3.890   0.377 -0.1835 -0.3799 -0.1293
 7039SOL    HW132750   4.710   3.847   0.352 -0.9215 -0.2271 -2.8186
 7039SOL    HW232751   4.610   3.849   0.462  1.1374 -1.3415 -0.3164
 7040SOL     OW32752   2.182   2.864  12.697  0.1659  0.0451 -0.4819
 7040SOL    HW132753   2.241   2.806  12.649  1.8388  2.5470 -1.4625
 7040SOL    HW232754   2.214   2.847  12.785 -0.4516 -0.5608 -0.3748
 7041SOL     OW32755   4.463   3.994  15.290 -0.3392 -0.0072  0.1745
 7041SOL    HW132756   4.408   4.012  15.213  0.0857  3.7188  0.7338
 7041SOL    HW232757   4.545   3.970  15.246 -1.3775  0.7771 -2.2098
 7042SOL     OW32758   0.894   0.443   9.545 -0.3135  0.5204  0.2454
 7042SOL    HW132759   0.943   0.439   9.464 -0.9654 -1.7613 -0.0276
 7042SOL    HW232760   0.954   0.414   9.614  1.4804 -0.5886 -1.7863
 7043SOL     OW32761   4.392   0.978   4.922 -0.3141 -0.2343 -0.1202
 7043SOL    HW132762   4.392   1.044   4.852  0.8855  1.7737  1.7708
 7043SOL    HW232763   4.369   0.900   4.872  0.1190 -0.5778  0.2242
 7044SOL     OW32764   0.887   3.009   5.746 -0.5002 -0.1609  0.2339
 7044SOL    HW132765   0.834   2.934   5.718 -1.6562  1.4835 -1.9301
 7044SOL    HW232766   0.858   3.032   5.835 -0.7052 -0.6248  0.2844
 7045SOL     OW32767   0.859   2.668  13.075 -0.4549  0.2986  0.1792
 7045SOL    HW132768   0.928   2.680  13.010 -0.7432 -1.3387 -0.4071
 7045SOL    HW232769   0.803   2.601  13.036 -0.9884  2.8933 -3.4937
 7046SOL     OW32770   0.684   3.692   7.228  0.0936 -0.5248 -0.0805
 7046SOL    HW132771   0.728   3.777   7.221  0.6804 -0.7129  1.2723
 7046SOL    HW232772   0.607   3.718   7.278  0.4163  1.7373 -0.7357
 7047SOL     OW32773   1.408   3.552   3.891 -0.1480 -0.5660 -0.9632
 7047SOL    HW132774   1.429   3.497   3.967 -0.0050  2.0876  0.9001
 7047SOL    HW232775   1.358   3.611   3.947 -0.9707 -0.6873 -1.5808
 7048SOL     OW32776   2.553   2.715   3.819  0.6323 -0.1729  0.1334
 7048SOL    HW132777   2.545   2.785   3.884 -1.0639 -1.1265  0.9394
 7048SOL    HW232778   2.587   2.653   3.883 -2.4715 -0.6740  1.2956
 7049SOL     OW32779   1.467   0.989   8.671 -0.0901  0.4161 -0.1376
 7049SOL    HW132780   1.501   1.024   8.589 -1.0448  1.8515  0.0718
 7049SOL    HW232781   1.509   1.047   8.734  1.0820 -0.5973  0.0134
 7050SOL     OW32782   0.399   1.596   3.346 -0.2748 -0.1114  0.0755
 7050SOL    HW132783   0.488   1.617   3.320 -0.5053  1.1798  0.3138
 7050SOL    HW232784   0.388   1.511   3.303  1.4710  0.9959 -2.4939
 7051SOL     OW32785   4.314   1.361   6.895 -0.1040 -0.4386 -0.0038
 7051SOL    HW132786   4.302   1.335   6.803  0.7044  1.2536 -0.6073
 7051SOL    HW232787   4.294   1.454   6.885 -0.2075 -0.4366  0.2270
 7052SOL     OW32788   1.798   0.526   3.328  0.1099  0.7242  0.8250
 7052SOL    HW132789   1.745   0.509   3.406 -1.9307  1.3765 -0.4421
 7052SOL    HW232790   1.881   0.479   3.333 -0.3381 -0.0734  0.6708
 7053SOL     OW32791   3.486   4.511   2.554  0.2143  0.2919  0.4306
 7053SOL    HW132792   3.401   4.471   2.535  0.4010 -0.5488  1.3329
 7053SOL    HW232793   3.448   4.597   2.534  1.3467  0.3196 -1.5882
 7054SOL     OW32794   1.635   2.542   9.321 -0.1975 -0.3656  0.0113
 7054SOL    HW132795   1.656   2.630   9.292 -1.7175 -0.5576 -1.6578
 7054SOL    HW232796   1.713   2.497   9.289  1.5929  2.8232 -0.0409
 7055SOL     OW32797   0.279   1.477  14.582  0.3812 -0.2864 -0.2887
 7055SOL    HW132798   0.319   1.395  14.610 -0.7614 -1.1487 -1.1868
 7055SOL    HW232799   0.208   1.478  14.646 -0.1662  1.4950 -0.9132
 7056SOL     OW32800   3.054   3.447   2.180 -0.3828 -0.0356  0.6691
 7056SOL    HW132801   3.147   3.451   2.201  0.0164  0.8155 -1.2260
 7056SOL    HW232802   3.055   3.409   2.092  0.3477  0.5633  0.4211
 7057SOL     OW32803   4.235   1.521   2.855  0.7004 -0.7483 -0.1757
 7057SOL    HW132804   4.284   1.447   2.889  0.8112 -1.0987 -1.0949
 7057SOL    HW232805   4.153   1.476   2.836  0.1334  0.5563 -0.8076
 7058SOL     OW32806   4.072   0.634   0.217 -0.9380  0.0994 -0.5751
 7058SOL    HW132807   4.148   0.576   0.223 -0.7387  0.3208 -0.9244
 7058SOL    HW232808   4.093   0.690   0.143  0.1136  1.0163  0.4347
 7059SOL     OW32809   1.075   2.626   9.715  0.3813  0.2094 -0.0773
 7059SOL    HW132810   1.124   2.707   9.700  1.5315 -0.2165  1.3808
 7059SOL    HW232811   1.014   2.650   9.785 -0.9670 -0.1921 -1.0951
 7060SOL     OW32812   3.132   3.958  10.016  0.0049  0.2426 -0.6325
 7060SOL    HW132813   3.048   4.003  10.006 -1.0298 -1.4896  0.2612
 7060SOL    HW232814   3.113   3.900  10.089  0.1368  2.2105  0.9719
 7061SOL     OW32815   0.466   1.548   8.859  0.0688  0.2255  0.2583
 7061SOL    HW132816   0.538   1.491   8.884  0.1055 -0.2664 -0.9791
 7061SOL    HW232817   0.518   1.628   8.863  3.7256 -2.0702 -2.0233
 7062SOL     OW32818   1.211   0.356   4.144 -0.1539  0.6691  0.0261
 7062SOL    HW132819   1.119   0.368   4.165 -0.6740 -1.7874 -0.8863
 7062SOL    HW232820   1.190   0.278   4.094  1.0168  1.6326 -1.9804
 7063SOL     OW32821   0.260   3.846   1.291 -0.7553  0.3993  0.2425
 7063SOL    HW132822   0.314   3.825   1.367 -0.6282  0.4823  0.1755
 7063SOL    HW232823   0.200   3.772   1.298  1.6127 -1.6582 -1.1350
 7064SOL     OW32824   4.147   0.193   0.094  0.0420 -0.2203 -0.1541
 7064SOL    HW132825   4.165   0.165   0.004 -0.3024  1.9962 -0.9184
 7064SOL    HW232826   4.052   0.197   0.096 -0.0462 -1.2294 -1.9234
 7065SOL     OW32827   1.367   1.559   0.608 -0.0956 -0.0990 -0.4767
 7065SOL    HW132828   1.390   1.603   0.526 -0.4043 -0.2535 -0.6474
 7065SOL    HW232829   1.416   1.616   0.667 -0.1167 -1.0682  0.4687
 7066SOL     OW32830   0.837   2.834  11.870  0.8796 -0.2390  0.4173
 7066SOL    HW132831   0.832   2.899  11.800 -0.0026 -2.2963 -1.4441
 7066SOL    HW232832   0.839   2.757  11.813 -1.5645  0.0074 -0.0109
 7067SOL     OW32833   0.473   2.358   1.629 -0.8590  0.3086 -0.2608
 7067SOL    HW132834   0.543   2.423   1.630 -0.9130  0.3205  1.9378
 7067SOL    HW232835   0.488   2.323   1.717 -0.5087 -0.4138 -0.6036
 7068SOL     OW32836   3.708   4.307   3.292  0.3308  0.1481 -0.0518
 7068SOL    HW132837   3.653   4.324   3.368  1.2861 -0.4350  0.7783
 7068SOL    HW232838   3.767   4.237   3.322  1.0505 -0.2056 -2.2741
 7069SOL     OW32839   1.540   2.469   2.254 -0.4115 -0.3415 -0.5704
 7069SOL    HW132840   1.597   2.394   2.266 -0.4889 -0.0817  1.4374
 7069SOL    HW232841   1.601   2.543   2.256  0.6829 -1.1676 -3.5407
 7070SOL     OW32842   3.774   1.286   5.496 -0.0458  0.4060  0.5571
 7070SOL    HW132843   3.726   1.205   5.480  0.8826 -0.0758  0.2540
 7070SOL    HW232844   3.847   1.252   5.548 -0.2567 -0.2313  0.4393
 7071SOL     OW32845   1.554   2.907   3.537 -0.1505  0.7699 -0.3512
 7071SOL    HW132846   1.581   2.998   3.531 -0.7421  0.8921 -1.2569
 7071SOL    HW232847   1.477   2.918   3.592  0.6673 -2.2248  1.3811
 7072SOL     OW32848   0.572   1.852   0.140 -0.3688 -0.4419 -0.4639
 7072SOL    HW132849   0.630   1.919   0.106  0.1060  0.3110  1.8213
 7072SOL    HW232850   0.525   1.819   0.064  1.8844 -2.1490 -1.1426
 7073SOL     OW32851   4.299   1.310   4.885  0.0352  0.1533 -0.0132
 7073SOL    HW132852   4.374   1.299   4.827 -0.2612 -1.7287 -0.0548
 7073SOL    HW232853   4.301   1.404   4.903  1.1718  0.0236  0.5531
 7074SOL     OW32854   1.044   3.355   6.747  0.1984 -0.1952  0.1610
 7074SOL    HW132855   0.977   3.350   6.679 -0.1217 -1.4536  0.5632
 7074SOL    HW232856   0.983   3.338   6.819 -3.0731  2.2133 -2.0512
 7075SOL     OW32857   1.854   4.151  17.299 -0.8997 -0.3603 -0.1565
 7075SOL    HW132858   1.932   4.203  17.282 -0.4070 -0.8803  0.5028
 7075SOL    HW232859   1.775   4.191  17.263  0.0125 -0.0111 -1.7664
 7076SOL     OW32860   1.584   3.652   9.690  0.1138 -0.0523  0.0745
 7076SOL    HW132861   1.540   3.624   9.770 -1.4724 -0.9615 -1.1235
 7076SOL    HW232862   1.549   3.736   9.663  0.4070  0.6616  1.9251
 7077SOL     OW32863   4.113   0.705   1.090  0.0826  0.6494 -0.1186
 7077SOL    HW132864   4.141   0.738   1.005 -0.9803  1.3272 -0.2009
 7077SOL    HW232865   4.088   0.614   1.071  1.7810  0.4532 -1.3860
 7078SOL     OW32866   3.869   1.940   5.609 -0.1036  0.2584 -0.4322
 7078SOL    HW132867   3.942   1.928   5.670 -1.8740 -3.1985  0.9970
 7078SOL    HW232868   3.911   1.884   5.544 -0.3045 -3.6053  2.7610
 7079SOL     OW32869   0.420   3.694  15.434 -0.2369  0.7098  0.2230
 7079SOL    HW132870   0.488   3.666  15.372 -2.6097 -1.7940 -1.2893
 7079SOL    HW232871   0.427   3.788  15.419  0.7153  0.9252  2.1536
 7080SOL     OW32872   2.168   2.859   8.164  0.3744 -0.1106  0.4594
 7080SOL    HW132873   2.074   2.842   8.171  0.2317 -0.8195 -3.4684
 7080SOL    HW232874   2.206   2.775   8.138 -0.3214 -0.8440  1.8458
 7081SOL     OW32875   2.226   3.325   6.878 -0.5925 -0.2832  0.4729
 7081SOL    HW132876   2.314   3.309   6.912  1.1895  2.0239 -2.9885
 7081SOL    HW232877   2.247   3.398   6.819  2.1393 -0.8577  0.7667
 7082SOL     OW32878   2.097   4.293   5.946  0.1963 -0.5713 -0.1930
 7082SOL    HW132879   2.065   4.367   5.895  0.0585  1.1821  2.4543
 7082SOL    HW232880   2.037   4.283   6.020  0.2191  1.9430  0.1664
 7083SOL     OW32881   3.537   0.591   4.617  0.5287  0.3298  0.1851
 7083SOL    HW132882   3.541   0.567   4.709  1.3116 -3.5638 -0.8601
 7083SOL    HW232883   3.471   0.537   4.574  0.6014  0.0079  0.4841
 7084SOL     OW32884   1.122   4.044   4.612 -0.3999  0.2263  0.2567
 7084SOL    HW132885   1.066   3.974   4.645  0.5327 -1.0762 -0.8837
 7084SOL    HW232886   1.076   4.121   4.646 -0.4455  0.2929  0.0451
 7085SOL     OW32887   0.914   2.769   9.955  0.0977  1.1094  0.7537
 7085SOL    HW132888   0.882   2.831   9.889  2.8636  0.1353 -1.4763
 7085SOL    HW232889   0.857   2.785  10.030  0.1284  0.9838  0.8025
 7086SOL     OW32890   4.132   1.420   8.686 -0.1207  0.2010  1.0869
 7086SOL    HW132891   4.160   1.328   8.682  1.6157  0.7367  1.1936
 7086SOL    HW232892   4.205   1.458   8.734  0.7070  2.1412 -1.7114
 7087SOL     OW32893   1.854   3.782   3.294  0.2919  0.1083  0.5071
 7087SOL    HW132894   1.868   3.877   3.294  2.3825 -0.2188 -1.8537
 7087SOL    HW232895   1.893   3.740   3.371  1.6046 -0.1613 -0.3067
 7088SOL     OW32896   3.063   2.401   5.114  0.1343  0.2586  0.2493
 7088SOL    HW132897   3.064   2.331   5.180  0.2196  0.5188  0.5267
 7088SOL    HW232898   3.127   2.457   5.158  1.0600 -0.0435 -0.7310
 7089SOL     OW32899   2.567   3.950   1.837 -0.4690 -0.2178 -0.3301
 7089SOL    HW132900   2.526   3.892   1.774 -2.0206 -0.8093  1.2222
 7089SOL    HW232901   2.497   4.016   1.843  0.2515  0.5878 -0.7573
 7090SOL     OW32902   1.328   0.531   2.114 -0.1895 -0.0249  0.2843
 7090SOL    HW132903   1.399   0.472   2.087  0.0104 -0.0238  0.8154
 7090SOL    HW232904   1.268   0.463   2.142  0.7267 -0.7825  0.4131
 7091SOL     OW32905   2.638   0.933   8.817  0.3464 -0.3154 -0.1679
 7091SOL    HW132906   2.601   1.008   8.771  0.0608 -0.3443  0.0132
 7091SOL    HW232907   2.704   0.899   8.757  1.4414  0.3598  0.6636
 7092SOL     OW32908   4.557   1.479  12.227 -0.1479 -0.6769 -0.3173
 7092SOL    HW132909   4.579   1.572  12.240  0.0921 -0.7589 -0.1204
 7092SOL    HW232910   4.645   1.441  12.227  0.9517  1.8643  0.4738
 7093SOL     OW32911   2.854   1.869   8.348 -0.0676  0.4993  0.1324
 7093SOL    HW132912   2.935   1.917   8.333  0.7445 -0.3142  1.8830
 7093SOL    HW232913   2.834   1.829   8.263  1.5266  1.0709 -0.5166
 7094SOL     OW32914   1.104   0.543   5.974  0.2634  0.4304  0.0235
 7094SOL    HW132915   1.169   0.570   6.039 -0.0857 -0.4700  0.7447
 7094SOL    HW232916   1.078   0.629   5.940 -2.4131 -0.6925 -0.7565
 7095SOL     OW32917   0.986   1.781   2.348 -0.4098  0.3077 -0.0121
 7095SOL    HW132918   1.066   1.755   2.394 -2.7885 -4.1870  1.5706
 7095SOL    HW232919   1.001   1.875   2.357  0.7870  0.2376 -1.2785
 7096SOL     OW32920   2.229   1.541   3.558 -0.1012  0.1509 -0.3869
 7096SOL    HW132921   2.316   1.581   3.567 -0.9740  2.1763 -0.9313
 7096SOL    HW232922   2.166   1.613   3.560  2.0063  2.0085 -0.2399
 7097SOL     OW32923   0.622   2.467   2.837 -0.1803 -0.2460  0.3154
 7097SOL    HW132924   0.702   2.432   2.875  0.6565  0.0071 -1.2189
 7097SOL    HW232925   0.555   2.402   2.856 -0.2381 -0.0100  0.9256
 7098SOL     OW32926   4.285   1.070   4.198  0.7024 -0.3070  0.0065
 7098SOL    HW132927   4.289   1.062   4.103  0.6826  0.2012 -0.0359
 7098SOL    HW232928   4.239   1.153   4.200  1.2989  0.0873 -2.7770
 7099SOL     OW32929   2.927   3.863   1.860  0.0480 -0.5893  0.3995
 7099SOL    HW132930   3.019   3.847   1.878  0.1458  0.0828  0.4860
 7099SOL    HW232931   2.926   3.856   1.765 -2.4206  1.3168  0.2712
 7100SOL     OW32932   4.255   1.221  12.407 -0.3319 -0.2012 -0.1045
 7100SOL    HW132933   4.301   1.303  12.423  0.1413 -0.6067  0.6427
 7100SOL    HW232934   4.328   1.171  12.371  0.3816  1.2921 -0.7193
 7101SOL     OW32935   4.333   1.784   3.766  0.0302  0.4600 -0.0871
 7101SOL    HW132936   4.318   1.702   3.719  1.3131 -0.1772  0.6189
 7101SOL    HW232937   4.417   1.773   3.810 -0.6224 -1.3646  0.6591
 7102SOL     OW32938   2.856   2.652   7.514  0.3720  0.2047  0.6287
 7102SOL    HW132939   2.947   2.655   7.486  0.3297 -0.5832  0.4150
 7102SOL    HW232940   2.809   2.694   7.442 -0.1687 -2.5094 -0.5906
 7103SOL     OW32941   0.403   3.779   1.829  0.0073 -0.2564  0.0286
 7103SOL    HW132942   0.389   3.851   1.891 -1.1723  0.8247 -1.4910
 7103SOL    HW232943   0.491   3.810   1.808  0.0625 -0.4550 -0.0276
 7104SOL     OW32944   2.300   4.176   6.148 -0.3338 -0.1172  0.1049
 7104SOL    HW132945   2.258   4.186   6.062 -1.8197 -1.0713  0.7247
 7104SOL    HW232946   2.387   4.140   6.132  0.9712  3.3486 -0.4837
 7105SOL     OW32947   2.994   0.236   1.280 -0.2535  0.7642  0.1300
 7105SOL    HW132948   3.006   0.321   1.322  0.8045  0.5661  0.2519
 7105SOL    HW232949   2.962   0.175   1.347 -0.7930 -0.9012 -1.6339
 7106SOL     OW32950   2.951   4.692   6.952  0.2980  0.4334 -0.1801
 7106SOL    HW132951   2.953   4.655   6.864  3.6798 -1.1899  0.5810
 7106SOL    HW232952   2.867   4.738   6.955  0.4222  0.4661  2.5206
 7107SOL     OW32953   1.498   2.810   1.076 -0.6978  0.7022 -0.3495
 7107SOL    HW132954   1.423   2.760   1.044 -1.8924  1.0346  1.9793
 7107SOL    HW232955   1.463   2.898   1.063 -2.1427  0.5491  2.6044
 7108SOL     OW32956   2.714   0.303   1.153  0.0435 -0.6195  0.0258
 7108SOL    HW132957   2.807   0.293   1.170 -0.0148 -0.7302  0.2860
 7108SOL    HW232958   2.708   0.394   1.123 -0.2495 -1.2567 -1.8469
 7109SOL     OW32959   0.743   4.002  17.734  0.5642 -0.5453  0.6828
 7109SOL    HW132960   0.764   3.978  17.644 -2.9219  1.2904 -0.5861
 7109SOL    HW232961   0.650   4.022  17.729  0.9487  1.0633 -0.0487
 7110SOL     OW32962   1.112   4.042   6.750 -0.2669  0.2414  0.6532
 7110SOL    HW132963   1.023   4.047   6.714  0.4715  0.8335 -1.0842
 7110SOL    HW232964   1.131   4.133   6.771 -3.5592  1.0423  0.1857
 7111SOL     OW32965   3.762   1.903   5.182  0.2238  0.7351  0.6222
 7111SOL    HW132966   3.666   1.903   5.182  0.2289 -3.2670 -1.8122
 7111SOL    HW232967   3.777   1.997   5.196  0.0581  0.9189 -0.4052
 7112SOL     OW32968   1.020   3.945   7.332  0.4803 -0.5164  0.0295
 7112SOL    HW132969   0.947   3.967   7.274  0.5743 -0.2542  0.0118
 7112SOL    HW232970   1.058   3.876   7.279  0.1340  0.9347 -2.1015
 7113SOL     OW32971   4.585   3.381   5.736 -0.6847 -0.7328  0.1810
 7113SOL    HW132972   4.507   3.368   5.789 -1.7572 -0.2711 -1.3146
 7113SOL    HW232973   4.586   3.297   5.690 -3.2575 -1.0850  0.7932
 7114SOL     OW32974   3.442   0.855   6.729  0.2169  0.2005 -0.4600
 7114SOL    HW132975   3.413   0.765   6.715 -1.2816  0.2964  2.0296
 7114SOL    HW232976   3.530   0.849   6.767  0.8409  0.4356 -1.8570
 7115SOL     OW32977   2.178   1.218   5.894 -0.4650  0.5460  0.0748
 7115SOL    HW132978   2.107   1.248   5.838 -1.2107  0.7586  1.1247
 7115SOL    HW232979   2.149   1.126   5.893  3.2386 -0.6378  0.6057
 7116SOL     OW32980   4.442   1.220   5.939 -0.0759 -0.1499  0.6665
 7116SOL    HW132981   4.453   1.244   6.031  1.0678  0.6349  0.3071
 7116SOL    HW232982   4.469   1.128   5.937  1.8903  0.4839 -0.5903
 7117SOL     OW32983   3.952   1.058   1.092 -0.2043 -0.3448  0.6729
 7117SOL    HW132984   3.898   1.111   1.151  0.9098 -1.1555  2.4225
 7117SOL    HW232985   3.888   0.992   1.064 -0.0362  0.0923 -0.7608
 7118SOL     OW32986   1.890   0.687   4.604  0.3278  0.0228  0.0469
 7118SOL    HW132987   1.983   0.684   4.626 -0.6263  0.8141  4.1459
 7118SOL    HW232988   1.861   0.760   4.658  0.9715 -0.7372  1.4339
 7119SOL     OW32989   1.062   2.930  11.576  0.2058 -0.4846  0.2138
 7119SOL    HW132990   0.987   2.975  11.615  0.4684  0.9608 -0.9263
 7119SOL    HW232991   1.027   2.933  11.487 -0.7221 -1.1285  0.5556
 7120SOL     OW32992   3.099   4.589   4.394  0.2734 -0.2631  0.3666
 7120SOL    HW132993   3.120   4.496   4.394  1.2015 -0.0721  2.0144
 7120SOL    HW232994   3.103   4.617   4.303  1.4904 -0.0666  0.4807
 7121SOL     OW32995   1.675   3.561   7.886  0.2027 -0.6506 -0.1053
 7121SOL    HW132996   1.678   3.598   7.974  1.7826 -2.5430  0.6238
 7121SOL    HW232997   1.646   3.472   7.907 -3.1453  0.1394 -1.3321
 7122SOL     OW32998   2.876   2.263   0.444  0.3810  0.4191  0.1659
 7122SOL    HW132999   2.971   2.276   0.441  0.3736  0.4965  0.2633
 7122SOL    HW233000   2.863   2.280   0.537 -1.9840  0.5360 -0.1942
 7123SOL     OW33001   0.823   1.763   7.781  0.0841  0.3593  0.5984
 7123SOL    HW133002   0.728   1.748   7.784  0.0848 -0.1413 -1.5674
 7123SOL    HW233003   0.847   1.702   7.850  0.8251  1.3667  1.2236
 7124SOL     OW33004   4.279   1.921   1.130  0.2518  0.3745  0.0137
 7124SOL    HW133005   4.372   1.898   1.133 -0.2917 -1.6382  1.0958
 7124SOL    HW233006   4.244   1.834   1.146  2.7603 -0.6372 -0.0086
 7125SOL     OW33007   4.378   0.636   2.833  0.2827 -0.6562 -0.3581
 7125SOL    HW133008   4.366   0.543   2.816 -0.2235 -0.9423  1.6312
 7125SOL    HW233009   4.331   0.653   2.915  2.1969 -1.4812  0.8992
 7126SOL     OW33010   3.762   0.299   0.485 -0.0545 -0.1979  0.4835
 7126SOL    HW133011   3.784   0.211   0.455  0.3934  0.5284 -1.2849
 7126SOL    HW233012   3.846   0.342   0.468  0.5738 -2.1903 -1.3185
 7127SOL     OW33013   3.328   0.128   7.158  0.1574 -0.3103  0.5094
 7127SOL    HW133014   3.336   0.142   7.252 -0.3285 -1.0284  0.6573
 7127SOL    HW233015   3.413   0.153   7.124 -0.0977 -0.9168 -0.5750
 7128SOL     OW33016   4.139   3.233  14.429 -0.2661 -0.2608  0.6270
 7128SOL    HW133017   4.072   3.185  14.380  0.2569 -2.4345  2.0411
 7128SOL    HW233018   4.094   3.236  14.514 -0.0615 -0.5315  0.7436
 7129SOL     OW33019   3.695   2.490   8.031  0.6849  0.5958  0.2509
 7129SOL    HW133020   3.789   2.506   8.025  0.6195  0.2919 -1.4963
 7129SOL    HW233021   3.662   2.568   7.986 -0.6139 -0.8024 -1.1920
 7130SOL     OW33022   1.634   1.034   6.718 -0.0086 -0.0897  0.1581
 7130SOL    HW133023   1.587   0.950   6.711 -1.1386  0.4858  0.8066
 7130SOL    HW233024   1.614   1.077   6.635  1.5089 -0.2847 -0.2914
 7131SOL     OW33025   1.745   3.580   4.593  0.1452 -0.3128  0.6842
 7131SOL    HW133026   1.704   3.666   4.589 -0.3886 -0.4841  2.1816
 7131SOL    HW233027   1.733   3.561   4.687  0.9594  1.7655  1.1952
 7132SOL     OW33028   0.909   1.543   6.396 -0.2536 -0.0557 -0.2301
 7132SOL    HW133029   0.922   1.560   6.489  1.4258 -3.1197  0.0888
 7132SOL    HW233030   0.888   1.450   6.397 -1.1332  0.1462  0.1069
 7133SOL     OW33031   1.327   2.516  14.464 -0.1323 -0.5910  0.4102
 7133SOL    HW133032   1.278   2.598  14.470 -1.5312 -1.3171 -1.1262
 7133SOL    HW233033   1.325   2.506  14.369 -0.0574 -1.8170  0.5373
 7134SOL     OW33034   0.900   0.373   6.623  0.4153 -0.7297 -0.3845
 7134SOL    HW133035   0.914   0.382   6.529 -0.2908 -0.7130 -0.4887
 7134SOL    HW233036   0.894   0.465   6.646 -1.5529 -0.6276 -1.3880
 7135SOL     OW33037   1.036   2.225   1.130 -0.0942 -0.6650 -0.1915
 7135SOL    HW133038   0.992   2.208   1.213 -1.3344 -0.1097 -0.7334
 7135SOL    HW233039   1.127   2.204   1.151 -0.3799 -0.9060  0.8009
 7136SOL     OW33040   3.828   2.784  14.226  0.0332  0.5415 -0.2055
 7136SOL    HW133041   3.817   2.755  14.317  0.4389  0.2323 -0.2558
 7136SOL    HW233042   3.765   2.855  14.217  2.4502  2.5278 -1.5866
 7137SOL     OW33043   4.629   2.777   4.500  0.5174  0.3077  0.2611
 7137SOL    HW133044   4.693   2.720   4.459  0.1471  0.1414 -0.0834
 7137SOL    HW233045   4.552   2.722   4.484 -0.1361  0.7640  1.8652
 7138SOL     OW33046   0.861   1.644   7.465  0.3173 -0.7218 -0.2217
 7138SOL    HW133047   0.871   1.576   7.532  0.3499 -1.3961 -0.9112
 7138SOL    HW233048   0.952   1.671   7.454  0.5383 -1.4345 -0.1261
 7139SOL     OW33049   4.675   2.472   6.176 -0.8252  0.3316  0.0550
 7139SOL    HW133050   4.723   2.519   6.108 -1.3868  0.3966 -0.3042
 7139SOL    HW233051   4.728   2.502   6.250 -0.6052  1.7400 -0.6633
 7140SOL     OW33052   0.799   2.719  11.600 -0.6222 -0.8075 -0.5532
 7140SOL    HW133053   0.800   2.789  11.535 -1.1940  0.2024  0.5329
 7140SOL    HW233054   0.891   2.693  11.597 -1.1309 -2.5930 -0.6248
 7141SOL     OW33055   4.593   3.971  11.772 -0.0750 -0.2090  0.1255
 7141SOL    HW133056   4.620   3.983  11.680  0.4460  1.2587  0.4686
 7141SOL    HW233057   4.511   4.021  11.773  1.6828  2.7179 -1.8482
 7142SOL     OW33058   3.833   2.893   7.390  0.0800 -0.1707  0.1826
 7142SOL    HW133059   3.847   2.988   7.381  1.5070 -0.3908  0.1100
 7142SOL    HW233060   3.896   2.862   7.326 -0.9340 -0.0256 -0.8810
 7143SOL     OW33061   1.214   3.031   4.145  0.5303  0.2403  0.2505
 7143SOL    HW133062   1.263   3.030   4.228 -1.8185 -0.4812  1.6336
 7143SOL    HW233063   1.202   3.124   4.125  2.4074  0.2242 -0.9537
 7144SOL     OW33064   1.647   0.854   9.007 -0.3568 -0.2591 -0.0403
 7144SOL    HW133065   1.730   0.879   9.047  0.1497 -0.5179 -0.9136
 7144SOL    HW233066   1.679   0.839   8.918  0.3269 -1.6766  0.4452
 7145SOL     OW33067   2.092   1.136   0.793  0.4072 -0.2154  0.1041
 7145SOL    HW133068   2.097   1.063   0.854 -0.0796  1.4629  2.1379
 7145SOL    HW233069   2.166   1.185   0.830  0.8367  0.0585 -1.1123
 7146SOL     OW33070   3.795   4.186   4.198 -0.1736 -0.4167 -0.3100
 7146SOL    HW133071   3.790   4.250   4.269  0.6654 -3.1970  2.2956
 7146SOL    HW233072   3.753   4.230   4.125  0.5102  0.7651  0.0125
 7147SOL     OW33073   3.768   4.014   8.241 -0.5803 -0.0712  0.2305
 7147SOL    HW133074   3.779   3.925   8.206 -1.6284  0.4052 -1.3076
 7147SOL    HW233075   3.861   4.036   8.247 -0.4026 -0.5767 -0.5979
 7148SOL     OW33076   1.622   2.636   9.628  0.1764 -0.1111  0.1060
 7148SOL    HW133077   1.624   2.668   9.718  0.6799  0.0103  0.0570
 7148SOL    HW233078   1.708   2.667   9.599  0.2245 -1.0141 -0.7278
 7149SOL     OW33079   1.274   1.426   7.423 -0.3862  0.4717  0.6486
 7149SOL    HW133080   1.316   1.486   7.361 -1.2879 -0.4335 -0.8225
 7149SOL    HW233081   1.339   1.358   7.436 -0.1770  0.2703 -1.4997
 7150SOL     OW33082   3.739   2.179   7.349 -0.1068 -0.4713 -0.0834
 7150SOL    HW133083   3.762   2.209   7.436  2.3521  1.0291 -1.2316
 7150SOL    HW233084   3.644   2.186   7.336  0.1024  0.1761 -1.2426
 7151SOL     OW33085   1.184   4.635   9.227 -0.0052  0.2161  0.2906
 7151SOL    HW133086   1.240   4.704   9.192 -0.6519 -0.3850 -1.8947
 7151SOL    HW233087   1.108   4.690   9.245 -0.5110 -0.5799  0.5650
 7152SOL     OW33088   4.677   1.871   6.419  0.0034  0.2793 -0.2007
 7152SOL    HW133089   0.019   1.820   6.427  0.6042  1.4492  1.0806
 7152SOL    HW233090   4.665   1.877   6.324  1.7910  0.3698 -0.4244
 7153SOL     OW33091   0.305   4.171   4.842 -0.3212 -0.0956  0.6405
 7153SOL    HW133092   0.327   4.264   4.838 -1.2033  0.0738 -0.1628
 7153SOL    HW233093   0.369   4.148   4.775  0.4798  0.6250  1.1569
 7154SOL     OW33094   2.600   0.958   8.232 -0.2730 -0.5051  0.7138
 7154SOL    HW133095   2.683   0.911   8.232 -0.2350 -0.4270 -0.9647
 7154SOL    HW233096   2.553   0.890   8.279  2.0336 -2.4969  0.1230
 7155SOL     OW33097   4.245   0.685   6.295  0.2835  0.2958 -0.7421
 7155SOL    HW133098   4.295   0.633   6.232 -1.3262 -1.2721 -0.7262
 7155SOL    HW233099   4.194   0.617   6.340 -0.8070  2.8073  1.8105
 7156SOL     OW33100   4.434   4.029   6.160  0.2732  0.0178  0.0428
 7156SOL    HW133101   4.439   4.062   6.070 -0.4155 -1.7537 -0.6577
 7156SOL    HW233102   4.391   4.100   6.207  1.1026  0.9957 -0.6932
 7157SOL     OW33103   1.239   3.829  17.163 -0.4682 -0.2688  0.6766
 7157SOL    HW133104   1.304   3.882  17.208 -0.0307 -1.0036  0.9042
 7157SOL    HW233105   1.283   3.744  17.160  1.5202  0.8484 -2.0918
 7158SOL     OW33106   0.386   1.671   3.868  0.2728 -0.2174  0.0915
 7158SOL    HW133107   0.336   1.738   3.821 -0.6148 -0.0129  1.3463
 7158SOL    HW233108   0.443   1.643   3.796 -1.4148  0.0683 -1.3388
 7159SOL     OW33109   3.443   1.933  13.654  0.2408  0.8904 -0.0824
 7159SOL    HW133110   3.408   1.860  13.704 -1.2581  0.7210 -1.3883
 7159SOL    HW233111   3.500   1.887  13.593  0.4069  0.0886  0.6830
 7160SOL     OW33112   2.112   0.992   7.976  0.6038 -0.3123  0.0763
 7160SOL    HW133113   2.126   1.062   7.912  0.3845  2.0678  2.6356
 7160SOL    HW233114   2.201   0.990   8.013  0.3696 -1.1021  0.5962
 7161SOL     OW33115   1.571   1.171   0.428 -0.7035 -0.1450 -0.4821
 7161SOL    HW133116   1.655   1.216   0.415 -0.6284  0.4244  2.0153
 7161SOL    HW233117   1.601   1.080   0.427 -2.5535 -0.7263 -2.6935
 7162SOL     OW33118   0.053   3.598   0.360 -0.6547 -0.1933 -0.2245
 7162SOL    HW133119   4.723   3.556   0.411  1.3663 -1.9818  0.9795
 7162SOL    HW233120   0.101   3.652   0.423  0.9351 -1.8706 -0.0091
 7163SOL     OW33121   3.835   0.977  16.146 -0.2277 -0.5346  0.3860
 7163SOL    HW133122   3.862   0.889  16.118 -0.6370 -0.1835 -1.1004
 7163SOL    HW233123   3.835   1.026  16.064  0.2359 -1.7894 -0.3709
 7164SOL     OW33124   2.921   3.495  14.514  0.1173 -0.6216  0.2248
 7164SOL    HW133125   2.892   3.425  14.455 -1.5679 -1.2610  1.7912
 7164SOL    HW233126   2.847   3.548  14.544  1.3466  1.9375 -1.3469
 7165SOL     OW33127   1.265   2.514  10.662  0.9222 -0.2875  0.9281
 7165SOL    HW133128   1.259   2.603  10.698 -1.0163 -0.3731  0.8185
 7165SOL    HW233129   1.250   2.527  10.569 -1.8937  1.0603  1.5805
 7166SOL     OW33130   3.005   3.278  17.600  0.0618  0.0399 -0.0273
 7166SOL    HW133131   3.041   3.216  17.537 -1.3168 -0.2625 -0.5214
 7166SOL    HW233132   3.077   3.293  17.662  1.4250 -1.9168 -1.1431
 7167SOL     OW33133   4.690   3.595   5.855 -0.2053 -0.6434 -0.6143
 7167SOL    HW133134   4.650   3.512   5.829 -0.8155 -0.6186  0.2458
 7167SOL    HW233135   4.611   3.629   5.897  0.0029  1.5031 -1.9555
 7168SOL     OW33136   0.587   0.521  16.622  0.0219 -0.4003 -0.3834
 7168SOL    HW133137   0.500   0.484  16.635 -0.6319  0.7118 -1.5472
 7168SOL    HW233138   0.637   0.443  16.644 -1.9554 -1.5934 -0.1158
 7169SOL     OW33139   2.598   4.036   0.518 -0.5929 -0.5523  0.0620
 7169SOL    HW133140   2.619   4.078   0.601 -0.5192 -0.1605 -0.1574
 7169SOL    HW233141   2.662   4.046   0.448 -1.3358  2.8196 -0.1068
 7170SOL     OW33142   4.630   0.227   8.951  0.6857 -0.2204 -0.5938
 7170SOL    HW133143   4.689   0.252   9.023 -1.3507  0.6564  0.7644
 7170SOL    HW233144   4.610   0.311   8.909  1.0523  0.6638  0.9844
 7171SOL     OW33145   1.655   2.233   8.564  0.1452  0.4976  0.0532
 7171SOL    HW133146   1.626   2.154   8.609 -0.1823 -0.2061 -1.3936
 7171SOL    HW233147   1.744   2.236   8.599  0.1120  1.1813  0.0909
 7172SOL     OW33148   2.385   3.071   7.256  0.0787  0.1222 -0.0191
 7172SOL    HW133149   2.315   3.028   7.206 -0.5474  0.9568  0.1270
 7172SOL    HW233150   2.468   3.056   7.211  0.9638  0.7820  1.3826
 7173SOL     OW33151   3.186   1.365   5.200 -0.4344 -0.4344  0.2140
 7173SOL    HW133152   3.230   1.360   5.285 -2.9195  0.5326  1.5612
 7173SOL    HW233153   3.133   1.286   5.211 -1.8089  0.6441  1.4090
 7174SOL     OW33154   3.205   1.576   7.179  0.1888 -0.5600 -0.1492
 7174SOL    HW133155   3.291   1.543   7.207  0.7462  1.5516  0.6796
 7174SOL    HW233156   3.247   1.625   7.108  0.2407 -0.1179  0.1871
 7175SOL     OW33157   3.012   2.364  14.286  0.1681 -0.0768 -0.2734
 7175SOL    HW133158   2.927   2.324  14.269  0.4359 -0.1952 -1.3374
 7175SOL    HW233159   3.027   2.343  14.379  0.9909  2.0840  0.0820
 7176SOL     OW33160   2.432   3.323   1.981 -0.0938 -0.0037 -0.4407
 7176SOL    HW133161   2.435   3.414   1.949  0.6457 -1.2622 -3.9762
 7176SOL    HW233162   2.501   3.297   1.920  0.2842 -1.7992  0.7738
 7177SOL     OW33163   2.036   0.693   2.153  0.1551  0.0845  0.4199
 7177SOL    HW133164   1.986   0.723   2.076 -0.0673 -1.8570 -0.2005
 7177SOL    HW233165   2.043   0.598   2.141 -0.3646  0.3160 -1.7384
 7178SOL     OW33166   0.766   4.056   1.245  0.3142  0.1917 -0.1961
 7178SOL    HW133167   0.823   4.088   1.175  0.6089 -0.6603 -0.3454
 7178SOL    HW233168   0.828   4.024   1.310  0.4395 -0.2024 -0.5071
 7179SOL     OW33169   3.619   1.926   4.767 -0.1979  0.2751  0.1697
 7179SOL    HW133170   3.673   1.871   4.709  0.6135  1.2215  0.0367
 7179SOL    HW233171   3.572   1.976   4.700  0.6861  0.5484 -0.2396
 7180SOL     OW33172   2.373   2.226  16.878  0.6418  0.5220  0.1888
 7180SOL    HW133173   2.339   2.155  16.823  1.3860 -0.0711  0.4957
 7180SOL    HW233174   2.341   2.205  16.966  0.1542  0.8430  0.0922
 7181SOL     OW33175   4.327   4.502   5.188 -0.2999 -0.5688  0.3910
 7181SOL    HW133176   4.386   4.576   5.173 -0.8704 -0.0780  0.5591
 7181SOL    HW233177   4.270   4.531   5.117  0.2286 -1.5784 -0.4494
 7182SOL     OW33178   4.510   2.047   8.197  0.5525 -0.1726 -0.5398
 7182SOL    HW133179   4.524   1.952   8.207 -0.3692 -0.3875 -1.3121
 7182SOL    HW233180   4.522   2.056   8.102  2.3113  0.1281 -0.2889
 7183SOL     OW33181   0.330   1.448   8.398  0.1383 -0.4511 -0.5112
 7183SOL    HW133182   0.372   1.533   8.385 -0.2065  0.0512  1.6930
 7183SOL    HW233183   0.297   1.455   8.488 -2.3543 -0.5353 -1.3975
 7184SOL     OW33184   0.328   3.217  11.638 -0.4385  0.5729 -0.0366
 7184SOL    HW133185   0.283   3.301  11.641  0.0418  0.8288 -0.2003
 7184SOL    HW233186   0.328   3.218  11.542 -0.2043 -1.1001 -0.0545
 7185SOL     OW33187   1.877   1.898  16.985 -0.4595  0.6826  0.3078
 7185SOL    HW133188   1.954   1.841  16.981  0.3586  1.7950 -0.0549
 7185SOL    HW233189   1.911   1.982  16.954  1.4252 -0.9690 -2.1063
 7186SOL     OW33190   0.612   2.549  17.276 -0.3401  0.2659 -0.1462
 7186SOL    HW133191   0.633   2.641  17.293 -0.0170  0.2742 -0.6113
 7186SOL    HW233192   0.649   2.532  17.189 -0.2723 -0.2974 -0.0017
 7187SOL     OW33193   2.322   1.718  11.868  0.1850 -0.3876  0.2787
 7187SOL    HW133194   2.364   1.634  11.886 -0.8896 -1.1142 -0.5797
 7187SOL    HW233195   2.273   1.731  11.949 -0.2876 -0.8847  0.0793
 7188SOL     OW33196   3.253   0.294  14.417  0.1497  0.0814 -0.2029
 7188SOL    HW133197   3.287   0.338  14.340  1.8625 -1.0576 -0.0837
 7188SOL    HW233198   3.335   0.258  14.451  0.2138 -0.9978 -1.5181
 7189SOL     OW33199   2.708   1.250  12.297 -0.0664 -0.0027  0.3530
 7189SOL    HW133200   2.725   1.324  12.356  1.8298 -0.2710  0.1421
 7189SOL    HW233201   2.637   1.208  12.345  1.9882 -1.6090  2.0399
 7190SOL     OW33202   1.747   3.671   6.829 -0.5529  0.1222  0.1514
 7190SOL    HW133203   1.834   3.695   6.798 -0.8180 -1.1772 -1.5967
 7190SOL    HW233204   1.694   3.733   6.779 -2.2968 -1.2732  0.2696
 7191SOL     OW33205   2.454   3.880   3.903 -0.4430  0.1563 -0.6526
 7191SOL    HW133206   2.503   3.853   3.825 -0.5540  0.9061 -0.9810
 7191SOL    HW233207   2.512   3.857   3.975 -1.5499  0.6795  0.3941
 7192SOL     OW33208   3.842   0.393   7.316 -0.4126  0.1191 -0.2923
 7192SOL    HW133209   3.749   0.399   7.339  0.0071  0.8806  1.2172
 7192SOL    HW233210   3.875   0.430   7.398 -1.7636 -1.2873  0.8891
 7193SOL     OW33211   0.455   0.635   1.237 -0.0726  0.9765  0.0392
 7193SOL    HW133212   0.448   0.641   1.142  0.1027 -0.5085 -0.0661
 7193SOL    HW233213   0.432   0.542   1.242 -1.3987  1.2711 -0.5630
 7194SOL     OW33214   2.226   2.645   6.824  0.1407  0.4096 -0.6767
 7194SOL    HW133215   2.196   2.688   6.905  0.5278  1.4777 -1.1003
 7194SOL    HW233216   2.175   2.697   6.762  0.8062  0.8940 -0.8197
 7195SOL     OW33217   1.473   1.218   9.219 -0.0471  0.6428  0.0606
 7195SOL    HW133218   1.521   1.271   9.155 -0.6936  0.7396 -0.3509
 7195SOL    HW233219   1.530   1.214   9.295 -2.0803  1.1514  1.6115
 7196SOL     OW33220   4.110   0.188   4.291 -0.2107  0.1988  0.6043
 7196SOL    HW133221   4.205   0.187   4.300 -0.2217  0.4871  0.7685
 7196SOL    HW233222   4.084   0.217   4.379  0.8139 -0.0257  0.9843
 7197SOL     OW33223   2.302   2.782   3.733 -0.2728 -0.0861 -0.4736
 7197SOL    HW133224   2.356   2.846   3.687 -0.2873  0.9866  1.0011
 7197SOL    HW233225   2.374   2.723   3.756  0.4805  0.4177 -1.5153
 7198SOL     OW33226   4.097   3.450   6.022 -0.4958 -0.5042 -0.6331
 7198SOL    HW133227   4.179   3.462   6.071 -2.4437  1.2525  2.2395
 7198SOL    HW233228   4.125   3.488   5.939 -0.0211 -1.1879 -0.7863
 7199SOL     OW33229   1.615   1.641   1.526 -0.3035  0.2681 -0.2687
 7199SOL    HW133230   1.628   1.729   1.489 -0.5207  0.5118  0.2323
 7199SOL    HW233231   1.573   1.653   1.611  0.4493  4.8974 -0.5285
 7200SOL     OW33232   3.656   0.648  13.993 -0.1384 -0.1921  0.0483
 7200SOL    HW133233   3.578   0.610  14.033 -0.4272 -0.5567 -0.8839
 7200SOL    HW233234   3.717   0.575  13.985  1.1023  0.8376 -0.0329
 7201SOL     OW33235   0.893   1.136   9.663 -0.5145 -0.1073 -0.5374
 7201SOL    HW133236   0.894   1.195   9.738 -1.0513 -1.0026  0.1838
 7201SOL    HW233237   0.970   1.081   9.677  1.1286  2.4845  0.5910
 7202SOL     OW33238   1.504   3.510   4.453 -0.2784 -0.5838  0.6723
 7202SOL    HW133239   1.575   3.487   4.512 -0.4658 -0.2768  1.0173
 7202SOL    HW233240   1.525   3.598   4.421  3.7847 -1.5447  0.7122
 7203SOL     OW33241   1.185   1.690   2.733  0.2127  0.2379 -0.6750
 7203SOL    HW133242   1.095   1.675   2.703 -0.0484 -1.7894  1.1894
 7203SOL    HW233243   1.226   1.679   2.647  0.6721 -2.2466 -0.1417
 7204SOL     OW33244   3.179   4.331   4.384 -0.2272  0.4679 -1.2151
 7204SOL    HW133245   3.194   4.284   4.466 -1.1885  1.9024 -0.2241
 7204SOL    HW233246   3.260   4.383   4.375  1.2222 -1.9837 -2.1993
 7205SOL     OW33247   0.625   2.220   6.750  0.2898  0.4978  0.2728
 7205SOL    HW133248   0.672   2.289   6.797 -0.5461  1.7007 -0.6355
 7205SOL    HW233249   0.646   2.141   6.799 -0.2866  0.5200  0.5580
 7206SOL     OW33250   3.599   1.875   7.047  0.2025 -0.3074  0.5739
 7206SOL    HW133251   3.584   1.956   6.998  0.8604 -0.7517 -0.3650
 7206SOL    HW233252   3.643   1.883   7.132 -2.8588  2.7887  1.8562
 7207SOL     OW33253   4.569   3.434   8.522  0.3884  0.4062  0.7628
 7207SOL    HW133254   4.654   3.403   8.492 -0.3374 -0.8661 -0.0236
 7207SOL    HW233255   4.507   3.404   8.455 -0.4037 -0.5978  1.9397
 7208SOL     OW33256   4.067   2.573   2.278  0.1367 -0.8982 -0.4298
 7208SOL    HW133257   4.103   2.632   2.212 -1.6774  1.5177  0.7137
 7208SOL    HW233258   3.994   2.533   2.230  0.5035 -2.7900  0.5911
 7209SOL     OW33259   0.857   3.399   6.551  0.0103  0.2875 -0.0507
 7209SOL    HW133260   0.816   3.336   6.491  0.0796  1.1698 -1.0087
 7209SOL    HW233261   0.785   3.404   6.614 -2.1651 -0.1888 -2.4848
 7210SOL     OW33262   3.529   4.698  10.408  0.3635 -0.3501 -0.5594
 7210SOL    HW133263   3.471   4.634  10.367 -0.3430 -0.5454  0.7303
 7210SOL    HW233264   3.456   0.001  10.455 -1.2937 -0.8365 -2.7444
 7211SOL     OW33265   3.623   2.138   7.752 -0.6453  0.1928 -0.3802
 7211SOL    HW133266   3.669   2.200   7.696 -1.1389  1.7231  0.9263
 7211SOL    HW233267   3.547   2.195   7.764  1.3933  2.2164  2.7941
 7212SOL     OW33268   2.907   3.082   6.148  0.1082  0.5631 -0.4223
 7212SOL    HW133269   2.996   3.092   6.113  0.0446  2.5946  0.0345
 7212SOL    HW233270   2.867   3.167   6.130  0.5316  0.8850  0.1647
 7213SOL     OW33271   2.586   1.808   7.953  0.1163 -0.1286  0.3135
 7213SOL    HW133272   2.529   1.860   8.010 -0.1252 -0.7881  0.6814
 7213SOL    HW233273   2.563   1.720   7.983 -1.0542 -0.6530 -2.1173
 7214SOL     OW33274   0.840   3.773   3.429 -0.1749  0.1217 -0.3168
 7214SOL    HW133275   0.837   3.856   3.380 -0.4162  0.9873  1.1481
 7214SOL    HW233276   0.933   3.753   3.423 -0.0059  0.4152  1.3677
 7215SOL     OW33277   4.165   3.478  14.200  0.2275  0.0836  0.4002
 7215SOL    HW133278   4.148   3.441  14.113 -1.7132 -0.0660  0.8355
 7215SOL    HW233279   4.126   3.403  14.245 -1.1334  1.5157  1.6096
 7216SOL     OW33280   0.936   3.402   4.790  0.2540 -0.1746  0.0671
 7216SOL    HW133281   0.915   3.478   4.845 -2.0019 -1.5510  1.0997
 7216SOL    HW233282   1.026   3.428   4.768 -0.3917  0.6668 -1.6010
 7217SOL     OW33283   4.459   4.290  10.498  0.1475  0.2408  0.0615
 7217SOL    HW133284   4.457   4.245  10.583 -2.3900  0.4231  0.1013
 7217SOL    HW233285   4.367   4.292  10.474  0.2215 -2.1628 -0.4094
 7218SOL     OW33286   3.979   1.425   5.880 -0.0048 -0.4474  0.3660
 7218SOL    HW133287   4.062   1.386   5.909  1.5899  4.0179  1.7306
 7218SOL    HW233288   3.939   1.435   5.967 -0.7847 -1.4244  0.1254
 7219SOL     OW33289   0.252   1.279   7.823 -0.1007  0.0548  0.7146
 7219SOL    HW133290   0.335   1.231   7.815 -0.3502  0.0544 -1.6955
 7219SOL    HW233291   0.255   1.336   7.747 -0.5750  0.1035  0.7306
 7220SOL     OW33292   4.677   4.054   9.759  0.4920 -0.2600 -0.1711
 7220SOL    HW133293   4.591   4.060   9.800  0.2640 -0.5168 -0.6216
 7220SOL    HW233294   4.651   4.075   9.670  0.3228  0.0028 -0.0586
 7221SOL     OW33295   3.639   3.383   7.305 -0.4672 -0.1459  0.2453
 7221SOL    HW133296   3.583   3.460   7.309 -0.4809 -0.0671 -1.6242
 7221SOL    HW233297   3.616   3.351   7.218  0.7770  2.5091 -1.0447
 7222SOL     OW33298   4.696   1.285  10.079  0.3545  0.1951 -0.1702
 7222SOL    HW133299   4.602   1.299  10.094  0.4300  0.5496 -0.0281
 7222SOL    HW233300   4.691   1.304   9.986  0.4586  0.8726 -0.0371
 7223SOL     OW33301   4.455   0.166   9.532  0.0039  0.0130  0.4532
 7223SOL    HW133302   4.460   0.107   9.607 -0.6621  1.8841  1.9632
 7223SOL    HW233303   4.361   0.175   9.520 -0.1628  0.1088  1.8078
 7224SOL     OW33304   0.974   1.855  12.355 -0.0745 -0.2109 -0.1973
 7224SOL    HW133305   1.061   1.821  12.376 -0.5200  0.1227  2.1554
 7224SOL    HW233306   0.965   1.835  12.262 -1.4764 -0.4768 -0.0011
 7225SOL     OW33307   3.040   0.491   6.749 -0.5460 -0.3776  0.3271
 7225SOL    HW133308   3.072   0.414   6.796 -2.2887 -0.0339  2.1025
 7225SOL    HW233309   2.981   0.520   6.818  0.2269 -0.6021  1.0751
 7226SOL     OW33310   2.490   3.566   1.495  0.1477  0.5050  0.3769
 7226SOL    HW133311   2.428   3.614   1.440 -0.2057  0.2354  0.5411
 7226SOL    HW233312   2.517   3.631   1.560  1.0178 -0.7411  1.2453
 7227SOL     OW33313   1.327   2.881   3.272 -0.2164 -0.5694 -0.1131
 7227SOL    HW133314   1.349   2.821   3.343  0.3457  0.8690  0.9325
 7227SOL    HW233315   1.336   2.816   3.202 -0.1636 -1.1085  0.3982
 7228SOL     OW33316   4.244   1.914  16.573 -0.4783 -0.1723  0.3993
 7228SOL    HW133317   4.252   1.848  16.642  0.3154 -1.0696 -0.5728
 7228SOL    HW233318   4.286   1.990  16.614  0.4305  0.1164 -1.0873
 7229SOL     OW33319   2.973   4.697   4.613  0.6263  0.3975  0.3434
 7229SOL    HW133320   3.021   4.652   4.544 -1.3171  1.3581 -1.6157
 7229SOL    HW233321   2.901   4.729   4.558 -0.9991 -1.5069  1.3522
 7230SOL     OW33322   1.490   2.726  16.210 -0.3922 -0.2143  0.4549
 7230SOL    HW133323   1.561   2.748  16.150  0.0143 -0.6559  0.7775
 7230SOL    HW233324   1.522   2.730  16.300 -2.2735  2.1316  1.0335
 7231SOL     OW33325   0.164   4.049   3.954 -0.5784 -0.4337 -0.5497
 7231SOL    HW133326   0.070   4.034   3.964 -0.4928 -0.3541  0.3657
 7231SOL    HW233327   0.199   3.980   4.010 -1.6678  1.6064  2.6390
 7232SOL     OW33328   0.009   3.810   3.804  0.0180 -0.2539  0.2153
 7232SOL    HW133329   4.669   3.822   3.857 -2.3157 -1.4167 -2.9117
 7232SOL    HW233330   0.082   3.807   3.866 -1.2593 -0.0306  1.7095
 7233SOL     OW33331   2.974   1.848   6.429 -0.1105  0.3467 -0.3539
 7233SOL    HW133332   2.973   1.755   6.407  0.1780  0.4547 -0.8057
 7233SOL    HW233333   3.052   1.847   6.484 -2.0226 -1.9659  2.3008
 7234SOL     OW33334   3.467   0.794  16.547 -0.2793 -1.1115  0.3741
 7234SOL    HW133335   3.523   0.746  16.486  0.8850  0.3097  0.3309
 7234SOL    HW233336   3.454   0.877  16.501  1.3238 -2.0888 -1.8600
 7235SOL     OW33337   1.895   1.492   5.072  0.0212 -0.3215  0.0753
 7235SOL    HW133338   1.934   1.560   5.127  0.8239  0.9570 -2.0276
 7235SOL    HW233339   1.840   1.436   5.126  1.0397 -0.7693  0.6507
 7236SOL     OW33340   2.531   0.585   7.546  0.8090 -0.2680 -0.3376
 7236SOL    HW133341   2.510   0.594   7.453 -0.8384 -0.9565 -0.0363
 7236SOL    HW233342   2.625   0.566   7.542  0.6127 -1.0527 -1.2480
 7237SOL     OW33343   4.207   2.374   9.272  0.2511  0.3778 -0.2547
 7237SOL    HW133344   4.303   2.380   9.270  0.2241  0.1211 -2.1665
 7237SOL    HW233345   4.191   2.379   9.178 -1.0518  1.4295  0.0180
 7238SOL     OW33346   2.039   2.512   7.358 -0.1179 -0.2585 -1.0474
 7238SOL    HW133347   1.969   2.573   7.381  2.1177  2.5511 -1.6747
 7238SOL    HW233348   2.023   2.437   7.415 -0.7516 -0.0768 -0.9867
 7239SOL     OW33349   3.065   3.604   8.909  0.0178  0.1538  0.1395
 7239SOL    HW133350   2.982   3.558   8.918  0.4479 -0.7634 -0.4926
 7239SOL    HW233351   3.135   3.547   8.941 -0.9314 -1.9530 -1.5307
 7240SOL     OW33352   1.825   1.704   5.488 -0.7715 -0.1619  0.1126
 7240SOL    HW133353   1.746   1.660   5.519 -0.9365 -0.2816 -0.4876
 7240SOL    HW233354   1.804   1.797   5.489 -0.7649 -0.1707  1.9506
 7241SOL     OW33355   4.081   3.666   3.220 -0.3223 -0.0865  0.3957
 7241SOL    HW133356   4.098   3.613   3.142 -0.1449 -0.6992  0.8531
 7241SOL    HW233357   4.023   3.737   3.192 -0.5359 -0.5766 -0.3929
 7242SOL     OW33358   0.871   0.853   1.054  0.0836  0.0964 -0.3848
 7242SOL    HW133359   0.925   0.916   1.102  0.5505 -0.5563 -0.0564
 7242SOL    HW233360   0.832   0.806   1.128  0.6796  0.0294 -0.1132
 7243SOL     OW33361   1.147   3.589  14.749 -0.4967 -0.1811  0.3839
 7243SOL    HW133362   1.102   3.519  14.796  0.2329  0.0331  1.4152
 7243SOL    HW233363   1.222   3.541  14.713 -2.0713 -0.2001 -2.8102
 7244SOL     OW33364   0.103   3.520   4.110  0.1817 -0.4126 -0.3162
 7244SOL    HW133365   0.063   3.493   4.027 -1.6083 -1.8820  1.0349
 7244SOL    HW233366   0.047   3.467   4.166  3.3197 -2.1015  1.2065
 7245SOL     OW33367   3.088   4.738   6.577 -0.1645 -0.4138  0.1263
 7245SOL    HW133368   3.033   0.029   6.650  0.1762  0.7291 -0.0692
 7245SOL    HW233369   3.170   0.045   6.596  0.5694 -0.8655 -2.0343
 7246SOL     OW33370   0.046   0.965   8.635  0.0525  0.2089 -0.2082
 7246SOL    HW133371   0.099   1.007   8.703  2.5888 -4.1367  0.4761
 7246SOL    HW233372   4.701   1.002   8.665  0.5357  1.7782 -0.8254
 7247SOL     OW33373   3.013   2.973   6.448 -0.3545 -0.0320  0.0316
 7247SOL    HW133374   2.995   2.958   6.356  2.7083 -0.4143 -0.4911
 7247SOL    HW233375   2.980   2.893   6.490 -1.6536  0.9723  0.9252
 7248SOL     OW33376   1.281   3.719   0.621 -0.3588  0.3254 -0.4031
 7248SOL    HW133377   1.321   3.788   0.569  0.4030 -0.2291 -0.5662
 7248SOL    HW233378   1.204   3.697   0.569 -1.5678  2.1235  0.6452
 7249SOL     OW33379   1.264   1.528   9.169 -0.0248 -0.2825 -0.0707
 7249SOL    HW133380   1.245   1.621   9.179 -0.7662 -0.3001 -1.3120
 7249SOL    HW233381   1.349   1.540   9.126 -0.3057 -0.4657 -0.6781
 7250SOL     OW33382   0.893   4.725   5.880  0.0767 -0.0679  0.2959
 7250SOL    HW133383   0.962   4.702   5.819  0.6063  2.3678 -0.0237
 7250SOL    HW233384   0.881   4.646   5.933  1.5567 -0.3481  0.2021
 7251SOL     OW33385   4.562   4.154   5.623  0.7261  0.1259 -0.1041
 7251SOL    HW133386   4.614   4.208   5.563 -2.6611  3.0935 -0.3580
 7251SOL    HW233387   4.540   4.087   5.558  0.6742 -0.3116  0.3650
 7252SOL     OW33388   0.625   2.204   5.861  0.9898  0.8843 -0.1701
 7252SOL    HW133389   0.658   2.207   5.951  0.5464 -0.3437  0.0411
 7252SOL    HW233390   0.576   2.122   5.852  0.2044  1.3387  0.0319
 7253SOL     OW33391   3.828   3.190   8.928  0.4000 -0.3878  0.3822
 7253SOL    HW133392   3.911   3.237   8.932 -0.0088  0.3995 -0.4711
 7253SOL    HW233393   3.766   3.250   8.970 -1.2584 -3.0855  1.7851
 7254SOL     OW33394   4.601   2.819   2.315  0.5990  0.1821 -0.4057
 7254SOL    HW133395   4.560   2.734   2.295  0.6173 -0.7209  3.4124
 7254SOL    HW233396   4.688   2.809   2.277  1.1475  1.1823  0.5808
 7255SOL     OW33397   1.427   3.612   6.574  0.3385 -0.2748  0.4591
 7255SOL    HW133398   1.487   3.538   6.565  0.0181 -0.5831  0.8521
 7255SOL    HW233399   1.490   3.680   6.596  0.5631 -0.9076  1.7543
 7256SOL     OW33400   3.724   1.490   5.089  0.0185 -0.1809 -0.5335
 7256SOL    HW133401   3.724   1.497   5.185  1.2467  0.9273 -0.6107
 7256SOL    HW233402   3.642   1.531   5.062  0.3200 -0.5059 -1.9316
 7257SOL     OW33403   4.317   1.904  14.590 -0.2414  0.3111  0.2622
 7257SOL    HW133404   4.404   1.924  14.626 -0.3006  1.3343 -0.1621
 7257SOL    HW233405   4.263   1.881  14.665 -2.7560 -0.0378 -1.6796
 7258SOL     OW33406   2.461   3.122   5.242 -0.8728  0.1129  0.3353
 7258SOL    HW133407   2.548   3.098   5.209 -0.6549 -0.6436  1.4784
 7258SOL    HW233408   2.461   3.065   5.318  2.9071  0.0407  0.2910
 7259SOL     OW33409   0.282   0.301   1.540 -0.1058 -0.0548  0.0512
 7259SOL    HW133410   0.360   0.259   1.576 -0.0446  1.3220  1.4706
 7259SOL    HW233411   0.250   0.356   1.611 -0.0694  0.6997 -0.5150
 7260SOL     OW33412   0.766   3.705   5.374  0.1439 -0.1939  0.0123
 7260SOL    HW133413   0.775   3.678   5.466 -0.6095  0.7437  0.3634
 7260SOL    HW233414   0.770   3.800   5.376 -0.4820 -0.1228 -2.3436
 7261SOL     OW33415   2.432   3.211   0.038 -0.2981 -0.6027 -0.3152
 7261SOL    HW133416   2.487   3.252   0.104 -2.0959  0.9354  0.2215
 7261SOL    HW233417   2.445   3.121   0.066 -0.2762 -1.1991 -2.2275
 7262SOL     OW33418   3.189   3.134   8.270  0.4878  0.5856 -0.2066
 7262SOL    HW133419   3.219   3.193   8.201 -0.8097  1.3663 -0.1164
 7262SOL    HW233420   3.105   3.179   8.284 -0.8720 -1.6492 -1.2313
 7263SOL     OW33421   1.715   3.478  17.187 -0.8017  0.2070  0.3185
 7263SOL    HW133422   1.762   3.558  17.212 -1.4934  0.7951 -0.3002
 7263SOL    HW233423   1.732   3.431  17.269 -1.9731  0.0895  0.4821
 7264SOL     OW33424   3.070   3.556   9.837 -0.5245  0.3305  0.0491
 7264SOL    HW133425   3.123   3.634   9.853  1.9495 -1.9206  2.7023
 7264SOL    HW233426   3.029   3.580   9.754 -1.1203 -0.0935  0.2209
 7265SOL     OW33427   0.274   4.272   7.131  0.1179 -0.0539 -0.1291
 7265SOL    HW133428   0.340   4.303   7.194  0.4914 -0.8295 -0.1324
 7265SOL    HW233429   0.271   4.183   7.166  1.0902  0.2715  0.8091
 7266SOL     OW33430   2.851   0.705   4.465 -0.0991  0.2309  0.3673
 7266SOL    HW133431   2.930   0.711   4.519 -0.5810  0.0851  1.0910
 7266SOL    HW233432   2.872   0.636   4.402 -0.4041 -0.0244  0.5457
 7267SOL     OW33433   1.199   3.661  10.378 -0.2997  0.2709 -0.3625
 7267SOL    HW133434   1.111   3.664  10.414 -0.6306 -3.8852 -0.7523
 7267SOL    HW233435   1.254   3.694  10.449 -0.6014 -0.1489  0.0645
 7268SOL     OW33436   4.178   3.440   7.407  0.4118 -0.0839  0.6363
 7268SOL    HW133437   4.211   3.381   7.475 -1.1354 -1.0095  0.5983
 7268SOL    HW233438   4.144   3.516   7.454 -0.9027 -0.3534  0.1190
 7269SOL     OW33439   1.944   1.149   6.256 -0.2274  0.2226 -0.4455
 7269SOL    HW133440   1.916   1.133   6.166  0.2217  0.7951 -0.6894
 7269SOL    HW233441   1.903   1.075   6.300 -0.5970  0.9997  0.5207
 7270SOL     OW33442   4.239   0.676   7.722  0.0014 -0.0534 -0.2074
 7270SOL    HW133443   4.222   0.605   7.660  0.5726 -1.0170  0.7337
 7270SOL    HW233444   4.318   0.645   7.768  1.1236 -1.6755 -3.2319
 7271SOL     OW33445   3.216   0.084   5.989 -0.0013 -0.0029  0.0843
 7271SOL    HW133446   3.208   0.141   6.065  1.8442 -1.4980  1.4027
 7271SOL    HW233447   3.230   4.735   6.026  2.2226 -0.4861 -1.9362
 7272SOL     OW33448   2.576   0.731   2.479  0.1078 -0.0553 -0.2467
 7272SOL    HW133449   2.621   0.812   2.504 -2.3530  1.4175 -0.5926
 7272SOL    HW233450   2.497   0.748   2.531  0.4393  2.9468 -0.7506
 7273SOL     OW33451   0.823   1.908   0.603 -0.0245  0.2702  0.0879
 7273SOL    HW133452   0.903   1.932   0.557  0.4283 -0.8356  0.3018
 7273SOL    HW233453   0.770   1.870   0.533 -2.2050  0.9145  1.3929
 7274SOL     OW33454   0.767   2.326   7.788  0.6205  0.4952  0.4433
 7274SOL    HW133455   0.688   2.296   7.744 -0.0723 -1.9141  3.3653
 7274SOL    HW233456   0.765   2.269   7.865 -0.2561 -2.3548 -1.7129
 7275SOL     OW33457   3.131   2.041   3.656  0.6516  0.0348  0.8741
 7275SOL    HW133458   3.129   1.949   3.683  0.4894 -0.6201 -1.3493
 7275SOL    HW233459   3.220   2.047   3.620 -0.2699 -0.5602 -1.4657
 7276SOL     OW33460   1.859   2.099   1.979 -0.1473  0.0420  0.1219
 7276SOL    HW133461   1.864   2.189   2.012  2.2068 -0.0888  0.1587
 7276SOL    HW233462   1.778   2.071   2.022 -0.1304  0.3515  0.3580
 7277SOL     OW33463   0.061   3.219  14.648  0.1894 -0.1541 -0.0188
 7277SOL    HW133464   4.738   3.287  14.675  0.1408 -1.0633  2.1436
 7277SOL    HW233465   0.140   3.273  14.648 -0.5896  1.0161 -3.1161
 7278SOL     OW33466   3.778   0.989   8.675 -0.0444 -0.2351 -0.1946
 7278SOL    HW133467   3.701   0.932   8.683 -0.6057  0.5635  0.1788
 7278SOL    HW233468   3.749   1.056   8.738  0.1090  0.4511 -0.8532
 7279SOL     OW33469   0.002   2.487   9.205 -0.4738  0.0912 -0.0902
 7279SOL    HW133470   0.057   2.532   9.269 -0.1015  0.2545 -0.5205
 7279SOL    HW233471   0.058   2.486   9.127  0.2595  1.1120  0.4227
 7280SOL     OW33472   3.689   3.638   9.956 -0.2362  0.5834 -0.4735
 7280SOL    HW133473   3.606   3.682   9.971 -0.8813 -1.2567  1.4481
 7280SOL    HW233474   3.746   3.712   9.974 -0.4012  0.2822  1.2796
 7281SOL     OW33475   1.112   1.312   7.593  0.4439  0.3625  0.0360
 7281SOL    HW133476   1.165   1.242   7.631  1.3741  0.9283 -0.2141
 7281SOL    HW233477   1.158   1.330   7.511  0.9279  1.7523  0.6042
 7282SOL     OW33478   4.052   2.202   8.137  0.3581  0.1855 -0.4103
 7282SOL    HW133479   3.974   2.164   8.177  0.1113  2.3234  1.0825
 7282SOL    HW233480   4.104   2.226   8.213 -1.4674 -0.2669  0.9838
 7283SOL     OW33481   0.090   4.305   3.605 -0.1521  0.4043  0.6501
 7283SOL    HW133482   4.735   4.282   3.612 -0.1173  0.1149  0.1469
 7283SOL    HW233483   0.133   4.277   3.685  0.8217  0.5506  0.1744
 7284SOL     OW33484   4.345   2.172   5.345 -0.3345  0.5787 -0.5637
 7284SOL    HW133485   4.421   2.174   5.403  0.3259  0.1380 -1.4242
 7284SOL    HW233486   4.279   2.164   5.415 -1.6410  1.6274 -1.6825
 7285SOL     OW33487   3.100   3.651   4.847 -0.0931  0.0160 -0.5297
 7285SOL    HW133488   3.010   3.662   4.817  0.4315  0.3085 -2.0075
 7285SOL    HW233489   3.108   3.557   4.834 -0.7220 -0.4843  2.7522
 7286SOL     OW33490   4.199   2.473   1.106 -0.0754 -0.0592 -0.0518
 7286SOL    HW133491   4.217   2.405   1.042 -1.6173  1.2094 -1.8170
 7286SOL    HW233492   4.233   2.550   1.060 -0.3416  1.2557  1.9175
 7287SOL     OW33493   1.039   3.695   8.537 -0.2608  0.5339 -0.5203
 7287SOL    HW133494   1.011   3.786   8.537  1.0347  0.9236  0.4596
 7287SOL    HW233495   0.954   3.651   8.529 -1.9359  3.1502  2.4834
 7288SOL     OW33496   3.638   3.629   3.203  0.2686  0.3973 -0.0788
 7288SOL    HW133497   3.732   3.620   3.185  0.6295  3.6098  0.2496
 7288SOL    HW233498   3.667   3.680   3.278  1.3329 -0.8483  0.3644
 7289SOL     OW33499   3.750   1.842   2.749  0.2624 -0.3229  0.7842
 7289SOL    HW133500   3.744   1.919   2.693  0.2400 -1.1979 -0.4187
 7289SOL    HW233501   3.791   1.870   2.831 -0.5968  2.7663  0.1271
 7290SOL     OW33502   4.636   0.809  12.062 -0.2227  0.4530 -0.3389
 7290SOL    HW133503   4.566   0.874  12.065 -0.3306  0.3977 -1.7560
 7290SOL    HW233504   4.717   0.859  12.054  0.9745 -1.2845  0.7928
 7291SOL     OW33505   1.764   4.497   1.919  0.7307 -0.1947 -0.6473
 7291SOL    HW133506   1.707   4.430   1.959  1.9512  0.8978  2.8715
 7291SOL    HW233507   1.760   4.562   1.989  3.2453  0.7247 -1.3734
 7292SOL     OW33508   3.556   4.090   1.825  0.2765  0.4269  0.0698
 7292SOL    HW133509   3.620   4.018   1.830 -0.8931 -0.9519 -4.5085
 7292SOL    HW233510   3.495   4.040   1.771  1.6946  0.8775 -1.9633
 7293SOL     OW33511   2.817   0.459  15.646  0.2570  0.1258 -0.2457
 7293SOL    HW133512   2.851   0.370  15.637  2.0924  0.4411  3.3189
 7293SOL    HW233513   2.869   0.514  15.588 -1.1323  1.8567  0.1492
 7294SOL     OW33514   2.010   0.796   4.111 -0.5813 -0.6712  0.7654
 7294SOL    HW133515   2.066   0.859   4.066 -1.0800 -1.0625 -0.4037
 7294SOL    HW233516   1.937   0.803   4.049  1.2184 -0.8802 -1.3711
 7295SOL     OW33517   1.370   1.673  12.255  0.3873  0.1197  0.2220
 7295SOL    HW133518   1.368   1.739  12.186 -1.1355 -0.9037 -0.7185
 7295SOL    HW233519   1.306   1.702  12.320  0.6916  0.9997  0.1254
 7296SOL     OW33520   3.714   3.974   8.993 -0.4545 -0.2106 -0.0114
 7296SOL    HW133521   3.771   4.047   9.019  1.0730 -1.8690  1.3119
 7296SOL    HW233522   3.787   3.915   8.975 -1.1071 -0.2221 -2.5935
 7297SOL     OW33523   0.172   4.239   8.444 -0.3752  0.2247  0.6510
 7297SOL    HW133524   0.181   4.301   8.517 -3.5666 -1.8566  2.8199
 7297SOL    HW233525   0.151   4.161   8.495 -2.4926 -0.6394 -1.5794
 7298SOL     OW33526   1.331   0.411   3.769  0.0617  0.2400 -0.4567
 7298SOL    HW133527   1.356   0.391   3.859  0.7789  2.1811 -0.2353
 7298SOL    HW233528   1.411   0.449   3.733 -0.1795 -0.1421 -1.4073
 7299SOL     OW33529   2.537   2.360   3.430 -0.1517 -0.2717  0.1726
 7299SOL    HW133530   2.570   2.271   3.417 -0.6367 -0.5733  0.9487
 7299SOL    HW233531   2.605   2.404   3.379 -0.2098  0.2389  0.5344
 7300SOL     OW33532   0.807   1.986   2.563 -0.1408 -0.3668  0.4040
 7300SOL    HW133533   0.737   2.051   2.568  0.3899  0.0357  2.4818
 7300SOL    HW233534   0.877   2.024   2.511 -0.1554 -0.1445  0.5511
 7301SOL     OW33535   3.684   1.492   7.104 -0.6099  0.1305 -0.4959
 7301SOL    HW133536   3.733   1.572   7.083  0.1894 -0.1234  0.3877
 7301SOL    HW233537   3.753   1.438   7.143  0.0817  1.3461 -0.0289
 7302SOL     OW33538   0.180   4.156  10.556 -0.3358  0.0400 -0.2841
 7302SOL    HW133539   0.117   4.085  10.572 -2.5881  1.4114 -2.8459
 7302SOL    HW233540   0.186   4.149  10.460  0.8577  0.0988 -0.2121
 7303SOL     OW33541   4.366   3.119  14.776  0.1179 -0.1843  0.6951
 7303SOL    HW133542   4.438   3.095  14.718  0.9615 -0.8500  2.0201
 7303SOL    HW233543   4.397   3.080  14.858  3.1442  0.2372 -0.2520
 7304SOL     OW33544   2.796   1.230   2.522 -0.2794  0.1902 -0.0766
 7304SOL    HW133545   2.757   1.184   2.448 -2.0222  2.6763 -0.7086
 7304SOL    HW233546   2.890   1.217   2.508 -0.3575  0.2299 -0.6202
 7305SOL     OW33547   0.631   3.257   6.921 -0.0089 -0.3758 -0.3021
 7305SOL    HW133548   0.594   3.291   7.003  0.8449  0.4648 -0.2605
 7305SOL    HW233549   0.554   3.206   6.897  0.3849 -0.7371 -0.7932
 7306SOL     OW33550   3.953   3.032  16.481 -0.1701 -0.3098 -0.5707
 7306SOL    HW133551   3.861   3.008  16.473 -0.8842  2.0631  0.5651
 7306SOL    HW233552   3.990   2.993  16.401  1.7325  0.4858 -0.0821
 7307SOL     OW33553   0.883   3.821   7.577  0.0974 -0.0619 -0.1829
 7307SOL    HW133554   0.949   3.760   7.610  0.6148  0.5347 -0.1309
 7307SOL    HW233555   0.937   3.861   7.509  0.1889  0.0737 -0.0321
 7308SOL     OW33556   3.411   1.055   7.648 -0.6780 -0.3325 -0.2506
 7308SOL    HW133557   3.374   1.140   7.675  0.6199  0.6480 -1.5630
 7308SOL    HW233558   3.351   0.992   7.688  0.2015 -1.5553 -0.8948
 7309SOL     OW33559   1.909   2.577  17.522  0.2048  0.2572 -0.4230
 7309SOL    HW133560   1.952   2.510  17.575 -2.0809  1.6443  3.2354
 7309SOL    HW233561   1.866   2.632  17.588  0.9396  1.0109 -0.5664
 7310SOL     OW33562   3.057   4.113   2.906  0.0404  0.0732 -0.1976
 7310SOL    HW133563   2.980   4.167   2.885 -0.8659 -0.8849  0.6747
 7310SOL    HW233564   3.021   4.025   2.896 -2.9966  1.4957 -1.9207
 7311SOL     OW33565   3.705   1.897   7.316  0.6137  0.2148 -0.3693
 7311SOL    HW133566   3.710   1.992   7.328 -1.9834  0.3541 -0.4968
 7311SOL    HW233567   3.705   1.868   7.407 -2.0374  2.5764  0.3586
 7312SOL     OW33568   1.786   2.914  16.374 -0.2003 -0.0765 -0.2386
 7312SOL    HW133569   1.708   2.902  16.429  0.9709  1.5741  1.7593
 7312SOL    HW233570   1.758   2.991  16.324  4.1867  1.0739 -0.9130
 7313SOL     OW33571   3.276   4.041  10.693  0.1645  0.6627 -0.4739
 7313SOL    HW133572   3.231   4.057  10.610 -3.5250 -0.5713  1.2816
 7313SOL    HW233573   3.364   4.016  10.665 -0.3339  0.2714 -1.6705
 7314SOL     OW33574   0.743   4.514   9.166 -0.1065 -0.3066 -0.2493
 7314SOL    HW133575   0.767   4.494   9.256 -1.0194 -1.5544 -0.2851
 7314SOL    HW233576   0.822   4.480   9.122 -1.0649  1.4907 -3.3932
 7315SOL     OW33577   0.470   1.861  10.808  0.0093 -0.2220  0.4952
 7315SOL    HW133578   0.477   1.905  10.723 -3.0603 -1.1970 -0.2865
 7315SOL    HW233579   0.500   1.929  10.867 -0.3312  0.7803 -0.4985
 7316SOL     OW33580   1.602   2.738   4.465 -0.4340 -0.0058 -0.0847
 7316SOL    HW133581   1.688   2.774   4.443 -1.4214  0.2816 -3.5813
 7316SOL    HW233582   1.585   2.686   4.386  0.2275 -0.2956 -0.0405
 7317SOL     OW33583   1.774   0.817  10.411  0.2601 -0.1272 -0.3684
 7317SOL    HW133584   1.745   0.808  10.320  0.1030 -2.0263 -0.1232
 7317SOL    HW233585   1.737   0.896  10.451 -0.9401 -1.5731  1.3614
 7318SOL     OW33586   1.049   0.185   5.955 -0.7487 -0.1079 -0.1883
 7318SOL    HW133587   1.012   0.240   6.023 -1.5813 -0.8823 -0.0131
 7318SOL    HW233588   0.991   0.110   5.944 -0.0962 -0.5067 -0.9676
 7319SOL     OW33589   1.720   1.804  17.606 -0.3585 -0.0115 -0.3505
 7319SOL    HW133590   1.742   1.817  17.699  1.6299 -1.3143 -0.6408
 7319SOL    HW233591   1.803   1.836  17.572  0.7580 -0.7397  1.6804
 7320SOL     OW33592   4.183   3.486   2.040 -0.6944 -0.0404 -0.1227
 7320SOL    HW133593   4.184   3.458   2.132  0.3423 -1.3253 -0.5185
 7320SOL    HW233594   4.262   3.437   2.018 -0.0008  1.1371 -0.2564
 7321SOL     OW33595   1.992   3.076  13.483 -0.2957  0.5459  0.0626
 7321SOL    HW133596   2.002   3.171  13.482  0.4473  0.4637 -0.6313
 7321SOL    HW233597   2.034   3.049  13.401 -0.2981  1.4182 -0.2236
 7322SOL     OW33598   4.116   1.282   4.215  0.2794 -0.0856  0.1606
 7322SOL    HW133599   4.049   1.266   4.282  0.1591 -2.0759 -0.4305
 7322SOL    HW233600   4.140   1.374   4.224 -0.1695 -0.2322  3.0615
 7323SOL     OW33601   1.428   0.414  15.128  0.5555  0.2335  0.2467
 7323SOL    HW133602   1.372   0.335  15.125  2.3383 -0.9782 -1.1081
 7323SOL    HW233603   1.427   0.426  15.223 -1.5437  0.3324  0.2245
 7324SOL     OW33604   1.496   3.787   4.593 -0.4367  0.6160 -0.3527
 7324SOL    HW133605   1.577   3.834   4.611 -0.0773 -0.0903 -0.1467
 7324SOL    HW233606   1.439   3.858   4.563 -3.4429 -1.3395  0.7506
 7325SOL     OW33607   4.637   1.719  10.660 -0.7465 -0.0841  0.2167
 7325SOL    HW133608   4.672   1.660  10.592  3.3740  0.2962  2.0032
 7325SOL    HW233609   4.551   1.682  10.681 -0.7051 -1.1701 -1.4665
 7326SOL     OW33610   0.110   3.503   9.587 -0.2136  0.1869  0.1464
 7326SOL    HW133611   0.016   3.510   9.608 -0.4062  1.8101 -1.2605
 7326SOL    HW233612   0.158   3.551   9.654  2.2386 -0.3497 -1.2130
 7327SOL     OW33613   3.475   0.257   5.807 -0.4986 -0.1097  0.2694
 7327SOL    HW133614   3.502   0.292   5.892 -2.3702  1.0619  0.3809
 7327SOL    HW233615   3.489   0.323   5.739  0.0978 -0.8718 -0.3458
 7328SOL     OW33616   4.222   1.948   5.747 -0.2952 -0.2548 -0.3951
 7328SOL    HW133617   4.154   1.934   5.812  2.0489 -1.9702  1.6622
 7328SOL    HW233618   4.231   1.854   5.740  0.1646 -0.3936  2.0882
 7329SOL     OW33619   1.766   2.481   7.126  0.1831  0.0508 -0.0898
 7329SOL    HW133620   1.721   2.566   7.128 -2.5778 -1.3780 -1.3720
 7329SOL    HW233621   1.834   2.501   7.190 -0.6749  0.3313  0.7387
 7330SOL     OW33622   2.576   2.605   3.011  0.1344  0.1715 -0.1886
 7330SOL    HW133623   2.516   2.552   3.063 -1.7410  2.0200 -0.5189
 7330SOL    HW233624   2.540   2.593   2.923 -1.1078  0.7787  0.2404
 7331SOL     OW33625   1.452   3.209  13.903 -0.8095  0.6869  0.3973
 7331SOL    HW133626   1.362   3.241  13.901 -1.0529 -0.0588 -0.7209
 7331SOL    HW233627   1.497   3.287  13.870  1.0887 -1.3177 -1.6931
 7332SOL     OW33628   3.498   1.520   2.959 -0.6004 -0.4379  0.5538
 7332SOL    HW133629   3.469   1.594   2.906  0.2094 -2.2077 -2.3822
 7332SOL    HW233630   3.563   1.565   3.013 -1.3241 -0.0827  1.1182
 7333SOL     OW33631   3.521   1.786   4.254  0.9756 -0.1481  0.2397
 7333SOL    HW133632   3.435   1.763   4.220  0.7332  1.9597 -0.5776
 7333SOL    HW233633   3.513   1.791   4.350 -0.5910 -0.5083  0.1331
 7334SOL     OW33634   4.167   2.333   8.649 -0.0664  0.5907  0.0684
 7334SOL    HW133635   4.137   2.283   8.725 -1.6451 -1.4069 -1.8782
 7334SOL    HW233636   4.086   2.367   8.613 -1.1100  0.1782  2.0201
 7335SOL     OW33637   2.249   0.919   1.639 -0.1886  0.0705 -0.2805
 7335SOL    HW133638   2.274   0.935   1.730  1.1776  1.1606 -0.8508
 7335SOL    HW233639   2.255   0.824   1.628  0.5395  0.1603 -0.6769
 7336SOL     OW33640   3.346   3.971   0.209  0.1337  0.0742 -0.2693
 7336SOL    HW133641   3.416   4.035   0.196  0.0816  0.2125  0.1336
 7336SOL    HW233642   3.275   4.034   0.196  0.8526  0.8032 -0.7082
 7337SOL     OW33643   3.953   2.890   6.487 -0.3588  0.2653  0.7056
 7337SOL    HW133644   3.880   2.901   6.426  1.2192 -2.3280 -1.6414
 7337SOL    HW233645   3.949   2.796   6.504  1.0908  0.4193  1.8650
 7338SOL     OW33646   2.275   1.334   1.079  0.1235 -0.2341  0.1580
 7338SOL    HW133647   2.337   1.283   1.131 -0.6857  0.4605  1.8042
 7338SOL    HW233648   2.302   1.328   0.987 -0.9128  1.0858 -0.2347
 7339SOL     OW33649   2.743   4.585   1.408 -0.0530 -0.2374  0.3918
 7339SOL    HW133650   2.667   4.596   1.464 -0.7288  0.0305 -0.5801
 7339SOL    HW233651   2.780   4.503   1.442  0.4753 -0.1746 -0.0234
 7340SOL     OW33652   4.123   0.409  12.783 -0.4290  0.1170 -0.2103
 7340SOL    HW133653   4.079   0.391  12.867  1.6286 -0.4387  0.7450
 7340SOL    HW233654   4.050   0.386  12.725  0.5253 -1.9253 -0.6178
 7341SOL     OW33655   3.809   3.617   0.593  0.1670 -0.2717  0.8586
 7341SOL    HW133656   3.784   3.709   0.583  1.1487 -0.0947  0.0069
 7341SOL    HW233657   3.730   3.573   0.562 -0.6516 -0.0057  2.5530
 7342SOL     OW33658   0.118   2.879   7.849 -0.1095 -0.7936  0.0330
 7342SOL    HW133659   0.182   2.846   7.912 -0.0928  3.2171  2.0932
 7342SOL    HW233660   0.163   2.904   7.768  2.3796  0.1720  1.7208
 7343SOL     OW33661   0.946   0.621   3.466 -0.6474  0.6608  0.0606
 7343SOL    HW133662   1.006   0.643   3.538  2.3975 -1.2180 -1.9065
 7343SOL    HW233663   0.957   0.526   3.471 -1.4219  0.6028  0.5856
 7344SOL     OW33664   3.125   3.661   4.266 -0.2330  0.2692  0.1003
 7344SOL    HW133665   3.040   3.691   4.234  0.4113  0.6501 -1.2366
 7344SOL    HW233666   3.108   3.576   4.307  2.9588  0.0747  0.9856
 7345SOL     OW33667   1.829   3.432   8.792 -0.4289  0.0035 -0.6193
 7345SOL    HW133668   1.863   3.519   8.771  0.1162 -0.2819 -0.9052
 7345SOL    HW233669   1.908   3.380   8.806 -2.4941 -1.8765  3.9638
 7346SOL     OW33670   1.615   1.251   9.451 -0.1245 -0.5707 -0.5244
 7346SOL    HW133671   1.692   1.295   9.487 -1.0717  0.5321  0.1572
 7346SOL    HW233672   1.560   1.242   9.528 -1.4983  1.2811 -1.2910
 7347SOL     OW33673   3.673   3.384  10.982  0.0635 -0.2796  0.3084
 7347SOL    HW133674   3.752   3.439  10.985 -0.8366  0.8715  3.1549
 7347SOL    HW233675   3.645   3.409  11.070 -2.5684  2.9662 -1.4659
 7348SOL     OW33676   4.204   0.687  14.695 -0.7422 -0.7169 -0.4147
 7348SOL    HW133677   4.109   0.691  14.693 -0.7413 -0.5435  0.0115
 7348SOL    HW233678   4.226   0.673  14.787  0.0507 -0.2673 -0.5401
 7349SOL     OW33679   2.159   4.670   4.134 -0.0690  0.2035  0.4036
 7349SOL    HW133680   2.093   4.617   4.091 -1.6113  1.8463  0.7132
 7349SOL    HW233681   2.104   4.713   4.200  1.3872  0.9092  1.1632
 7350SOL     OW33682   0.141   1.229   4.621  0.2304 -0.1982  0.1875
 7350SOL    HW133683   0.143   1.183   4.536  0.4950  0.8724 -0.3790
 7350SOL    HW233684   0.047   1.232   4.640 -0.1103 -0.2580 -1.4608
 7351SOL     OW33685   0.652   1.232   7.312 -0.0745 -0.1430  0.3002
 7351SOL    HW133686   0.585   1.277   7.261  1.1438  0.3496 -0.8557
 7351SOL    HW233687   0.597   1.168   7.358 -1.0761  0.0318 -0.6438
 7352SOL     OW33688   4.379   3.683   7.054 -0.0171  0.1042  0.2729
 7352SOL    HW133689   4.395   3.615   7.120 -1.3602 -0.2543  0.2391
 7352SOL    HW233690   4.283   3.688   7.055  0.0296  0.7133  2.1240
 7353SOL     OW33691   1.325   4.425   5.846  0.4859  0.5625 -0.0118
 7353SOL    HW133692   1.356   4.473   5.923 -0.0063  0.9162 -0.0266
 7353SOL    HW233693   1.387   4.353   5.849  1.7684  1.7179  1.1032
 7354SOL     OW33694   0.206   0.747   7.336  0.5531  0.2684 -0.6351
 7354SOL    HW133695   0.272   0.730   7.404  0.2443 -0.7529 -0.5817
 7354SOL    HW233696   0.185   0.838   7.356 -0.1615  0.1605 -0.8926
 7355SOL     OW33697   4.719   2.216   6.903  0.1534 -0.3640 -0.0068
 7355SOL    HW133698   4.718   2.181   6.814  0.1019  0.1179 -0.1941
 7355SOL    HW233699   0.075   2.221   6.923  0.0385  2.3498 -0.2067
 7356SOL     OW33700   0.169   1.374   3.832 -0.4349 -0.2246  0.1222
 7356SOL    HW133701   0.224   1.377   3.754 -1.3244  0.8005 -0.4714
 7356SOL    HW233702   0.171   1.469   3.848  1.1057 -0.1843 -0.2895
 7357SOL     OW33703   1.038   0.504   4.686 -0.1839  0.2610  0.1703
 7357SOL    HW133704   0.953   0.530   4.721 -0.1719  0.7542 -0.1707
 7357SOL    HW233705   1.027   0.412   4.710 -1.6526  0.1440 -0.9963
 7358SOL     OW33706   3.492   0.327  11.417  0.3790 -0.2354  0.6721
 7358SOL    HW133707   3.424   0.387  11.389 -1.2577 -1.7684  1.3741
 7358SOL    HW233708   3.494   0.271  11.339  1.1436  0.5437  0.1321
 7359SOL     OW33709   4.278   3.919   7.414  0.4514  0.4240  0.1860
 7359SOL    HW133710   4.351   3.864   7.384 -0.2172  0.3419 -1.3178
 7359SOL    HW233711   4.261   3.983   7.345 -1.0038 -2.1414 -1.8138
 7360SOL     OW33712   0.841   0.434   7.996 -0.1222  0.5635  0.5694
 7360SOL    HW133713   0.847   0.401   8.085 -0.4898 -0.4267  0.2267
 7360SOL    HW233714   0.769   0.496   8.007  0.1501  0.8199  0.9011
 7361SOL     OW33715   3.719   2.934   3.285 -0.6415  0.1217 -0.5351
 7361SOL    HW133716   3.724   2.853   3.234 -0.9331 -2.4478  3.5385
 7361SOL    HW233717   3.735   2.903   3.374 -1.2923  0.3737 -0.3271
 7362SOL     OW33718   3.474   3.227   1.949 -0.4085 -0.6075  0.3143
 7362SOL    HW133719   3.434   3.157   1.898  1.6816 -1.8533  0.3902
 7362SOL    HW233720   3.563   3.192   1.947 -0.3247 -0.3073 -0.8974
 7363SOL     OW33721   0.707   0.927   5.735 -0.4005  0.0410  0.4837
 7363SOL    HW133722   0.740   0.927   5.825 -0.8340  0.5572  0.6426
 7363SOL    HW233723   0.644   0.855   5.747 -0.2815 -0.4064 -1.5607
 7364SOL     OW33724   0.597   0.092   9.689  0.5420 -0.4958  0.8582
 7364SOL    HW133725   0.605   0.181   9.655  2.1774 -0.1513  2.1720
 7364SOL    HW233726   0.682   0.084   9.732  0.0855 -1.9611  1.4962
 7365SOL     OW33727   4.458   3.839   9.190 -0.1656 -0.2564 -0.5173
 7365SOL    HW133728   4.519   3.803   9.254 -1.4683 -0.5288  0.5564
 7365SOL    HW233729   4.452   3.767   9.128  0.3010 -0.8621  0.1376
 7366SOL     OW33730   2.301   4.474   7.810  0.2690 -0.2032  0.5360
 7366SOL    HW133731   2.278   4.567   7.816  2.6844  0.3330  1.5143
 7366SOL    HW233732   2.267   4.445   7.895  0.5265 -1.6230  0.1641
 7367SOL     OW33733   2.089   0.983   7.671 -0.0941 -0.3070 -0.0670
 7367SOL    HW133734   2.076   0.896   7.634  0.4880 -0.7353  0.7633
 7367SOL    HW233735   2.051   1.035   7.599 -0.8504 -0.4819  0.2018
 7368SOL     OW33736   1.956   2.285   7.554  0.1498  0.2379 -0.0307
 7368SOL    HW133737   1.955   2.248   7.643 -3.6471  0.2050 -0.0739
 7368SOL    HW233738   2.040   2.252   7.522 -0.0423  1.7294 -2.0587
 7369SOL     OW33739   3.628   4.422   4.082  0.0885 -0.0030 -0.7230
 7369SOL    HW133740   3.540   4.459   4.092 -0.3423 -0.5476 -2.5365
 7369SOL    HW233741   3.628   4.441   3.988 -1.0643 -0.0184 -0.7253
 7370SOL     OW33742   1.846   0.008  13.131  0.2248  0.8311  0.7252
 7370SOL    HW133743   1.797   4.665  13.130 -0.9608  1.5518 -0.8132
 7370SOL    HW233744   1.812   0.047  13.212  2.2003  1.0514  1.4541
 7371SOL     OW33745   0.921   4.528   4.742  0.5767 -0.0162  0.2708
 7371SOL    HW133746   0.829   4.506   4.725  1.7562 -3.6014 -1.3802
 7371SOL    HW233747   0.915   4.531   4.837 -4.5134 -0.7479  0.0188
 7372SOL     OW33748   2.139   4.075  16.194  0.5012 -0.1548  0.4264
 7372SOL    HW133749   2.120   4.125  16.273 -0.3507  0.1272  0.0515
 7372SOL    HW233750   2.169   3.992  16.231  1.9466 -0.2263 -0.8802
 7373SOL     OW33751   1.992   2.569   5.103 -0.5984 -0.0406  0.2998
 7373SOL    HW133752   1.926   2.509   5.068  0.4674 -0.1166 -1.5609
 7373SOL    HW233753   2.010   2.610   5.019 -1.9004  0.1304  0.0950
 7374SOL     OW33754   1.031   4.049  13.252  0.3130  0.5005  0.3699
 7374SOL    HW133755   1.094   4.060  13.181 -0.3565  2.6447  0.1252
 7374SOL    HW233756   1.098   4.023  13.316  0.0716  0.7898  0.7384
 7375SOL     OW33757   1.704   0.837   7.190  0.2169 -0.1380  0.2429
 7375SOL    HW133758   1.685   0.799   7.104  1.7907  0.6506 -0.4614
 7375SOL    HW233759   1.757   0.767   7.230  1.8938  0.4041 -0.9960
 7376SOL     OW33760   3.838   4.276   8.574 -0.4465  0.1310  0.2359
 7376SOL    HW133761   3.933   4.277   8.581 -0.2661  0.7038 -2.1524
 7376SOL    HW233762   3.809   4.286   8.665  0.7874  1.6649  0.4562
 7377SOL     OW33763   0.858   3.832   6.478  0.2937 -0.3543  0.3020
 7377SOL    HW133764   0.891   3.911   6.521  0.9288 -1.1826  1.3519
 7377SOL    HW233765   0.893   3.771   6.543  0.2854  0.8111  1.4061
 7378SOL     OW33766   2.507   3.798   6.060 -0.3852  0.6198  0.4288
 7378SOL    HW133767   2.419   3.761   6.051  0.1568 -0.7539  0.7641
 7378SOL    HW233768   2.492   3.892   6.049 -1.0514  0.3802 -0.6752
 7379SOL     OW33769   3.830   4.683   0.717  0.1325  0.3583  0.3773
 7379SOL    HW133770   3.888   0.017   0.697  1.3002  0.1414  2.8996
 7379SOL    HW233771   3.889   4.629   0.769 -1.4774 -0.8193  0.9788
 7380SOL     OW33772   0.184   1.648   7.353 -0.1596 -0.8377  0.3843
 7380SOL    HW133773   0.145   1.581   7.298 -0.5066 -2.4938  2.6770
 7380SOL    HW233774   0.144   1.723   7.310  1.6580 -1.2456 -2.0270
 7381SOL     OW33775   4.159   1.705   9.654  0.6612 -1.2164 -0.1914
 7381SOL    HW133776   4.156   1.639   9.724 -0.0834 -2.0593 -1.0307
 7381SOL    HW233777   4.125   1.778   9.705 -1.2604 -0.8280 -2.0416
 7382SOL     OW33778   1.080   2.645  12.880 -0.3480 -0.0460 -0.4700
 7382SOL    HW133779   1.125   2.568  12.915 -2.3040 -0.5616  0.8682
 7382SOL    HW233780   1.145   2.696  12.831 -0.7953 -0.1620 -1.1743
 7383SOL     OW33781   2.352   0.991   7.718  0.6384  0.3123 -0.2967
 7383SOL    HW133782   2.361   1.012   7.625  0.8888  1.0219 -0.1096
 7383SOL    HW233783   2.260   1.002   7.743 -0.1081 -0.3778 -2.7639
 7384SOL     OW33784   2.926   0.372   6.082 -0.2211  0.7201  0.2780
 7384SOL    HW133785   3.017   0.396   6.098 -0.8226  2.7402  0.6881
 7384SOL    HW233786   2.899   0.438   6.018 -3.1546 -0.5638  0.1817
 7385SOL     OW33787   2.062   3.788   4.227 -0.2731  0.5927  0.4096
 7385SOL    HW133788   2.128   3.857   4.240 -1.7794  2.4501 -1.7520
 7385SOL    HW233789   1.996   3.821   4.289 -1.1133 -0.2433 -0.0360
 7386SOL     OW33790   0.226   1.843   7.676  0.6496  0.6721  0.0259
 7386SOL    HW133791   0.147   1.793   7.695  1.4461 -0.2399  0.9332
 7386SOL    HW233792   0.286   1.773   7.651  2.1010  2.9086 -2.7761
 7387SOL     OW33793   1.149   3.545   4.726  0.0604  0.1892  0.0831
 7387SOL    HW133794   1.244   3.549   4.734 -0.3016  0.9580  4.1556
 7387SOL    HW233795   1.134   3.592   4.644  2.6882 -2.7345 -2.0624
 7388SOL     OW33796   4.180   0.159  15.542  0.5895  0.9413  0.1146
 7388SOL    HW133797   4.184   0.067  15.569  0.4187  0.5321 -1.2433
 7388SOL    HW233798   4.111   0.190  15.600  1.8244  0.2101  1.9711
 7389SOL     OW33799   0.974   4.213   3.037 -0.1469  0.3793 -0.0820
 7389SOL    HW133800   1.031   4.137   3.032 -0.7093 -0.1394  1.5089
 7389SOL    HW233801   0.901   4.183   2.983 -0.5733  1.3349 -0.0528
 7390SOL     OW33802   1.954   3.575   7.081 -0.6260 -0.6688 -0.3074
 7390SOL    HW133803   2.045   3.551   7.065 -1.1303  0.0911 -4.3117
 7390SOL    HW233804   1.912   3.547   7.000  0.3448  0.8362 -1.3476
 7391SOL     OW33805   1.428   3.228  16.928 -0.4579 -0.6195  0.0586
 7391SOL    HW133806   1.464   3.316  16.936 -1.6218 -0.0832 -0.6912
 7391SOL    HW233807   1.345   3.244  16.883  0.3829 -0.9797 -1.6115
 7392SOL     OW33808   4.082   3.636   6.858 -0.0372 -0.9598 -0.0049
 7392SOL    HW133809   4.161   3.687   6.839  0.7078 -2.2358 -0.3457
 7392SOL    HW233810   4.047   3.672   6.939  0.8048 -0.2438  0.0481
 7393SOL     OW33811   4.307   3.602   8.440  0.5450 -0.1486 -0.3388
 7393SOL    HW133812   4.269   3.560   8.363 -2.1959 -0.1408  0.9682
 7393SOL    HW233813   4.337   3.529   8.494 -0.9477 -1.2898 -1.0359
 7394SOL     OW33814   1.087   4.121  16.007  0.2846 -0.5470 -0.3763
 7394SOL    HW133815   1.022   4.074  15.956 -0.6057 -0.6211  0.8279
 7394SOL    HW233816   1.021   4.165  16.061  2.3299  1.9055  0.1053
 7395SOL     OW33817   1.971   3.644   3.101 -0.2508  0.6624  0.4964
 7395SOL    HW133818   1.921   3.708   3.153 -0.2402  1.6817 -0.7418
 7395SOL    HW233819   1.971   3.573   3.165  0.5942 -0.1227 -0.3738
 7396SOL     OW33820   0.949   3.426   0.704  0.3902  0.1667 -0.4258
 7396SOL    HW133821   0.996   3.385   0.632  2.1672 -0.2149  0.9623
 7396SOL    HW233822   0.980   3.516   0.703  1.1081 -0.0973 -1.3848
 7397SOL     OW33823   3.861   3.551   3.063  0.2922 -0.0506 -0.0926
 7397SOL    HW133824   3.949   3.517   3.050  0.9556  0.5653  2.7582
 7397SOL    HW233825   3.864   3.630   3.009 -0.0322  0.4839  0.6613
 7398SOL     OW33826   1.593   3.642   3.013  0.1237  0.2971  0.0335
 7398SOL    HW133827   1.605   3.638   3.108 -3.1263 -0.3247  0.4272
 7398SOL    HW233828   1.575   3.735   3.000 -0.6503  0.2453  0.7285
 7399SOL     OW33829   3.010   4.312  16.184 -0.0206  0.2478  0.0065
 7399SOL    HW133830   3.006   4.340  16.276  0.2871  0.8070 -0.1537
 7399SOL    HW233831   2.930   4.259  16.178 -0.1103  0.3290  0.4829
 7400SOL     OW33832   3.141   0.240   7.575  0.0387 -0.2228  0.2550
 7400SOL    HW133833   3.134   0.280   7.489 -2.8548  0.1165  0.6512
 7400SOL    HW233834   3.234   0.241   7.595  0.7514 -1.2148 -3.0737
 7401SOL     OW33835   4.281   4.457   6.414  0.3956 -0.2597  0.1988
 7401SOL    HW133836   4.316   4.542   6.386  0.5668 -0.8283 -1.3093
 7401SOL    HW233837   4.207   4.484   6.470  1.9530  0.8312  1.7387
 7402SOL     OW33838   3.179   3.887  15.694 -0.3051 -0.1238 -0.2532
 7402SOL    HW133839   3.179   3.907  15.787 -1.7358  2.8069 -0.8819
 7402SOL    HW233840   3.135   3.802  15.688 -0.1712 -0.1867 -0.3534
 7403SOL     OW33841   2.250   3.465   2.551 -0.3381  0.1814  0.0019
 7403SOL    HW133842   2.291   3.519   2.619 -1.2780  3.0919 -1.7410
 7403SOL    HW233843   2.161   3.500   2.555 -0.5263 -0.3433  0.3540
 7404SOL     OW33844   1.296   3.414   9.744  0.3586  0.3542 -0.1658
 7404SOL    HW133845   1.245   3.441   9.668  1.0203  0.2487 -0.6554
 7404SOL    HW233846   1.292   3.485   9.808 -2.2122  1.9517 -2.1336
 7405SOL     OW33847   4.301   2.977   4.253 -0.1857  0.7907 -0.2971
 7405SOL    HW133848   4.341   2.987   4.166 -1.1531  0.2137 -0.8164
 7405SOL    HW233849   4.253   2.897   4.231  2.4563 -1.0363  0.5958
 7406SOL     OW33850   1.430   3.294   8.503 -0.1863 -0.0156  0.3730
 7406SOL    HW133851   1.353   3.351   8.497 -0.9710 -1.1394 -0.2595
 7406SOL    HW233852   1.495   3.352   8.544 -1.5158  0.9710  1.0933
 7407SOL     OW33853   4.102   2.259   2.074  0.0111 -0.5698 -0.5205
 7407SOL    HW133854   4.169   2.298   2.132 -2.5415  1.0505  1.3668
 7407SOL    HW233855   4.150   2.263   1.991  1.0078  0.5096  0.1066
 7408SOL     OW33856   2.671   2.309   5.810  0.0904  0.3597  0.6434
 7408SOL    HW133857   2.627   2.383   5.769  0.6168  1.2865  1.7521
 7408SOL    HW233858   2.598   2.271   5.859  0.5410 -1.6981 -0.2639
 7409SOL     OW33859   0.180   1.210  17.513 -0.4745 -0.1684  0.5104
 7409SOL    HW133860   0.259   1.253  17.545 -1.1117  1.7377 -0.5332
 7409SOL    HW233861   0.166   1.131  17.567 -1.1375 -0.5616 -0.2400
 7410SOL     OW33862   3.617   3.125   8.375  0.4422  0.4094 -0.6741
 7410SOL    HW133863   3.592   3.208   8.334  0.3416  1.0924  0.7797
 7410SOL    HW233864   3.538   3.074   8.356  0.1258  1.1599 -1.4067
 7411SOL     OW33865   1.043   2.315  10.857 -0.2816 -0.0079 -0.3061
 7411SOL    HW133866   1.004   2.231  10.880 -0.0373 -0.1111 -0.2718
 7411SOL    HW233867   1.032   2.310  10.762 -2.4682 -1.6492  0.0319
 7412SOL     OW33868   0.626   0.421   5.163  0.3272 -0.2549  0.1606
 7412SOL    HW133869   0.604   0.513   5.175  1.4018  0.2271 -1.5384
 7412SOL    HW233870   0.685   0.419   5.088 -0.8672 -1.0015 -0.7548
 7413SOL     OW33871   0.898   1.866   3.642  0.2444 -0.2102  0.0738
 7413SOL    HW133872   0.868   1.917   3.717  0.4117 -0.1470  0.0975
 7413SOL    HW233873   0.938   1.936   3.591  1.4262 -2.1386 -1.6676
 7414SOL     OW33874   4.077   3.198  13.184  0.0990  0.2709 -0.1736
 7414SOL    HW133875   3.988   3.164  13.181  0.0131  0.6523 -1.5868
 7414SOL    HW233876   4.052   3.276  13.233 -0.3371 -0.5578  0.9305
 7415SOL     OW33877   4.729   2.725   8.141  0.2947 -0.1746 -0.3900
 7415SOL    HW133878   0.013   2.728   8.048  4.4101  0.3885  0.6082
 7415SOL    HW233879   4.711   2.634   8.163  1.0121  0.1915  1.7527
 7416SOL     OW33880   2.748   4.693   7.775  0.4058  0.0798 -0.0610
 7416SOL    HW133881   2.764   0.046   7.797 -0.4939  0.6112 -1.5713
 7416SOL    HW233882   2.769   4.651   7.859 -1.8510 -1.2569 -0.1582
 7417SOL     OW33883   2.409   2.407   3.672  0.1816 -0.1840  0.6920
 7417SOL    HW133884   2.445   2.431   3.587  0.7363  0.0832  1.0031
 7417SOL    HW233885   2.423   2.312   3.667 -0.0792 -0.2432  1.0594
 7418SOL     OW33886   4.249   2.007   1.716  0.0953 -0.0614  0.4574
 7418SOL    HW133887   4.170   2.020   1.769 -0.9148 -1.0122 -0.7952
 7418SOL    HW233888   4.285   2.095   1.724  0.8416 -0.3461  0.1448
 7419SOL     OW33889   1.768   0.173   8.596  0.3520  0.3809  0.2754
 7419SOL    HW133890   1.700   0.134   8.650 -1.4186  0.9618 -1.5708
 7419SOL    HW233891   1.780   0.104   8.531 -1.2672 -0.4841  0.9020
 7420SOL     OW33892   1.208   2.826   0.754  0.0702  0.6599 -0.0540
 7420SOL    HW133893   1.150   2.828   0.679  1.1938 -1.3246 -0.9605
 7420SOL    HW233894   1.273   2.893   0.731  1.6884 -0.8466  0.0692
 7421SOL     OW33895   1.168   0.202   4.453  0.1160  0.2132 -0.1019
 7421SOL    HW133896   1.259   0.232   4.452  0.0307  0.4425 -1.0429
 7421SOL    HW233897   1.169   0.157   4.369  0.6207  1.5877 -0.8304
 7422SOL     OW33898   2.428   2.906   8.871  0.3097  0.0433 -0.2150
 7422SOL    HW133899   2.504   2.952   8.906  0.1704  0.3391 -0.3030
 7422SOL    HW233900   2.409   2.962   8.796 -1.4208  0.3922  0.4814
 7423SOL     OW33901   4.328   4.542  11.526 -0.5488 -0.1610  0.2474
 7423SOL    HW133902   4.332   4.618  11.584  0.9211 -0.2781  0.2866
 7423SOL    HW233903   4.388   4.575  11.459 -0.5701  0.8150  0.7036
 7424SOL     OW33904   3.275   2.954   7.136  0.4373 -0.4572 -0.0482
 7424SOL    HW133905   3.313   3.015   7.073  1.3797 -0.5318  0.4597
 7424SOL    HW233906   3.290   2.998   7.220  3.0071 -0.7744 -0.3681
 7425SOL     OW33907   4.028   3.988   5.748  0.5415 -0.5449 -0.5138
 7425SOL    HW133908   3.934   3.978   5.761  0.6351 -0.4300  0.2706
 7425SOL    HW233909   4.050   4.037   5.827 -1.6918  1.1678 -0.9734
 7426SOL     OW33910   1.957   1.031   3.724  0.0437  1.0019 -0.0931
 7426SOL    HW133911   1.952   1.116   3.767  0.3067  0.0142  1.9234
 7426SOL    HW233912   1.875   0.988   3.747  1.8485 -2.8954 -0.9724
 7427SOL     OW33913   1.148   0.578   7.339  0.1768  0.2216 -0.2100
 7427SOL    HW133914   1.159   0.542   7.251 -0.4029  0.4914 -0.3943
 7427SOL    HW233915   1.189   0.663   7.327 -0.9845  0.7706 -0.3467
 7428SOL     OW33916   3.189   1.102   1.995 -0.6779 -0.1866  0.2032
 7428SOL    HW133917   3.178   1.147   2.079 -0.3918  0.3081 -0.0231
 7428SOL    HW233918   3.231   1.022   2.026 -1.4466 -0.7854 -0.2937
 7429SOL     OW33919   4.695   1.217   4.217  0.0249  0.3743 -0.7717
 7429SOL    HW133920   0.011   1.139   4.202  2.0339  1.3482  1.4064
 7429SOL    HW233921   4.631   1.206   4.146 -1.8174 -1.0137  1.1238
 7430SOL     OW33922   1.094   0.153   7.213  0.1695  0.0166  0.5312
 7430SOL    HW133923   1.186   0.168   7.193  0.3095 -1.9266 -0.3116
 7430SOL    HW233924   1.083   0.174   7.306 -0.6761 -2.1257  0.9212
 7431SOL     OW33925   0.041   0.386   2.242 -0.2022 -0.0206  0.2758
 7431SOL    HW133926   0.075   0.297   2.235  1.4056  0.5975  0.0638
 7431SOL    HW233927   4.691   0.363   2.271 -0.6209 -0.6703 -1.4789
 7432SOL     OW33928   1.871   1.409   1.327  0.2971  0.2439  0.0723
 7432SOL    HW133929   1.861   1.374   1.238  2.4851 -1.4429  0.5003
 7432SOL    HW233930   1.914   1.494   1.313  0.3302  0.4324  1.3495
 7433SOL     OW33931   1.362   0.151   3.157  0.3502 -0.0409 -0.1282
 7433SOL    HW133932   1.372   0.216   3.226  0.5137  0.7445 -0.8793
 7433SOL    HW233933   1.454   0.142   3.132 -0.2926 -2.4399 -1.6427
 7434SOL     OW33934   0.886   3.746   2.740  0.0866 -0.4220 -0.2988
 7434SOL    HW133935   0.927   3.734   2.825 -0.0056  1.3740  0.0048
 7434SOL    HW233936   0.901   3.657   2.708 -2.3313 -0.6134 -0.8977
 7435SOL     OW33937   3.180   2.785   3.484  0.2364 -0.6709 -0.5270
 7435SOL    HW133938   3.143   2.722   3.546  0.9080 -1.3147 -0.7953
 7435SOL    HW233939   3.095   2.825   3.465  0.8955  2.4957  3.1527
 7436SOL     OW33940   3.911   3.202   7.017  0.0725  0.3884 -0.0245
 7436SOL    HW133941   3.977   3.262   7.050 -0.3495  1.1722 -0.6087
 7436SOL    HW233942   3.964   3.165   6.946 -0.2160 -1.7074  0.8389
 7437SOL     OW33943   0.825   4.313   2.284 -0.2677  0.4903  0.4936
 7437SOL    HW133944   0.800   4.406   2.286 -1.0977  0.2965 -1.1608
 7437SOL    HW233945   0.797   4.275   2.367  3.2782 -0.6525  1.1640
 7438SOL     OW33946   2.251   4.009  12.609 -0.2877 -0.7754  0.0736
 7438SOL    HW133947   2.329   4.030  12.660 -1.4822 -0.7999  1.9242
 7438SOL    HW233948   2.250   4.065  12.531 -2.1670  0.6731  1.1400
 7439SOL     OW33949   0.183   1.746   3.323 -0.1348 -0.0147 -0.0037
 7439SOL    HW133950   0.127   1.716   3.395 -0.6379  1.8227  0.3519
 7439SOL    HW233951   0.265   1.697   3.327 -1.2739 -1.7185  3.0296
 7440SOL     OW33952   1.882   3.900   9.083  0.5003 -0.8847 -0.1048
 7440SOL    HW133953   1.928   3.955   9.146  0.9745  1.4071 -2.4512
 7440SOL    HW233954   1.797   3.893   9.128 -0.0602  0.7664 -0.9190
 7441SOL     OW33955   3.412   0.398   1.309 -0.0144 -0.3469 -0.0854
 7441SOL    HW133956   3.476   0.367   1.244 -1.7040 -1.3912 -1.2659
 7441SOL    HW233957   3.470   0.452   1.362 -1.7869 -1.4636  3.0111
 7442SOL     OW33958   1.588   2.301   0.794 -0.3339 -0.0591 -0.7316
 7442SOL    HW133959   1.655   2.286   0.727 -1.5743  3.1367 -2.6873
 7442SOL    HW233960   1.516   2.319   0.735 -0.9651 -2.2603 -0.6127
 7443SOL     OW33961   3.811   4.317  10.225 -0.3363  0.1729 -0.2526
 7443SOL    HW133962   3.722   4.291  10.200  0.1453 -1.5782 -0.1767
 7443SOL    HW233963   3.848   4.313  10.136  0.5379  1.2595  0.0654
 7444SOL     OW33964   1.965   3.290   2.958  0.2733 -0.1238 -0.6462
 7444SOL    HW133965   2.058   3.310   2.973  0.0701  1.1438 -1.0551
 7444SOL    HW233966   1.977   3.233   2.881  1.5726 -1.0863  0.2689
 7445SOL     OW33967   1.310   2.181   1.171  0.0559  0.0966 -0.1963
 7445SOL    HW133968   1.386   2.189   1.228  0.3275 -2.2888 -0.2325
 7445SOL    HW233969   1.318   2.262   1.120  1.0956  0.2792  0.2585
 7446SOL     OW33970   2.694   4.110   2.208 -0.3416  0.2983  0.3887
 7446SOL    HW133971   2.727   4.142   2.292  1.1149 -1.5068  0.5122
 7446SOL    HW233972   2.764   4.047   2.191  0.4141  1.3751 -0.4065
 7447SOL     OW33973   0.136   1.121  12.474 -0.1823 -0.3544  0.2737
 7447SOL    HW133974   0.089   1.046  12.508 -0.3450 -0.1711  0.4540
 7447SOL    HW233975   0.214   1.069  12.452  0.2090 -0.1351  1.1444
 7448SOL     OW33976   2.311   0.478   2.875 -0.0559  0.3407  0.1397
 7448SOL    HW133977   2.298   0.557   2.929  1.9722  0.4156  0.5049
 7448SOL    HW233978   2.321   0.408   2.939 -1.5838 -0.1917 -0.1928
 7449SOL     OW33979   3.816   1.994   2.955 -0.2129  0.5242 -0.2717
 7449SOL    HW133980   3.759   1.978   3.031 -0.4931  0.3761 -0.5121
 7449SOL    HW233981   3.826   2.089   2.956  1.0713  0.3871 -0.3108
 7450SOL     OW33982   1.476   0.117   7.431 -0.0795 -0.5790 -0.2168
 7450SOL    HW133983   1.472   0.075   7.517  1.6435 -2.9831 -1.3039
 7450SOL    HW233984   1.453   0.206   7.456  2.1043  0.3419 -1.5135
 7451SOL     OW33985   1.634   0.483   0.129 -0.9128 -0.2442  0.4857
 7451SOL    HW133986   1.706   0.428   0.159  0.8712  1.5905 -0.3752
 7451SOL    HW233987   1.572   0.460   0.198  0.6460 -3.1052  0.9077
 7452SOL     OW33988   1.249   2.004  12.894  0.3973  0.6348  0.2610
 7452SOL    HW133989   1.233   2.026  12.986  0.9013 -2.7516  1.1577
 7452SOL    HW233990   1.280   1.917  12.917 -0.2498  0.6653  1.2468
 7453SOL     OW33991   4.593   0.736   2.546  0.3399  0.0574 -0.0872
 7453SOL    HW133992   4.580   0.763   2.637  1.0316  2.5933 -0.7550
 7453SOL    HW233993   4.685   0.710   2.546  0.6291  1.1107  1.8930
 7454SOL     OW33994   4.317   3.576   9.769  0.3365  0.2010 -0.1958
 7454SOL    HW133995   4.302   3.663   9.732 -0.1692  0.2237  0.0652
 7454SOL    HW233996   4.369   3.604   9.843 -1.9125 -0.1382  1.5092
 7455SOL     OW33997   3.404   3.289  11.656 -0.4439  0.2489 -0.4434
 7455SOL    HW133998   3.391   3.260  11.746  1.6017  0.6818 -0.0334
 7455SOL    HW233999   3.479   3.348  11.651 -0.0519 -0.1194  1.0872
 7456SOL     OW34000   2.836   1.067   3.845 -0.2858 -0.0416  0.0785
 7456SOL    HW134001   2.805   1.079   3.756 -0.2720  1.8344  0.3398
 7456SOL    HW234002   2.931   1.064   3.836 -0.4034  0.9291 -1.3319
 7457SOL     OW34003   3.971   4.224  11.387 -0.1789  0.1221 -0.3642
 7457SOL    HW134004   4.066   4.237  11.387 -0.0697 -0.6589  0.0793
 7457SOL    HW234005   3.945   4.315  11.372  1.1318  0.7527  1.1843
 7458SOL     OW34006   1.559   1.096  15.909  0.1705 -0.0339 -0.2697
 7458SOL    HW134007   1.592   1.069  15.824 -0.1488 -1.1300 -0.0440
 7458SOL    HW234008   1.648   1.101  15.946  1.3345 -1.3049 -2.9357
 7459SOL     OW34009   3.827   2.063   3.699 -0.3458 -0.0129 -0.2995
 7459SOL    HW134010   3.863   2.060   3.788 -2.1641 -2.8435  0.3418
 7459SOL    HW234011   3.831   1.969   3.684  0.5161  0.3010 -2.0132
 7460SOL     OW34012   2.173   1.955   7.574 -0.3914  0.4856  0.3011
 7460SOL    HW134013   2.263   1.983   7.589  0.5478 -3.1294  1.3611
 7460SOL    HW234014   2.141   1.941   7.663  1.5087 -0.9934  0.7492
 7461SOL     OW34015   1.207   3.491  16.297 -0.1407 -0.1790  0.0391
 7461SOL    HW134016   1.298   3.471  16.273  0.1915 -1.5781  2.4191
 7461SOL    HW234017   1.174   3.524  16.214 -2.0602  1.7329  1.5647
 7462SOL     OW34018   0.781   3.906  17.494 -0.0971  0.0186 -0.1095
 7462SOL    HW134019   0.858   3.877  17.445 -0.4969  1.8430 -1.8084
 7462SOL    HW234020   0.722   3.888  17.422  1.6444  1.1011 -1.7991
 7463SOL     OW34021   1.391   2.963   3.780  0.3181  0.5425 -0.0817
 7463SOL    HW134022   1.334   2.927   3.848  1.1510  0.9245  0.8285
 7463SOL    HW234023   1.479   2.945   3.813  0.6758 -0.5449 -1.6286
 7464SOL     OW34024   0.159   4.567  13.659  0.2503  0.3761  0.0676
 7464SOL    HW134025   0.079   4.545  13.610  1.5184 -3.1187 -0.4369
 7464SOL    HW234026   0.187   4.640  13.604 -2.0221 -0.7940 -2.6531
 7465SOL     OW34027   0.220   1.734  14.759  0.1396  0.2813 -0.1096
 7465SOL    HW134028   0.143   1.775  14.799  1.6187  0.6289  2.3452
 7465SOL    HW234029   0.246   1.668  14.824 -0.1080  0.8937  0.6172
 7466SOL     OW34030   1.768   4.406   9.252 -0.3040  0.3541 -0.0547
 7466SOL    HW134031   1.809   4.389   9.167 -1.1540  1.3480 -0.6522
 7466SOL    HW234032   1.708   4.332   9.257  2.0594 -1.6365 -0.6935
 7467SOL     OW34033   3.076   4.319  14.202 -0.5653 -0.0081 -0.9082
 7467SOL    HW134034   3.046   4.342  14.114 -2.0664  1.3399 -0.0250
 7467SOL    HW234035   3.086   4.409  14.233 -1.5450  0.4051 -1.8042
 7468SOL     OW34036   0.834   3.599   4.962 -0.1336  0.8951 -0.0100
 7468SOL    HW134037   0.770   3.670   4.968  1.1501  1.9430  1.1353
 7468SOL    HW234038   0.856   3.582   5.054 -0.5001  1.5153  0.1895
 7469SOL     OW34039   0.348   1.985  14.669  0.0438  0.2242 -0.1504
 7469SOL    HW134040   0.336   1.898  14.708 -1.0146 -0.3724 -1.8403
 7469SOL    HW234041   0.306   2.037  14.737 -1.7258  0.4775 -1.4676
 7470SOL     OW34042   1.289   3.696   4.198  0.6099  0.2531  0.4904
 7470SOL    HW134043   1.283   3.791   4.208 -0.6265  0.2621 -0.3060
 7470SOL    HW234044   1.201   3.673   4.170  0.9303 -2.2511  1.5106
 7471SOL     OW34045   3.210   2.179   4.222  1.0298  0.1813 -0.2570
 7471SOL    HW134046   3.191   2.089   4.196 -2.4318 -0.0045  2.8623
 7471SOL    HW234047   3.186   2.170   4.314  1.1464  1.4970 -0.0962
 7472SOL     OW34048   2.086   1.154   0.051 -0.5130 -0.4111  0.3951
 7472SOL    HW134049   2.150   1.177   0.118 -0.0429 -2.8276  0.7563
 7472SOL    HW234050   2.039   1.236   0.037  1.8339  0.7379 -0.8627
 7473SOL     OW34051   0.884   2.226   9.506 -0.4927  0.5222  0.2946
 7473SOL    HW134052   0.904   2.314   9.477 -2.1390  0.7987 -0.0161
 7473SOL    HW234053   0.857   2.243   9.596  0.2360  1.7263  0.2744
 7474SOL     OW34054   2.747   0.918  10.908  0.6587  0.2443  0.3875
 7474SOL    HW134055   2.802   0.883  10.837  1.2192  1.2655  0.3252
 7474SOL    HW234056   2.674   0.856  10.907  0.8421  0.0064  1.1054
 7475SOL     OW34057   4.097   3.641  13.069 -0.0189  0.3893  0.5716
 7475SOL    HW134058   4.033   3.687  13.015  0.0748  0.7205  0.7484
 7475SOL    HW234059   4.061   3.555  13.048 -0.1653  1.3444 -3.0768
 7476SOL     OW34060   0.993   0.033  16.164  0.6531  0.4089 -0.2947
 7476SOL    HW134061   0.984   4.677  16.154 -0.3085  0.2605  1.8399
 7476SOL    HW234062   1.034   0.059  16.082  1.5995 -1.2161 -0.3313
 7477SOL     OW34063   0.589   2.625  13.990 -0.1948 -0.2511  1.1115
 7477SOL    HW134064   0.562   2.587  13.907  2.7499 -0.6665  0.3310
 7477SOL    HW234065   0.509   2.662  14.027 -0.1827 -0.1382  1.0276
 7478SOL     OW34066   3.491   4.279   0.961 -0.1976 -0.4427 -0.0621
 7478SOL    HW134067   3.409   4.276   0.912 -1.4498 -0.0776  2.0127
 7478SOL    HW234068   3.529   4.356   0.918 -1.2435 -0.7474 -1.5116
 7479SOL     OW34069   0.283   3.693  12.988  0.3183  0.1361  0.3888
 7479SOL    HW134070   0.274   3.612  13.038  0.2735  0.3857  0.7860
 7479SOL    HW234071   0.333   3.742  13.053  1.8266 -0.5555 -0.2541
 7480SOL     OW34072   0.188   4.353   0.176 -0.5778 -0.4240 -0.3015
 7480SOL    HW134073   0.274   4.348   0.218 -1.2480 -1.0650  0.9782
 7480SOL    HW234074   0.127   4.328   0.246  0.1860 -0.3849  0.3796
 7481SOL     OW34075   4.086   4.074   4.651  0.1224  0.5635 -0.5590
 7481SOL    HW134076   4.147   4.143   4.676 -2.7478  2.9973 -0.2637
 7481SOL    HW234077   4.019   4.070   4.720  1.5711  1.6289  0.9026
 7482SOL     OW34078   2.769   0.476  11.259 -0.1683 -0.0572 -0.0730
 7482SOL    HW134079   2.816   0.411  11.206 -0.0348 -0.7042  0.8555
 7482SOL    HW234080   2.752   0.445  11.348  1.7876 -0.9781 -0.0151
 7483SOL     OW34081   2.445   1.369   5.387 -0.1705  0.5419 -0.1210
 7483SOL    HW134082   2.438   1.310   5.461  0.1536  0.1362 -0.4159
 7483SOL    HW234083   2.421   1.447   5.438 -1.5896  1.0684 -1.5790
 7484SOL     OW34084   1.535   0.764   6.092  0.0274 -0.1125  0.5104
 7484SOL    HW134085   1.563   0.845   6.049  1.4912 -0.4654  0.7831
 7484SOL    HW234086   1.571   0.695   6.036 -0.4850  1.1462 -1.3351
 7485SOL     OW34087   2.090   4.212  16.421 -0.2498  0.4469  0.0396
 7485SOL    HW134088   2.021   4.177  16.477  1.8606 -1.4023  1.4910
 7485SOL    HW234089   2.035   4.266  16.365  0.8410 -1.0831 -2.5214
 7486SOL     OW34090   0.303   3.315  15.029  0.3568 -0.2768 -0.0081
 7486SOL    HW134091   0.212   3.285  15.027  0.0597  0.7885 -1.9766
 7486SOL    HW234092   0.305   3.408  15.008 -0.5383 -0.1304  0.5500
 7487SOL     OW34093   1.162   0.282  15.129  0.0987  0.0306  0.2658
 7487SOL    HW134094   1.192   0.278  15.038  0.4387 -0.8064  0.4191
 7487SOL    HW234095   1.078   0.328  15.120 -0.3897 -0.8201  0.4433
 7488SOL     OW34096   2.595   2.613  14.504 -0.1783 -0.8637  0.2186
 7488SOL    HW134097   2.653   2.564  14.446  1.1657  0.9592 -0.0204
 7488SOL    HW234098   2.506   2.592  14.477  0.8874 -2.5500 -1.8857
 7489SOL     OW34099   2.804   2.433   6.353 -0.0271 -0.0221 -0.1005
 7489SOL    HW134100   2.765   2.377   6.286  1.9405 -0.2504 -1.0363
 7489SOL    HW234101   2.725   2.486   6.364  0.2921  0.2158  1.0219
 7490SOL     OW34102   0.408   2.007   9.667 -0.7642  0.3219  0.2624
 7490SOL    HW134103   0.450   2.044   9.589 -0.8097 -1.2096 -0.4915
 7490SOL    HW234104   0.352   1.941   9.627  1.1757 -0.1864 -1.6334
 7491SOL     OW34105   2.845   4.686   3.905  0.7689 -0.0063 -0.1901
 7491SOL    HW134106   2.777   4.703   3.840 -0.1572  0.6696  0.9465
 7491SOL    HW234107   2.914   0.010   3.883 -0.4365  1.9151  1.4802
 7492SOL     OW34108   2.747   2.050   4.130 -0.4131  0.4380  0.4995
 7492SOL    HW134109   2.791   1.993   4.193 -2.3421 -1.9512 -0.3075
 7492SOL    HW234110   2.810   2.040   4.059 -0.6924  0.3782  0.2581
 7493SOL     OW34111   2.454   2.392   0.445  0.5948  0.5117  0.0395
 7493SOL    HW134112   2.437   2.469   0.499 -1.4769  0.2349 -0.2223
 7493SOL    HW234113   2.383   2.332   0.470 -0.3859  0.9551 -1.6421
 7494SOL     OW34114   1.559   2.359   1.676  0.3402 -0.3144 -0.2633
 7494SOL    HW134115   1.525   2.343   1.764  0.4398  1.7922  0.1758
 7494SOL    HW234116   1.483   2.391   1.629  0.9283  1.0203 -0.3216
 7495SOL     OW34117   2.230   3.091   6.586 -0.5249 -0.2635 -0.4427
 7495SOL    HW134118   2.169   3.111   6.515  0.0539  0.3285 -0.7690
 7495SOL    HW234119   2.308   3.130   6.546 -1.0985 -0.2936 -1.5927
 7496SOL     OW34120   4.132   2.918   0.397 -0.1018 -0.1395 -0.7933
 7496SOL    HW134121   4.219   2.949   0.371  0.6384 -2.3345 -0.9551
 7496SOL    HW234122   4.095   3.005   0.411 -2.5651 -1.2359 -0.5221
 7497SOL     OW34123   0.018   2.561  10.782 -0.3060  0.7345 -0.3867
 7497SOL    HW134124   0.048   2.637  10.732 -1.0622  1.3158  0.0426
 7497SOL    HW234125   0.072   2.571  10.861  0.0987 -0.2116 -0.5453
 7498SOL     OW34126   3.798   2.079   4.365 -0.2423  0.2731  0.2517
 7498SOL    HW134127   3.814   2.171   4.345 -0.9269  0.2067 -0.6076
 7498SOL    HW234128   3.703   2.072   4.362 -0.0397 -2.1472 -0.8480
 7499SOL     OW34129   1.433   1.627   8.987 -0.3858  0.6196 -0.4245
 7499SOL    HW134130   1.447   1.718   8.960 -0.0383  0.2038 -1.6866
 7499SOL    HW234131   1.367   1.607   8.921  0.1545 -1.7619 -0.2505
 7500SOL     OW34132   3.996   0.117   8.336 -0.4580  0.2249  0.3072
 7500SOL    HW134133   3.979   0.209   8.358  0.2546  1.0226 -2.4917
 7500SOL    HW234134   4.067   0.096   8.397 -0.2225 -0.5791 -0.2402
 7501SOL     OW34135   2.127   4.155   1.428  0.3056  0.0214  0.3771
 7501SOL    HW134136   2.121   4.251   1.433 -0.7404 -0.0356  0.1199
 7501SOL    HW234137   2.215   4.137   1.460 -0.2425  0.0578  1.9187
 7502SOL     OW34138   3.927   0.828   0.717  0.4052 -0.6467 -0.1017
 7502SOL    HW134139   3.843   0.851   0.678  0.8483  1.9109  0.4725
 7502SOL    HW234140   3.989   0.845   0.646  2.3443 -0.0444  1.7457
 7503SOL     OW34141   1.184   2.593   6.645  0.2820 -0.5133 -0.5623
 7503SOL    HW134142   1.185   2.689   6.651  0.8428 -0.5818  0.5415
 7503SOL    HW234143   1.148   2.573   6.732  0.4033 -1.7871 -0.8124
 7504SOL     OW34144   3.707   0.736  10.256  0.2150 -0.1379  0.1229
 7504SOL    HW134145   3.622   0.746  10.212  0.6089  1.5621 -0.2467
 7504SOL    HW234146   3.750   0.678  10.194  0.9919 -1.6040  2.0436
 7505SOL     OW34147   4.496   1.645   7.145  0.2002 -0.3057  0.5500
 7505SOL    HW134148   4.429   1.709   7.122 -0.1123 -1.0338 -0.5459
 7505SOL    HW234149   4.450   1.595   7.213  0.3941 -0.1875  0.7688
 7506SOL     OW34150   1.363   1.978   8.458 -0.3650 -0.3921  0.3683
 7506SOL    HW134151   1.423   1.986   8.532  3.9095 -0.4593 -3.0632
 7506SOL    HW234152   1.282   2.012   8.495 -0.8129 -3.8674  2.5744
 7507SOL     OW34153   0.131   1.663   6.414 -0.1627  0.0861 -0.6172
 7507SOL    HW134154   0.225   1.650   6.399  0.4352  2.0667  1.3183
 7507SOL    HW234155   0.086   1.584   6.384  1.7139 -0.4167 -2.1116
 7508SOL     OW34156   1.796   2.047   1.727 -0.7223 -0.5638 -0.2315
 7508SOL    HW134157   1.705   2.070   1.748 -1.1105 -1.1152 -1.3414
 7508SOL    HW234158   1.827   2.071   1.814  2.6323  0.0144 -1.5830
 7509SOL     OW34159   3.875   0.621   7.500 -0.0576  0.0649  0.3992
 7509SOL    HW134160   3.930   0.691   7.533  0.8512  0.0164 -1.0244
 7509SOL    HW234161   3.805   0.617   7.566 -2.1965 -1.1680 -1.9200
 7510SOL     OW34162   4.517   2.926   2.808  0.5006  0.0495 -0.3912
 7510SOL    HW134163   4.463   2.928   2.729  0.7835  1.4468 -0.5577
 7510SOL    HW234164   4.604   2.918   2.769  0.6560  0.3687 -0.1088
 7511SOL     OW34165   4.660   2.452   9.991 -0.1536  0.0726  0.1418
 7511SOL    HW134166   4.697   2.540   9.984  0.4301 -0.1804  0.0733
 7511SOL    HW234167   4.635   2.460  10.083  0.1460 -1.5829  0.3503
 7512SOL     OW34168   2.566   0.688  14.543  0.3989  0.1947 -0.2668
 7512SOL    HW134169   2.525   0.760  14.591  1.5465  0.4442  0.3380
 7512SOL    HW234170   2.503   0.616  14.551  1.8574 -1.0645 -0.1112
 7513SOL     OW34171   0.274   3.808  14.938 -0.1102  0.2365 -0.4703
 7513SOL    HW134172   0.310   3.792  14.851  2.8479 -0.9332  0.9851
 7513SOL    HW234173   0.195   3.858  14.916 -1.0923 -1.4634 -0.8071
 7514SOL     OW34174   3.259   4.571   3.820  0.2592  0.4259 -0.7821
 7514SOL    HW134175   3.283   4.654   3.780  0.8554  0.3751 -0.5401
 7514SOL    HW234176   3.166   4.564   3.799  0.0972  1.6000 -0.4094
 7515SOL     OW34177   1.954   2.392   6.518  0.0482 -0.0035  0.3207
 7515SOL    HW134178   2.043   2.358   6.523  1.1599  2.7967 -0.4526
 7515SOL    HW234179   1.909   2.357   6.595 -0.6662 -0.1328 -0.1534
 7516SOL     OW34180   0.030   3.088   3.870 -0.1733  0.0584 -0.2080
 7516SOL    HW134181   0.071   3.141   3.802 -2.0377  1.1349 -0.4919
 7516SOL    HW234182   0.098   3.061   3.932 -1.6316 -2.0959  0.4404
 7517SOL     OW34183   0.315   1.607   2.314 -0.3053  0.0532  0.4074
 7517SOL    HW134184   0.322   1.523   2.269 -0.4564  0.1666  0.1674
 7517SOL    HW234185   0.355   1.589   2.399  0.4996  2.0508  0.4535
 7518SOL     OW34186   0.992   2.993   3.037  0.1021 -0.1292  0.2154
 7518SOL    HW134187   1.041   3.045   3.100  0.0854  1.7162 -1.2851
 7518SOL    HW234188   0.906   3.034   3.044 -0.2315 -1.1601  1.9961
 7519SOL     OW34189   4.067   3.009   5.588 -0.7535 -0.5761  0.0835
 7519SOL    HW134190   4.057   3.065   5.665 -0.6529 -2.5519  1.5323
 7519SOL    HW234191   4.162   3.001   5.589 -0.7737 -0.8111  0.0093
 7520SOL     OW34192   3.897   3.828   7.247  0.2423  0.0321 -0.2370
 7520SOL    HW134193   3.808   3.802   7.226  0.1322  0.7694 -0.6935
 7520SOL    HW234194   3.875   3.910   7.291 -0.5798 -0.0975 -0.4051
 7521SOL     OW34195   0.526   2.212   3.655  0.1886  0.1790 -0.0977
 7521SOL    HW134196   0.502   2.220   3.563 -1.4787 -1.1220  0.2269
 7521SOL    HW234197   0.454   2.266   3.688  0.1157 -0.0839  0.1795
 7522SOL     OW34198   2.193   3.985   7.204  0.1023  0.2801  0.2602
 7522SOL    HW134199   2.224   4.035   7.279  0.5778  1.3221 -0.6377
 7522SOL    HW234200   2.166   3.897   7.231 -1.7890  0.4500 -0.9994
 7523SOL     OW34201   0.686   0.448   8.543 -0.5214  0.1332  0.2242
 7523SOL    HW134202   0.626   0.459   8.616  2.7056  0.7900  2.7659
 7523SOL    HW234203   0.763   0.404   8.579 -2.1694 -1.3871  1.8875
 7524SOL     OW34204   2.214   0.479  10.893 -0.0636 -0.5605 -0.5359
 7524SOL    HW134205   2.279   0.486  10.823 -2.3252 -0.5522 -2.6649
 7524SOL    HW234206   2.200   0.387  10.871  1.0625 -0.1798 -2.8780
 7525SOL     OW34207   4.484   4.287   4.599 -0.7753 -0.7039  0.0816
 7525SOL    HW134208   4.565   4.328   4.569 -1.1072  0.6870  1.0959
 7525SOL    HW234209   4.507   4.194   4.593  3.3303  0.2168  1.7232
 7526SOL     OW34210   2.177   0.932   2.800  0.5697  0.0617 -0.4092
 7526SOL    HW134211   2.154   0.841   2.820 -0.0579 -0.0288 -1.5474
 7526SOL    HW234212   2.219   0.914   2.716 -0.3678  2.4076 -1.3843
 7527SOL     OW34213   2.503   1.181   3.222 -0.0866 -0.1767  0.3505
 7527SOL    HW134214   2.443   1.162   3.150  1.2734 -0.8120 -0.6144
 7527SOL    HW234215   2.445   1.235   3.276 -1.5045  1.8202 -3.1904
 7528SOL     OW34216   4.677   0.737   0.565 -0.2676 -0.0866 -0.9432
 7528SOL    HW134217   4.637   0.764   0.483  1.5195 -0.2811 -1.8922
 7528SOL    HW234218   4.662   0.820   0.610 -1.5200 -0.0298 -1.4769
 7529SOL     OW34219   1.919   2.031   3.742 -0.9444  0.1164  0.7624
 7529SOL    HW134220   1.961   2.116   3.755 -3.0320  0.8150  2.7284
 7529SOL    HW234221   1.988   1.968   3.720 -0.2367  0.9349  0.6110
 7530SOL     OW34222   2.655   3.990   6.532 -0.4768 -0.0521  0.3301
 7530SOL    HW134223   2.733   3.956   6.578 -0.0089 -0.4957 -0.7861
 7530SOL    HW234224   2.594   4.002   6.604 -1.1149  1.3666 -0.4517
 7531SOL     OW34225   0.754   4.356   8.435  0.2671  0.7475  0.1528
 7531SOL    HW134226   0.827   4.313   8.389  0.1452 -0.0227  0.6790
 7531SOL    HW234227   0.757   4.318   8.523  0.9126  1.5082  0.4542
 7532SOL     OW34228   2.093   2.142   5.541 -0.0900 -0.1138  0.3085
 7532SOL    HW134229   2.071   2.225   5.499  0.0140 -0.2086  0.0697
 7532SOL    HW234230   2.155   2.178   5.605 -1.5387  1.9572  0.5511
 7533SOL     OW34231   1.237   1.766   0.890 -0.0123 -0.2190 -0.2905
 7533SOL    HW134232   1.310   1.763   0.829  1.4584 -1.6641  1.5358
 7533SOL    HW234233   1.152   1.752   0.848  0.4014  0.6560 -1.4031
 7534SOL     OW34234   2.395   1.261   0.803  0.5169 -0.8213  0.1858
 7534SOL    HW134235   2.382   1.286   0.712 -0.9516 -1.0409  0.3421
 7534SOL    HW234236   2.477   1.211   0.796  0.2314 -1.3303  0.4278
 7535SOL     OW34237   2.154   4.109  14.872 -0.4484  0.8140 -0.0559
 7535SOL    HW134238   2.095   4.156  14.813 -0.3209 -0.4225 -1.1637
 7535SOL    HW234239   2.096   4.098  14.947  1.3114  1.4037  1.4050
 7536SOL     OW34240   3.250   3.174   7.359 -0.3911 -0.7403  0.5086
 7536SOL    HW134241   3.190   3.229   7.309 -1.6209  0.0696  2.8915
 7536SOL    HW234242   3.200   3.164   7.440 -0.0013 -1.6385  0.6480
 7537SOL     OW34243   0.509   0.164   6.187 -0.5859 -0.4895  0.1571
 7537SOL    HW134244   0.427   0.201   6.154 -0.8273 -0.6985  0.5193
 7537SOL    HW234245   0.565   0.185   6.112  0.0741 -0.2610  0.7108
 7538SOL     OW34246   4.551   3.913   5.488  0.0201  0.0624  0.1165
 7538SOL    HW134247   4.644   3.893   5.500 -0.6481 -3.6313 -0.7486
 7538SOL    HW234248   4.559   3.952   5.401 -0.9685 -2.1177 -0.9454
 7539SOL     OW34249   2.013   3.031   5.455  0.4411  0.1155 -0.0673
 7539SOL    HW134250   2.030   3.071   5.370 -3.8549  1.0761 -0.4830
 7539SOL    HW234251   2.101   2.997   5.469  0.8691  1.5020  0.6521
 7540SOL     OW34252   4.194   0.536   3.835  0.0594 -0.2656  0.3785
 7540SOL    HW134253   4.232   0.448   3.838 -0.4699 -0.5820 -2.7986
 7540SOL    HW234254   4.122   0.517   3.896 -0.9509  1.4409 -0.2800
 7541SOL     OW34255   2.499   1.196  14.887 -0.0316 -0.5056  0.4204
 7541SOL    HW134256   2.511   1.134  14.815 -4.4846  1.2280 -1.7953
 7541SOL    HW234257   2.591   1.191  14.912  0.1933  0.6660 -0.1286
 7542SOL     OW34258   2.337   3.329   5.632 -0.5432  0.1000 -0.3889
 7542SOL    HW134259   2.380   3.244   5.643 -0.2170  0.2484 -0.4886
 7542SOL    HW234260   2.384   3.349   5.551  1.2979 -0.4358  0.5410
 7543SOL     OW34261   2.514   0.933   4.274 -0.5664 -0.1978 -0.3542
 7543SOL    HW134262   2.570   0.935   4.352 -0.5380 -2.1329 -0.3218
 7543SOL    HW234263   2.524   0.840   4.252 -1.0570 -0.0605 -1.1519
 7544SOL     OW34264   2.495   1.643   6.927 -0.2204  0.6702 -0.1474
 7544SOL    HW134265   2.544   1.597   6.858 -0.9905 -0.3716 -0.0059
 7544SOL    HW234266   2.505   1.736   6.905 -0.7203  0.6809 -0.3476
 7545SOL     OW34267   1.313   2.677  12.771  0.5832 -0.0000 -0.7742
 7545SOL    HW134268   1.405   2.690  12.746  0.8482  0.4986  0.4580
 7545SOL    HW234269   1.321   2.718  12.857  0.2496  0.0003 -0.7451
 7546SOL     OW34270   3.656   4.511  10.742 -0.0861  0.5672  0.4292
 7546SOL    HW134271   3.597   4.438  10.759  1.5757 -0.3308  2.3630
 7546SOL    HW234272   3.678   4.494  10.651 -1.1401 -1.2197  0.5038
 7547SOL     OW34273   1.259   3.200   9.902 -0.1726  0.0419 -0.1170
 7547SOL    HW134274   1.279   3.277   9.849  0.6550  0.3495  0.6369
 7547SOL    HW234275   1.183   3.165   9.856  0.0438 -0.5591 -0.0185
 7548SOL     OW34276   2.319   4.522   1.715 -0.0309 -0.2512  0.3205
 7548SOL    HW134277   2.315   4.593   1.650 -2.5063 -0.3687  0.3373
 7548SOL    HW234278   2.414   4.511   1.711 -0.0222 -0.5279  1.4158
 7549SOL     OW34279   4.281   4.653   5.418  0.1533  0.0870  0.1248
 7549SOL    HW134280   4.285   4.581   5.355  0.4439  0.2315 -0.0252
 7549SOL    HW234281   4.350   4.633   5.482 -0.7475 -0.9149  0.7727
 7550SOL     OW34282   3.455   0.651   8.527  0.3668 -0.5508  0.7655
 7550SOL    HW134283   3.490   0.566   8.501  0.9943 -0.4152  1.1685
 7550SOL    HW234284   3.362   0.642   8.505  0.8176 -4.1777  0.3738
 7551SOL     OW34285   1.272   2.216   3.470  0.2423 -0.3364 -0.0979
 7551SOL    HW134286   1.191   2.247   3.429 -0.7636 -1.6686  0.8683
 7551SOL    HW234287   1.281   2.156   3.396  1.0570 -1.1306  0.6460
 7552SOL     OW34288   0.909   3.682  17.615  0.2271 -0.3167 -0.4058
 7552SOL    HW134289   0.870   3.759  17.573  1.1985 -0.9313 -2.4004
 7552SOL    HW234290   0.906   3.706  17.708 -0.5751  0.7831 -0.7111
 7553SOL     OW34291   3.330   4.442   4.047  0.1835 -0.7455  0.3345
 7553SOL    HW134292   3.317   4.358   4.003  1.5966 -0.8982  0.1959
 7553SOL    HW234293   3.305   4.490   3.968 -0.3201  1.8196  2.0176
 7554SOL     OW34294   4.289   1.046   4.459  0.6792 -0.5021  0.0023
 7554SOL    HW134295   4.199   1.024   4.435 -0.0403  2.5089 -0.1715
 7554SOL    HW234296   4.310   1.074   4.370  1.2278 -1.9968 -0.3263
 7555SOL     OW34297   4.188   1.917   9.019 -0.2241  0.3553 -0.0221
 7555SOL    HW134298   4.113   1.951   9.067  0.0453  0.5911  0.2339
 7555SOL    HW234299   4.260   1.908   9.081  0.6336 -1.4302 -1.2646
 7556SOL     OW34300   0.453   0.367   4.924 -0.0602 -0.1118  0.0104
 7556SOL    HW134301   0.539   0.326   4.917  0.6599  1.6561 -1.5343
 7556SOL    HW234302   0.422   0.377   4.834  0.8721 -0.0689 -0.3074
 7557SOL     OW34303   3.348   4.698   1.993  0.0510  0.4835  0.0292
 7557SOL    HW134304   3.429   4.723   1.949  1.3510 -0.6842  1.7196
 7557SOL    HW234305   3.288   4.719   1.922  1.2271  0.1547 -1.0666
 7558SOL     OW34306   4.228   3.751  14.160  0.2003  0.2703  0.0100
 7558SOL    HW134307   4.215   3.673  14.214 -0.7709  2.1889  2.5358
 7558SOL    HW234308   4.298   3.718  14.103  0.2565  0.4732 -0.0386
 7559SOL     OW34309   2.496   1.133   1.814 -0.1533 -0.4559  0.5389
 7559SOL    HW134310   2.541   1.212   1.845 -1.3399  1.1508 -1.7881
 7559SOL    HW234311   2.424   1.132   1.877  0.2982  1.5097  1.1015
 7560SOL     OW34312   2.629   1.035   0.524  0.1651 -0.0537  0.5995
 7560SOL    HW134313   2.702   1.036   0.462  0.4671  0.2122  0.9579
 7560SOL    HW234314   2.576   0.958   0.504 -0.0366 -0.4142  2.4592
 7561SOL     OW34315   2.666   2.830   7.337  0.5685 -0.5647  0.0078
 7561SOL    HW134316   2.591   2.872   7.379  0.4449  0.3488 -1.1275
 7561SOL    HW234317   2.619   2.801   7.259  0.2239 -0.9154  0.3441
 7562SOL     OW34318   3.459   2.733   8.492  0.2511 -0.0715  0.1895
 7562SOL    HW134319   3.407   2.792   8.437  0.9814 -1.4095 -1.9691
 7562SOL    HW234320   3.401   2.657   8.488 -0.7972  0.5351  3.9649
 7563SOL     OW34321   4.539   2.164   0.874  0.3183  0.5199  0.0701
 7563SOL    HW134322   4.553   2.118   0.791  0.5782 -1.7683  1.3549
 7563SOL    HW234323   4.590   2.103   0.929  0.8669 -0.8712 -1.9675
 7564SOL     OW34324   2.141   2.151   3.567  0.4194 -0.2211 -0.3670
 7564SOL    HW134325   2.162   2.093   3.494  0.6587 -0.7327  0.1189
 7564SOL    HW234326   2.142   2.236   3.523  0.4805  1.2257  2.4189
 7565SOL     OW34327   4.152   3.892  13.125 -0.3693  0.0551  0.2037
 7565SOL    HW134328   4.137   3.910  13.032  0.2235  1.4977  0.3829
 7565SOL    HW234329   4.159   3.797  13.113 -0.2001  0.2277 -1.1290
 7566SOL     OW34330   1.621   2.998   8.290 -0.0376  0.2392  0.0539
 7566SOL    HW134331   1.661   2.938   8.353  0.9076 -0.3130 -1.0765
 7566SOL    HW234332   1.546   3.045   8.327 -0.2469 -0.7745  0.9288
 7567SOL     OW34333   1.585   4.042   3.547  0.2897 -0.2759  0.8437
 7567SOL    HW134334   1.581   4.061   3.454  1.8778  1.4110  1.1345
 7567SOL    HW234335   1.635   3.960   3.548 -1.1383 -1.1401  0.7149
 7568SOL     OW34336   2.051   3.326   4.828 -0.5344 -0.3929  0.4467
 7568SOL    HW134337   2.017   3.264   4.764  1.4208 -1.0977  0.0752
 7568SOL    HW234338   2.137   3.336   4.787 -0.6533  0.6534  0.4587
 7569SOL     OW34339   3.254   4.256   0.818  0.1347  0.1341 -0.3563
 7569SOL    HW134340   3.244   4.162   0.828  0.1176  0.1457 -0.2601
 7569SOL    HW234341   3.163   4.285   0.828 -0.3007 -1.2012 -0.4452
 7570SOL     OW34342   3.770   3.542   7.049 -0.1916 -0.3239 -0.2851
 7570SOL    HW134343   3.846   3.503   7.091  0.9098  3.0547  0.8907
 7570SOL    HW234344   3.727   3.582   7.125  1.4124  0.2259  0.3354
 7571SOL     OW34345   2.653   3.653   1.754 -0.3440 -0.2178 -0.1127
 7571SOL    HW134346   2.701   3.647   1.836 -2.6851  0.1192  1.2832
 7571SOL    HW234347   2.720   3.656   1.686  0.1130 -0.9338  0.3125
 7572SOL     OW34348   1.787   1.808   6.804 -0.1703  0.3587 -0.2024
 7572SOL    HW134349   1.701   1.789   6.765  0.2508  0.2233 -1.0745
 7572SOL    HW234350   1.824   1.866   6.738  1.0036 -1.2743 -0.9745
 7573SOL     OW34351   4.588   4.404   3.925 -0.2108 -0.0410 -0.0722
 7573SOL    HW134352   4.591   4.372   4.016 -0.5820 -2.5316 -0.9498
 7573SOL    HW234353   4.670   4.453   3.922 -1.9753  2.9290 -0.4223
 7574SOL     OW34354   0.254   3.157   9.590  0.0096  0.3501 -0.7204
 7574SOL    HW134355   0.241   3.247   9.559  0.5246  0.6375 -0.0935
 7574SOL    HW234356   0.166   3.131   9.618  0.3054  0.7486  0.5737
 7575SOL     OW34357   3.443   4.692   9.101  0.2977  0.2517 -0.4709
 7575SOL    HW134358   3.372   4.631   9.119 -0.6114  1.3245 -0.4299
 7575SOL    HW234359   3.500   4.632   9.052  0.3241  1.5800 -2.0880
 7576SOL     OW34360   3.074   3.454  15.052 -0.0441 -0.6718  0.1545
 7576SOL    HW134361   3.069   3.546  15.026  2.8394 -0.0079  1.9350
 7576SOL    HW234362   3.018   3.412  14.988  1.4550 -1.3100 -0.7497
 7577SOL     OW34363   0.505   2.090   6.550  0.4382 -0.0771  0.2839
 7577SOL    HW134364   0.517   2.152   6.622  0.9781  2.1725 -1.7435
 7577SOL    HW234365   0.416   2.057   6.561 -0.4607  2.1001 -0.5644
 7578SOL     OW34366   1.935   2.673   8.320  0.0167 -0.0436 -0.3157
 7578SOL    HW134367   1.998   2.701   8.387 -1.3294  3.5039 -0.5188
 7578SOL    HW234368   1.894   2.593   8.353  2.0480 -0.9769 -0.0325
 7579SOL     OW34369   2.947   0.207  17.174  0.0996 -0.8148  0.1864
 7579SOL    HW134370   2.906   0.122  17.190  2.4784 -1.6492  1.8496
 7579SOL    HW234371   2.903   0.231  17.092 -1.4742  2.3980  1.9627
 7580SOL     OW34372   0.768   4.227   6.045  0.1071 -0.2331  0.3600
 7580SOL    HW134373   0.707   4.192   5.980  1.1509 -2.3818  0.5255
 7580SOL    HW234374   0.735   4.194   6.128 -1.6823 -3.3070 -1.5682
 7581SOL     OW34375   3.716   1.276  13.591 -0.0335 -0.1793  0.0073
 7581SOL    HW134376   3.794   1.278  13.536  0.1476 -1.1155  0.2336
 7581SOL    HW234377   3.742   1.228  13.670  0.1112  1.8813  1.1953
 7582SOL     OW34378   2.793   0.763   4.160  0.1160 -0.5202 -0.2460
 7582SOL    HW134379   2.751   0.715   4.089  2.9034 -3.6680  0.2615
 7582SOL    HW234380   2.841   0.692   4.203 -0.1922 -0.3988  0.3001
 7583SOL     OW34381   0.202   4.488   4.645 -0.1706  0.1403  0.1242
 7583SOL    HW134382   0.111   4.517   4.641 -0.2093 -0.0917 -0.7535
 7583SOL    HW234383   0.192   4.418   4.580 -0.2422  0.0568  0.2250
 7584SOL     OW34384   0.840   1.088   8.105  0.4762 -0.1201  0.1619
 7584SOL    HW134385   0.760   1.123   8.066  0.1660  0.4567  1.3412
 7584SOL    HW234386   0.897   1.106   8.030  0.1483  0.1164 -0.0275
 7585SOL     OW34387   1.958   0.752  16.489  0.0887 -0.0542  0.2293
 7585SOL    HW134388   1.929   0.663  16.469  0.8237 -0.4055  0.7299
 7585SOL    HW234389   1.946   0.797  16.405  0.8864  1.0319  0.7026
 7586SOL     OW34390   3.680   2.692   7.511  0.0059  0.3121 -0.0974
 7586SOL    HW134391   3.614   2.685   7.441  0.0186  0.2423 -0.1026
 7586SOL    HW234392   3.754   2.743   7.478 -0.8508  2.7091  1.7252
 7587SOL     OW34393   0.681   4.647   4.382  0.3052 -0.8171 -0.1349
 7587SOL    HW134394   0.641   4.665   4.467  0.7654 -3.2551  0.6220
 7587SOL    HW234395   0.625   4.575   4.354  0.5762 -1.7493  1.7007
 7588SOL     OW34396   3.466   2.778   2.559 -0.1467 -0.0886  0.0352
 7588SOL    HW134397   3.484   2.768   2.652 -0.0418 -1.0526 -0.0865
 7588SOL    HW234398   3.408   2.703   2.543  0.5375 -0.6018 -0.0459
 7589SOL     OW34399   3.935   3.131   2.228 -0.2835 -0.7208 -0.2943
 7589SOL    HW134400   3.926   3.194   2.156 -0.2307 -1.0868 -0.6191
 7589SOL    HW234401   3.908   3.190   2.299  2.5001 -1.2063  1.1340
 7590SOL     OW34402   1.056   4.709   2.359 -0.5031 -0.2714  0.5253
 7590SOL    HW134403   1.000   0.046   2.346  0.5148  0.0961 -1.7214
 7590SOL    HW234404   1.101   4.699   2.275 -0.3596 -0.6335  0.6421
 7591SOL     OW34405   4.329   3.887   4.008  0.1665  0.0028 -0.3814
 7591SOL    HW134406   4.250   3.864   4.057  0.7803 -1.0068  0.1370
 7591SOL    HW234407   4.329   3.815   3.945  1.8149 -2.1247  2.0595
 7592SOL     OW34408   1.719   4.635   2.405 -0.2072  0.7273  0.5832
 7592SOL    HW134409   1.798   4.585   2.425  0.0943  1.1933  0.5582
 7592SOL    HW234410   1.728   4.705   2.470  0.7874  0.0417  1.1810
 7593SOL     OW34411   1.945   1.886  11.361 -0.1392 -0.2259  0.2164
 7593SOL    HW134412   1.854   1.868  11.383 -0.0250 -0.4701  0.4964
 7593SOL    HW234413   1.959   1.837  11.279 -1.6406  0.9386 -0.7225
 7594SOL     OW34414   2.242   3.108  11.718  0.1062  0.1365  0.3732
 7594SOL    HW134415   2.148   3.089  11.714  0.5795 -2.4866  1.5343
 7594SOL    HW234416   2.245   3.142  11.808  0.3276  0.6249  0.1782
 7595SOL     OW34417   1.567   3.391   3.354 -0.1458 -0.1786  0.4833
 7595SOL    HW134418   1.510   3.467   3.346  1.2493  0.7279 -0.9306
 7595SOL    HW234419   1.636   3.401   3.288 -1.5949  1.4030 -0.8107
 7596SOL     OW34420   2.878   1.020   6.787 -0.4647 -0.7202  0.4277
 7596SOL    HW134421   2.939   1.090   6.813  0.4343 -1.0908 -0.6895
 7596SOL    HW234422   2.897   0.957   6.856  3.6114  0.0081 -0.0195
 7597SOL     OW34423   1.409   2.563   3.980  0.3197  0.2280  0.0672
 7597SOL    HW134424   1.331   2.584   4.032  0.4853  1.5711 -0.2271
 7597SOL    HW234425   1.467   2.636   4.001  0.5343 -0.3170  1.3549
 7598SOL     OW34426   0.929   0.544   4.127  0.5193 -0.0929 -0.2441
 7598SOL    HW134427   0.911   0.462   4.083 -0.3960 -0.5170  0.9141
 7598SOL    HW234428   0.968   0.519   4.211  1.3493  0.7163 -0.3769
 7599SOL     OW34429   2.187   2.458   1.572 -0.1007  0.3711  0.0720
 7599SOL    HW134430   2.110   2.404   1.553  0.9727 -0.8667 -0.7832
 7599SOL    HW234431   2.244   2.451   1.496  1.3879 -2.1335  1.4222
 7600SOL     OW34432   0.481   4.618   6.282  0.0974  0.4803 -0.1264
 7600SOL    HW134433   0.391   4.593   6.261  0.2163 -0.4401  0.4529
 7600SOL    HW234434   0.497   4.711   6.269  0.5151  0.6117  1.2936
 7601SOL     OW34435   3.146   0.620   3.651  0.0662  0.5574 -0.0921
 7601SOL    HW134436   3.213   0.685   3.629 -0.4890  1.5558  1.1485
 7601SOL    HW234437   3.078   0.648   3.590 -1.1889  0.3968  1.2462
 7602SOL     OW34438   3.558   3.795   6.392  0.1894  0.2475 -0.3195
 7602SOL    HW134439   3.563   3.884   6.427  0.7167 -0.0336  0.3049
 7602SOL    HW234440   3.476   3.767   6.433  0.0014  1.2594  0.0218
 7603SOL     OW34441   1.070   2.607   3.320  0.3791 -0.5926 -0.1222
 7603SOL    HW134442   1.081   2.701   3.309 -0.5173 -0.1905  2.4199
 7603SOL    HW234443   1.158   2.589   3.354  0.7727 -2.8243 -2.2847
 7604SOL     OW34444   4.143   0.157  11.550  0.4457 -0.1714  0.6967
 7604SOL    HW134445   4.094   0.076  11.535 -0.0029  0.6892 -2.3863
 7604SOL    HW234446   4.117   0.215  11.479 -2.5862 -0.6119  1.4557
 7605SOL     OW34447   4.567   1.348  12.962 -0.2050 -0.0571 -0.6680
 7605SOL    HW134448   4.534   1.411  12.898  0.1024 -2.3997 -3.1545
 7605SOL    HW234449   4.513   1.365  13.039 -1.1177  0.0113 -1.3168
 7606SOL     OW34450   2.736   0.213   7.094  0.4884 -0.1147 -0.2341
 7606SOL    HW134451   2.810   0.230   7.036  2.1115  1.4659  2.3052
 7606SOL    HW234452   2.661   0.244   7.043  1.3202  4.5981  1.4026
 7607SOL     OW34453   0.535   4.548  14.628 -0.0087 -0.5603  0.0817
 7607SOL    HW134454   0.461   4.553  14.689  0.2851  0.7280  0.3327
 7607SOL    HW234455   0.482   4.562  14.550  2.9244  2.9727 -1.2982
 7608SOL     OW34456   3.258   0.014   7.871  0.3226 -0.0334  0.0636
 7608SOL    HW134457   3.322   4.713   7.930  0.2719 -1.2499 -0.6958
 7608SOL    HW234458   3.299   4.730   7.788 -3.1737 -1.3525 -1.3163
 7609SOL     OW34459   1.672   3.897   8.188 -0.3565 -0.4882  0.6679
 7609SOL    HW134460   1.717   3.963   8.136 -2.3831  0.0714 -0.3783
 7609SOL    HW234461   1.674   3.939   8.273  3.2561 -0.6758  0.7030
 7610SOL     OW34462   0.998   3.538  17.252 -0.0130 -0.0924  1.0449
 7610SOL    HW134463   1.046   3.486  17.188 -0.5653 -0.0678  0.6062
 7610SOL    HW234464   1.055   3.537  17.329 -1.0234  2.3584  1.8190
 7611SOL     OW34465   0.068   2.808   2.778  0.5236 -0.0795 -0.4084
 7611SOL    HW134466   0.103   2.836   2.863 -0.8388  0.3897 -0.0012
 7611SOL    HW234467   0.050   2.714   2.784  1.4738 -0.1868  0.7565
 7612SOL     OW34468   2.930   0.245   7.330  0.0215 -0.0831  0.4692
 7612SOL    HW134469   2.861   0.186   7.361  0.6659  0.3057  2.6866
 7612SOL    HW234470   2.971   0.183   7.270  1.6778  1.5836 -0.1452
 7613SOL     OW34471   3.182   4.362   3.601  0.0969 -0.0682 -0.2125
 7613SOL    HW134472   3.244   4.358   3.674  0.6601  0.4800 -0.6644
 7613SOL    HW234473   3.142   4.275   3.600  3.7452 -1.7424 -1.2808
 7614SOL     OW34474   1.977   3.473  12.679  0.2572 -0.0212 -0.2825
 7614SOL    HW134475   1.906   3.479  12.615 -0.8971  1.1451  1.1153
 7614SOL    HW234476   2.029   3.395  12.660 -0.8152 -1.0305  0.8612
 7615SOL     OW34477   4.418   2.935   9.890 -0.0883  0.0144 -0.0629
 7615SOL    HW134478   4.328   2.902   9.899 -0.3295  0.5124 -0.6660
 7615SOL    HW234479   4.401   3.000   9.821  0.5926  1.0043  0.7137
 7616SOL     OW34480   3.896   4.488   6.043 -0.5853  0.2907  0.4429
 7616SOL    HW134481   3.941   4.569   6.020 -0.4445  0.0596 -0.1106
 7616SOL    HW234482   3.917   4.489   6.136  1.6225  0.3482 -0.0756
 7617SOL     OW34483   2.414   1.901   2.948  0.6571  0.1179 -1.3332
 7617SOL    HW134484   2.344   1.953   2.908 -0.0799  0.6844  0.6616
 7617SOL    HW234485   2.495   1.946   2.925  0.5297  2.4368  2.7832
 7618SOL     OW34486   1.219   1.969   4.665 -0.1775 -0.3880 -0.3099
 7618SOL    HW134487   1.282   2.030   4.627 -1.8703  0.9705 -0.9022
 7618SOL    HW234488   1.268   1.951   4.746  1.6381  0.1176 -1.2905
 7619SOL     OW34489   1.609   1.351   4.847 -0.8881  0.2073 -0.0945
 7619SOL    HW134490   1.582   1.416   4.783  2.4136  0.4886 -1.2081
 7619SOL    HW234491   1.535   1.353   4.908 -2.1100 -0.6900 -1.5340
 7620SOL     OW34492   0.752   0.428  12.967  0.5612  0.4266  0.7692
 7620SOL    HW134493   0.832   0.430  13.019 -0.5087 -2.4125  2.5205
 7620SOL    HW234494   0.779   0.495  12.904  0.3301  0.8304  1.1023
 7621SOL     OW34495   2.676   1.079  14.610 -0.0154 -0.0933  0.1786
 7621SOL    HW134496   2.656   1.035  14.527  2.2088 -2.1111  0.7137
 7621SOL    HW234497   2.647   1.170  14.600  1.2531  0.1230 -1.4377
 7622SOL     OW34498   2.519   3.921   2.132  0.0125  0.7936 -0.5803
 7622SOL    HW134499   2.568   4.000   2.154  0.8560 -0.6955  2.8568
 7622SOL    HW234500   2.535   3.915   2.037  1.1928 -0.4928 -0.3055
 7623SOL     OW34501   1.506   1.419   2.368  0.3439  0.1928 -0.0051
 7623SOL    HW134502   1.414   1.443   2.374  0.1039 -0.6563 -0.2175
 7623SOL    HW234503   1.498   1.377   2.282 -1.1075  2.5002 -0.9925
 7624SOL     OW34504   1.308   4.423   2.038 -0.1969  0.4162  0.4751
 7624SOL    HW134505   1.215   4.401   2.041  0.2377 -1.3467  0.8961
 7624SOL    HW234506   1.324   4.457   2.126  0.6870  1.8152 -0.2294
 7625SOL     OW34507   1.924   1.022  10.059  0.3172  0.0227  0.4610
 7625SOL    HW134508   1.992   0.977  10.109  1.7964  0.9444 -0.7276
 7625SOL    HW234509   1.915   1.104  10.107 -1.1331 -0.6435  1.3471
 7626SOL     OW34510   2.002   4.443  15.024  0.6335 -0.1024 -0.2141
 7626SOL    HW134511   1.994   4.349  15.037 -1.2671  0.0420 -0.3480
 7626SOL    HW234512   1.936   4.476  15.084  0.4140 -0.0478 -0.4850
 7627SOL     OW34513   2.109   1.669   0.582 -0.2260  0.4647 -0.5939
 7627SOL    HW134514   2.185   1.615   0.563  1.0189  1.3662  1.7826
 7627SOL    HW234515   2.089   1.657   0.675 -0.2956 -0.5385 -0.7445
 7628SOL     OW34516   0.163   4.449  13.952 -0.2721 -0.5478 -0.4328
 7628SOL    HW134517   0.125   4.528  13.991 -1.3632 -0.5215 -1.5617
 7628SOL    HW234518   0.190   4.484  13.868  0.6305 -0.6307 -0.1714
 7629SOL     OW34519   3.535   2.152   8.090 -0.3893 -0.6649  0.2531
 7629SOL    HW134520   3.556   2.216   8.157  0.6551 -0.2757 -0.4442
 7629SOL    HW234521   3.621   2.142   8.049  0.5473  2.3772  1.5363
 7630SOL     OW34522   0.855   3.653   1.572  0.4643 -0.1904 -0.4773
 7630SOL    HW134523   0.788   3.679   1.509  0.9242  0.5471 -0.6682
 7630SOL    HW234524   0.917   3.612   1.512 -1.2565 -1.1623 -1.5911
 7631SOL     OW34525   1.497   1.848   0.058 -0.5138 -0.2056  0.7137
 7631SOL    HW134526   1.413   1.852   0.012 -1.1354 -1.5653  1.7522
 7631SOL    HW234527   1.565   1.843  17.741 -1.4988 -2.9826 -0.0927
 7632SOL     OW34528   0.063   0.028   7.700  0.0445  0.3949 -0.0790
 7632SOL    HW134529   0.150   0.030   7.740  0.4501  0.2913 -0.9489
 7632SOL    HW234530   0.038   4.676   7.679 -0.5592  1.7028 -5.0379
 7633SOL     OW34531   2.829   0.590   6.614  0.0239  0.3822  0.4198
 7633SOL    HW134532   2.912   0.571   6.659  1.9484  0.0910 -3.2415
 7633SOL    HW234533   2.820   0.512   6.559 -1.6174  1.4296 -0.7881
 7634SOL     OW34534   0.752   4.667  10.086  0.0361 -0.0269  0.6770
 7634SOL    HW134535   0.682   4.632  10.141  1.9133 -3.0912  1.0825
 7634SOL    HW234536   0.794   4.726  10.149 -0.3188 -1.2201  2.0420
 7635SOL     OW34537   3.180   0.688   3.904 -0.0257  0.4818 -0.3001
 7635SOL    HW134538   3.260   0.726   3.868  0.5412 -0.4331 -0.0040
 7635SOL    HW234539   3.169   0.621   3.836  1.2845 -3.6329  3.5609
 7636SOL     OW34540   4.423   3.120   8.187 -0.2438  0.4387 -0.4834
 7636SOL    HW134541   4.345   3.066   8.197 -0.2818  0.9423  1.9648
 7636SOL    HW234542   4.448   3.096   8.098  1.5564 -2.2565  0.7481
 7637SOL     OW34543   0.766   3.677   6.748  0.1309 -0.1559  0.3964
 7637SOL    HW134544   0.781   3.627   6.828 -0.0303  1.3292  1.3505
 7637SOL    HW234545   0.777   3.619   6.672 -1.6040  0.0221  0.0147
 7638SOL     OW34546   0.101   3.035  17.310  0.3395 -0.3978 -0.4480
 7638SOL    HW134547   0.123   2.960  17.364  2.7784  0.7191  0.1513
 7638SOL    HW234548   0.175   3.027  17.249  0.6934  2.2588 -0.3698
 7639SOL     OW34549   0.239   3.141  13.913  0.7656  0.6539  0.3752
 7639SOL    HW134550   0.162   3.122  13.859  0.2238  0.9012  1.0656
 7639SOL    HW234551   0.233   3.236  13.920 -1.1139  0.3224  3.1683
 7640SOL     OW34552   1.962   1.774   1.063 -0.0510  0.4089  0.2712
 7640SOL    HW134553   1.957   1.869   1.078 -0.2560  0.7932 -2.3538
 7640SOL    HW234554   2.020   1.751   1.136  1.3991 -1.0959 -1.3791
 7641SOL     OW34555   2.765   4.203   6.402  0.0069  0.2109 -0.4207
 7641SOL    HW134556   2.721   4.122   6.427  2.1969  0.0821  3.0384
 7641SOL    HW234557   2.849   4.184   6.444 -0.3870 -2.3446 -0.7796
 7642SOL     OW34558   2.097   3.004   4.995 -0.2818  0.0094 -0.2532
 7642SOL    HW134559   2.168   3.013   4.932  1.2013 -0.1233  1.4140
 7642SOL    HW234560   2.032   2.993   4.925  1.9241 -0.5823 -2.1988
 7643SOL     OW34561   1.628   1.061   2.955 -0.7114  0.0994 -0.1962
 7643SOL    HW134562   1.610   1.017   3.038 -0.3009 -0.9613 -0.6590
 7643SOL    HW234563   1.682   1.133   2.988 -0.0906  0.0171 -1.0104
 7644SOL     OW34564   3.778   4.383  17.003 -0.2079 -0.2261 -0.0273
 7644SOL    HW134565   3.703   4.355  16.951  0.5250 -1.9222 -0.1649
 7644SOL    HW234566   3.743   4.455  17.055  1.1971  1.0019 -0.7801
 7645SOL     OW34567   3.993   0.315   7.107 -0.4992 -0.3618 -0.7923
 7645SOL    HW134568   3.938   0.342   7.181 -0.8032 -1.1217 -0.7357
 7645SOL    HW234569   3.972   0.384   7.045  0.8528  0.4549 -0.3424
 7646SOL     OW34570   2.592   4.705  17.544  0.0072  0.0844  0.2291
 7646SOL    HW134571   2.530   0.020  17.593 -2.4356 -0.5405 -2.1579
 7646SOL    HW234572   2.609   0.023  17.469  0.1268 -0.0371  0.1642
 7647SOL     OW34573   3.978   4.529   9.835 -0.1484 -0.2066  0.2201
 7647SOL    HW134574   4.073   4.537   9.848 -0.3167 -0.7976  1.8455
 7647SOL    HW234575   3.952   4.620   9.847  0.4723 -0.1251  0.9522
 7648SOL     OW34576   0.053   2.688   9.986 -0.0762  0.1888 -0.2418
 7648SOL    HW134577   4.733   2.746  10.036 -1.6913 -1.6195 -0.0131
 7648SOL    HW234578   0.122   2.674  10.051 -1.5506 -2.0632  0.8485
 7649SOL     OW34579   0.928   4.374   3.247 -0.2042 -0.1383  0.0577
 7649SOL    HW134580   0.958   4.314   3.179  1.6983  0.8242  0.0502
 7649SOL    HW234581   1.004   4.379   3.305 -1.7337  1.6923  1.9172
 7650SOL     OW34582   2.628   3.386   8.283  0.2294 -0.2750 -0.0795
 7650SOL    HW134583   2.591   3.314   8.233 -1.2636 -1.1081  2.2527
 7650SOL    HW234584   2.723   3.383   8.268  0.0334 -0.2681 -1.3319
 7651SOL     OW34585   2.489   2.798  10.684  0.1445 -0.0559  0.2811
 7651SOL    HW134586   2.499   2.710  10.722 -0.9962  0.3454  1.4984
 7651SOL    HW234587   2.409   2.791  10.633  0.0296 -1.1302  0.5976
 7652SOL     OW34588   4.605   0.986  17.723  0.1139  0.3416  0.2325
 7652SOL    HW134589   4.513   0.983  17.749  0.2552 -2.4111  0.4052
 7652SOL    HW234590   4.617   0.907  17.670 -0.7555  0.2165  0.2192
 7653SOL     OW34591   0.163   2.956   2.518 -0.1228 -0.0351  0.5259
 7653SOL    HW134592   0.219   2.885   2.549 -1.1196 -0.5955  1.0429
 7653SOL    HW234593   0.090   2.954   2.580 -0.1000  0.9118  0.5898
 7654SOL     OW34594   4.279   2.123  11.579 -0.2241  0.5556  0.6932
 7654SOL    HW134595   4.305   2.042  11.622 -1.4384  0.2113  0.7843
 7654SOL    HW234596   4.186   2.105  11.590 -0.6967  0.7844 -2.8329
 7655SOL     OW34597   0.824   4.188   3.576 -0.3570  0.2040 -0.4940
 7655SOL    HW134598   0.752   4.164   3.634 -0.1338  1.6747  0.3824
 7655SOL    HW234599   0.809   4.283   3.574 -1.5557  0.0498  0.9675
 7656SOL     OW34600   4.210   1.632   1.125  0.1994 -0.0590 -0.5304
 7656SOL    HW134601   4.126   1.601   1.158 -0.2411  1.3385 -0.3528
 7656SOL    HW234602   4.261   1.641   1.206  0.1525 -0.0563 -0.5016
 7657SOL     OW34603   4.676   1.654   1.636  0.0399  0.0539 -0.2290
 7657SOL    HW134604   4.707   1.638   1.725 -0.2758  2.7309  0.3568
 7657SOL    HW234605   4.586   1.681   1.653  0.5777  2.6375 -1.4907
 7658SOL     OW34606   4.712   1.606  16.053 -0.4881 -0.4492 -0.4810
 7658SOL    HW134607   4.652   1.680  16.064 -1.4699 -1.3217  0.0452
 7658SOL    HW234608   4.644   1.538  16.047 -0.9394 -0.1101  0.7665
 7659SOL     OW34609   4.415   0.147  12.770 -0.2528  0.3818 -0.1211
 7659SOL    HW134610   4.390   0.091  12.843 -1.4113 -1.2068 -1.7416
 7659SOL    HW234611   4.483   0.086  12.743  1.5353  3.8245 -3.3745
 7660SOL     OW34612   3.498   1.081   8.567 -0.1909 -0.1766 -0.4572
 7660SOL    HW134613   3.565   1.084   8.499 -0.7761 -1.5578 -1.1012
 7660SOL    HW234614   3.446   1.159   8.547 -0.3097 -0.3163 -0.6938
 7661SOL     OW34615   0.152   1.822  13.795 -0.2061 -0.6785 -0.4885
 7661SOL    HW134616   0.149   1.774  13.713 -0.0336 -0.2083 -0.7719
 7661SOL    HW234617   0.173   1.909  13.762  0.2715 -0.4052  0.5315
 7662SOL     OW34618   2.115   0.180   8.587 -0.5323 -0.1319 -0.2110
 7662SOL    HW134619   2.021   0.168   8.577 -0.2713 -2.0959 -0.2460
 7662SOL    HW234620   2.127   0.248   8.520  0.4226 -0.6785 -0.5854
 7663SOL     OW34621   3.350   2.677   4.874 -0.5804 -0.1941 -0.5510
 7663SOL    HW134622   3.356   2.725   4.957 -0.6241  1.7641 -1.6933
 7663SOL    HW234623   3.409   2.604   4.895 -1.4190 -0.4141  1.0725
 7664SOL     OW34624   0.864   0.778  10.631 -0.2917  0.3268  0.3579
 7664SOL    HW134625   0.955   0.788  10.658 -0.5529  1.9805  0.5979
 7664SOL    HW234626   0.833   0.717  10.698 -2.0096 -0.1523 -0.8486
 7665SOL     OW34627   0.041   1.635   3.823  0.1379  0.1536 -0.0378
 7665SOL    HW134628   4.711   1.694   3.855  0.4479 -0.1737  1.1932
 7665SOL    HW234629   0.117   1.687   3.846 -0.7274  1.1027  0.6792
 7666SOL     OW34630   1.238   4.711  12.130  0.0642 -0.2547  0.1513
 7666SOL    HW134631   1.223   0.039  12.198  1.2809 -0.1214  0.3067
 7666SOL    HW234632   1.312   0.010  12.082 -0.0239  0.7808  0.8056
 7667SOL     OW34633   0.238   2.579   9.823  0.2200  0.6947  0.1541
 7667SOL    HW134634   0.298   2.650   9.800 -0.0574  0.8396 -0.1199
 7667SOL    HW234635   0.170   2.616   9.878 -0.9619 -0.4461 -0.5292
 7668SOL     OW34636   0.338   4.413   4.322 -0.3137 -0.2414 -0.4262
 7668SOL    HW134637   0.431   4.400   4.303  0.0914  0.6594  0.9401
 7668SOL    HW234638   0.312   4.356   4.395  1.9615 -2.4695 -1.3682
 7669SOL     OW34639   3.613   0.161   8.237 -0.0879 -0.2336 -0.1093
 7669SOL    HW134640   3.620   0.067   8.255 -0.5949 -0.3937 -0.7417
 7669SOL    HW234641   3.671   0.171   8.161 -0.2089 -0.2853 -0.2082
 7670SOL     OW34642   1.915   3.445   4.336  0.5554 -0.4280 -0.2315
 7670SOL    HW134643   1.858   3.474   4.265 -2.2576 -0.6741  1.9042
 7670SOL    HW234644   1.867   3.487   4.408 -0.6048 -2.2412  0.0217
 7671SOL     OW34645   3.551   2.295   3.231 -0.3734 -0.2278  1.2702
 7671SOL    HW134646   3.529   2.284   3.138  0.5348 -0.8869  1.1349
 7671SOL    HW234647   3.471   2.333   3.268 -1.1044 -1.6249  1.1313
 7672SOL     OW34648   0.448   3.165   7.740 -0.2407  0.2392 -0.5693
 7672SOL    HW134649   0.361   3.193   7.767 -0.1837  2.6731 -2.8815
 7672SOL    HW234650   0.506   3.194   7.810  1.6380 -0.6997 -1.7214
 7673SOL     OW34651   3.767   1.498   8.165  0.0471 -0.1583  0.4432
 7673SOL    HW134652   3.716   1.535   8.237 -1.1685 -1.6702  0.3455
 7673SOL    HW234653   3.820   1.433   8.210  1.5877  0.7759 -0.0212
 7674SOL     OW34654   0.059   4.158   4.693 -0.8171 -1.0541 -0.3368
 7674SOL    HW134655   0.125   4.171   4.762  2.0147 -0.2319 -3.2001
 7674SOL    HW234656   4.732   4.111   4.745 -0.2451 -2.2193 -0.6697
 7675SOL     OW34657   2.227   0.521   4.426 -0.3186  0.1119  0.1453
 7675SOL    HW134658   2.220   0.509   4.331  3.0743  1.0292 -0.2263
 7675SOL    HW234659   2.146   0.484   4.461 -0.8430  1.5364  0.4303
 7676SOL     OW34660   2.803   3.188   6.966 -0.1883 -0.3617  0.4183
 7676SOL    HW134661   2.793   3.164   6.874  0.2176 -0.6903  0.4623
 7676SOL    HW234662   2.896   3.189   6.986  0.0485 -3.9379 -0.4410
 7677SOL     OW34663   4.470   2.907   8.763  0.2481  0.2086 -0.0562
 7677SOL    HW134664   4.379   2.881   8.774 -0.4564  3.0577  0.9827
 7677SOL    HW234665   4.500   2.940   8.848 -0.0809  2.5825 -0.8613
 7678SOL     OW34666   4.699   0.280   4.662  0.0301  0.2523 -0.6832
 7678SOL    HW134667   4.727   0.235   4.742 -0.1252  0.4811 -0.5029
 7678SOL    HW234668   0.022   0.353   4.659 -0.4078  0.6844  0.7932
 7679SOL     OW34669   0.989   1.984  15.498  0.4127  0.5098 -0.4275
 7679SOL    HW134670   0.986   2.077  15.478 -1.9920  0.0102 -2.3538
 7679SOL    HW234671   0.898   1.978  15.526  0.5758 -1.4974 -0.2891
 7680SOL     OW34672   0.360   0.326   3.683 -0.2301 -1.0387  0.3904
 7680SOL    HW134673   0.274   0.319   3.724 -0.3888 -3.1812 -0.3082
 7680SOL    HW234674   0.328   0.313   3.593  1.8704  0.3475 -0.5443
 7681SOL     OW34675   3.734   0.014   8.833 -0.1254 -0.1204  0.5826
 7681SOL    HW134676   3.826   4.729   8.847 -0.0771  0.2353  0.8590
 7681SOL    HW234677   3.681   4.679   8.864  0.7587 -1.3997 -0.9106
 7682SOL     OW34678   4.232   2.916   3.267 -0.4237  0.0033 -0.2636
 7682SOL    HW134679   4.311   2.928   3.213 -0.7189 -1.7139 -1.0872
 7682SOL    HW234680   4.264   2.908   3.357  0.1878  0.2132 -0.4609
 7683SOL     OW34681   2.602   0.308   8.158  0.1340  0.1182  0.6082
 7683SOL    HW134682   2.591   0.213   8.159 -2.4605  0.4143 -0.1994
 7683SOL    HW234683   2.563   0.335   8.241  0.2288  0.0890  0.6625
 7684SOL     OW34684   2.126   1.640   8.679 -0.0352 -0.0892  0.4074
 7684SOL    HW134685   2.205   1.587   8.675 -1.6109 -2.4649  1.0429
 7684SOL    HW234686   2.166   1.724   8.654  0.0264 -0.3470 -0.3692
 7685SOL     OW34687   1.277   1.909   1.211 -0.2257  0.1031  0.1497
 7685SOL    HW134688   1.299   2.001   1.198 -0.8966  0.0773 -1.1509
 7685SOL    HW234689   1.355   1.877   1.257 -0.5623 -1.3812 -0.3188
 7686SOL     OW34690   2.666   0.839   6.184 -0.4605  0.0142 -0.1689
 7686SOL    HW134691   2.745   0.892   6.198  0.3378 -0.7666 -1.6821
 7686SOL    HW234692   2.608   0.878   6.249 -0.4497 -0.2925  0.0200
 7687SOL     OW34693   4.194   1.931   0.472  0.1785  0.1738  0.0210
 7687SOL    HW134694   4.287   1.952   0.471  0.4114 -0.7311  1.9906
 7687SOL    HW234695   4.177   1.936   0.566 -1.5356 -0.9730 -0.2196
 7688SOL     OW34696   2.763   3.334   7.406  0.0461 -0.4507  0.0258
 7688SOL    HW134697   2.809   3.256   7.375  0.0397 -0.0048 -1.1064
 7688SOL    HW234698   2.678   3.293   7.425  0.6058 -1.2214  0.8383
 7689SOL     OW34699   4.529   2.991   9.015  0.0318  0.0036 -0.0382
 7689SOL    HW134700   4.607   3.016   9.064 -0.4890  0.9785  0.2904
 7689SOL    HW234701   4.458   3.042   9.054 -0.6524 -0.7704 -0.2724
 7690SOL     OW34702   1.440   1.899  10.317  0.4333  0.7970 -0.3151
 7690SOL    HW134703   1.532   1.885  10.340  0.7095  1.0648 -1.2817
 7690SOL    HW234704   1.440   1.881  10.223  0.1999  0.5469 -0.2683
 7691SOL     OW34705   2.711   1.303  11.046 -0.1149  0.0522 -0.4541
 7691SOL    HW134706   2.654   1.230  11.024  2.8179 -2.6122  0.8507
 7691SOL    HW234707   2.792   1.280  11.001  0.1576  1.2203 -0.5803
 7692SOL     OW34708   2.685   0.612   5.239  0.3778  0.4285  0.1108
 7692SOL    HW134709   2.741   0.683   5.272 -1.5605  1.3807  1.3679
 7692SOL    HW234710   2.723   0.594   5.153  3.6104  1.5511  1.3010
 7693SOL     OW34711   2.001   1.213   1.064  0.0364 -0.0651  0.0625
 7693SOL    HW134712   1.987   1.163   1.144 -0.0422  0.4318  0.3629
 7693SOL    HW234713   2.097   1.218   1.068  0.2518 -3.2110 -1.3406
 7694SOL     OW34714   3.720   3.641  15.372 -1.1246 -0.0852 -0.5502
 7694SOL    HW134715   3.675   3.665  15.291  0.6106  0.7774 -1.2683
 7694SOL    HW234716   3.714   3.546  15.363 -0.2255 -0.0337 -1.7392
 7695SOL     OW34717   1.090   2.092   8.046  0.7897 -0.0742 -0.1793
 7695SOL    HW134718   1.121   2.041   8.121 -0.7425 -1.4737 -0.5003
 7695SOL    HW234719   1.154   2.163   8.036  1.4416 -0.5602  0.5611
 7696SOL     OW34720   3.789   4.511   3.563 -0.0473 -0.1657 -0.6659
 7696SOL    HW134721   3.859   4.464   3.608 -1.5295  1.0336  2.8972
 7696SOL    HW234722   3.836   4.592   3.543  0.5160  0.1612  2.0753
 7697SOL     OW34723   2.911   1.123   3.407 -0.1516  0.4630  0.1067
 7697SOL    HW134724   2.839   1.096   3.465  1.3934  0.1328  1.8886
 7697SOL    HW234725   2.872   1.162   3.329  1.2581  1.3997 -0.1166
 7698SOL     OW34726   0.356   3.857   6.895  0.6295 -0.4114  0.1422
 7698SOL    HW134727   0.415   3.781   6.901 -1.5081 -2.1688 -1.0378
 7698SOL    HW234728   0.327   3.856   6.804 -1.7647 -1.2519  0.9100
 7699SOL     OW34729   3.711   2.550   8.435 -0.2827  0.4948  0.0566
 7699SOL    HW134730   3.650   2.488   8.396  1.8120 -0.2808 -2.0199
 7699SOL    HW234731   3.728   2.599   8.355  2.4043  0.4660  0.6001
 7700SOL     OW34732   2.995   1.570   1.173 -0.1400  0.6186  0.2437
 7700SOL    HW134733   2.982   1.575   1.268  2.9649  2.0615  0.5843
 7700SOL    HW234734   3.053   1.494   1.175  0.4717  1.1197  1.2928
 7701SOL     OW34735   1.177   1.610   1.672 -0.5780 -0.1346  0.7288
 7701SOL    HW134736   1.256   1.555   1.669  0.7668  1.8529 -0.2782
 7701SOL    HW234737   1.198   1.673   1.603  0.5262 -1.6328 -0.3123
 7702SOL     OW34738   4.426   4.183   0.558 -0.1837 -0.0583  0.0951
 7702SOL    HW134739   4.464   4.196   0.645 -0.2638 -0.3638  0.1770
 7702SOL    HW234740   4.376   4.264   0.554  1.6095  0.8904 -2.3332
 7703SOL     OW34741   1.815   1.444   7.090 -0.0917  0.3001  0.4244
 7703SOL    HW134742   1.833   1.533   7.060  0.1741 -0.0254 -0.3893
 7703SOL    HW234743   1.897   1.424   7.134 -0.4458 -0.3247  0.7988
 7704SOL     OW34744   1.228   3.310  16.770 -0.2353  0.3876 -0.3362
 7704SOL    HW134745   1.265   3.366  16.702  0.3057 -0.9027 -1.0961
 7704SOL    HW234746   1.202   3.240  16.710  1.5002 -1.3757  0.9934
 7705SOL     OW34747   0.234   4.435   2.084 -0.3883  0.3170  0.2243
 7705SOL    HW134748   0.303   4.413   2.146 -0.5255 -0.0858  0.2376
 7705SOL    HW234749   0.269   4.520   2.057 -0.4810 -0.1094 -1.2687
 7706SOL     OW34750   0.358   0.309  15.056  0.7849 -0.3905  0.0895
 7706SOL    HW134751   0.346   0.380  15.119 -0.5364 -3.2380  3.0165
 7706SOL    HW234752   0.393   0.352  14.978  1.2429  0.3427  0.6979
 7707SOL     OW34753   3.093   2.218   5.314  0.6336  0.0757  0.1945
 7707SOL    HW134754   3.038   2.156   5.363 -0.8293  2.3194  1.3916
 7707SOL    HW234755   3.162   2.166   5.274  1.0692 -0.1026  1.1783
 7708SOL     OW34756   1.464   4.138   3.027  0.9784 -0.0640 -0.0104
 7708SOL    HW134757   1.432   4.217   2.984  2.4091  0.8120  0.5547
 7708SOL    HW234758   1.401   4.136   3.100  0.7372 -2.3935 -0.2871
 7709SOL     OW34759   0.581   0.889  16.742 -0.2146  0.0587 -0.3583
 7709SOL    HW134760   0.588   0.978  16.775 -1.0757 -1.0396  2.8205
 7709SOL    HW234761   0.526   0.844  16.806 -0.0143 -1.5636 -1.3168
 7710SOL     OW34762   3.691   0.939   1.956  0.1521 -1.1747  0.1646
 7710SOL    HW134763   3.633   1.010   1.983  1.2467 -0.1966 -0.0336
 7710SOL    HW234764   3.772   0.990   1.962 -0.9697  0.7796 -0.9059
 7711SOL     OW34765   2.399   4.134   1.580  0.0234 -0.2717  0.2046
 7711SOL    HW134766   2.451   4.208   1.610 -1.5498  1.3982 -1.1808
 7711SOL    HW234767   2.359   4.125   1.667 -0.5343  0.1189 -0.0075
 7712SOL     OW34768   3.154   4.226  10.259 -0.1420 -0.3281  0.5079
 7712SOL    HW134769   3.107   4.292  10.207  1.0670  1.2521  1.4323
 7712SOL    HW234770   3.102   4.150  10.234 -1.0786 -0.4279  2.7357
 7713SOL     OW34771   0.307   3.862  10.464  0.2155 -0.0376 -0.0035
 7713SOL    HW134772   0.284   3.912  10.386  0.9932  0.9246  0.3889
 7713SOL    HW234773   0.369   3.806  10.417 -0.0009  0.6179 -1.0664
 7714SOL     OW34774   2.444   3.870   1.546 -0.4044  0.4240  0.5552
 7714SOL    HW134775   2.424   3.963   1.539 -0.1042  0.3348 -1.4945
 7714SOL    HW234776   2.358   3.848   1.583 -1.4119 -0.4323 -2.2686
 7715SOL     OW34777   4.199   2.478   1.372  0.3032 -0.4230 -0.1501
 7715SOL    HW134778   4.175   2.487   1.280  1.5932 -0.6882 -0.5039
 7715SOL    HW234779   4.237   2.390   1.376  1.3161 -0.0367 -1.6861
 7716SOL     OW34780   3.380   3.226   3.100 -0.6424  0.2386 -0.5900
 7716SOL    HW134781   3.418   3.140   3.121 -1.7558  0.5322  2.5534
 7716SOL    HW234782   3.358   3.226   3.007 -0.2123 -1.6109 -0.6902
 7717SOL     OW34783   4.360   4.022   2.400  0.0721 -0.1670 -0.0314
 7717SOL    HW134784   4.420   3.949   2.384  0.7181  0.3224  0.1857
 7717SOL    HW234785   4.305   3.973   2.461  0.2763  0.0276  0.3078
 7718SOL     OW34786   0.626   2.591  12.575 -0.5545 -0.1208  0.1078
 7718SOL    HW134787   0.705   2.537  12.578  0.0475  0.7819  0.4657
 7718SOL    HW234788   0.627   2.625  12.485 -0.6159 -1.3038 -0.3400
 7719SOL     OW34789   0.301   3.052   9.203 -0.2121  0.0792 -0.4952
 7719SOL    HW134790   0.389   3.042   9.165 -0.6583 -1.9237 -1.0007
 7719SOL    HW234791   0.309   3.008   9.287  3.8700  0.9520 -0.4225
 7720SOL     OW34792   0.194   1.160  14.098  0.2441 -0.6934 -0.6698
 7720SOL    HW134793   0.281   1.136  14.130 -0.3229  1.1591  2.1705
 7720SOL    HW234794   0.204   1.255  14.086  2.4437 -0.9001 -0.5150
 7721SOL     OW34795   2.832   4.177   4.524  0.4617  0.5249  0.8622
 7721SOL    HW134796   2.758   4.172   4.586 -1.0343  1.0578 -0.8713
 7721SOL    HW234797   2.855   4.270   4.535  1.9632  0.3461 -0.9620
 7722SOL     OW34798   2.149   4.291   4.148 -0.1373  0.5518  0.3041
 7722SOL    HW134799   2.217   4.284   4.214 -0.4537 -0.0730  0.5612
 7722SOL    HW234800   2.194   4.329   4.073 -0.9658 -0.6246 -0.7823
 7723SOL     OW34801   2.759   0.047   2.868 -0.1150  0.7595 -0.1778
 7723SOL    HW134802   2.838   0.012   2.825 -0.6585 -0.3303 -0.2910
 7723SOL    HW234803   2.696   0.058   2.797 -2.3723 -0.0900  1.7173
 7724SOL     OW34804   2.929   1.189   9.218  0.3029  0.1265  0.2257
 7724SOL    HW134805   3.016   1.169   9.184  0.0376  1.3084 -1.1519
 7724SOL    HW234806   2.881   1.107   9.208 -1.7055  1.4517 -0.9301
 7725SOL     OW34807   4.239   1.774  13.865  0.1036 -0.0162  0.2770
 7725SOL    HW134808   4.305   1.756  13.932  0.7010  1.6668  0.1470
 7725SOL    HW234809   4.234   1.869  13.852 -0.7195 -0.1198 -0.1653
 7726SOL     OW34810   3.033   0.313  14.547  0.3126 -0.5359  0.0535
 7726SOL    HW134811   3.060   0.290  14.636 -0.7020 -1.2648  0.1647
 7726SOL    HW234812   3.121   0.312  14.509 -0.1214 -2.1406 -0.9167
 7727SOL     OW34813   0.416   3.739   1.495 -0.1560  0.3827 -0.4048
 7727SOL    HW134814   0.420   3.732   1.590 -1.5717 -1.4769 -0.5009
 7727SOL    HW234815   0.509   3.759   1.478 -0.0162  0.0026 -0.0813
 7728SOL     OW34816   2.902   3.447   1.744  0.2053 -0.0796 -0.0514
 7728SOL    HW134817   2.908   3.522   1.684 -0.3741 -0.8408 -1.0681
 7728SOL    HW234818   2.887   3.380   1.677 -1.3840  0.8380 -0.6131
 7729SOL     OW34819   2.761   0.008   8.719 -0.6186 -0.3277  0.2533
 7729SOL    HW134820   2.705   4.689   8.771 -1.4038  0.0633 -0.1619
 7729SOL    HW234821   2.818   0.048   8.786  0.3549 -1.8701  0.3462
 7730SOL     OW34822   1.481   4.581   2.740 -0.1389 -0.3794  0.4431
 7730SOL    HW134823   1.452   4.671   2.753  0.2441 -0.3634  1.2094
 7730SOL    HW234824   1.447   4.552   2.656 -1.3739 -2.2522  1.5856
 7731SOL     OW34825   1.490   2.883  15.658  0.1818  0.3730  0.6342
 7731SOL    HW134826   1.417   2.920  15.708 -1.1742 -0.6578 -0.5995
 7731SOL    HW234827   1.559   2.872  15.724  0.2076 -0.9512  0.3799
 7732SOL     OW34828   2.764   0.515   3.296  0.1234  0.1084  0.4590
 7732SOL    HW134829   2.728   0.519   3.208  0.4437  1.1024  0.3733
 7732SOL    HW234830   2.692   0.472   3.342  2.0635  0.0589  3.4298
 7733SOL     OW34831   0.057   2.626   7.001 -0.0171  0.7273 -0.4415
 7733SOL    HW134832   0.141   2.585   7.020  1.3486  2.9339 -1.8029
 7733SOL    HW234833   0.043   2.616   6.907  0.4531  0.5880 -0.4974
 7734SOL     OW34834   1.832   2.812   5.418 -0.2352  0.1346 -0.3577
 7734SOL    HW134835   1.894   2.740   5.408  0.0778  0.2635  0.6827
 7734SOL    HW234836   1.892   2.885   5.404  0.0520  0.1008  0.7545
 7735SOL     OW34837   3.458   3.397   9.638 -0.1090 -0.0183  0.1079
 7735SOL    HW134838   3.386   3.344   9.603  0.7254 -2.2663  1.7740
 7735SOL    HW234839   3.450   3.471   9.578  0.3073 -0.7084 -0.8102
 7736SOL     OW34840   4.672   2.933   7.531 -0.1108 -0.7185  0.3943
 7736SOL    HW134841   4.687   3.013   7.581 -0.9820 -0.6240  0.5016
 7736SOL    HW234842   0.020   2.920   7.490 -0.5482  0.4399 -0.8854
 7737SOL     OW34843   1.724   1.089   7.158  0.0337  0.2946 -0.3358
 7737SOL    HW134844   1.684   1.085   7.071  0.1310 -2.1401 -0.2707
 7737SOL    HW234845   1.719   0.995   7.175  0.9548  0.8367  2.8724
 7738SOL     OW34846   1.073   4.417   8.612  0.2788  0.2630 -0.2969
 7738SOL    HW134847   1.166   4.433   8.597  0.8623  0.0103  2.9730
 7738SOL    HW234848   1.038   4.424   8.524 -0.2339 -0.3263 -0.1395
 7739SOL     OW34849   3.390   1.388   6.305  0.1318 -0.5835 -0.6180
 7739SOL    HW134850   3.374   1.358   6.395  0.5936 -2.7628 -1.2628
 7739SOL    HW234851   3.460   1.327   6.280  0.5417 -0.5737  0.5048
 7740SOL     OW34852   1.410   0.608   3.454  0.0522  0.0700 -0.7712
 7740SOL    HW134853   1.463   0.581   3.529 -2.7199 -2.6728  0.2089
 7740SOL    HW234854   1.465   0.683   3.432  0.2994 -0.0396 -0.5291
 7741SOL     OW34855   0.514   1.720   4.576 -0.2158  0.0800 -0.4740
 7741SOL    HW134856   0.492   1.714   4.669  1.0337 -1.3072 -0.2665
 7741SOL    HW234857   0.540   1.811   4.565  3.6069 -1.3955 -3.4746
 7742SOL     OW34858   4.367   3.101   6.367 -0.2203  0.2185 -0.0950
 7742SOL    HW134859   4.392   3.089   6.276 -1.6717 -2.5236 -0.1597
 7742SOL    HW234860   4.374   3.196   6.372 -1.7120  0.1897  2.5061
 7743SOL     OW34861   1.960   4.678   9.164 -0.2191  0.1299 -0.3140
 7743SOL    HW134862   1.999   4.628   9.093 -0.0477 -0.4627  0.2013
 7743SOL    HW234863   2.002   0.026   9.157  0.2346 -0.2259 -1.8304
 7744SOL     OW34864   1.601   1.441   9.113  0.4845  0.1768 -0.1548
 7744SOL    HW134865   1.539   1.507   9.081  1.6246  0.5479 -1.6033
 7744SOL    HW234866   1.679   1.496   9.121 -0.6588  1.6427  1.1027
 7745SOL     OW34867   3.331   0.561   0.553 -0.0102  0.0237  0.0807
 7745SOL    HW134868   3.358   0.503   0.625 -0.8158  1.0200  1.1802
 7745SOL    HW234869   3.243   0.530   0.533  0.9433 -1.3436 -1.9604
 7746SOL     OW34870   2.005   3.894   2.515 -0.0349  0.1488  0.4307
 7746SOL    HW134871   2.087   3.853   2.487  0.3045  0.6089  0.7312
 7746SOL    HW234872   1.972   3.939   2.437 -0.5189  4.5715  3.1860
 7747SOL     OW34873   0.526   3.561  16.860  0.1568  0.6186 -0.2542
 7747SOL    HW134874   0.578   3.541  16.781  0.1411 -1.3597  0.2321
 7747SOL    HW234875   0.442   3.522  16.834  0.4473 -0.3388  0.2508
 7748SOL     OW34876   1.046   2.614  12.333  0.2876 -0.3051  0.3966
 7748SOL    HW134877   1.112   2.588  12.398  0.3553  0.3394  0.5836
 7748SOL    HW234878   0.981   2.544  12.345  0.2698 -0.1353  1.2786
 7749SOL     OW34879   0.037   2.805  15.690 -0.1269 -0.2719 -0.4629
 7749SOL    HW134880   4.686   2.780  15.666  0.4989 -1.6886 -1.2935
 7749SOL    HW234881   0.035   2.755  15.772 -0.5022 -1.9203 -1.4858
 7750SOL     OW34882   3.327   4.078   6.291  0.0752  0.0866 -0.4212
 7750SOL    HW134883   3.330   4.073   6.387 -1.1505 -0.8273 -0.4286
 7750SOL    HW234884   3.368   4.162   6.269 -2.6144  1.4781 -0.1302
 7751SOL     OW34885   4.665   0.076   6.809  0.1758  0.5733  0.0527
 7751SOL    HW134886   4.732   0.049   6.746  0.6935 -0.2108  0.9434
 7751SOL    HW234887   4.705   0.059   6.894 -1.3272  1.1043  0.8489
 7752SOL     OW34888   1.950   1.833   7.442 -0.0402  0.3056 -0.3173
 7752SOL    HW134889   1.967   1.860   7.352  3.3268 -1.1286 -0.1530
 7752SOL    HW234890   2.009   1.892   7.489  1.2573 -1.6280  0.5021
 7753SOL     OW34891   4.310   2.971   5.683  0.2043  0.4957 -0.3271
 7753SOL    HW134892   4.280   2.906   5.747 -0.0634 -1.0414 -2.0134
 7753SOL    HW234893   4.385   2.920   5.649 -1.4206 -1.9699 -0.2308
 7754SOL     OW34894   0.464   0.801   2.943  0.2089 -0.1887  0.0907
 7754SOL    HW134895   0.480   0.708   2.926  1.8338  0.3569 -1.3022
 7754SOL    HW234896   0.496   0.802   3.033  0.3698  2.8049 -0.0266
 7755SOL     OW34897   4.107   3.914   2.100 -0.6763  0.0841 -0.3193
 7755SOL    HW134898   4.021   3.929   2.140 -0.7049 -1.0088  0.0147
 7755SOL    HW234899   4.131   4.004   2.076 -0.8934 -0.1254 -1.3193
 7756SOL     OW34900   4.170   0.243   1.015  0.0256  0.4809  0.0549
 7756SOL    HW134901   4.102   0.306   1.037  0.5345  0.8034  0.7022
 7756SOL    HW234902   4.243   0.266   1.073 -1.5864  2.5087  1.2954
 7757SOL     OW34903   3.682   4.354  15.098  0.4703 -0.0316  0.3111
 7757SOL    HW134904   3.595   4.314  15.088  0.3125  0.5488 -0.6744
 7757SOL    HW234905   3.719   4.348  15.186 -2.1676 -1.3298  1.3271
 7758SOL     OW34906   2.817   3.516   5.007  0.0289  0.6570  0.1584
 7758SOL    HW134907   2.769   3.544   5.085 -4.1145 -3.4529 -0.8957
 7758SOL    HW234908   2.898   3.563   5.026  1.4973 -0.3051 -3.6550
 7759SOL     OW34909   3.180   3.054   0.001 -0.2242 -0.1961  0.2197
 7759SOL    HW134910   3.222   3.138  17.735  1.6262 -1.3926 -1.1018
 7759SOL    HW234911   3.230   2.996  17.695  0.8352  0.3982  0.5427
 7760SOL     OW34912   2.149   1.887  17.024  0.0476 -0.4926 -0.6359
 7760SOL    HW134913   2.194   1.970  17.009 -1.1360  0.0557 -1.1557
 7760SOL    HW234914   2.168   1.876  17.117 -1.8432  2.0001  0.0156
 7761SOL     OW34915   0.119   3.398  17.678 -0.4162  0.2682 -0.4305
 7761SOL    HW134916   0.073   3.383  17.595 -0.0721  1.4494 -0.8320
 7761SOL    HW234917   0.046   3.425  17.734  0.1267  0.4406  0.1798
 7762SOL     OW34918   1.651   0.079   3.150 -0.5773 -0.0910 -0.2706
 7762SOL    HW134919   1.702   0.097   3.071 -1.3270  2.1948 -0.2250
 7762SOL    HW234920   1.625   4.726   3.136  0.2213 -0.3087 -0.3508
 7763SOL     OW34921   1.208   1.348   3.327 -0.3890  0.3345  0.2877
 7763SOL    HW134922   1.232   1.441   3.331  0.3711  0.0961  1.1828
 7763SOL    HW234923   1.118   1.354   3.294 -0.5096  0.3151  0.6196
 7764SOL     OW34924   1.928   0.434   2.686  0.1881  0.0325  0.5363
 7764SOL    HW134925   1.972   0.411   2.604 -0.9397 -0.1507 -0.0186
 7764SOL    HW234926   1.867   0.500   2.652 -2.4168 -3.1219 -0.9695
 7765SOL     OW34927   1.448   0.588   0.524  0.2359  0.3622  0.3260
 7765SOL    HW134928   1.512   0.542   0.469 -2.2422 -2.4474 -0.2010
 7765SOL    HW234929   1.373   0.528   0.526  2.6163 -2.4975  2.6810
 7766SOL     OW34930   3.877   1.074   6.471 -0.5421 -0.4314 -0.3410
 7766SOL    HW134931   3.896   0.980   6.475  1.5308  0.0364  0.5800
 7766SOL    HW234932   3.875   1.095   6.565  1.3510 -0.6761 -0.2619
 7767SOL     OW34933   1.459   1.158  11.149  0.3845  0.1375 -0.2522
 7767SOL    HW134934   1.410   1.097  11.204  0.2168  0.1758 -0.3592
 7767SOL    HW234935   1.429   1.141  11.060 -2.2078  1.7882  0.3267
 7768SOL     OW34936   2.406   3.125   4.577 -0.9926  0.7136  0.5795
 7768SOL    HW134937   2.485   3.108   4.525  0.0664 -0.7785  2.6667
 7768SOL    HW234938   2.352   3.119   4.498  0.8095 -0.9756 -0.5129
 7769SOL     OW34939   3.230   4.509  17.708  0.3427 -0.2446 -0.3006
 7769SOL    HW134940   3.259   4.554  17.629  0.4576  2.4681  1.2719
 7769SOL    HW234941   3.257   4.419  17.691  0.6061 -0.2636  0.2097
 7770SOL     OW34942   4.676   2.129  17.552  0.2041 -0.0748 -0.2070
 7770SOL    HW134943   4.734   2.177  17.493 -0.8731 -0.3674 -1.4881
 7770SOL    HW234944   4.720   2.046  17.571 -0.6902 -0.2437  1.1446
 7771SOL     OW34945   3.905   3.570   8.770  0.3638 -0.4632 -0.2596
 7771SOL    HW134946   3.988   3.575   8.817 -0.0418 -0.1172  0.4273
 7771SOL    HW234947   3.842   3.627   8.815 -0.4751 -1.4566 -0.1658
 7772SOL     OW34948   4.629   2.242   2.320  0.2491 -0.3156  0.1643
 7772SOL    HW134949   4.697   2.180   2.293  0.4573  0.8259 -1.9626
 7772SOL    HW234950   4.553   2.184   2.324 -0.5747  0.6960 -0.7334
 7773SOL     OW34951   1.392   0.866   4.424  0.7029  0.0427 -1.0147
 7773SOL    HW134952   1.425   0.941   4.472  1.3338 -0.1800 -1.1010
 7773SOL    HW234953   1.472   0.817   4.444  1.2413  1.6982  0.9172
 7774SOL     OW34954   1.642   2.080   3.646  0.0802 -0.0685 -0.0132
 7774SOL    HW134955   1.627   2.158   3.699  2.8709  0.2045  0.3826
 7774SOL    HW234956   1.737   2.093   3.646  0.1985 -0.9588 -0.4668
 7775SOL     OW34957   3.763   2.552   7.176  0.0535 -0.0603  0.2090
 7775SOL    HW134958   3.738   2.643   7.194 -1.6113 -0.2825 -0.9144
 7775SOL    HW234959   3.689   2.509   7.220  0.6868 -1.4526 -0.0951
 7776SOL     OW34960   0.200   2.105   3.025  0.0086  0.4524 -0.3472
 7776SOL    HW134961   0.184   2.187   3.071  0.0213 -1.0927  2.3559
 7776SOL    HW234962   0.121   2.111   2.971 -0.8863 -1.2591  0.7966
 7777SOL     OW34963   2.767   0.116  15.802 -0.2144 -0.0010  0.0736
 7777SOL    HW134964   2.682   0.074  15.810  0.0464 -0.9121 -1.9037
 7777SOL    HW234965   2.784   0.091  15.712 -0.9966 -2.9647  0.7388
 7778SOL     OW34966   3.150   0.488   4.128 -0.0531 -0.0301  0.5281
 7778SOL    HW134967   3.241   0.516   4.138  0.6396 -1.0334 -2.7100
 7778SOL    HW234968   3.166   0.394   4.117  0.0163 -0.0649  0.9399
 7779SOL     OW34969   0.198   3.233   0.552 -0.4922 -0.6159 -0.2095
 7779SOL    HW134970   0.104   3.216   0.552 -0.7637  0.9419 -0.0035
 7779SOL    HW234971   0.232   3.174   0.620  0.1485 -0.2622 -0.2282
 7780SOL     OW34972   3.507   0.132   2.160  0.0577 -0.6045 -0.3456
 7780SOL    HW134973   3.432   0.113   2.104  0.6390 -2.6964 -0.3921
 7780SOL    HW234974   3.571   0.174   2.103  0.0518 -1.2664 -0.8424
 7781SOL     OW34975   0.167   1.693  13.548 -0.0651 -0.6256 -0.3461
 7781SOL    HW134976   0.145   1.601  13.563  2.4753 -0.6890  2.9108
 7781SOL    HW234977   0.261   1.693  13.530 -0.0745  1.7373 -0.3924
 7782SOL     OW34978   1.077   4.623   2.624 -0.4999 -0.1582  0.2065
 7782SOL    HW134979   1.166   4.588   2.621 -0.4595  0.0890 -1.5844
 7782SOL    HW234980   1.067   4.652   2.533 -1.5900 -1.6824 -0.1533
 7783SOL     OW34981   2.113   2.549   7.089 -0.2379 -0.1109 -0.3681
 7783SOL    HW134982   2.066   2.631   7.071 -1.3155 -0.6918 -0.1978
 7783SOL    HW234983   2.103   2.549   7.184  0.8083 -1.7951 -0.2776
 7784SOL     OW34984   2.253   3.469   2.141 -0.1349  0.3562  0.0567
 7784SOL    HW134985   2.256   3.384   2.097  1.6138  0.2374  0.4139
 7784SOL    HW234986   2.323   3.515   2.096 -1.3606  0.3385 -1.8583
 7785SOL     OW34987   2.241   1.744  11.328 -0.2739  0.1800  0.3270
 7785SOL    HW134988   2.209   1.823  11.372  0.3062  0.8563 -0.4775
 7785SOL    HW234989   2.278   1.701  11.405 -1.2977 -0.6057  0.3948
 7786SOL     OW34990   0.074   3.974   1.812  0.0129 -0.2981  0.1968
 7786SOL    HW134991   0.136   4.031   1.858  0.4567 -0.4728 -0.1793
 7786SOL    HW234992   0.009   4.039   1.787  0.7451 -0.5969 -2.5184
 7787SOL     OW34993   2.857   4.729  10.808 -0.0797  0.0897  0.3383
 7787SOL    HW134994   2.874   4.679  10.887  1.7866  2.6259  1.5557
 7787SOL    HW234995   2.845   4.661  10.742  2.8480  0.0968 -0.2314
 7788SOL     OW34996   4.697   3.460   6.394  0.4136 -0.7611 -0.5814
 7788SOL    HW134997   0.036   3.495   6.350 -0.9079  1.0186 -1.5004
 7788SOL    HW234998   4.699   3.515   6.473 -1.5460 -0.1318 -0.9796
 7789SOL     OW34999   0.199   4.736   7.948  0.0838  0.3729 -0.4135
 7789SOL    HW135000   0.273   4.684   7.980 -0.1955 -0.3313 -0.9084
 7789SOL    HW235001   0.135   4.681   7.993 -0.5502  0.4890 -1.1830
 7790SOL     OW35002   2.354   0.026   3.569 -0.6309 -0.1694  0.3083
 7790SOL    HW135003   2.409   0.010   3.646  1.7035  1.0392 -1.1118
 7790SOL    HW235004   2.318   0.112   3.588  1.0748  0.7254 -0.5750
 7791SOL     OW35005   1.886   1.340  12.580  0.6711  0.0164 -0.6826
 7791SOL    HW135006   1.917   1.348  12.670  1.0167 -1.9209 -0.6202
 7791SOL    HW235007   1.957   1.367  12.522  1.0979 -0.4594 -0.3768
 7792SOL     OW35008   0.991   1.615   7.934 -0.0864 -0.4466  0.2151
 7792SOL    HW135009   1.036   1.572   8.007 -0.2901 -0.7979  0.1322
 7792SOL    HW235010   1.052   1.687   7.915 -1.6814  0.8646  0.1443
 7793SOL     OW35011   0.108   4.335   9.040  0.7874 -0.0876  0.4046
 7793SOL    HW135012   0.016   4.359   9.033  1.1352  0.6671 -1.6217
 7793SOL    HW235013   0.105   4.247   9.078  1.0596 -0.3226 -0.1280
 7794SOL     OW35014   1.340   0.475   6.721  0.3412  0.1229  0.2945
 7794SOL    HW135015   1.276   0.421   6.767 -0.5695  1.2827  0.4009
 7794SOL    HW235016   1.404   0.475   6.793  2.5221 -2.1439 -1.6564
 7795SOL     OW35017   2.329   1.094   3.009  0.1499 -0.1942 -0.3380
 7795SOL    HW135018   2.385   1.143   2.950 -1.3731  0.0603 -1.5816
 7795SOL    HW235019   2.287   1.023   2.960 -0.0117 -0.0137 -0.4608
 7796SOL     OW35020   1.241   4.206   8.028  0.2042  0.1106  0.3884
 7796SOL    HW135021   1.167   4.230   7.972  1.3705  0.3702 -1.0416
 7796SOL    HW235022   1.236   4.112   8.015  0.2664  0.5781 -2.9230
 7797SOL     OW35023   3.523   3.765   6.980  0.0736  0.2962  0.3378
 7797SOL    HW135024   3.572   3.723   6.909  2.6271 -0.9594  2.8512
 7797SOL    HW235025   3.435   3.776   6.946 -0.4685  3.7304  2.7697
 7798SOL     OW35026   2.694   0.800   7.373  0.0214  0.0146  0.0758
 7798SOL    HW135027   2.728   0.717   7.406  0.9696  0.6053  0.5693
 7798SOL    HW235028   2.610   0.770   7.338  1.8118 -2.2290 -2.2929
 7799SOL     OW35029   1.497   4.092   6.891  0.0275  0.2247  0.3303
 7799SOL    HW135030   1.472   4.017   6.945 -1.1997 -0.4956 -1.2584
 7799SOL    HW235031   1.587   4.107   6.921  0.3996  2.0725 -1.7096
 7800SOL     OW35032   0.652   0.093  16.232  0.1935 -0.0908  0.0480
 7800SOL    HW135033   0.584   0.127  16.175  2.4251  1.8769 -1.4188
 7800SOL    HW235034   0.638   0.136  16.316 -1.6912  0.3125 -0.4638
 7801SOL     OW35035   2.743   0.448  10.891 -0.5027 -1.0488 -0.4497
 7801SOL    HW135036   2.656   0.480  10.867 -0.4673 -0.6869 -0.0936
 7801SOL    HW235037   2.710   0.367  10.928 -1.7869  0.4581  1.6485
 7802SOL     OW35038   0.686   2.487  12.989 -0.3786  0.2356 -0.1834
 7802SOL    HW135039   0.597   2.523  12.993 -1.0254 -1.4570  0.5924
 7802SOL    HW235040   0.669   2.401  12.951 -0.5478  0.2031 -0.0363
 7803SOL     OW35041   2.754   0.039   4.476  0.3289 -0.0611 -0.4828
 7803SOL    HW135042   2.672   0.082   4.498  0.0352 -1.0415  0.3153
 7803SOL    HW235043   2.774   0.079   4.391  0.9258 -0.0117 -0.3181
 7804SOL     OW35044   1.908   0.642   7.284  0.3893  0.6169 -0.1110
 7804SOL    HW135045   1.886   0.550   7.269  1.8909  0.1711  0.3659
 7804SOL    HW235046   2.000   0.631   7.311  0.3497  0.9282  0.1492
 7805SOL     OW35047   0.376   4.556   5.446  0.3033  0.2983  0.4205
 7805SOL    HW135048   0.358   4.463   5.430  2.2470 -0.1243  0.7162
 7805SOL    HW235049   0.468   4.552   5.473  0.7645  1.2634 -0.9914
 7806SOL     OW35050   0.103   0.531  15.924  0.6564  0.3092 -0.4445
 7806SOL    HW135051   0.100   0.618  15.963 -0.7232  0.6928 -1.3827
 7806SOL    HW235052   0.044   0.482  15.983  2.3775 -2.1624 -0.7952
 7807SOL     OW35053   4.431   1.525   4.498  0.0489 -0.0539 -0.0357
 7807SOL    HW135054   4.429   1.619   4.478 -0.3495 -0.1768 -0.5544
 7807SOL    HW235055   4.343   1.494   4.479 -1.2916  4.1933 -0.7647
 7808SOL     OW35056   2.597   1.194  17.276  0.2878  0.1556  0.3686
 7808SOL    HW135057   2.599   1.252  17.200 -0.7599  0.9137  0.9285
 7808SOL    HW235058   2.626   1.111  17.239  2.1436  0.9463  0.0436
 7809SOL     OW35059   2.409   3.961   2.394  0.0164  0.0515  0.1280
 7809SOL    HW135060   2.433   3.898   2.326  1.4814  1.8961 -1.0729
 7809SOL    HW235061   2.469   3.932   2.463  1.4471  0.4714 -0.9496
 7810SOL     OW35062   2.987   3.606   9.582 -0.3571 -0.2585  0.3231
 7810SOL    HW135063   2.937   3.527   9.604 -0.5747 -0.3010 -0.3296
 7810SOL    HW235064   3.034   3.580   9.503  0.8322  1.3279  0.5229
 7811SOL     OW35065   1.145   1.659   6.868  0.0072  0.4326 -0.6174
 7811SOL    HW135066   1.100   1.673   6.951 -0.6435  1.4169 -1.1369
 7811SOL    HW235067   1.231   1.701   6.876 -0.0873  0.8961 -1.9463
 7812SOL     OW35068   2.004   1.640   1.557  0.5126 -0.4957 -0.2546
 7812SOL    HW135069   1.951   1.683   1.624  0.3466  1.8649 -1.9020
 7812SOL    HW235070   1.973   1.551   1.571 -2.5000  0.6368  0.1937
 7813SOL     OW35071   3.805   1.723   6.969  0.5443  0.5128 -0.5483
 7813SOL    HW135072   3.726   1.772   6.992  1.0387  0.7330  0.6466
 7813SOL    HW235073   3.872   1.790   6.978 -0.0657  0.9469  0.6991
 7814SOL     OW35074   1.872   2.854   8.028  0.1623 -0.0668  0.0567
 7814SOL    HW135075   1.810   2.916   8.065  0.2003 -1.7635  2.9430
 7814SOL    HW235076   1.856   2.764   8.056 -2.0760 -0.1666 -1.5978
 7815SOL     OW35077   3.885   1.126   8.468  0.0148 -1.0009  0.6480
 7815SOL    HW135078   3.962   1.128   8.524  0.1373 -1.2167  0.4903
 7815SOL    HW235079   3.828   1.073   8.522 -0.9234  0.1854  0.8106
 7816SOL     OW35080   2.510   3.414   2.453 -0.1237  0.5899 -0.6712
 7816SOL    HW135081   2.556   3.342   2.496 -1.0031 -0.3036 -1.2191
 7816SOL    HW235082   2.429   3.418   2.505  1.0288 -1.4360  1.2921
 7817SOL     OW35083   4.695   3.894  17.037 -0.3392  0.4302  0.1798
 7817SOL    HW135084   4.631   3.826  17.017  0.6477 -0.8643  1.3010
 7817SOL    HW235085   4.735   3.907  16.951  0.4431  0.4884  0.5459
 7818SOL     OW35086   1.459   4.236   8.197 -0.1679  0.6592  0.2269
 7818SOL    HW135087   1.510   4.204   8.123 -2.8045 -0.7731 -0.9828
 7818SOL    HW235088   1.378   4.255   8.150  0.2701 -0.0791 -0.8117
 7819SOL     OW35089   1.617   1.725   2.653 -0.1182 -0.5186 -0.0954
 7819SOL    HW135090   1.591   1.716   2.561 -0.7470 -2.2672  0.2606
 7819SOL    HW235091   1.602   1.818   2.668  0.0137 -0.4801 -0.1984
 7820SOL     OW35092   2.724   4.327  13.128  0.4404 -0.2379 -0.7403
 7820SOL    HW135093   2.741   4.420  13.117  0.0576  0.0596  1.1873
 7820SOL    HW235094   2.731   4.322  13.223 -0.4465  0.6726 -0.6303
 7821SOL     OW35095   1.250   1.452  13.185 -0.6814 -0.4902  0.5083
 7821SOL    HW135096   1.306   1.515  13.232  0.8183 -0.9728 -0.6272
 7821SOL    HW235097   1.206   1.408  13.258 -1.7412 -0.4148 -0.0905
 7822SOL     OW35098   3.610   0.222   8.751  0.5369  0.0192  0.9629
 7822SOL    HW135099   3.519   0.233   8.778 -0.1074  0.0846 -1.2631
 7822SOL    HW235100   3.633   0.158   8.819 -1.0642 -3.0134 -1.3606
 7823SOL     OW35101   1.670   3.309   3.972 -0.2413  0.2766  0.0843
 7823SOL    HW135102   1.597   3.268   3.927  0.1701  1.1687 -1.3693
 7823SOL    HW235103   1.619   3.354   4.040 -0.7660 -2.2370  1.3491
 7824SOL     OW35104   3.801   2.517  16.407  0.1708  0.1753  0.3162
 7824SOL    HW135105   3.852   2.500  16.486  0.1808  1.1073  0.5072
 7824SOL    HW235106   3.828   2.444  16.351  0.7981  1.6442 -1.2794
 7825SOL     OW35107   1.642   0.382   7.532 -0.6226 -0.0031 -0.3158
 7825SOL    HW135108   1.569   0.434   7.499 -2.0453 -0.7859  1.6540
 7825SOL    HW235109   1.613   0.363   7.621  0.2095  1.2905  0.2390
 7826SOL     OW35110   4.082   3.554  11.221 -0.0863 -0.0011  0.0135
 7826SOL    HW135111   4.028   3.493  11.272 -2.2875  0.9004 -1.2360
 7826SOL    HW235112   4.153   3.502  11.185  0.3223  0.6773 -0.1410
 7827SOL     OW35113   2.235   0.054   1.599 -0.5587 -0.1305  0.2762
 7827SOL    HW135114   2.298   0.092   1.538 -0.9184 -0.0402 -0.0399
 7827SOL    HW235115   2.286   0.065   1.679  0.8209 -0.4314 -0.5661
 7828SOL     OW35116   3.657   1.469   3.885 -0.2389  0.1784  0.1603
 7828SOL    HW135117   3.681   1.520   3.962  0.8847  0.6948 -0.5309
 7828SOL    HW235118   3.642   1.544   3.827  0.4637  0.9644  1.0053
 7829SOL     OW35119   0.939   2.288   5.284 -0.7163 -0.0519 -0.0054
 7829SOL    HW135120   0.888   2.213   5.315  0.1266 -1.2144 -1.3708
 7829SOL    HW235121   0.936   2.290   5.188 -0.8085 -1.8227 -0.0487
 7830SOL     OW35122   4.692   4.418   1.924  0.0799 -0.1011 -0.3996
 7830SOL    HW135123   4.667   4.496   1.974 -2.2361 -1.6053  0.7787
 7830SOL    HW235124   0.047   4.414   1.944  0.3045  1.0468 -1.2148
 7831SOL     OW35125   1.381   3.265   8.903 -0.5970 -0.0195 -0.8464
 7831SOL    HW135126   1.364   3.347   8.949  2.2226  0.2196 -0.1897
 7831SOL    HW235127   1.327   3.205   8.954 -1.0134  2.2341  1.3407
 7832SOL     OW35128   0.289   1.227   3.407 -0.3762  0.2952 -0.2918
 7832SOL    HW135129   0.209   1.215   3.355 -1.6931  1.0842  1.5616
 7832SOL    HW235130   0.251   1.282   3.475 -0.1497 -0.9403  0.8266
 7833SOL     OW35131   1.542   0.167   5.398 -0.5011 -0.0332 -0.0538
 7833SOL    HW135132   1.606   0.107   5.360 -1.4926  0.5966 -2.7065
 7833SOL    HW235133   1.597   0.238   5.429 -0.0202 -0.2289 -0.4624
 7834SOL     OW35134   3.663   4.423  15.524 -0.6900 -0.4383 -0.8650
 7834SOL    HW135135   3.754   4.445  15.506 -0.7928  1.4747  1.0157
 7834SOL    HW235136   3.678   4.361  15.595 -1.4519  0.3705  0.0052
 7835SOL     OW35137   3.051   2.142  10.712 -0.2188 -0.4448  0.5095
 7835SOL    HW135138   3.023   2.220  10.760 -1.1752 -0.8870  0.6899
 7835SOL    HW235139   2.961   2.118  10.688  0.8123 -0.9276 -2.8232
 7836SOL     OW35140   3.506   3.996   0.571 -0.2479  0.1166  0.3637
 7836SOL    HW135141   3.419   3.955   0.573 -0.2913  0.1306 -1.5515
 7836SOL    HW235142   3.565   3.932   0.533 -1.8529 -0.5650 -1.0155
 7837SOL     OW35143   0.843   1.371   3.816 -0.3412  0.4184 -0.3189
 7837SOL    HW135144   0.747   1.366   3.815 -0.3570  0.9425 -0.9982
 7837SOL    HW235145   0.859   1.277   3.829  1.6761  0.6928 -0.8897
 7838SOL     OW35146   2.070   4.730  15.700  0.4242  0.0279 -0.1736
 7838SOL    HW135147   2.024   4.726  15.784 -0.1566 -0.3503 -0.5220
 7838SOL    HW235148   2.050   0.082  15.677  1.0909  0.0960 -0.5026
 7839SOL     OW35149   2.243   3.107  16.742  0.0217 -0.6562  0.2074
 7839SOL    HW135150   2.225   3.131  16.833  5.3686 -1.0462  1.3665
 7839SOL    HW235151   2.263   3.194  16.710 -1.4127 -0.4865 -0.2186
 7840SOL     OW35152   2.796   4.724   5.690  0.3795 -0.5534 -0.0608
 7840SOL    HW135153   2.785   4.725   5.785  1.7897  1.9072  0.0725
 7840SOL    HW235154   2.885   0.020   5.682 -0.2427  2.0490  4.3699
 7841SOL     OW35155   2.043   1.544   2.938  0.2551  0.1774  0.0244
 7841SOL    HW135156   2.056   1.607   3.010  0.0093  0.3846 -0.1098
 7841SOL    HW235157   1.958   1.575   2.906  0.5657  1.8257  0.7663
 7842SOL     OW35158   3.221   2.555   9.231 -0.1006  0.0629  0.0165
 7842SOL    HW135159   3.130   2.526   9.224  0.2697 -2.0869  3.7640
 7842SOL    HW235160   3.266   2.492   9.175 -0.2116  1.2681 -1.4246
 7843SOL     OW35161   2.558   0.985   6.444  0.1686  0.1244  0.1265
 7843SOL    HW135162   2.638   0.953   6.487 -0.3189 -2.0639 -0.6088
 7843SOL    HW235163   2.530   1.048   6.511  0.2120 -0.4413  0.6764
 7844SOL     OW35164   3.800   0.176   8.040  0.4671 -0.1674 -0.2486
 7844SOL    HW135165   3.883   0.130   8.024  0.5582 -0.2092  0.3484
 7844SOL    HW235166   3.824   0.268   8.046  0.6613 -0.3951  2.5317
 7845SOL     OW35167   3.197   1.783   2.352  0.3207 -0.7847  0.0792
 7845SOL    HW135168   3.278   1.756   2.309  0.4919  0.6760 -0.5364
 7845SOL    HW235169   3.231   1.855   2.405 -3.0745 -1.3614  2.9779
 7846SOL     OW35170   3.501   2.834   8.153  0.0104  0.5034  0.5598
 7846SOL    HW135171   3.432   2.855   8.216 -1.8582  1.3048 -1.7288
 7846SOL    HW235172   3.452   2.817   8.072  2.2213  2.0739 -1.1139
 7847SOL     OW35173   3.493   4.663   6.712 -0.3425 -0.2450  0.0830
 7847SOL    HW135174   3.480   0.018   6.724  1.9828  0.3939 -2.3470
 7847SOL    HW235175   3.499   4.656   6.617  0.0249 -0.0659  0.0922
 7848SOL     OW35176   3.119   2.721   3.865 -0.0186 -0.0641 -0.3321
 7848SOL    HW135177   3.129   2.631   3.897  2.5943 -0.6865 -2.8601
 7848SOL    HW235178   3.071   2.705   3.783 -1.2748 -0.3366  0.4436
 7849SOL     OW35179   1.645   4.036  11.447  0.0763 -0.8278 -0.0493
 7849SOL    HW135180   1.683   3.948  11.443  1.0113 -0.3895 -1.2585
 7849SOL    HW235181   1.697   4.078  11.516 -0.1306 -0.6023 -0.0323
 7850SOL     OW35182   3.206   3.452   3.652 -0.4250  0.1809 -0.2801
 7850SOL    HW135183   3.238   3.492   3.733 -1.7257  0.3673  0.1602
 7850SOL    HW235184   3.286   3.427   3.607 -1.8109  0.1970 -2.7830
 7851SOL     OW35185   2.256   2.604   8.065 -0.1550  0.2235  0.5230
 7851SOL    HW135186   2.190   2.548   8.025 -0.6705 -0.0643  1.7752
 7851SOL    HW235187   2.322   2.609   7.996 -1.2143  1.2308 -0.4148
 7852SOL     OW35188   1.154   0.138  12.323  0.2633  0.7065  0.7839
 7852SOL    HW135189   1.165   0.151  12.417  1.8399  0.9158  0.5677
 7852SOL    HW235190   1.061   0.114  12.320  0.2375  0.8478  0.4807
 7853SOL     OW35191   2.498   0.087   4.539 -0.0547 -0.0544 -0.4594
 7853SOL    HW135192   2.481   0.150   4.610 -0.4263 -0.9346  0.2299
 7853SOL    HW235193   2.448   0.011   4.570 -0.6246  0.3338 -0.4153
 7854SOL     OW35194   2.919   1.196   7.977  0.0725  0.5053 -0.3339
 7854SOL    HW135195   2.966   1.214   7.896  0.9063  0.2849  0.1058
 7854SOL    HW235196   2.832   1.232   7.960 -0.5386 -0.2256  1.2212
 7855SOL     OW35197   3.286   2.575   2.539 -0.1518  0.1437  0.1390
 7855SOL    HW135198   3.210   2.517   2.547  1.5132 -2.2869 -1.6057
 7855SOL    HW235199   3.262   2.631   2.466  2.1821 -0.4354 -1.0869
 7856SOL     OW35200   2.026   2.709   3.383  0.1033 -0.1311 -0.3610
 7856SOL    HW135201   2.072   2.787   3.414  0.9673 -0.4830 -0.7587
 7856SOL    HW235202   1.936   2.737   3.399  0.9858  1.6983  1.3637
 7857SOL     OW35203   1.382   2.779   2.826 -0.0682  0.2172 -0.1428
 7857SOL    HW135204   1.362   2.767   2.919  0.9235 -1.5598 -0.1676
 7857SOL    HW235205   1.375   2.873   2.809  2.1903  0.4042 -0.0965
 7858SOL     OW35206   1.968   1.267  11.157  0.2289  0.8007 -0.5579
 7858SOL    HW135207   1.980   1.269  11.252  0.3769  0.8499 -0.5759
 7858SOL    HW235208   1.965   1.172  11.151  2.6087  0.6751  0.2602
 7859SOL     OW35209   1.955   0.322  11.154  0.5465  0.0950 -0.3102
 7859SOL    HW135210   1.983   0.401  11.109  1.5104  0.5042  1.0138
 7859SOL    HW235211   1.997   0.259  11.094  1.3785  0.0307  0.3276
 7860SOL     OW35212   2.230   2.355   6.507 -0.1368  0.1769  0.0411
 7860SOL    HW135213   2.323   2.339   6.490 -0.3879 -1.5788  0.2747
 7860SOL    HW235214   2.237   2.449   6.492 -0.0755 -0.1219 -1.8560
 7861SOL     OW35215   3.042   3.551   9.326 -0.0466 -0.0490  0.4886
 7861SOL    HW135216   3.107   3.481   9.322 -1.9022 -1.6908 -0.7936
 7861SOL    HW235217   3.091   3.627   9.293  0.7227  0.3433  2.5429
 7862SOL     OW35218   0.582   3.898   0.400 -0.2982  0.4580 -0.2476
 7862SOL    HW135219   0.554   3.856   0.319 -0.8711  1.1594 -0.4143
 7862SOL    HW235220   0.651   3.840   0.433 -0.5228 -0.5430 -1.5465
 7863SOL     OW35221   3.033   2.402   7.079 -0.1812 -0.5307 -0.6885
 7863SOL    HW135222   2.958   2.349   7.050 -1.0650  0.9419 -1.1407
 7863SOL    HW235223   3.067   2.344   7.146 -0.9647 -0.2135 -0.0207
 7864SOL     OW35224   0.573   3.404   8.723 -0.1221 -0.2502 -0.5634
 7864SOL    HW135225   0.506   3.344   8.756  0.2285 -0.2547  0.1403
 7864SOL    HW235226   0.639   3.339   8.696 -0.2092 -0.8645  0.7257
 7865SOL     OW35227   1.278   1.986  16.484  0.1351 -0.8664  0.8767
 7865SOL    HW135228   1.222   2.012  16.558  0.0017 -1.7950  1.0976
 7865SOL    HW235229   1.287   2.060  16.424 -0.3408 -0.0119  1.8597
 7866SOL     OW35230   1.938   4.490   2.433  0.2490  0.0375 -0.3447
 7866SOL    HW135231   2.003   4.469   2.366  0.2121 -0.2888 -0.2776
 7866SOL    HW235232   1.982   4.554   2.489  0.4668 -1.1930  0.8724
 7867SOL     OW35233   0.934   1.899   1.548 -0.2652 -0.3691  0.4098
 7867SOL    HW135234   0.965   1.903   1.639 -0.5890 -0.2319  0.5129
 7867SOL    HW235235   0.939   1.806   1.528 -0.4344 -0.5661  1.3073
 7868SOL     OW35236   0.124   3.257   8.658 -0.2503  0.1504  0.7963
 7868SOL    HW135237   0.106   3.265   8.565  1.8055 -0.2679  0.3509
 7868SOL    HW235238   0.071   3.183   8.687 -1.9066  1.1710  0.3453
 7869SOL     OW35239   4.733   1.999   2.249  0.8261  0.0041 -0.2228
 7869SOL    HW135240   0.079   1.954   2.244  0.0120 -1.5249 -0.2585
 7869SOL    HW235241   4.671   1.949   2.196 -0.7180 -0.7682  2.3034
 7870SOL     OW35242   0.719   0.494   0.819  0.2140 -0.0750 -0.0878
 7870SOL    HW135243   0.664   0.428   0.862  1.3494 -1.3053 -0.5137
 7870SOL    HW235244   0.709   0.573   0.872  1.0521  0.6693 -1.0369
 7871SOL     OW35245   3.475   2.525  10.624  0.0278 -0.3829 -0.2354
 7871SOL    HW135246   3.381   2.509  10.623  0.2808 -1.8262 -0.3379
 7871SOL    HW235247   3.496   2.530  10.717  1.7511 -0.6874 -0.5909
 7872SOL     OW35248   3.626   4.696   4.046  0.2122  0.8053  0.3017
 7872SOL    HW135249   3.685   4.688   4.121  1.7013  1.1599 -0.8198
 7872SOL    HW235250   3.668   4.644   3.977  0.5006 -0.6613  1.5708
 7873SOL     OW35251   1.621   2.950   3.923  0.2015 -0.4490  0.1084
 7873SOL    HW135252   1.663   2.865   3.908  0.4951 -0.1529 -0.7482
 7873SOL    HW235253   1.655   2.964   4.011  0.4147 -1.9191  0.2585
 7874SOL     OW35254   1.195   4.700   3.230 -0.1753  0.0948 -0.3091
 7874SOL    HW135255   1.201   4.651   3.148 -4.0664  1.2590 -1.2820
 7874SOL    HW235256   1.254   0.033   3.206 -0.9599  0.4889 -1.0968
 7875SOL     OW35257   1.361   3.603  17.094  0.4153  0.2978 -0.0509
 7875SOL    HW135258   1.435   3.605  17.033 -0.2900  2.7435 -0.8085
 7875SOL    HW235259   1.369   3.524  17.148 -0.2949 -0.5795 -1.2165
 7876SOL     OW35260   2.877   0.772  14.981 -0.5993 -0.1214 -0.0820
 7876SOL    HW135261   2.913   0.835  14.919  3.1597  0.4779  2.7019
 7876SOL    HW235262   2.894   0.694  14.929 -4.2466  0.2414 -1.8224
 7877SOL     OW35263   2.132   2.699   5.629 -0.2700  0.1575  0.1344
 7877SOL    HW135264   2.098   2.617   5.666  0.7087  0.1494  1.0057
 7877SOL    HW235265   2.099   2.686   5.539  0.7593  0.2819 -0.2557
 7878SOL     OW35266   4.680   1.819   3.035  0.0274  0.1054 -0.3940
 7878SOL    HW135267   0.005   1.826   3.107 -1.8069 -0.1293  1.2558
 7878SOL    HW235268   4.649   1.729   3.035 -1.7521  0.6997  1.7046
 7879SOL     OW35269   1.848   0.791   8.793  0.6504  0.1216  0.0691
 7879SOL    HW135270   1.929   0.828   8.758  0.7792  0.4780  0.7315
 7879SOL    HW235271   1.800   0.785   8.710  0.8730 -0.2441 -0.0310
 7880SOL     OW35272   4.301   2.135   7.677 -0.7594  0.1471 -0.1596
 7880SOL    HW135273   4.308   2.049   7.718  1.2132  0.4656  0.1414
 7880SOL    HW235274   4.395   2.148   7.673 -0.6569 -0.8808 -0.9954
 7881SOL     OW35275   0.505   0.098   2.683  0.5170  0.3709  0.0041
 7881SOL    HW135276   0.456   0.154   2.743 -0.2796  0.6571 -0.9156
 7881SOL    HW235277   0.432   0.043   2.654 -1.2930  3.0286 -0.5312
 7882SOL     OW35278   4.682   3.971   7.485  0.0290 -0.6433 -0.6849
 7882SOL    HW135279   4.636   3.956   7.402 -1.9219 -1.7647  0.6106
 7882SOL    HW235280   4.714   4.061   7.491 -1.0883 -0.3719  1.2245
 7883SOL     OW35281   2.915   0.109   5.974  0.0428  0.2159 -0.1088
 7883SOL    HW135282   2.915   0.191   6.022 -0.4445  1.1169 -1.6749
 7883SOL    HW235283   2.972   0.058   6.032  0.4988 -1.1990 -1.7888
 7884SOL     OW35284   0.561   4.161   4.124  0.2963 -0.1956  0.0878
 7884SOL    HW135285   0.570   4.083   4.069 -0.6651  1.0781 -1.8894
 7884SOL    HW235286   0.474   4.142   4.159  0.5967  0.2129  1.0660
 7885SOL     OW35287   4.026   1.528  12.444  0.3872  0.0933  0.5176
 7885SOL    HW135288   4.119   1.515  12.425 -0.0046 -1.7201 -0.1716
 7885SOL    HW235289   3.986   1.444  12.423  0.2745  0.4427 -0.6958
 7886SOL     OW35290   4.669   3.117   0.172 -0.3953  0.0310 -0.1343
 7886SOL    HW135291   0.000   3.154   0.227  0.9276  0.5966 -2.1603
 7886SOL    HW235292   4.647   3.034   0.214  1.6727  0.0212  0.9440
 7887SOL     OW35293   1.262   2.200   2.914 -0.1537  0.4230 -0.1594
 7887SOL    HW135294   1.347   2.167   2.944 -0.8151 -0.8615  0.2939
 7887SOL    HW235295   1.232   2.115   2.882  1.2509  0.0198 -0.3995
 7888SOL     OW35296   0.925   3.143   2.340  0.3774 -0.1409  0.0898
 7888SOL    HW135297   0.989   3.133   2.270 -0.4606 -1.3267 -0.4955
 7888SOL    HW235298   0.853   3.089   2.309  0.3219 -0.5446  0.9213
 7889SOL     OW35299   2.191   2.868   3.077  0.5079  0.7019  0.5919
 7889SOL    HW135300   2.270   2.894   3.030 -0.4138  1.5010 -0.5173
 7889SOL    HW235301   2.136   2.859   2.999 -1.2191 -1.0673  2.0013
 7890SOL     OW35302   0.811   2.553   8.400 -0.5068  0.0025 -0.3750
 7890SOL    HW135303   0.816   2.544   8.304 -3.7653 -0.2092 -0.5178
 7890SOL    HW235304   0.718   2.576   8.409 -0.3269  0.4543  0.2800
 7891SOL     OW35305   3.961   2.392   4.709  0.0112  0.2504 -0.0337
 7891SOL    HW135306   3.963   2.374   4.803 -2.7345 -0.7574 -0.1675
 7891SOL    HW235307   3.896   2.463   4.713  0.5590  0.8086 -1.2172
 7892SOL     OW35308   3.244   4.676  12.087  0.2723 -0.8159  0.1744
 7892SOL    HW135309   3.299   4.608  12.047 -0.7707 -0.8982 -1.1240
 7892SOL    HW235310   3.306   4.712  12.150  0.7266  0.8051 -1.2001
 7893SOL     OW35311   3.396   2.407   2.207  0.2141 -0.2271 -0.6022
 7893SOL    HW135312   3.377   2.496   2.177 -2.9703 -0.3386  1.0224
 7893SOL    HW235313   3.485   2.395   2.175  0.6019  1.4774 -0.1047
 7894SOL     OW35314   0.590   1.353   4.539  0.3857 -0.2985  0.2000
 7894SOL    HW135315   0.517   1.412   4.520  0.1880 -0.6050  0.0051
 7894SOL    HW235316   0.625   1.349   4.450 -2.3187  1.9656 -0.9669
 7895SOL     OW35317   0.920   3.830   1.780  0.1123 -0.9881  0.1527
 7895SOL    HW135318   1.002   3.814   1.733 -0.4243  2.5259 -2.0079
 7895SOL    HW235319   0.866   3.782   1.717 -1.2234  0.0534  0.5169
 7896SOL     OW35320   1.942   2.244   7.839  0.1321 -0.1588  0.3776
 7896SOL    HW135321   1.848   2.226   7.838  0.2441 -0.7033 -0.1549
 7896SOL    HW235322   1.950   2.262   7.932 -3.6925 -0.3076  0.7278
 7897SOL     OW35323   3.628   1.172   6.114 -0.1512 -0.0676 -0.6598
 7897SOL    HW135324   3.582   1.089   6.127 -1.2967  0.4575 -1.3753
 7897SOL    HW235325   3.644   1.197   6.205  0.2697  0.5507 -0.9079
 7898SOL     OW35326   0.913   0.832   4.173 -0.0769 -0.3386  0.0418
 7898SOL    HW135327   0.972   0.775   4.222  3.6846  0.7688 -3.2149
 7898SOL    HW235328   0.844   0.767   4.156 -2.1138  1.2640  2.1962
 7899SOL     OW35329   3.426   3.351   2.842 -0.7664  0.7876 -0.5019
 7899SOL    HW135330   3.483   3.329   2.915 -1.7365 -0.1769 -0.0298
 7899SOL    HW235331   3.452   3.442   2.828  1.4755  0.0732 -1.0313
 7900SOL     OW35332   3.277   3.848   5.037 -0.3224 -0.0602  0.2307
 7900SOL    HW135333   3.231   3.931   5.037  1.1512  0.7479  0.6687
 7900SOL    HW235334   3.278   3.830   4.942  0.3046  1.5548 -0.0635
 7901SOL     OW35335   2.116   1.655   5.566  0.3608 -0.1841 -0.2821
 7901SOL    HW135336   2.099   1.682   5.656  1.0130 -3.1207  0.7106
 7901SOL    HW235337   2.040   1.685   5.515 -0.3551 -0.8051  0.4284
 7902SOL     OW35338   2.944   0.044   2.182  0.1003 -0.2197  0.1792
 7902SOL    HW135339   3.008   4.711   2.189  0.8062  0.3228 -0.8627
 7902SOL    HW235340   2.957   0.109   2.251  1.3337  0.7475 -0.9656
 7903SOL     OW35341   1.077   2.072   4.175  0.1497 -0.2559  0.3496
 7903SOL    HW135342   1.113   2.013   4.241  0.8702 -0.6491 -0.3978
 7903SOL    HW235343   1.103   2.161   4.199 -1.4683  1.5627 -4.6258
 7904SOL     OW35344   3.902   3.733   7.871  0.0624  0.3188 -0.2699
 7904SOL    HW135345   3.960   3.808   7.884  0.3583  0.1302 -0.4892
 7904SOL    HW235346   3.862   3.722   7.957  3.2078  1.1795  1.2983
 7905SOL     OW35347   3.578   2.717   2.959 -0.3853 -0.1651  0.4407
 7905SOL    HW135348   3.643   2.684   3.021  1.9463 -1.2684 -2.6491
 7905SOL    HW235349   3.507   2.655   2.977 -2.1176  0.9544 -2.5206
 7906SOL     OW35350   2.253   0.015   7.791 -0.1557 -0.4728 -0.5179
 7906SOL    HW135351   2.295   0.089   7.835 -0.5829 -1.4697  1.5673
 7906SOL    HW235352   2.178   0.060   7.751 -0.6554 -1.9825 -1.2973
 7907SOL     OW35353   4.356   4.204   9.413  0.5311  0.0320 -0.4426
 7907SOL    HW135354   4.332   4.154   9.492 -0.6109  0.3652 -0.5738
 7907SOL    HW235355   4.437   4.158   9.392 -0.8699 -1.9305 -1.6140
 7908SOL     OW35356   3.401   1.831   1.591  0.1578 -0.2021 -0.3710
 7908SOL    HW135357   3.324   1.827   1.535 -1.1360  0.9313  1.3559
 7908SOL    HW235358   3.473   1.852   1.531  0.2654  1.3148  0.3060
 7909SOL     OW35359   2.047   1.158   4.331 -0.4407  0.3589  0.3115
 7909SOL    HW135360   2.115   1.219   4.360  0.6215 -0.6073 -0.1625
 7909SOL    HW235361   1.972   1.211   4.357 -0.3162  0.8765 -0.3836
 7910SOL     OW35362   3.421   1.168   0.316 -0.1546 -0.2106 -0.2858
 7910SOL    HW135363   3.356   1.169   0.246 -2.1065 -1.2214  1.5288
 7910SOL    HW235364   3.381   1.210   0.392  1.5746 -1.8514  1.5557
 7911SOL     OW35365   3.678   4.548   7.739  0.9332 -0.3244 -0.0483
 7911SOL    HW135366   3.623   4.498   7.798 -0.8967 -0.3730 -1.7916
 7911SOL    HW235367   3.729   4.476   7.701 -3.0536 -3.1100 -0.1372
 7912SOL     OW35368   1.538   1.990   3.213 -0.0495  0.0282 -0.1661
 7912SOL    HW135369   1.610   1.930   3.192 -1.0122 -0.5866 -1.7544
 7912SOL    HW235370   1.593   2.052   3.261  0.2902 -0.2762 -0.1680
 7913SOL     OW35371   3.482   2.429   4.984  0.3462  0.5790 -0.2987
 7913SOL    HW135372   3.505   2.423   5.076  0.0802  2.8748 -0.0628
 7913SOL    HW235373   3.547   2.369   4.949 -0.6530 -0.8913  0.3850
 7914SOL     OW35374   1.284   3.256   2.436  0.0925  0.6022  0.0212
 7914SOL    HW135375   1.360   3.204   2.409 -0.0672 -0.4626  1.5732
 7914SOL    HW235376   1.310   3.346   2.418  1.2450  0.3288  0.3073
 7915SOL     OW35377   2.469   2.531   2.013  0.1443 -0.1262 -0.2437
 7915SOL    HW135378   2.435   2.562   1.929 -0.2821 -2.5310 -0.9559
 7915SOL    HW235379   2.403   2.467   2.039 -1.3438  1.4929 -0.0617
 7916SOL     OW35380   4.268   0.441  12.302 -0.1084 -0.0776  0.3931
 7916SOL    HW135381   4.245   0.478  12.217 -1.9717  0.0838  0.9600
 7916SOL    HW235382   4.362   0.438  12.286  0.2570 -1.3878  2.8695
 7917SOL     OW35383   4.443   4.601   7.983 -0.2775 -0.1303 -0.3882
 7917SOL    HW135384   4.490   4.521   7.960  1.0082 -0.2028  2.5585
 7917SOL    HW235385   4.514   4.664   7.985 -0.1937 -0.2500  0.3418
 7918SOL     OW35386   4.333   3.438  14.867 -0.3295 -0.3142 -0.7172
 7918SOL    HW135387   4.267   3.467  14.805 -0.8745 -1.6569 -0.7611
 7918SOL    HW235388   4.281   3.375  14.917 -1.5647  1.8387  0.7064
 7919SOL     OW35389   2.095   1.083  15.570  0.2020 -0.1359 -0.0779
 7919SOL    HW135390   2.093   0.987  15.570  0.1978 -0.1508  1.6333
 7919SOL    HW235391   2.122   1.115  15.657 -0.8725 -0.2997  0.3167
 7920SOL     OW35392   0.085   4.613   8.350 -0.4112  0.2412  0.1395
 7920SOL    HW135393   0.179   4.612   8.370 -0.2962 -0.6115 -0.4411
 7920SOL    HW235394   0.056   4.585   8.436  2.6557 -1.0051  0.7816
 7921SOL     OW35395   2.918   3.990   7.733 -0.0034 -0.3404 -0.0234
 7921SOL    HW135396   2.878   3.911   7.698 -0.4180  0.2268 -0.8077
 7921SOL    HW235397   2.874   3.991   7.818 -0.4575 -2.6030 -0.2439
 7922SOL     OW35398   3.031   4.406   6.310  1.0621 -0.3538 -0.2104
 7922SOL    HW135399   3.017   4.311   6.313 -0.8070 -0.1142 -1.3866
 7922SOL    HW235400   2.975   4.423   6.234 -0.2936  0.2701  0.9257
 7923SOL     OW35401   3.385   3.928  12.188 -0.0311  0.1379  0.2309
 7923SOL    HW135402   3.437   3.865  12.239  0.0010  1.3585  1.6811
 7923SOL    HW235403   3.301   3.939  12.231 -0.0063 -2.2127  0.9024
 7924SOL     OW35404   4.685   2.506  13.539  0.1991 -0.3647 -0.4945
 7924SOL    HW135405   4.684   2.601  13.534  1.2438 -0.3479 -0.5185
 7924SOL    HW235406   0.037   2.482  13.517  0.2470 -1.2612  0.6802
 7925SOL     OW35407   3.357   0.635   4.351  0.1973  0.4292  0.0340
 7925SOL    HW135408   3.357   0.697   4.278  3.8093  0.0984 -0.2292
 7925SOL    HW235409   3.443   0.598   4.333  0.4704  0.6375  0.8777
 7926SOL     OW35410   3.166   3.463   4.025  0.3161 -0.5294  0.2929
 7926SOL    HW135411   3.228   3.458   4.097  1.2328 -0.9275 -0.5193
 7926SOL    HW235412   3.214   3.513   3.959  2.8655  0.5889  3.0241
 7927SOL     OW35413   2.354   1.609  17.585  0.2232 -0.7172 -0.7063
 7927SOL    HW135414   2.369   1.545  17.654  1.3501  1.5185  1.0836
 7927SOL    HW235415   2.396   1.563  17.513  0.0428 -1.0435 -0.6052
 7928SOL     OW35416   4.216   1.271   7.301  0.0121  0.4508 -0.4648
 7928SOL    HW135417   4.202   1.184   7.337 -0.5263  0.5928 -0.3334
 7928SOL    HW235418   4.185   1.334   7.367  0.3457 -0.0088  0.1336
 7929SOL     OW35419   0.819   3.506   1.846 -0.4816 -0.0097  0.6615
 7929SOL    HW135420   0.820   3.551   1.761  0.6285  0.9216  1.1792
 7929SOL    HW235421   0.743   3.547   1.886 -1.9910 -0.2498 -1.9000
 7930SOL     OW35422   0.957   3.018  14.513 -0.2168  0.3552  0.2698
 7930SOL    HW135423   0.896   2.970  14.457 -1.7942  2.3126  0.3491
 7930SOL    HW235424   1.030   3.018  14.451 -1.5722 -2.6966 -1.3392
 7931SOL     OW35425   4.492   4.530   3.289  0.3095 -0.8062 -0.4805
 7931SOL    HW135426   4.406   4.567   3.269 -0.1026 -1.9433 -0.7810
 7931SOL    HW235427   4.477   4.436   3.287  0.5649 -0.8732  0.4580
 7932SOL     OW35428   3.931   4.311   3.679  0.0247  0.4922 -0.3113
 7932SOL    HW135429   4.013   4.271   3.708 -0.4280 -1.0234 -1.1189
 7932SOL    HW235430   3.870   4.239   3.692  0.3283  0.5691  1.4620
 7933SOL     OW35431   1.123   3.173   2.159 -0.3652  0.5651  0.1086
 7933SOL    HW135432   1.190   3.160   2.226  0.2138 -1.2054 -0.8047
 7933SOL    HW235433   1.150   3.102   2.100  0.9777  2.4906 -1.5738
 7934SOL     OW35434   1.095   4.089   5.729  0.1115 -0.0239  0.2310
 7934SOL    HW135435   1.051   4.012   5.693  0.4511  0.1517 -0.5702
 7934SOL    HW235436   1.157   4.050   5.790  2.0863  0.0860 -1.7020
 7935SOL     OW35437   3.042   1.841  17.002  0.5571 -0.2436  0.3433
 7935SOL    HW135438   3.030   1.802  16.915  0.2682 -2.1726  1.2462
 7935SOL    HW235439   3.135   1.823  17.013  0.4182 -0.1200  1.6511
 7936SOL     OW35440   2.085   2.111  14.551 -0.4238  0.1658  0.0273
 7936SOL    HW135441   1.996   2.082  14.531 -0.1522 -0.4473 -0.2744
 7936SOL    HW235442   2.107   2.168  14.477  3.3177  0.1580  1.1356
 7937SOL     OW35443   2.692   0.280   5.574  0.1028  0.5588  0.5830
 7937SOL    HW135444   2.726   0.340   5.641  0.2143  2.5265 -1.2217
 7937SOL    HW235445   2.755   0.209   5.565 -0.6187 -0.0636  0.4792
 7938SOL     OW35446   1.359   4.732   7.667  0.6339  0.2136  0.2558
 7938SOL    HW135447   1.372   4.728   7.762  0.6698  1.6522  0.3122
 7938SOL    HW235448   1.355   4.646   7.627  1.3121  0.0881  0.4644
 7939SOL     OW35449   0.883   2.380  12.300  0.5756  0.2209  0.0188
 7939SOL    HW135450   0.882   2.364  12.206  1.8426 -1.1418  0.2188
 7939SOL    HW235451   0.875   2.292  12.336 -0.7862  0.5695  0.5404
 7940SOL     OW35452   1.088   4.239   2.156 -0.3807  0.1929 -0.3820
 7940SOL    HW135453   1.093   4.230   2.252 -1.1415 -0.4887 -0.4082
 7940SOL    HW235454   0.992   4.232   2.160 -0.4557  1.0599 -0.7696
 7941SOL     OW35455   2.831   3.229   9.432  0.4431  0.2001 -0.2956
 7941SOL    HW135456   2.886   3.247   9.356 -0.2300  0.9598 -0.6080
 7941SOL    HW235457   2.792   3.145   9.409  0.8316 -0.0155 -0.1740
 7942SOL     OW35458   2.517   4.728   3.827  0.4757 -0.8180  0.0456
 7942SOL    HW135459   2.535   4.653   3.771  0.3285 -0.3198 -0.6671
 7942SOL    HW235460   2.589   0.050   3.811  0.4285 -1.0561 -1.0480
 7943SOL     OW35461   0.254   2.296   3.295 -0.0805 -0.2672 -0.5898
 7943SOL    HW135462   0.275   2.364   3.359 -1.8375 -0.3943  0.1425
 7943SOL    HW235463   0.163   2.277   3.319  0.5487 -2.1608  0.3360
 7944SOL     OW35464   1.046   3.737  12.700  0.0928 -0.3607 -0.1730
 7944SOL    HW135465   1.013   3.653  12.668 -0.3420 -0.6688  1.0719
 7944SOL    HW235466   1.139   3.722  12.687  0.2745  1.5024 -0.9570
 7945SOL     OW35467   2.785   0.157  16.961  0.3358  0.0475  0.0749
 7945SOL    HW135468   2.781   0.216  16.886  1.4188 -0.3461 -0.2930
 7945SOL    HW235469   2.787   0.075  16.911 -0.5067  0.1025 -0.0461
 7946SOL     OW35470   3.016   0.670   1.529 -0.2246 -0.5571  0.5458
 7946SOL    HW135471   2.956   0.635   1.464  1.2152  1.4861 -1.9072
 7946SOL    HW235472   2.963   0.644   1.604  1.1959  0.8870  2.0818
 7947SOL     OW35473   4.645   1.415   9.425  0.0682  0.4861  0.1864
 7947SOL    HW135474   4.664   1.491   9.371  2.3158 -0.3563 -0.1894
 7947SOL    HW235475   4.732   1.380   9.443  0.8525  1.8847 -0.8786
 7948SOL     OW35476   4.619   4.400   7.923 -0.1774  0.4965  0.2632
 7948SOL    HW135477   4.668   4.418   8.003  0.2706 -1.4170  0.4194
 7948SOL    HW235478   4.683   4.428   7.858 -0.2325 -0.2173 -0.0995
 7949SOL     OW35479   2.000   0.548   3.736  0.1129 -0.4038  0.3523
 7949SOL    HW135480   2.034   0.637   3.727  0.7644 -0.6596  0.2661
 7949SOL    HW235481   2.028   0.524   3.825 -2.1706  0.7044  1.3691
 7950SOL     OW35482   3.984   4.036   7.642 -0.0479 -0.5155 -0.4272
 7950SOL    HW135483   4.045   4.095   7.599 -1.4022  1.5766  0.5207
 7950SOL    HW235484   4.046   3.971   7.675  1.8207  2.5715  2.1401
 7951SOL     OW35485   2.846   0.257   2.998  0.0946  0.2873  0.3141
 7951SOL    HW135486   2.816   0.179   2.950 -0.8425  1.6802 -1.3680
 7951SOL    HW235487   2.768   0.303   3.030  1.0830  2.2295 -0.0981
 7952SOL     OW35488   4.176   1.855   2.803  0.4005 -0.3450 -0.0990
 7952SOL    HW135489   4.158   1.922   2.737 -1.1611  0.2709  0.9653
 7952SOL    HW235490   4.129   1.778   2.773  0.4371  0.4308 -2.1513
 7953SOL     OW35491   2.263   1.075   3.730 -0.1539  0.0033  0.1183
 7953SOL    HW135492   2.255   1.043   3.820  0.5620 -0.2444  0.0918
 7953SOL    HW235493   2.172   1.099   3.711  0.5050  3.2145  0.9107
 7954SOL     OW35494   1.088   3.181  12.302 -0.4231 -0.0838  0.1497
 7954SOL    HW135495   1.161   3.184  12.240 -2.0977  0.0618 -1.8119
 7954SOL    HW235496   1.112   3.254  12.358 -1.1575  1.3461 -1.4036
 7955SOL     OW35497   1.520   0.397   3.136 -0.8143 -0.3408  0.3576
 7955SOL    HW135498   1.588   0.351   3.184  0.5683 -1.7000 -2.8573
 7955SOL    HW235499   1.581   0.439   3.074 -1.6816  0.4123  0.0124
 7956SOL     OW35500   0.777   3.562   7.001  0.7309 -0.5097  0.1265
 7956SOL    HW135501   0.755   3.596   7.087 -1.5428  0.3330 -0.7865
 7956SOL    HW235502   0.744   3.472   7.009  0.4331 -0.5146 -1.1251
 7957SOL     OW35503   1.548   2.778  10.198 -0.9965 -0.5210 -0.0889
 7957SOL    HW135504   1.622   2.723  10.173  0.6344  0.8992  1.5523
 7957SOL    HW235505   1.584   2.867  10.186  0.2604 -1.1643 -1.1116
 7958SOL     OW35506   1.878   3.490  14.546  0.1029 -0.5227 -0.3240
 7958SOL    HW135507   1.911   3.530  14.627 -0.8531 -2.3168  0.9566
 7958SOL    HW235508   1.959   3.453  14.510  0.0731 -0.8191 -0.0848
 7959SOL     OW35509   1.827   4.009   8.404  0.3351 -0.2097  0.2997
 7959SOL    HW135510   1.885   3.998   8.479 -1.9048 -1.7904  1.8042
 7959SOL    HW235511   1.889   4.048   8.342 -0.8227  0.5063 -0.4094
 7960SOL     OW35512   1.726   2.765   3.370 -0.7470 -0.5987 -0.2045
 7960SOL    HW135513   1.675   2.824   3.424 -0.7818 -0.1255 -0.7580
 7960SOL    HW235514   1.720   2.809   3.285  2.2257 -3.1744 -1.7589
 7961SOL     OW35515   4.547   0.217   1.566  0.1682 -0.0808  0.5731
 7961SOL    HW135516   4.620   0.163   1.595 -0.3999 -2.1623 -1.8842
 7961SOL    HW235517   4.510   0.265   1.640  0.9448  1.9597 -0.3752
 7962SOL     OW35518   4.378   2.603   7.215 -0.2898  0.0361 -0.3633
 7962SOL    HW135519   4.438   2.658   7.165 -0.1194 -1.5436 -1.9124
 7962SOL    HW235520   4.353   2.537   7.150  2.7901 -0.4618 -1.0434
 7963SOL     OW35521   1.055   1.120   8.906 -0.6642 -0.3995 -0.3535
 7963SOL    HW135522   0.988   1.185   8.883 -0.4285 -0.2744 -0.6695
 7963SOL    HW235523   1.129   1.172   8.934  0.2526 -2.3751  0.9375
 7964SOL     OW35524   3.372   1.207   3.910 -0.1651 -0.6080  0.3912
 7964SOL    HW135525   3.429   1.189   3.835 -0.1126 -0.4273  0.3863
 7964SOL    HW235526   3.352   1.301   3.906  0.1384 -0.6669 -2.5000
 7965SOL     OW35527   0.596   4.439   0.013  0.0672  0.0490 -0.1696
 7965SOL    HW135528   0.643   4.522   0.020  2.6916 -1.4341  0.1167
 7965SOL    HW235529   0.609   4.403   0.101 -1.9260  1.1524  0.5565
 7966SOL     OW35530   0.773   0.855   0.419  0.1515 -0.4843 -0.0700
 7966SOL    HW135531   0.864   0.874   0.439  0.2518 -0.5273 -0.4942
 7966SOL    HW235532   0.774   0.799   0.342 -1.5377 -0.6231 -0.0027
 7967SOL     OW35533   0.144   0.960   3.397 -0.7982 -0.0330  0.2464
 7967SOL    HW135534   0.217   0.898   3.392 -2.5660 -2.0689  0.0937
 7967SOL    HW235535   0.171   1.033   3.340 -0.2699 -1.5770 -1.5143
 7968SOL     OW35536   2.912   0.546   2.246 -0.9827  0.0582 -0.0560
 7968SOL    HW135537   3.007   0.540   2.259 -1.2887  1.9900  3.1294
 7968SOL    HW235538   2.898   0.453   2.266 -1.1243 -0.5466 -3.0543
 7969SOL     OW35539   1.492   3.588   6.110 -0.4306 -0.2157 -0.7164
 7969SOL    HW135540   1.515   3.622   6.196  0.5925 -0.3385 -0.9418
 7969SOL    HW235541   1.397   3.601   6.116 -0.2759  1.2307 -1.2139
 7970SOL     OW35542   1.935   0.349  10.706 -0.1069 -0.1818  0.1643
 7970SOL    HW135543   1.858   0.336  10.761 -0.2889 -0.6803 -0.1960
 7970SOL    HW235544   1.946   0.442  10.725  1.5181 -1.3559  4.9785
 7971SOL     OW35545   3.555   1.809   6.547 -0.1045 -0.6335  0.0103
 7971SOL    HW135546   3.518   1.724   6.526 -0.3622 -0.7900  1.0857
 7971SOL    HW235547   3.630   1.783   6.601 -0.0903  1.5882  1.0669
 7972SOL     OW35548   4.091   1.282   5.323 -0.3419 -0.7687 -0.2316
 7972SOL    HW135549   4.174   1.248   5.291 -0.7437 -0.1001 -1.9663
 7972SOL    HW235550   4.113   1.375   5.326 -0.5830 -0.7582  1.1891
 7973SOL     OW35551   3.062   3.853   8.403 -0.0064 -0.3613 -0.1686
 7973SOL    HW135552   3.113   3.868   8.482 -1.0363 -0.2505  0.4816
 7973SOL    HW235553   3.064   3.943   8.370 -0.3842 -0.8326 -1.5069
 7974SOL     OW35554   3.971   1.198   5.658 -0.0895 -0.3330 -0.4997
 7974SOL    HW135555   4.011   1.276   5.698 -0.7637  0.0626 -0.6036
 7974SOL    HW235556   3.930   1.155   5.732 -0.3351  2.0478  0.7535
 7975SOL     OW35557   2.707   1.479  17.233  0.1672 -0.6755  0.2260
 7975SOL    HW135558   2.766   1.416  17.192  1.4229  1.7927 -1.7588
 7975SOL    HW235559   2.725   1.554  17.176  0.7388 -0.7690  0.2866
 7976SOL     OW35560   1.351   1.598   7.202  0.0600  0.6096  0.4238
 7976SOL    HW135561   1.362   1.551   7.119  0.7482 -0.9698  1.4164
 7976SOL    HW235562   1.440   1.628   7.216 -0.0024  0.2235  1.6125
 7977SOL     OW35563   2.750   1.460   3.407  0.1139  0.1625  0.4058
 7977SOL    HW135564   2.844   1.477   3.416  0.5071 -1.0461 -1.1682
 7977SOL    HW235565   2.747   1.393   3.338 -1.6087 -1.6778  2.2917
 7978SOL     OW35566   3.061   1.265   1.161  0.3642 -0.1905  0.1587
 7978SOL    HW135567   3.121   1.193   1.181  1.7894  1.5705  2.1802
 7978SOL    HW235568   2.998   1.253   1.232  0.5988  1.7249  0.6947
 7979SOL     OW35569   2.811   4.700   0.312 -0.8837 -0.1677  0.6350
 7979SOL    HW135570   2.875   4.637   0.278  0.1651  0.8690  0.6987
 7979SOL    HW235571   2.764   4.650   0.379 -1.0261 -2.0220 -0.8437
 7980SOL     OW35572   4.552   0.639   6.943 -0.4143  0.0631  0.3173
 7980SOL    HW135573   4.587   0.670   7.026  1.0728 -0.8660  0.0422
 7980SOL    HW235574   4.582   0.550   6.923  1.0650  0.2231  1.8618
 7981SOL     OW35575   0.727   3.042   3.086  0.2706  0.5752  0.2999
 7981SOL    HW135576   0.754   3.075   3.172  0.4274  1.3336 -0.0429
 7981SOL    HW235577   0.633   3.035   3.103  0.3614 -0.2150  0.4496
 7982SOL     OW35578   4.136   3.717  10.005 -0.1603 -0.1295 -0.2222
 7982SOL    HW135579   4.155   3.728  10.099  0.8936 -1.0700 -0.3148
 7982SOL    HW235580   4.084   3.796   9.997 -1.5797 -0.8063  2.2779
 7983SOL     OW35581   3.654   4.019  16.015 -0.4439 -0.0753  0.4962
 7983SOL    HW135582   3.675   3.944  15.960 -1.4881  1.4096 -1.9264
 7983SOL    HW235583   3.649   3.975  16.100 -0.8503 -2.9735 -1.0196
 7984SOL     OW35584   3.656   4.676   9.950 -0.3444 -0.2974 -0.5400
 7984SOL    HW135585   3.616   0.023   9.965  0.5893  0.3133 -1.5003
 7984SOL    HW235586   3.742   4.715   9.932  0.8072 -1.0282  3.3377
 7985SOL     OW35587   1.208   0.704   7.594  0.0993  0.3016 -0.8597
 7985SOL    HW135588   1.150   0.653   7.650  0.2147 -1.8236 -2.6698
 7985SOL    HW235589   1.189   0.647   7.520  0.0881  0.7228 -1.1808
 7986SOL     OW35590   3.004   4.419   3.964  0.7215  0.0358 -0.4461
 7986SOL    HW135591   2.990   4.436   4.057 -2.0231 -0.2669 -0.8017
 7986SOL    HW235592   2.940   4.479   3.925 -0.2655 -1.0150 -0.4160
 7987SOL     OW35593   3.515   1.147   1.965  0.4161  0.1145  0.4960
 7987SOL    HW135594   3.436   1.099   1.942  0.2981  0.8268 -0.5651
 7987SOL    HW235595   3.492   1.199   2.042  0.5659  0.1472  0.5202
 7988SOL     OW35596   3.156   3.771   1.947  0.3823  0.2831  0.0491
 7988SOL    HW135597   3.168   3.706   2.016 -1.9123 -1.3410 -1.0757
 7988SOL    HW235598   3.232   3.827   1.959  0.4859 -0.4700  2.8679
 7989SOL     OW35599   0.728   1.822   6.129 -0.0298  0.8043  0.2327
 7989SOL    HW135600   0.761   1.732   6.130 -1.5867  0.2218 -0.6956
 7989SOL    HW235601   0.667   1.810   6.202  0.0294  2.0387  0.4843
 7990SOL     OW35602   3.973   0.245   6.565 -0.4572  0.1070 -0.1388
 7990SOL    HW135603   3.942   0.203   6.485  2.0938  0.5018 -1.3509
 7990SOL    HW235604   3.902   0.224   6.625 -0.2609 -1.4477 -0.4521
 7991SOL     OW35605   3.259   2.845  17.426 -0.2130 -0.5677  0.1499
 7991SOL    HW135606   3.228   2.832  17.336  1.4976  0.3436 -0.5627
 7991SOL    HW235607   3.237   2.767  17.477  3.0198 -1.7188 -0.2271
 7992SOL     OW35608   0.806   0.660  12.834  0.2150 -0.1622 -0.6997
 7992SOL    HW135609   0.868   0.727  12.804 -0.1483  0.3191 -0.3641
 7992SOL    HW235610   0.752   0.717  12.888  0.1568  0.1026 -1.0360
 7993SOL     OW35611   0.402   3.674   2.490  0.5218  0.2205  0.0346
 7993SOL    HW135612   0.376   3.761   2.520 -2.5120 -0.6526 -0.0853
 7993SOL    HW235613   0.361   3.670   2.403  2.4105  1.1862 -0.8983
 7994SOL     OW35614   0.321   1.453   7.611 -0.0284 -0.3193 -0.5575
 7994SOL    HW135615   0.349   1.540   7.584  1.2927 -0.2203  1.0985
 7994SOL    HW235616   0.411   1.424   7.629 -0.1541  1.2409  2.6120
 7995SOL     OW35617   1.047   3.574   6.468 -0.0386 -0.3494 -0.7260
 7995SOL    HW135618   1.110   3.517   6.424  0.9797  1.1183 -1.1755
 7995SOL    HW235619   0.986   3.514   6.510 -0.4281  0.0147 -0.7816
 7996SOL     OW35620   1.847   3.115   6.597 -0.1445 -0.7033  0.7519
 7996SOL    HW135621   1.765   3.126   6.548  0.8276  0.6557 -0.5762
 7996SOL    HW235622   1.903   3.074   6.531  0.7350  2.9228 -0.7616
 7997SOL     OW35623   2.133   1.748   2.284 -0.3498  0.4426 -0.4787
 7997SOL    HW135624   2.158   1.658   2.308  2.0201  0.5267 -2.6766
 7997SOL    HW235625   2.070   1.725   2.216  1.6679 -0.4534 -2.0634
 7998SOL     OW35626   1.437   4.326   5.261 -0.1370 -0.7133  0.0761
 7998SOL    HW135627   1.347   4.305   5.234 -0.6624 -1.0553  2.1445
 7998SOL    HW235628   1.433   4.334   5.356  0.7705 -1.1182  0.1471
 7999SOL     OW35629   2.589   1.383   1.853 -0.3644 -0.0884  0.3444
 7999SOL    HW135630   2.607   1.459   1.909  0.2052  2.0324 -2.7097
 7999SOL    HW235631   2.556   1.419   1.771  0.5751 -0.0007  0.0107
 8000SOL     OW35632   4.123   3.282   9.304 -0.5518 -0.1273  0.1478
 8000SOL    HW135633   4.074   3.268   9.385  0.5424 -0.3889  0.7518
 8000SOL    HW235634   4.100   3.374   9.290 -1.4367 -0.4350 -0.4122
 8001SOL     OW35635   1.190   0.648   1.751  0.4731  0.2130 -0.0749
 8001SOL    HW135636   1.169   0.694   1.670 -1.8061 -0.5606  0.0569
 8001SOL    HW235637   1.270   0.694   1.775 -0.1227  2.8748 -3.1866
 8002SOL     OW35638   0.324   3.972  16.922 -0.4306 -0.1027  0.4264
 8002SOL    HW135639   0.366   4.011  16.845 -0.0487 -0.8980  0.2269
 8002SOL    HW235640   0.230   3.982  16.906 -0.6718 -1.0599  1.2444
 8003SOL     OW35641   3.832   2.531   9.308 -0.4027 -0.0270  0.5333
 8003SOL    HW135642   3.762   2.558   9.248  0.6666  0.5991 -0.4426
 8003SOL    HW235643   3.868   2.616   9.333 -0.9056  1.2028 -2.8196
 8004SOL     OW35644   2.138   3.491   5.367  0.1319 -0.5101 -0.0674
 8004SOL    HW135645   2.083   3.506   5.443  1.2229  2.3314  0.1627
 8004SOL    HW235646   2.066   3.520   5.311  0.6171  0.2953 -0.2720
 8005SOL     OW35647   0.746   1.043   3.674  0.0284  0.2092  0.1044
 8005SOL    HW135648   0.806   1.002   3.736 -1.6950  0.1443  1.7463
 8005SOL    HW235649   0.671   1.070   3.727 -0.5555 -1.3087  0.0509
 8006SOL     OW35650   2.762   3.158   9.847 -0.3420  0.0338  0.1454
 8006SOL    HW135651   2.671   3.184   9.832 -0.1003  1.0259  0.4124
 8006SOL    HW235652   2.746   3.070   9.882 -1.8417  0.2629  0.0518
 8007SOL     OW35653   4.691   1.276   7.848 -0.4034 -0.3209  0.3570
 8007SOL    HW135654   4.698   1.341   7.778  0.0039 -0.6506  0.1006
 8007SOL    HW235655   0.045   1.253   7.858 -0.3074 -0.4047 -0.8057
 8008SOL     OW35656   0.907   4.448   4.345  0.2742  0.2999  0.1196
 8008SOL    HW135657   0.956   4.464   4.264  0.5077  0.5577  0.3084
 8008SOL    HW235658   0.886   4.539   4.369 -2.0812 -0.1250 -0.3456
 8009SOL     OW35659   4.035   3.726   6.102  0.2607  0.5116 -0.1968
 8009SOL    HW135660   4.123   3.762   6.100  0.8490 -0.8030  1.6498
 8009SOL    HW235661   3.990   3.778   6.168 -0.8490 -1.0284  0.2664
 8010SOL     OW35662   0.354   0.920  10.730 -0.4061  0.4755  0.1675
 8010SOL    HW135663   0.260   0.933  10.716 -0.2658  3.4073  1.9242
 8010SOL    HW235664   0.398   1.001  10.706 -2.2329  1.7605  1.1967
 8011SOL     OW35665   4.500   3.932   3.036  0.0575 -0.2258 -0.9257
 8011SOL    HW135666   4.436   3.862   3.025  1.6150 -2.0674  1.6405
 8011SOL    HW235667   4.434   4.002   3.042  1.6688  0.9432  2.9704
 8012SOL     OW35668   4.270   4.517   8.412  0.0251  0.1937 -0.1977
 8012SOL    HW135669   4.365   4.528   8.409  0.0615 -0.6036 -1.7795
 8012SOL    HW235670   4.256   4.435   8.459 -0.6368 -0.1112 -0.9146
 8013SOL     OW35671   1.015   2.460   1.672  0.3701  0.6700 -0.1408
 8013SOL    HW135672   0.986   2.494   1.588  1.4756  0.0325 -0.7788
 8013SOL    HW235673   1.046   2.537   1.721 -2.1236  2.3420 -1.1822
 8014SOL     OW35674   1.003   2.618  12.001 -0.3444 -0.0080 -0.2782
 8014SOL    HW135675   1.070   2.685  11.991 -1.4290  1.0966 -0.2003
 8014SOL    HW235676   0.917   2.659  12.010 -0.6994 -0.5327 -1.2395
 8015SOL     OW35677   0.443   1.906   9.075  0.3989  0.4025 -0.6460
 8015SOL    HW135678   0.349   1.896   9.091  0.5161 -1.1025 -0.8567
 8015SOL    HW235679   0.446   1.993   9.037 -1.6698  1.1163  0.8170
 8016SOL     OW35680   0.740   0.836   3.467  0.3737 -0.1723 -1.1141
 8016SOL    HW135681   0.740   0.883   3.550 -0.5915 -1.0132 -0.6217
 8016SOL    HW235682   0.803   0.764   3.477  2.6133  1.8945 -0.4541
 8017SOL     OW35683   2.305   1.308   3.388 -0.4902 -0.5414  0.3978
 8017SOL    HW135684   2.239   1.323   3.320 -0.4912  0.0401  0.5279
 8017SOL    HW235685   2.306   1.390   3.437 -0.9254 -0.7811  0.7968
 8018SOL     OW35686   1.046   4.615   7.833  0.3038 -0.1161  0.2394
 8018SOL    HW135687   0.954   4.640   7.833 -0.0583 -1.3960 -1.4068
 8018SOL    HW235688   1.071   4.575   7.749  0.7412  0.6848 -0.0148
 8019SOL     OW35689   2.638   2.290  16.901  0.0401  0.6391 -0.5265
 8019SOL    HW135690   2.669   2.243  16.978 -0.5942 -0.3284 -0.8616
 8019SOL    HW235691   2.544   2.271  16.907  0.8006 -2.6599  0.8800
 8020SOL     OW35692   0.067   2.943   8.391 -0.0803 -0.0055 -0.4470
 8020SOL    HW135693   0.087   2.961   8.300  0.4511 -1.1666 -0.5671
 8020SOL    HW235694   0.081   3.034   8.416  2.0671  0.1902 -2.3516
 8021SOL     OW35695   4.263   2.541   9.885  0.3407  0.2495 -0.3759
 8021SOL    HW135696   4.171   2.522   9.867 -0.1783  1.8299  0.5898
 8021SOL    HW235697   4.271   2.613   9.823 -0.3264  1.8086  1.3270
 8022SOL     OW35698   2.924   2.195   4.455  0.4092 -0.1695 -0.8683
 8022SOL    HW135699   2.900   2.117   4.504 -0.5192  0.1097 -0.8779
 8022SOL    HW235700   2.998   2.218   4.511 -0.2717 -2.3034  0.8826
 8023SOL     OW35701   1.698   4.177   9.507 -0.0922 -0.8887 -0.1356
 8023SOL    HW135702   1.717   4.258   9.555  0.5085 -0.7227 -0.6489
 8023SOL    HW235703   1.656   4.217   9.431 -1.5713  0.2295  1.2488
 8024SOL     OW35704   1.828   1.716   7.073 -0.2502 -0.2722 -0.0447
 8024SOL    HW135705   1.825   1.736   6.979 -0.4632  1.5374  0.3590
 8024SOL    HW235706   1.898   1.769   7.112  0.7053  0.0242 -2.1764
 8025SOL     OW35707   3.403   2.718   7.925  0.0319 -0.6289  0.3710
 8025SOL    HW135708   3.498   2.728   7.912  0.1424 -2.5204 -0.2170
 8025SOL    HW235709   3.370   2.781   7.860  0.4335 -0.6943  0.1043
 8026SOL     OW35710   2.673   2.618  10.498 -0.1491 -0.3725 -0.3391
 8026SOL    HW135711   2.702   2.616  10.589 -0.6089 -0.6669 -0.2007
 8026SOL    HW235712   2.586   2.658  10.503 -0.0832 -0.2613 -0.0598
 8027SOL     OW35713   4.133   4.171   2.009 -0.0142 -0.3909 -0.0896
 8027SOL    HW135714   4.144   4.165   1.914  0.6026  5.3856 -0.4025
 8027SOL    HW235715   4.057   4.230   2.013 -1.6317 -2.5053  0.0209
 8028SOL     OW35716   1.404   4.303  14.725 -0.5883  0.2924  0.0243
 8028SOL    HW135717   1.345   4.366  14.684 -1.7280 -0.3352  0.6925
 8028SOL    HW235718   1.350   4.267  14.796  1.7813 -0.4636  1.4662
 8029SOL     OW35719   3.391   1.397   7.525  0.2645  0.7778 -0.1284
 8029SOL    HW135720   3.436   1.442   7.455 -1.6856  0.9204 -1.2975
 8029SOL    HW235721   3.392   1.310   7.486  1.7467  0.7283  0.0237
 8030SOL     OW35722   0.955   4.736   3.934 -0.3244 -0.7261  0.5468
 8030SOL    HW135723   0.874   0.034   3.969 -0.6513  0.4768 -1.4353
 8030SOL    HW235724   0.991   0.069   3.880  0.0427 -0.2462  1.4257
 8031SOL     OW35725   3.382   0.420   9.118 -0.2113  0.6203  0.2301
 8031SOL    HW135726   3.474   0.426   9.093 -0.2508  0.2038  0.0002
 8031SOL    HW235727   3.379   0.498   9.175 -1.2923  1.5533 -1.1200
 8032SOL     OW35728   0.820   1.946  12.794  0.8498 -0.0975  0.8087
 8032SOL    HW135729   0.805   1.856  12.766  3.4504 -0.3262  0.1677
 8032SOL    HW235730   0.856   1.918  12.877 -0.3939 -1.6540  0.8184
 8033SOL     OW35731   1.113   0.136   0.163  0.1086 -0.2226 -0.3756
 8033SOL    HW135732   1.091   0.229   0.166 -1.3152 -0.5887  0.4885
 8033SOL    HW235733   1.024   0.112   0.137 -0.0316 -1.3673  1.1781
 8034SOL     OW35734   2.463   2.985   2.001 -0.2903 -0.0127 -0.2950
 8034SOL    HW135735   2.476   3.008   1.910 -0.5850 -2.3143 -0.9215
 8034SOL    HW235736   2.429   3.072   2.022 -1.8310 -0.0602 -2.6192
 8035SOL     OW35737   2.025   4.280  10.051 -0.1428  0.4813 -0.2797
 8035SOL    HW135738   2.091   4.212  10.061 -0.3526  0.3503  0.1686
 8035SOL    HW235739   2.074   4.359  10.074 -1.2869  0.7960  1.0522
 8036SOL     OW35740   2.671   0.031   6.846 -0.2351  0.1878  0.5581
 8036SOL    HW135741   2.612   0.101   6.873  0.9618  0.9546  1.1335
 8036SOL    HW235742   2.628   0.007   6.764  1.4637 -1.1582  0.0533
 8037SOL     OW35743   2.920   1.305   2.851 -0.8368  0.1050  0.5719
 8037SOL    HW135744   2.874   1.221   2.848 -3.1762  1.4650 -1.4327
 8037SOL    HW235745   2.841   1.354   2.874 -0.5453  1.2746 -0.9737
 8038SOL     OW35746   0.768   3.207   6.399 -0.6622  0.4790  0.6958
 8038SOL    HW135747   0.693   3.159   6.364  0.1458  0.1053 -0.5074
 8038SOL    HW235748   0.816   3.215   6.317 -0.9896  0.0620  0.4631
 8039SOL     OW35749   2.396   3.754   6.540 -0.4412  0.0957 -0.0555
 8039SOL    HW135750   2.445   3.784   6.463 -1.4601  0.2082 -0.6594
 8039SOL    HW235751   2.351   3.831   6.575  1.7409  0.6702  1.4768
 8040SOL     OW35752   1.631   4.422   8.721  0.3818 -0.4650 -0.1509
 8040SOL    HW135753   1.589   4.372   8.791  1.2171 -0.3141  0.4486
 8040SOL    HW235754   1.678   4.360   8.665  1.4391  0.8927 -0.7751
 8041SOL     OW35755   0.209   2.258   2.103  0.2815  0.0689 -0.1132
 8041SOL    HW135756   0.217   2.349   2.131 -0.5584  0.4233 -1.0121
 8041SOL    HW235757   0.115   2.264   2.086 -0.0288 -3.2199  0.3229
 8042SOL     OW35758   0.102   1.725   4.223 -0.1458 -0.2951 -0.2223
 8042SOL    HW135759   0.069   1.640   4.253 -0.3407 -0.4586 -0.9052
 8042SOL    HW235760   0.173   1.701   4.164 -0.5347  0.7217 -1.0964
 8043SOL     OW35761   3.025   4.504   8.598  0.1113  0.4334 -0.2675
 8043SOL    HW135762   3.098   4.565   8.608 -0.1407  1.0900 -2.4590
 8043SOL    HW235763   2.998   4.526   8.509  0.0281  1.0233 -0.0985
 8044SOL     OW35764   0.034   1.546   8.646  0.1449 -0.3210  0.0275
 8044SOL    HW135765   0.057   1.596   8.567 -2.0968  1.2191  0.3540
 8044SOL    HW235766   0.121   1.519   8.677 -0.5308 -1.1589  1.1510
 8045SOL     OW35767   2.980   2.615  16.230 -0.5539  0.1528 -0.2019
 8045SOL    HW135768   2.924   2.652  16.161  2.6580  2.6813 -1.4588
 8045SOL    HW235769   2.933   2.629  16.312 -0.8974 -2.6138  0.0855
 8046SOL     OW35770   1.248   1.059   8.056 -0.6670 -0.2376  0.1381
 8046SOL    HW135771   1.280   1.024   8.139 -2.2453 -0.5240  0.6432
 8046SOL    HW235772   1.324   1.078   8.002 -0.1127  0.5876  1.2103
 8047SOL     OW35773   4.253   0.663   6.776 -0.4117 -0.0200 -0.0238
 8047SOL    HW135774   4.303   0.583   6.756 -0.8690  0.1828 -1.9957
 8047SOL    HW235775   4.285   0.675   6.865  0.6786 -0.3800 -0.3631
 8048SOL     OW35776   4.621   3.548   4.271 -0.4403  0.8508  0.2112
 8048SOL    HW135777   4.577   3.473   4.311 -3.7602  1.4989 -2.2206
 8048SOL    HW235778   4.599   3.613   4.338 -0.3187  0.7239  0.3752
 8049SOL     OW35779   0.825   1.338   4.745  0.1131 -0.2437 -0.3738
 8049SOL    HW135780   0.770   1.358   4.669 -0.9270  4.6230  1.7025
 8049SOL    HW235781   0.843   1.424   4.782 -0.0123  0.0818 -1.0617
 8050SOL     OW35782   3.735   1.151  13.842 -0.2067 -0.0578 -0.0827
 8050SOL    HW135783   3.644   1.140  13.871 -0.3721  0.3625 -0.4508
 8050SOL    HW235784   3.749   1.067  13.798  0.0924 -1.9090  3.5327
 8051SOL     OW35785   0.384   2.443  12.667 -0.0073 -0.2092 -0.1201
 8051SOL    HW135786   0.457   2.482  12.619  0.0510 -1.3582 -0.9476
 8051SOL    HW235787   0.395   2.485  12.753  1.0653  1.1370 -0.9156
 8052SOL     OW35788   4.375   0.127  12.250  0.1227  0.3588 -0.0318
 8052SOL    HW135789   4.284   0.105  12.270  0.3837 -0.0279  0.7277
 8052SOL    HW235790   4.360   0.165  12.163 -1.0287  0.1476  0.0717
 8053SOL     OW35791   2.397   0.097  17.656 -0.0386  0.2279 -0.2240
 8053SOL    HW135792   2.322   0.139  17.615 -0.1550  2.0371  1.8145
 8053SOL    HW235793   2.423   0.173  17.709  1.8247  1.2132 -2.5618
 8054SOL     OW35794   4.297   2.670   9.610 -0.0183 -0.9555 -0.2387
 8054SOL    HW135795   4.213   2.713   9.622  0.0327 -0.3682 -1.9251
 8054SOL    HW235796   4.338   2.735   9.553 -2.3720  0.7110 -0.0362
 8055SOL     OW35797   3.937   2.033   6.976  0.0210 -0.3403  0.5220
 8055SOL    HW135798   3.864   2.080   7.016 -0.6056 -1.9857  1.3095
 8055SOL    HW235799   4.016   2.078   7.008  0.2979  0.3330 -1.0904
 8056SOL     OW35800   3.599   2.407  11.205  0.4542  0.0008  0.0206
 8056SOL    HW135801   3.652   2.445  11.275 -0.0920 -0.7417  0.8477
 8056SOL    HW235802   3.514   2.449  11.219  1.0363  1.0598  0.3805
 8057SOL     OW35803   0.541   2.010   1.711  0.1026 -0.1213  0.0727
 8057SOL    HW135804   0.514   1.945   1.777  1.1620  0.1309  0.7473
 8057SOL    HW235805   0.462   2.009   1.658  0.9527  1.4809 -1.1922
 8058SOL     OW35806   1.620   0.337   2.406 -1.1007 -0.0145  0.0114
 8058SOL    HW135807   1.534   0.344   2.446 -1.5277  1.0510 -1.1004
 8058SOL    HW235808   1.658   0.266   2.459  1.2585  0.2602 -1.3287
 8059SOL     OW35809   2.827   3.609  15.243  0.3153 -0.9096  0.3029
 8059SOL    HW135810   2.807   3.702  15.255  2.0978 -0.5160  0.2693
 8059SOL    HW235811   2.901   3.610  15.182 -0.2509 -0.5024 -0.3843
 8060SOL     OW35812   0.699   1.248   3.020  0.0142  0.2557 -0.1678
 8060SOL    HW135813   0.771   1.187   3.038 -0.6752 -0.7905 -0.9327
 8060SOL    HW235814   0.629   1.186   2.999  0.1949  0.2436 -0.7519
 8061SOL     OW35815   1.800   3.124   3.703  0.5152 -0.1253  0.2189
 8061SOL    HW135816   1.723   3.074   3.729 -0.8857  2.7665  1.6748
 8061SOL    HW235817   1.753   3.143   3.621 -0.7186 -4.3256 -0.0501
 8062SOL     OW35818   3.303   4.096   1.471 -0.3263 -0.1525  0.3801
 8062SOL    HW135819   3.349   4.038   1.533 -0.0349 -2.1030 -1.6654
 8062SOL    HW235820   3.217   4.104   1.512 -0.6234 -1.1303 -0.0525
 8063SOL     OW35821   3.464   2.069   1.124 -0.2099 -0.5184 -0.0090
 8063SOL    HW135822   3.419   1.990   1.092 -0.7316  0.4315 -1.6176
 8063SOL    HW235823   3.548   2.053   1.082 -0.1999 -0.6438  0.0564
 8064SOL     OW35824   0.079   4.599   3.943  0.2085 -0.8384 -0.2053
 8064SOL    HW135825   0.149   4.535   3.949 -0.1040 -1.2862 -1.3968
 8064SOL    HW235826   0.124   4.678   3.914 -3.2804  1.2614  0.0077
 8065SOL     OW35827   3.006   1.251  14.892  0.0091  0.3041  0.1721
 8065SOL    HW135828   3.026   1.345  14.889  2.3672 -0.1848  0.5777
 8065SOL    HW235829   3.097   1.227  14.874 -0.2641 -0.7930  0.2535
 8066SOL     OW35830   1.615   3.727   5.141 -0.1969 -0.9768 -0.2716
 8066SOL    HW135831   1.545   3.744   5.078 -0.4299  1.2112  0.5736
 8066SOL    HW235832   1.621   3.819   5.167  0.6837 -1.4946  1.3371
 8067SOL     OW35833   0.244   3.441   6.042  0.4814 -0.1809 -0.4101
 8067SOL    HW135834   0.248   3.415   5.950  0.7895  3.3278 -1.3963
 8067SOL    HW235835   0.297   3.373   6.084  1.6069  0.1097 -1.3589
 8068SOL     OW35836   0.243   1.875   3.787  0.6237 -0.0136  0.1408
 8068SOL    HW135837   0.204   1.890   3.873 -0.8345  1.5851 -0.7903
 8068SOL    HW235838   0.193   1.932   3.729  0.0283 -1.0940 -0.4162
 8069SOL     OW35839   1.134   3.836  13.844  0.3229  0.2359  0.2135
 8069SOL    HW135840   1.104   3.907  13.787 -0.3758 -0.1342  0.1141
 8069SOL    HW235841   1.216   3.873  13.876 -0.1162  2.9339 -1.7425
 8070SOL     OW35842   0.515   3.666  12.096  0.6040  0.5659 -0.1502
 8070SOL    HW135843   0.537   3.586  12.047  1.4443 -0.1105  1.3269
 8070SOL    HW235844   0.424   3.649  12.121  0.6779 -0.4268 -0.5510
 8071SOL     OW35845   0.971   1.143   6.906  0.5364  0.2402 -0.0712
 8071SOL    HW135846   1.047   1.089   6.881 -1.1455 -2.9088  1.6413
 8071SOL    HW235847   1.004   1.170   6.992 -0.8533 -0.1425  0.5703
 8072SOL     OW35848   2.755   0.017   4.825 -0.0820 -0.0703  0.1372
 8072SOL    HW135849   2.809   4.686   4.865  0.1295  0.4788  0.8094
 8072SOL    HW235850   2.776   4.738   4.733 -1.2140  1.4414 -0.3932
 8073SOL     OW35851   3.855   1.176   5.219  0.0914  0.1279 -0.0810
 8073SOL    HW135852   3.786   1.172   5.285  0.4977  1.8423  0.4355
 8073SOL    HW235853   3.923   1.235   5.251  0.0941  0.2393 -0.2935
 8074SOL     OW35854   3.776   3.159   3.181  0.5414  0.2347  0.3214
 8074SOL    HW135855   3.808   3.125   3.098  0.8870  0.8265  0.2105
 8074SOL    HW235856   3.727   3.084   3.215  1.7575 -1.2568 -1.2321
 8075SOL     OW35857   4.591   1.122   0.223 -0.7156 -0.1330 -0.1960
 8075SOL    HW135858   4.610   1.055   0.158 -0.6042  1.2624 -1.6139
 8075SOL    HW235859   4.501   1.137   0.195  0.1223  3.9176 -0.7443
 8076SOL     OW35860   4.434   1.099   4.687  0.4063 -0.0013 -0.1337
 8076SOL    HW135861   4.368   1.094   4.619 -0.7407 -0.8135  1.0392
 8076SOL    HW235862   4.515   1.096   4.637  0.0235 -0.0067 -0.7453
 8077SOL     OW35863   4.711   2.692   3.249 -0.3382 -0.5053 -0.1318
 8077SOL    HW135864   4.651   2.626   3.214  0.8022 -1.4401 -0.3358
 8077SOL    HW235865   0.032   2.695   3.173  2.5472 -1.9099  2.0658
 8078SOL     OW35866   2.739   2.610  10.772 -0.0507  0.1435  0.0491
 8078SOL    HW135867   2.647   2.584  10.783 -0.3332 -0.2794 -3.2479
 8078SOL    HW235868   2.749   2.664  10.851  0.4015  1.8691 -1.1778
 8079SOL     OW35869   4.548   3.644   2.787 -0.2485 -0.3233  0.3822
 8079SOL    HW135870   4.603   3.565   2.783  0.2681  0.0666 -0.4549
 8079SOL    HW235871   4.599   3.717   2.822  1.2812 -0.2888 -1.9273
 8080SOL     OW35872   0.999   1.891   3.011  0.2626 -0.0923 -0.3920
 8080SOL    HW135873   1.016   1.815   3.066 -2.1440 -0.3861 -0.0551
 8080SOL    HW235874   0.905   1.885   2.998  0.4125 -0.7445 -1.1765
 8081SOL     OW35875   2.487   0.105   7.497 -0.1434 -0.2202 -0.0135
 8081SOL    HW135876   2.407   0.059   7.524 -0.3629 -0.1428 -0.5259
 8081SOL    HW235877   2.465   0.153   7.417  0.9095 -0.7305 -0.6050
 8082SOL     OW35878   2.638   1.616  13.825 -0.6786 -0.1440  0.7527
 8082SOL    HW135879   2.625   1.711  13.818  0.5934  0.1769  2.9481
 8082SOL    HW235880   2.561   1.583  13.778  1.1489  0.4748 -2.6748
 8083SOL     OW35881   3.547   4.349  16.904 -0.2043 -0.1361  0.2731
 8083SOL    HW135882   3.525   4.362  16.812 -1.5240  0.0829  0.6230
 8083SOL    HW235883   3.469   4.355  16.959 -0.4316 -0.9687  0.0442
 8084SOL     OW35884   4.508   0.461   2.638  0.1123 -0.5647 -0.2652
 8084SOL    HW135885   4.540   0.437   2.551  0.9811  0.5711 -0.2657
 8084SOL    HW235886   4.486   0.554   2.629 -0.8966 -0.7361  0.4155
 8085SOL     OW35887   0.390   4.637   1.868 -0.7245  0.3288 -0.3633
 8085SOL    HW135888   0.321   4.677   1.921 -0.8109  0.7530 -0.7937
 8085SOL    HW235889   0.463   4.627   1.928 -1.1048 -0.8259 -0.0923
 8086SOL     OW35890   1.611   1.612   4.438  0.2330  0.2764  0.3228
 8086SOL    HW135891   1.595   1.558   4.360  0.7647 -0.3904  0.6731
 8086SOL    HW235892   1.606   1.703   4.410 -2.5685 -0.0713 -0.3273
 8087SOL     OW35893   1.769   0.970   7.874  0.5599 -0.2844  0.3101
 8087SOL    HW135894   1.862   0.992   7.869  0.7281 -1.4052 -1.3201
 8087SOL    HW235895   1.760   0.880   7.842  0.7363 -0.1825 -0.0236
 8088SOL     OW35896   1.584   2.385  16.421  0.2672 -0.6436  0.6767
 8088SOL    HW135897   1.499   2.428  16.432  0.1329 -0.6041 -0.5606
 8088SOL    HW235898   1.607   2.379  16.514  1.1107  0.2930  0.5335
 8089SOL     OW35899   0.534   0.551   3.656  0.2773 -0.4825  0.0644
 8089SOL    HW135900   0.488   0.473   3.689 -0.5859 -0.4646 -1.1020
 8089SOL    HW235901   0.492   0.609   3.720 -2.3009 -0.2127 -1.8638
 8090SOL     OW35902   1.495   1.057   5.886 -0.2776  0.2612  0.0273
 8090SOL    HW135903   1.575   1.008   5.868 -1.2491 -1.8420  1.4330
 8090SOL    HW235904   1.432   0.991   5.858 -2.0862  2.0521 -0.2046
 8091SOL     OW35905   1.343   0.194   6.338  0.2482  0.2763 -0.1334
 8091SOL    HW135906   1.280   0.135   6.297  0.0915 -0.4449  1.1506
 8091SOL    HW235907   1.287   0.247   6.395  0.3387  0.6290 -0.3687
 8092SOL     OW35908   2.735   2.278   6.143 -0.0634  0.0932 -0.1099
 8092SOL    HW135909   2.639   2.269   6.143 -0.3764  3.2588  0.8324
 8092SOL    HW235910   2.762   2.191   6.113  1.8211  0.2184  1.2348
 8093SOL     OW35911   1.055   3.297   8.421  0.0606  0.1087  0.1231
 8093SOL    HW135912   0.980   3.238   8.412 -0.1890  0.0895  2.4738
 8093SOL    HW235913   1.095   3.286   8.335 -1.6462  0.7881 -0.7685
 8094SOL     OW35914   3.422   2.762   6.125 -0.1072  0.4833 -0.2505
 8094SOL    HW135915   3.331   2.746   6.101  0.1927 -2.3981  0.5899
 8094SOL    HW235916   3.422   2.855   6.100 -0.3974  0.6265  0.2965
 8095SOL     OW35917   4.266   0.476   9.439 -0.4839  0.0696  0.1854
 8095SOL    HW135918   4.231   0.388   9.458 -0.0459 -0.3251 -0.8494
 8095SOL    HW235919   4.232   0.490   9.350 -0.1327 -0.0962  0.0257
 8096SOL     OW35920   0.586   1.382   7.640 -0.1142  0.2619 -0.0834
 8096SOL    HW135921   0.634   1.305   7.609  1.1731  1.2893 -0.6311
 8096SOL    HW235922   0.652   1.440   7.603 -0.3287  0.4399 -0.1879
 8097SOL     OW35923   3.430   0.495   4.093 -0.0955  0.3894 -0.1235
 8097SOL    HW135924   3.450   0.402   4.107 -0.1321  0.5072  0.6882
 8097SOL    HW235925   3.462   0.512   4.005 -1.0581  1.5577 -0.2570
 8098SOL     OW35926   2.117   3.269  14.869 -0.7579  0.6098  0.2549
 8098SOL    HW135927   2.070   3.193  14.836 -0.3126  1.6635 -2.7842
 8098SOL    HW235928   2.042   3.327  14.878 -0.2758  0.9741  2.0144
 8099SOL     OW35929   1.445   2.575   9.866 -0.0985  0.4224  0.1621
 8099SOL    HW135930   1.396   2.517   9.925 -1.0716  1.7376  0.6494
 8099SOL    HW235931   1.412   2.540   9.783  2.3800  1.7568 -1.3840
 8100SOL     OW35932   1.117   1.688  10.027  0.0581  0.2723 -0.4817
 8100SOL    HW135933   1.035   1.725   9.992  0.6879  0.1310 -2.1217
 8100SOL    HW235934   1.083   1.640  10.103  0.7850  0.0455 -0.3010
 8101SOL     OW35935   0.561   0.155   4.607  0.1918  0.0894 -0.1941
 8101SOL    HW135936   0.602   0.137   4.691 -0.7359  0.6532  0.3683
 8101SOL    HW235937   0.503   0.079   4.595 -2.0205  1.9348 -1.1801
 8102SOL     OW35938   0.527   0.304  12.193  0.5685 -0.6001 -0.0809
 8102SOL    HW135939   0.458   0.243  12.220  0.5609 -1.4592 -2.0701
 8102SOL    HW235940   0.598   0.272  12.249 -0.2982  0.5572  1.6662
 8103SOL     OW35941   2.796   2.179   2.003  0.0042 -0.4515 -0.6081
 8103SOL    HW135942   2.815   2.128   2.082 -3.5838  1.4407  1.4659
 8103SOL    HW235943   2.781   2.265   2.041  2.5541 -0.1399 -0.3264
 8104SOL     OW35944   2.631   4.516   3.668 -0.6419  0.5358  0.0023
 8104SOL    HW135945   2.638   4.420   3.672 -0.5480  0.4752 -1.3969
 8104SOL    HW235946   2.681   4.526   3.587  0.9576 -0.1773  0.8843
 8105SOL     OW35947   0.439   3.877   6.471  0.1662 -0.4150  0.2416
 8105SOL    HW135948   0.374   3.856   6.538  0.6932 -0.4033  0.7615
 8105SOL    HW235949   0.406   3.946   6.413 -1.8119 -0.9265  0.7471
 8106SOL     OW35950   3.559   1.650  13.434 -0.3358 -0.3218  0.5754
 8106SOL    HW135951   3.610   1.731  13.429  0.8568 -1.2738 -2.4856
 8106SOL    HW235952   3.487   1.664  13.495  1.4828  2.1413  2.1350
 8107SOL     OW35953   0.247   4.176   5.105 -0.1233  0.4101 -0.5795
 8107SOL    HW135954   0.335   4.156   5.137 -0.9731 -0.8765  0.9531
 8107SOL    HW235955   0.265   4.193   5.012  1.4890  2.4059  0.1002
 8108SOL     OW35956   0.091   4.265  15.929  0.0006 -0.6414  0.3995
 8108SOL    HW135957   0.072   4.342  15.876 -0.1140  0.5866  2.2323
 8108SOL    HW235958   0.132   4.300  16.008  0.9008  0.3482 -0.5267
 8109SOL     OW35959   4.559   2.193   7.676  0.2767  0.7710  0.1064
 8109SOL    HW135960   4.557   2.229   7.587  0.4804  0.8548  0.1360
 8109SOL    HW235961   4.651   2.212   7.696  0.2672 -0.0107  0.8927
 8110SOL     OW35962   0.836   3.016   8.965  0.2253  0.0564 -0.3077
 8110SOL    HW135963   0.896   3.030   9.038  0.4788 -0.5569 -0.4046
 8110SOL    HW235964   0.846   2.922   8.953  2.7316  0.6096 -2.6945
 8111SOL     OW35965   0.858   0.952   5.973 -0.2183 -0.2500 -0.0132
 8111SOL    HW135966   0.849   0.906   6.056  1.1117  0.1099  0.3360
 8111SOL    HW235967   0.950   0.941   5.950  0.5301 -0.3561  3.0025
 8112SOL     OW35968   4.727   4.236  14.927  0.1077  0.4745  0.0812
 8112SOL    HW135969   0.046   4.313  14.929 -0.3618  0.8737 -2.2682
 8112SOL    HW235970   4.666   4.262  14.858  0.3000  0.2551 -0.1715
 8113SOL     OW35971   2.626   3.880   4.106 -0.0747 -0.1799  0.0152
 8113SOL    HW135972   2.612   3.814   4.174  1.8346 -3.1158 -2.4228
 8113SOL    HW235973   2.665   3.949   4.160  1.6218  0.1102 -1.5599
 8114SOL     OW35974   0.388   2.085   5.543 -0.5138 -0.1282  0.3412
 8114SOL    HW135975   0.303   2.042   5.537 -1.6644  1.8619  2.3206
 8114SOL    HW235976   0.365   2.148   5.611 -0.6120  0.3215 -0.1108
 8115SOL     OW35977   4.519   1.934   3.219  0.6226  0.1514  0.6583
 8115SOL    HW135978   4.552   1.903   3.135  1.1181  0.1163  0.8633
 8115SOL    HW235979   4.434   1.968   3.191  0.7800  0.4816  0.5874
 8116SOL     OW35980   2.660   4.115  12.463 -0.3800  1.0519 -0.5247
 8116SOL    HW135981   2.617   4.058  12.526 -0.8654  1.7716 -0.2054
 8116SOL    HW235982   2.689   4.185  12.522 -0.6674  2.0508 -1.5539
 8117SOL     OW35983   0.283   0.788   2.712 -0.1641  0.3875 -0.0263
 8117SOL    HW135984   0.211   0.725   2.726 -0.0073  0.0949 -0.5639
 8117SOL    HW235985   0.320   0.794   2.800 -1.0037  3.4975  0.0988
 8118SOL     OW35986   3.162   1.566   9.024 -0.3437 -0.0890  0.0298
 8118SOL    HW135987   3.228   1.558   8.954  0.2704  1.3641  0.4480
 8118SOL    HW235988   3.107   1.491   9.001  0.6106 -0.7729 -0.0146
 8119SOL     OW35989   4.661   3.147  14.432 -0.1875 -0.4000  0.3325
 8119SOL    HW135990   4.602   3.087  14.479 -1.5163  2.6529  2.6211
 8119SOL    HW235991   4.715   3.182  14.504 -0.8789  1.3371  0.0098
 8120SOL     OW35992   1.295   1.448  11.693 -0.1764 -0.3844 -0.1041
 8120SOL    HW135993   1.307   1.384  11.623 -1.2146  2.9354 -3.3386
 8120SOL    HW235994   1.376   1.454  11.745  0.3719 -1.4577 -0.8528
 8121SOL     OW35995   0.988   3.425   7.985  0.3368  0.3460 -0.6124
 8121SOL    HW135996   0.991   3.518   7.959 -1.7398  1.0829  1.8523
 8121SOL    HW235997   0.948   3.387   7.907  2.5024 -0.0219 -1.5639
 8122SOL     OW35998   1.981   2.388   0.549  0.3942  0.1982  0.4324
 8122SOL    HW135999   1.968   2.461   0.609  2.2293 -0.4861  1.6746
 8122SOL    HW236000   1.892   2.361   0.526  0.0851  0.8245  0.8963
 8123SOL     OW36001   3.757   3.547   6.065 -0.3369 -0.0933 -0.4305
 8123SOL    HW136002   3.811   3.622   6.040 -1.5403  1.1675  0.7628
 8123SOL    HW236003   3.674   3.562   6.019 -0.0853 -1.6575 -1.3864
 8124SOL     OW36004   4.407   0.594   0.450 -0.7507 -0.6285 -0.1954
 8124SOL    HW136005   4.421   0.612   0.357  0.9078 -1.6702 -0.1376
 8124SOL    HW236006   4.395   0.499   0.447 -0.3032 -0.7197  0.9837
 8125SOL     OW36007   2.314   4.043   0.395 -0.6006  0.1184 -1.0276
 8125SOL    HW136008   2.364   4.045   0.313  1.0969  1.5426  0.0363
 8125SOL    HW236009   2.386   4.056   0.457 -0.7957  0.7962 -0.9501
 8126SOL     OW36010   3.905   1.062   2.671 -0.2352 -0.7046  0.0021
 8126SOL    HW136011   3.983   1.068   2.617 -2.2322  1.6802 -2.6183
 8126SOL    HW236012   3.865   0.984   2.634 -0.6494 -0.6775  0.3842
 8127SOL     OW36013   3.402   4.734   4.175  0.1804  0.3756  0.2991
 8127SOL    HW136014   3.466   4.708   4.109  0.8225  1.2578  0.5820
 8127SOL    HW236015   3.439   0.075   4.214  0.3164 -0.4624  1.8539
 8128SOL     OW36016   2.444   1.091  12.147 -0.3688 -0.0019  0.3685
 8128SOL    HW136017   2.364   1.138  12.169 -0.9267  0.6864 -3.2130
 8128SOL    HW236018   2.419   1.000  12.132  0.3467  0.0817 -1.3528
 8129SOL     OW36019   2.935   2.796   6.174  0.1327  0.0116  0.1063
 8129SOL    HW136020   2.907   2.880   6.138 -0.9597 -1.0617 -1.5814
 8129SOL    HW236021   2.870   2.731   6.149  1.8407 -1.3633 -0.7690
 8130SOL     OW36022   2.763   1.611   2.793 -0.3576  0.4391  0.6091
 8130SOL    HW136023   2.704   1.555   2.743 -1.2190  0.6148  1.4422
 8130SOL    HW236024   2.693   1.673   2.814  0.3072  1.0175  1.1219
 8131SOL     OW36025   2.829   4.578  10.597  0.1658  0.0439  0.0010
 8131SOL    HW136026   2.772   4.642  10.555 -1.4270 -1.6369 -0.4303
 8131SOL    HW236027   2.908   4.590  10.545  0.6691  1.4859  1.0934
 8132SOL     OW36028   1.417   3.917  17.343 -0.2137  0.0345 -0.3518
 8132SOL    HW136029   1.482   3.848  17.357  1.8792  2.2374  0.7334
 8132SOL    HW236030   1.361   3.903  17.420  0.6849 -1.1969  0.0936
 8133SOL     OW36031   0.229   2.202   9.157 -0.0918  0.1004 -0.4918
 8133SOL    HW136032   0.188   2.201   9.244 -1.8839 -0.7147 -1.3464
 8133SOL    HW236033   0.258   2.293   9.158 -0.0305  0.0702  1.1620
 8134SOL     OW36034   2.681   2.288   5.440  0.1852  0.4974 -0.0678
 8134SOL    HW136035   2.705   2.205   5.482  0.5964 -0.5613 -2.4097
 8134SOL    HW236036   2.599   2.264   5.396 -0.0329  0.6586  0.2506
 8135SOL     OW36037   0.167   3.106   3.367  0.2633  0.5292  0.0635
 8135SOL    HW136038   0.252   3.149   3.369  1.1023 -1.2240  1.5688
 8135SOL    HW236039   0.179   3.013   3.351 -1.5516 -0.3225  3.5751
 8136SOL     OW36040   3.627   0.794   3.964  0.5091  0.2201 -0.0600
 8136SOL    HW136041   3.632   0.809   4.058  2.3312  2.8229 -0.5538
 8136SOL    HW236042   3.714   0.826   3.938  0.3071 -1.4323 -2.7148
 8137SOL     OW36043   2.679   3.148  12.363  0.0970 -0.3862 -0.0723
 8137SOL    HW136044   2.641   3.074  12.315 -0.7196  0.7460 -1.1923
 8137SOL    HW236045   2.652   3.214  12.299  0.1577 -1.1389 -0.8722
 8138SOL     OW36046   3.657   3.575   4.890 -0.3352 -0.1565  0.3573
 8138SOL    HW136047   3.615   3.541   4.811  0.2140  0.4819 -0.2125
 8138SOL    HW236048   3.612   3.527   4.959 -1.3004  0.9648  0.5100
 8139SOL     OW36049   1.820   1.300   6.669 -0.0679  0.1514  0.3400
 8139SOL    HW136050   1.889   1.259   6.720  0.4959  0.0067 -0.5465
 8139SOL    HW236051   1.776   1.226   6.628 -1.7043  1.5744 -0.5059
 8140SOL     OW36052   4.518   1.284   9.191  0.1434 -0.2400 -0.2413
 8140SOL    HW136053   4.547   1.264   9.280 -1.2556 -1.0285  0.0401
 8140SOL    HW236054   4.440   1.230   9.177  1.5665 -1.7236 -2.4285
 8141SOL     OW36055   1.963   1.361   3.518  0.0317  0.6320 -0.6291
 8141SOL    HW136056   1.946   1.443   3.472 -0.5744  0.2416 -1.0944
 8141SOL    HW236057   2.052   1.379   3.549 -0.4456  2.8915 -0.6058
 8142SOL     OW36058   0.611   4.249   1.390 -0.0141 -0.0655 -0.4768
 8142SOL    HW136059   0.687   4.201   1.357  1.8184  1.4742  1.5122
 8142SOL    HW236060   0.571   4.288   1.313 -0.2491  0.8080  0.0868
 8143SOL     OW36061   1.600   0.798   3.751 -0.1322 -0.2043  0.2472
 8143SOL    HW136062   1.582   0.814   3.658  2.1509 -0.0638 -0.1876
 8143SOL    HW236063   1.537   0.848   3.802  0.1498  0.6754 -0.2549
 8144SOL     OW36064   1.670   3.765   3.622  0.3321  0.5761 -0.0933
 8144SOL    HW136065   1.763   3.754   3.605 -0.0268  0.6301 -2.0660
 8144SOL    HW236066   1.638   3.680   3.653  1.4557  0.2387  0.1199
 8145SOL     OW36067   2.944   0.537   4.272  0.6655 -0.0891 -0.3342
 8145SOL    HW136068   2.905   0.450   4.272  1.5353 -0.4819 -0.0009
 8145SOL    HW236069   3.027   0.513   4.231  0.3671 -2.2483  0.3102
 8146SOL     OW36070   4.673   2.632   3.889  0.2938 -0.5150 -0.8300
 8146SOL    HW136071   0.015   2.610   3.841 -0.5107 -2.6725 -1.1997
 8146SOL    HW236072   4.642   2.713   3.849 -1.5048 -0.9376 -0.2535
 8147SOL     OW36073   3.586   3.994   7.371 -0.3283 -0.2967  0.3473
 8147SOL    HW136074   3.666   4.037   7.402 -2.2650  1.5978  2.5959
 8147SOL    HW236075   3.613   3.979   7.280  1.6729 -0.9693  1.0448
 8148SOL     OW36076   2.888   1.574   8.549  0.0991 -0.0330 -0.5036
 8148SOL    HW136077   2.865   1.505   8.487  0.6636 -0.3445 -0.3681
 8148SOL    HW236078   2.944   1.530   8.613  0.3366  0.6783 -0.2291
 8149SOL     OW36079   0.171   0.662   7.885 -0.6908  0.0686  0.0913
 8149SOL    HW136080   0.244   0.658   7.824 -1.1154 -1.7083 -0.3046
 8149SOL    HW236081   0.212   0.629   7.965 -2.2522  0.7238  1.1668
 8150SOL     OW36082   2.950   0.109   8.918  0.5474 -0.1381  0.1651
 8150SOL    HW136083   2.925   0.133   9.007 -1.4600 -1.7745  0.0558
 8150SOL    HW236084   2.987   0.021   8.919  0.7033 -0.0266  2.3408
 8151SOL     OW36085   0.863   2.579   4.548 -0.5307  0.5073 -0.5809
 8151SOL    HW136086   0.803   2.514   4.583  1.2341 -1.2297 -0.7795
 8151SOL    HW236087   0.942   2.525   4.543 -0.0707  1.1959 -0.8859
 8152SOL     OW36088   1.148   3.138   1.445 -0.3311  0.1278  0.0411
 8152SOL    HW136089   1.189   3.148   1.359 -3.0776 -2.5053 -1.5803
 8152SOL    HW236090   1.107   3.053   1.432 -2.1404  1.1056 -0.6976
 8153SOL     OW36091   0.873   2.361   6.655  0.1708  0.4133  0.2456
 8153SOL    HW136092   0.940   2.345   6.722  1.5380  1.5851 -0.8326
 8153SOL    HW236093   0.919   2.433   6.612 -1.6025  0.5437 -1.4170
 8154SOL     OW36094   4.066   3.392   5.660 -0.4405  0.2234  0.3912
 8154SOL    HW136095   3.995   3.419   5.602 -0.0471  2.0616  0.7728
 8154SOL    HW236096   4.084   3.477   5.699 -3.6895  2.3636 -2.8277
 8155SOL     OW36097   3.415   4.070   4.448  0.4220 -0.9266  0.1313
 8155SOL    HW136098   3.425   4.041   4.538 -1.9717 -0.8998  0.4046
 8155SOL    HW236099   3.485   4.135   4.439  2.4508 -3.0424  0.5954
 8156SOL     OW36100   1.171   3.610   2.502 -0.1811 -0.2263 -0.1481
 8156SOL    HW136101   1.139   3.682   2.448 -0.1956 -0.6471 -0.7081
 8156SOL    HW236102   1.086   3.568   2.518 -0.1131  0.4232  1.8135
 8157SOL     OW36103   2.775   1.412   9.215  0.4295  0.6666  0.3427
 8157SOL    HW136104   2.739   1.400   9.303  0.0763  0.8004  0.2184
 8157SOL    HW236105   2.822   1.329   9.214  0.1145  0.5084 -1.2966
 8158SOL     OW36106   1.248   3.090   6.826  0.3457 -0.5542  0.5625
 8158SOL    HW136107   1.323   3.148   6.811  0.0758 -0.6391 -1.1353
 8158SOL    HW236108   1.215   3.118   6.911  0.6620 -1.0654  0.8531
 8159SOL     OW36109   3.735   2.045  16.379  0.1911  0.0294 -0.0008
 8159SOL    HW136110   3.725   1.962  16.332  1.2449 -1.5948  2.6812
 8159SOL    HW236111   3.677   2.099  16.324  0.6662  1.4676  0.9131
 8160SOL     OW36112   1.039   0.131  10.887  0.4521  0.6516 -0.1300
 8160SOL    HW136113   1.035   0.044  10.847  0.5499 -0.3746  2.1198
 8160SOL    HW236114   1.069   0.185  10.814  2.7472 -1.2085 -0.5763
 8161SOL     OW36115   0.785   1.875   2.824  0.0328  0.4545  0.0447
 8161SOL    HW136116   0.831   1.920   2.753  0.9295  0.4469  0.6281
 8161SOL    HW236117   0.702   1.924   2.819 -0.3223 -0.2140 -0.6449
 8162SOL     OW36118   4.047   0.591  12.472  0.1484  0.2928  0.2878
 8162SOL    HW136119   3.998   0.636  12.403  2.1268  2.2626  0.1767
 8162SOL    HW236120   4.117   0.656  12.485  0.2583  0.2593 -0.1213
 8163SOL     OW36121   4.603   3.604   3.981 -0.6597  0.0193  0.2095
 8163SOL    HW136122   4.618   3.510   3.967  0.5667 -0.1058  2.3058
 8163SOL    HW236123   4.604   3.605   4.077 -0.7752  0.8799  0.1995
 8164SOL     OW36124   2.904   0.139   6.750 -0.1952 -0.2694  0.1943
 8164SOL    HW136125   2.818   0.111   6.782 -0.9235  3.2367  1.2256
 8164SOL    HW236126   2.933   0.198   6.820  0.5597  1.2351 -1.3997
 8165SOL     OW36127   2.162   2.113   8.578  0.1648  0.9301 -0.6430
 8165SOL    HW136128   2.177   2.021   8.559 -0.0269  1.2797 -2.5756
 8165SOL    HW236129   2.214   2.152   8.507 -1.5411  0.1501 -2.3128
 8166SOL     OW36130   0.249   3.691   8.008 -0.5721 -0.1076 -0.3045
 8166SOL    HW136131   0.304   3.614   7.994  1.6678  1.2902  0.7643
 8166SOL    HW236132   0.297   3.747   8.068 -1.1173  1.3313 -1.2163
 8167SOL     OW36133   1.169   4.394  16.561 -0.0622  0.7274  0.6223
 8167SOL    HW136134   1.078   4.365  16.568  0.0366  0.0588 -0.9926
 8167SOL    HW236135   1.207   4.313  16.528 -1.2263  0.0815  0.8657
 8168SOL     OW36136   4.433   2.804   6.744  0.5961 -0.2787 -0.2599
 8168SOL    HW136137   4.460   2.762   6.826  2.7273  1.9039  0.1277
 8168SOL    HW236138   4.495   2.870   6.714  1.6973 -0.9094  0.6306
 8169SOL     OW36139   0.612   0.001   5.725  0.4124 -0.1433  0.0288
 8169SOL    HW136140   0.665   0.036   5.797 -0.4477 -2.2926  1.7368
 8169SOL    HW236141   0.603   0.075   5.664 -1.1268  1.2310  1.8944
 8170SOL     OW36142   0.267   3.425   3.234  0.5484 -0.1910  0.8626
 8170SOL    HW136143   0.357   3.408   3.204  0.0078  1.6878 -1.8150
 8170SOL    HW236144   0.280   3.406   3.327 -1.7838  0.6791  1.3662
 8171SOL     OW36145   0.897   0.242   3.775 -0.2484  0.2106 -0.3480
 8171SOL    HW136146   0.851   0.179   3.719  1.2808  0.1929 -1.5925
 8171SOL    HW236147   0.980   0.253   3.728 -0.1443  0.0247 -0.2099
 8172SOL     OW36148   1.928   3.822   6.376  0.3698  0.3160 -0.1543
 8172SOL    HW136149   1.856   3.882   6.357 -0.0880 -0.1658  0.0708
 8172SOL    HW236150   1.998   3.855   6.319 -0.0284  2.1202  0.4086
 8173SOL     OW36151   2.866   1.394   0.940 -0.1072 -0.4284  0.8141
 8173SOL    HW136152   2.836   1.466   0.996 -0.7855 -0.9458  1.1203
 8173SOL    HW236153   2.957   1.419   0.927  0.2637 -2.5128 -0.5018
 8174SOL     OW36154   0.423   3.551  14.954 -0.0114  0.1801 -0.2767
 8174SOL    HW136155   0.470   3.577  15.033  0.2090 -0.6735 -0.1239
 8174SOL    HW236156   0.393   3.639  14.932 -0.6561  0.1389  0.4510
 8175SOL     OW36157   1.863   1.825   7.834  0.4247  0.1308  0.0710
 8175SOL    HW136158   1.805   1.773   7.778  0.1673 -0.5121  0.9332
 8175SOL    HW236159   1.864   1.905   7.783  0.7206 -0.4985 -0.9166
 8176SOL     OW36160   1.062   2.431   6.858  0.1117  0.0348 -0.5173
 8176SOL    HW136161   1.048   2.519   6.891 -0.9273 -0.2060 -0.3182
 8176SOL    HW236162   1.152   2.409   6.884  0.0065 -1.2704 -1.2390
 8177SOL     OW36163   1.130   0.249   9.349 -0.2626 -0.1275  0.2185
 8177SOL    HW136164   1.062   0.183   9.335  0.1600 -0.2278 -1.3502
 8177SOL    HW236165   1.089   0.332   9.324 -1.5336 -0.3770  1.4612
 8178SOL     OW36166   0.378   4.194  10.860  0.0290  0.1682 -0.0187
 8178SOL    HW136167   0.387   4.170  10.952 -2.7884  0.3513  0.3015
 8178SOL    HW236168   0.298   4.144  10.842  0.4669 -0.2994 -0.6692
 8179SOL     OW36169   4.573   4.629   2.981  0.2616  0.3497  0.1076
 8179SOL    HW136170   4.532   4.634   3.068 -0.3384  2.5300 -0.2992
 8179SOL    HW236171   4.576   4.534   2.969 -1.3687  0.4196 -0.8527
 8180SOL     OW36172   3.364   4.433   6.715  0.8132 -0.2428  0.2977
 8180SOL    HW136173   3.403   4.513   6.749 -2.6312  1.8088 -0.5587
 8180SOL    HW236174   3.299   4.467   6.653  1.9189 -0.4401 -0.9771
 8181SOL     OW36175   4.668   2.154   8.889 -0.1049  0.6746  0.0324
 8181SOL    HW136176   0.005   2.213   8.898 -0.0379  0.4337  1.0076
 8181SOL    HW236177   4.663   2.123   8.979  1.2506  0.8462  0.1629
 8182SOL     OW36178   2.321   4.280   4.506  0.1520 -0.3165 -0.3919
 8182SOL    HW136179   2.368   4.202   4.479  0.3182 -0.2200 -0.3832
 8182SOL    HW236180   2.244   4.235   4.542 -0.6896  0.2621 -1.4566
 8183SOL     OW36181   1.693   2.313   2.692 -0.2178 -0.2568  0.3744
 8183SOL    HW136182   1.630   2.302   2.763 -1.1586  1.0471 -0.2571
 8183SOL    HW236183   1.637   2.296   2.616  1.9477 -2.1215 -0.8027
 8184SOL     OW36184   2.296   3.603   7.135  0.1935  0.4304  0.0611
 8184SOL    HW136185   2.261   3.647   7.213  3.2836  1.2964  0.9456
 8184SOL    HW236186   2.258   3.515   7.144  0.8759  0.1453  0.1002
 8185SOL     OW36187   3.595   0.654   0.870 -0.4847 -0.3404 -0.0059
 8185SOL    HW136188   3.619   0.622   0.783 -2.3709 -0.0591 -0.6304
 8185SOL    HW236189   3.527   0.715   0.841 -0.3174 -0.3102 -0.3366
 8186SOL     OW36190   4.246   2.367   9.582  0.1188 -0.6152  0.9197
 8186SOL    HW136191   4.251   2.458   9.610  1.4748 -1.8153  4.5065
 8186SOL    HW236192   4.228   2.377   9.488 -2.8667 -1.2655  1.4229
 8187SOL     OW36193   2.527   3.614   5.350 -0.2854  0.1119  0.7446
 8187SOL    HW136194   2.452   3.664   5.320  0.2885  0.0732 -0.8142
 8187SOL    HW236195   2.592   3.673   5.310 -1.4960 -0.2911 -1.8057
 8188SOL     OW36196   2.662   2.976   6.571 -0.3150  0.5921 -0.2148
 8188SOL    HW136197   2.643   3.070   6.579 -0.9533  0.3986  0.5937
 8188SOL    HW236198   2.741   2.970   6.625 -1.4315  0.4894  1.4058
 8189SOL     OW36199   1.701   2.742   7.192 -0.0841  0.6100 -0.2463
 8189SOL    HW136200   1.640   2.813   7.212 -2.8545 -1.2291 -2.1634
 8189SOL    HW236201   1.771   2.761   7.254  0.5376  1.2263 -1.1344
 8190SOL     OW36202   0.591   4.223   2.894 -0.5001 -0.0194 -0.0553
 8190SOL    HW136203   0.512   4.185   2.933 -1.7904  0.9887 -1.6347
 8190SOL    HW236204   0.578   4.203   2.801  0.5484  0.2848 -0.2647
 8191SOL     OW36205   1.066   3.002  14.773  0.3027  0.1225 -0.0415
 8191SOL    HW136206   1.044   3.029  14.684 -2.2836 -2.2358 -0.1250
 8191SOL    HW236207   1.119   2.926  14.748  1.1853  1.3119 -1.7973
 8192SOL     OW36208   2.825   0.287   4.260 -0.4532 -0.7041 -0.1669
 8192SOL    HW136209   2.874   0.205   4.251  1.7756  0.5387  0.7444
 8192SOL    HW236210   2.765   0.261   4.191  0.5785  1.0487 -1.7221
 8193SOL     OW36211   1.529   1.827   6.693 -0.2798 -0.0744  0.1711
 8193SOL    HW136212   1.486   1.838   6.778  1.9567  0.7784  1.1866
 8193SOL    HW236213   1.454   1.830   6.634  0.6053 -1.8586 -1.0607
 8194SOL     OW36214   3.793   3.138  10.046 -0.3100 -0.1101  0.1121
 8194SOL    HW136215   3.785   3.117  10.139  0.3273  0.4599  0.2936
 8194SOL    HW236216   3.790   3.233  10.044 -1.0198 -0.1335 -0.1638
 8195SOL     OW36217   2.653   1.180   3.636  0.2236  0.1623 -0.6057
 8195SOL    HW136218   2.599   1.172   3.714 -0.8170  0.1307 -1.3351
 8195SOL    HW236219   2.601   1.132   3.571  1.7615 -2.3249  0.0176
 8196SOL     OW36220   2.572   2.316   3.050 -0.3696  0.2110  0.1535
 8196SOL    HW136221   2.502   2.360   3.099 -2.1096 -0.1655 -1.9870
 8196SOL    HW236222   2.645   2.339   3.107 -0.3374 -0.9459  0.5786
 8197SOL     OW36223   4.067   4.463   5.063  0.2223 -0.1969  0.2321
 8197SOL    HW136224   4.043   4.523   5.134 -1.0511  0.8564 -1.0721
 8197SOL    HW236225   4.082   4.527   4.993 -1.9877 -0.0817 -0.1388
 8198SOL     OW36226   0.485   0.904  11.557 -0.5734 -0.0648 -0.3889
 8198SOL    HW136227   0.474   0.846  11.482 -1.5315  0.6466 -0.8064
 8198SOL    HW236228   0.435   0.979  11.523 -2.6019 -1.4865 -0.5772
 8199SOL     OW36229   2.101   0.987  10.473 -0.3786  0.3500  0.0181
 8199SOL    HW136230   2.182   1.033  10.450 -0.0244  0.2211  1.0374
 8199SOL    HW236231   2.058   0.993  10.387 -2.1277  0.5831  0.9254
 8200SOL     OW36232   2.811   3.132   4.174  0.0429  0.2547  0.0559
 8200SOL    HW136233   2.881   3.166   4.118 -1.1488 -2.4267 -3.1074
 8200SOL    HW236234   2.850   3.049   4.202 -1.6956 -0.1533  1.2267
 8201SOL     OW36235   4.340   3.819   5.611  0.3053 -0.2283  1.0015
 8201SOL    HW136236   4.333   3.740   5.558  1.5594  0.9138 -0.8768
 8201SOL    HW236237   4.410   3.861   5.562 -0.7182  0.1678 -0.1268
 8202SOL     OW36238   3.985   2.591   6.404  0.3775  0.1179 -0.1277
 8202SOL    HW136239   3.977   2.500   6.434  0.2991 -0.4264 -1.8363
 8202SOL    HW236240   3.929   2.589   6.327 -0.6157 -0.5105  0.6182
 8203SOL     OW36241   3.912   3.639  11.513 -0.4957 -0.0961 -0.3956
 8203SOL    HW136242   3.946   3.724  11.487  0.1422  0.7583  3.2914
 8203SOL    HW236243   3.974   3.579  11.472  0.9434 -0.1024  1.7926
 8204SOL     OW36244   2.886   1.719   3.570  0.1822  0.0612  0.1165
 8204SOL    HW136245   2.967   1.726   3.621 -0.6359 -0.0942  1.4571
 8204SOL    HW236246   2.902   1.630   3.538  1.9239  0.7195 -0.8225
 8205SOL     OW36247   2.354   2.112  10.082 -0.2936  0.0517  0.0662
 8205SOL    HW136248   2.324   2.068  10.161 -0.0186 -2.3217 -1.1573
 8205SOL    HW236249   2.446   2.135  10.096 -0.6012 -0.2729  2.6527
 8206SOL     OW36250   2.495   3.018  11.056  1.0189 -0.0311  0.0634
 8206SOL    HW136251   2.499   2.936  11.105  0.0546 -1.1321 -1.6927
 8206SOL    HW236252   2.424   3.065  11.100 -0.0166 -1.5783  0.0505
 8207SOL     OW36253   2.815   1.774  15.583 -0.5130  0.2419 -0.4701
 8207SOL    HW136254   2.888   1.834  15.601 -0.6032 -0.3949  2.0261
 8207SOL    HW236255   2.781   1.761  15.672  0.8433  0.4990  0.0913
 8208SOL     OW36256   3.050   0.556  17.685  0.2077  0.2801  0.1667
 8208SOL    HW136257   3.113   0.559   0.006  1.6533 -0.6730 -1.0790
 8208SOL    HW236258   2.985   0.621  17.712 -1.0648 -0.8342 -0.1989
 8209SOL     OW36259   0.158   4.528   9.531 -0.5268 -0.1959 -0.0086
 8209SOL    HW136260   0.197   4.515   9.444  0.9379 -1.7086  0.8820
 8209SOL    HW236261   0.120   4.442   9.548 -1.4357 -0.3316 -2.7477
 8210SOL     OW36262   1.686   0.070   0.109 -0.4832  0.0085  0.6611
 8210SOL    HW136263   1.619   0.118   0.157  0.3315  0.4652  1.3435
 8210SOL    HW236264   1.687   4.727   0.161  2.1512  0.9493  2.0896
 8211SOL     OW36265   4.270   4.216   0.926  0.0053  0.2950 -0.6413
 8211SOL    HW136266   4.247   4.307   0.943 -2.6267 -0.6167  0.7569
 8211SOL    HW236267   4.349   4.233   0.876  1.0367 -1.1485  0.4673
 8212SOL     OW36268   2.672   0.054   2.049  0.1012  0.3337 -0.0776
 8212SOL    HW136269   2.757   0.036   2.091 -0.4419 -1.5281  0.2293
 8212SOL    HW236270   2.634   0.119   2.108  0.1863 -0.1275  0.4826
 8213SOL     OW36271   0.237   2.810   6.444 -0.1232  0.2800  0.7210
 8213SOL    HW136272   0.218   2.849   6.359 -0.2546 -0.5390  0.3760
 8213SOL    HW236273   0.332   2.801   6.452  0.1988  0.5684 -2.9998
 8214SOL     OW36274   4.092   0.368   7.909 -0.1398 -0.1490  0.1667
 8214SOL    HW136275   4.004   0.384   7.943 -0.9021  1.3026 -2.5058
 8214SOL    HW236276   4.068   0.332   7.824 -1.6182  0.4957  0.3158
 8215SOL     OW36277   1.865   1.107   5.976  0.4318  0.1129  0.4409
 8215SOL    HW136278   1.947   1.057   5.965  0.1974 -1.1819  4.5272
 8215SOL    HW236279   1.873   1.186   5.924  1.1607  0.2165  0.6967
 8216SOL     OW36280   0.934   3.382   2.073  0.3239  0.2617 -0.1113
 8216SOL    HW136281   0.991   3.320   2.117 -0.6902 -0.4443  0.2217
 8216SOL    HW236282   0.894   3.328   2.005  0.0615 -1.2946  1.2571
 8217SOL     OW36283   2.970   4.331   7.027  0.0037  0.1385 -0.3948
 8217SOL    HW136284   3.053   4.348   7.071  0.2739  0.4160 -1.0161
 8217SOL    HW236285   2.942   4.421   7.041  3.5131  1.1115  0.3225
 8218SOL     OW36286   0.107   0.642  13.824  0.1927 -0.0349 -0.1067
 8218SOL    HW136287   0.112   0.552  13.792 -0.7183 -1.0113  2.4709
 8218SOL    HW236288   0.197   0.661  13.850  1.1208  0.4504 -3.6740
 8219SOL     OW36289   2.361   4.047   8.016 -0.1378  0.0696  0.1898
 8219SOL    HW136290   2.283   3.992   8.010 -0.0497 -0.0216 -0.0858
 8219SOL    HW236291   2.320   4.127   8.051  1.6499  1.6446 -1.3174
 8220SOL     OW36292   1.751   4.406   9.618 -0.2616  0.5278 -0.3006
 8220SOL    HW136293   1.770   4.484   9.566 -0.1195  1.7919  1.6438
 8220SOL    HW236294   1.718   4.446   9.698  3.2973 -1.0156  1.9415
 8221SOL     OW36295   3.133   0.539   9.546  0.5878  0.3049  0.4987
 8221SOL    HW136296   3.212   0.559   9.597  1.8745 -0.8737 -1.0653
 8221SOL    HW236297   3.152   0.450   9.519  2.0929  0.4777  0.9820
 8222SOL     OW36298   3.653   1.029   7.535 -0.3517 -0.1541 -0.0361
 8222SOL    HW136299   3.570   1.004   7.575 -0.7958  3.0422  1.0677
 8222SOL    HW236300   3.662   1.119   7.566 -0.9090 -0.7217  1.7602
 8223SOL     OW36301   1.537   1.986   7.688  0.3516 -0.4835 -0.3084
 8223SOL    HW136302   1.472   1.918   7.708 -0.1512  1.3157  4.3302
 8223SOL    HW236303   1.480   2.052   7.650 -0.7865 -1.3950 -0.2066
 8224SOL     OW36304   2.217   3.673   8.018 -0.4355 -0.1565  0.4042
 8224SOL    HW136305   2.135   3.626   8.004  0.4926 -1.7682  0.4244
 8224SOL    HW236306   2.191   3.758   7.982 -2.7457 -1.2016 -0.3748
 8225SOL     OW36307   4.322   1.537   3.662  0.2680  0.4896 -0.1074
 8225SOL    HW136308   4.314   1.483   3.583  2.8799  2.0190 -1.4093
 8225SOL    HW236309   4.409   1.506   3.685  1.3570  2.4209 -1.6189
 8226SOL     OW36310   0.268   1.430   4.733 -0.0698  0.4322  0.2188
 8226SOL    HW136311   0.231   1.349   4.696  0.5275  0.3835 -0.2658
 8226SOL    HW236312   0.309   1.460   4.652 -1.8715  0.3948 -0.7144
 8227SOL     OW36313   2.414   3.557   8.232 -0.4283  0.2048 -0.0644
 8227SOL    HW136314   2.492   3.505   8.252 -0.8219 -0.5262 -0.4623
 8227SOL    HW236315   2.346   3.492   8.248  0.7051 -0.9309  0.1512
 8228SOL     OW36316   4.151   2.186   8.865  0.2898 -0.1279  0.0563
 8228SOL    HW136317   4.227   2.146   8.821 -0.1919 -1.2412  0.2273
 8228SOL    HW236318   4.127   2.122   8.932  1.0497 -0.4116  0.0645
 8229SOL     OW36319   0.647   0.007   4.972 -0.1752 -0.1320  0.3687
 8229SOL    HW136320   0.633   4.653   4.953 -1.7081 -0.1070  1.2957
 8229SOL    HW236321   0.658   4.737   5.067 -2.6796 -2.0288  0.4980
 8230SOL     OW36322   0.809   2.933   7.819  0.5477 -0.0334 -0.1849
 8230SOL    HW136323   0.891   2.932   7.769 -1.6739 -0.0651 -3.7798
 8230SOL    HW236324   0.832   2.990   7.893  1.3391 -0.1595 -0.3259
 8231SOL     OW36325   1.174   3.128   3.200  0.0766  0.2212  0.4994
 8231SOL    HW136326   1.223   3.182   3.263  0.0248  0.6330  0.1851
 8231SOL    HW236327   1.205   3.040   3.221 -1.4306 -0.1066  1.3212
 8232SOL     OW36328   2.424   0.209   9.375  0.1386  0.2263  0.2310
 8232SOL    HW136329   2.370   0.130   9.372  1.8413 -0.9757  1.4055
 8232SOL    HW236330   2.381   0.261   9.443  0.8479 -0.9287  1.5533
 8233SOL     OW36331   4.599   4.401   9.071  0.1334 -0.3709 -0.0205
 8233SOL    HW136332   4.524   4.417   9.015  1.0182  1.6243 -0.6611
 8233SOL    HW236333   4.561   4.417   9.157  0.8600 -1.9745  0.5949
 8234SOL     OW36334   0.126   1.616   5.511 -0.6692 -0.0182  0.3972
 8234SOL    HW136335   0.194   1.559   5.477  0.1080  0.4879  1.1007
 8234SOL    HW236336   0.173   1.668   5.576 -2.1732  0.9693  0.7186
 8235SOL     OW36337   1.531   1.532   5.485 -0.2945  0.0201  0.2464
 8235SOL    HW136338   1.495   1.454   5.443 -0.3794  0.5101 -0.5983
 8235SOL    HW236339   1.526   1.586   5.406 -1.0213  1.1244  1.0476
 8236SOL     OW36340   1.524   3.153   9.955  0.2178  0.6066 -0.1044
 8236SOL    HW136341   1.429   3.168   9.956  0.1161  0.0221 -0.5646
 8236SOL    HW236342   1.562   3.232   9.917  0.6036  0.6669  0.4181
 8237SOL     OW36343   1.766   0.299   1.906 -0.5194 -0.3716  0.2238
 8237SOL    HW136344   1.758   0.287   2.000 -0.5487 -1.0926  0.1317
 8237SOL    HW236345   1.839   0.359   1.893 -1.2726  0.2618 -1.0827
 8238SOL     OW36346   3.275   4.115   9.171 -0.6254  0.0746 -0.2839
 8238SOL    HW136347   3.195   4.166   9.184  0.9785  2.5396  0.0183
 8238SOL    HW236348   3.248   4.024   9.183  0.4402 -0.1113  0.7414
 8239SOL     OW36349   3.637   0.759   0.086  0.3947 -0.5569 -0.6335
 8239SOL    HW136350   3.581   0.712   0.148  1.0788  0.1819  0.5505
 8239SOL    HW236351   3.709   0.700   0.107  1.1977  0.4389 -0.6166
 8240SOL     OW36352   0.462   1.908  11.090  0.4584 -0.0047 -0.9622
 8240SOL    HW136353   0.517   1.910  11.168 -0.4694 -0.3574 -0.2906
 8240SOL    HW236354   0.380   1.871  11.123  1.2348 -0.7463  0.1159
 8241SOL     OW36355   2.942   0.913   4.789  0.2012  0.8094 -0.2095
 8241SOL    HW136356   2.883   0.881   4.857 -0.2146 -1.5446 -1.6801
 8241SOL    HW236357   2.876   0.965   4.745  0.5309  0.0092 -1.6350
 8242SOL     OW36358   1.291   2.485   4.900 -0.1672  0.7456 -0.4487
 8242SOL    HW136359   1.313   2.537   4.822 -0.4410  0.6085 -0.6161
 8242SOL    HW236360   1.247   2.408   4.865 -0.3148  1.8284 -2.6235
 8243SOL     OW36361   3.014   1.840   5.315 -0.0607  0.3889  0.1683
 8243SOL    HW136362   3.080   1.777   5.287  0.2999  0.8993 -0.1378
 8243SOL    HW236363   2.957   1.822   5.241  1.7214  0.5213 -1.2420
 8244SOL     OW36364   3.381   3.191   4.684 -0.0278  0.2634 -0.1435
 8244SOL    HW136365   3.336   3.274   4.669  0.0586  0.7123  1.9910
 8244SOL    HW236366   3.448   3.216   4.748 -0.2041 -0.2339  0.2438
 8245SOL     OW36367   1.032   3.606   4.119 -0.1814  0.3358  0.1712
 8245SOL    HW136368   1.064   3.594   4.030 -0.4494 -0.9849  0.2434
 8245SOL    HW236369   0.992   3.520   4.133  1.0774 -0.3709 -0.5979
 8246SOL     OW36370   3.006   2.793   5.252  0.0134  0.0861  0.4360
 8246SOL    HW136371   3.029   2.885   5.240 -1.5090  0.5610  1.0970
 8246SOL    HW236372   3.020   2.758   5.164  0.7807 -0.6234  0.8409
 8247SOL     OW36373   0.414   2.949   6.225 -0.5579  0.1827 -0.0528
 8247SOL    HW136374   0.484   2.939   6.289 -0.0373  1.2510 -0.4549
 8247SOL    HW236375   0.423   3.035   6.184  0.6142  0.0163 -0.1461
 8248SOL     OW36376   2.814   4.576  13.048 -0.3901  0.3866  0.4397
 8248SOL    HW136377   2.743   4.638  13.065  0.0410  0.7595  0.8782
 8248SOL    HW236378   2.878   4.646  13.037 -2.0529  1.4642 -2.3291
 8249SOL     OW36379   1.748   0.636   4.362 -0.1019 -0.1202  0.0029
 8249SOL    HW136380   1.783   0.689   4.433  0.2293  0.5314 -0.6499
 8249SOL    HW236381   1.705   0.703   4.308 -0.0249  0.0147  0.1113
 8250SOL     OW36382   4.154   4.383   7.035 -0.1962  0.5738 -0.8561
 8250SOL    HW136383   4.222   4.341   6.983  1.6194  0.9906  1.1626
 8250SOL    HW236384   4.203   4.410   7.113 -0.6622  0.7762 -0.6325
 8251SOL     OW36385   0.738   4.600   3.201 -0.2369 -0.1448  0.2772
 8251SOL    HW136386   0.792   4.524   3.221  0.6405  1.0710  2.6306
 8251SOL    HW236387   0.726   4.634   3.290 -1.7426 -2.0461  0.7911
 8252SOL     OW36388   3.573   0.252   7.090  0.7705 -0.5002  0.5205
 8252SOL    HW136389   3.560   0.321   7.155  0.0444  0.7700 -0.9752
 8252SOL    HW236390   3.615   0.294   7.015 -0.7616 -0.1909 -0.1585
 8253SOL     OW36391   4.722   1.334   2.889  1.0824 -0.1019  0.3762
 8253SOL    HW136392   0.004   1.388   2.965  2.9310 -1.1180  0.6050
 8253SOL    HW236393   0.066   1.288   2.870  0.9936 -0.2444  0.3379
 8254SOL     OW36394   0.786   3.569   5.614 -0.0898 -0.0266  0.1955
 8254SOL    HW136395   0.790   3.477   5.589 -0.3651 -0.7696  2.9033
 8254SOL    HW236396   0.726   3.574   5.688  0.4027  2.4674  0.4289
 8255SOL     OW36397   4.518   2.345  14.087  0.0044 -0.1775 -0.5118
 8255SOL    HW136398   4.553   2.304  14.166  0.3813  0.2764 -0.4416
 8255SOL    HW236399   4.592   2.344  14.026 -0.7555 -0.6319 -1.4349
 8256SOL     OW36400   3.747   1.183   8.080 -0.1007 -0.1599  0.1961
 8256SOL    HW136401   3.736   1.246   8.009  0.2678  0.7182  0.9096
 8256SOL    HW236402   3.800   1.238   8.138 -2.6552  0.1047  2.2982
 8257SOL     OW36403   4.731   1.173  11.711  0.2331  0.4023 -0.2997
 8257SOL    HW136404   4.700   1.139  11.794  1.5705  0.1226  0.0900
 8257SOL    HW236405   0.005   1.268  11.720 -3.3664  0.9926 -1.8758
 8258SOL     OW36406   4.200   4.543   8.140  0.4324  0.4029 -0.2035
 8258SOL    HW136407   4.284   4.587   8.126  0.0170  1.0396 -0.6342
 8258SOL    HW236408   4.218   4.515   8.231 -2.2017  0.1963  0.2404
 8259SOL     OW36409   0.328   2.008  17.702 -0.3878  0.2500  0.2718
 8259SOL    HW136410   0.378   2.070  17.649 -1.2166 -0.1081 -0.9195
 8259SOL    HW236411   0.379   1.926  17.703  1.3278  1.3038 -0.6298
 8260SOL     OW36412   3.285   3.126  10.343 -0.0869  0.4728 -0.7369
 8260SOL    HW136413   3.279   3.145  10.250 -1.2843  0.4685 -0.6571
 8260SOL    HW236414   3.266   3.032  10.349  1.5870  0.2323  1.1537
 8261SOL     OW36415   1.365   2.076   1.479 -0.4167 -0.1155 -0.0106
 8261SOL    HW136416   1.286   2.123   1.504 -1.1011 -2.1083  1.6072
 8261SOL    HW236417   1.436   2.127   1.518  0.4647 -1.1075 -0.3065
 8262SOL     OW36418   4.429   0.540   9.192  0.1460 -0.4245 -0.8627
 8262SOL    HW136419   4.436   0.448   9.219  2.8962 -0.3224 -1.1640
 8262SOL    HW236420   4.397   0.524   9.103  2.8209 -0.0544 -1.8892
 8263SOL     OW36421   4.453   3.495   3.429 -0.2688 -0.1110 -0.3408
 8263SOL    HW136422   4.422   3.549   3.356 -1.1899  1.5112  1.2525
 8263SOL    HW236423   4.369   3.465   3.463 -1.2055 -0.9830 -3.3769
 8264SOL     OW36424   2.613   2.583   7.642 -0.1057  0.2016 -0.2855
 8264SOL    HW136425   2.653   2.504   7.678 -0.5653  0.1550  0.1154
 8264SOL    HW236426   2.677   2.613   7.577 -0.1631  0.7287 -0.1018
 8265SOL     OW36427   2.599   2.853   4.630  0.1700  0.0778 -0.1964
 8265SOL    HW136428   2.559   2.940   4.633  0.7493  0.3931 -1.9549
 8265SOL    HW236429   2.605   2.839   4.535  1.0068  0.0746 -0.1428
 8266SOL     OW36430   2.220   3.340   9.712 -0.1175  0.2956 -0.0464
 8266SOL    HW136431   2.300   3.363   9.664 -0.0319 -2.2120 -1.1374
 8266SOL    HW236432   2.163   3.408   9.674  0.1931  0.2625 -0.5789
 8267SOL     OW36433   3.209   4.356   1.936 -0.1180  0.0360  0.0101
 8267SOL    HW136434   3.283   4.405   1.900 -1.5615  0.6603 -2.1030
 8267SOL    HW236435   3.157   4.367   1.856  0.2452  1.7926  0.0266
 8268SOL     OW36436   1.532   2.968   2.523  0.2513  0.4968 -0.2457
 8268SOL    HW136437   1.538   3.043   2.463 -0.9441  1.8719  1.3501
 8268SOL    HW236438   1.621   2.969   2.556  0.1488  3.4273 -0.0606
 8269SOL     OW36439   0.857   2.676   3.485 -0.7394 -0.1956 -0.3032
 8269SOL    HW136440   0.898   2.744   3.430  0.1089  0.0699  0.6603
 8269SOL    HW236441   0.924   2.609   3.468  1.4471  2.3859 -1.9590
 8270SOL     OW36442   1.893   4.000   7.859  0.6085  0.5782  0.2243
 8270SOL    HW136443   1.935   3.977   7.776  1.8845 -1.5213  1.4560
 8270SOL    HW236444   1.804   3.967   7.849  0.3762  1.1361  0.4176
 8271SOL     OW36445   0.562   2.434   5.090 -0.4092 -0.0106 -0.5526
 8271SOL    HW136446   0.640   2.475   5.052  0.4092  0.0553  1.2079
 8271SOL    HW236447   0.517   2.514   5.118  1.2535  0.5390  0.5438
 8272SOL     OW36448   2.803   3.871  12.441  0.6750  0.4737  0.1486
 8272SOL    HW136449   2.850   3.952  12.459  1.3939 -0.1483  1.0397
 8272SOL    HW236450   2.762   3.862  12.527 -2.1205 -0.2729 -1.2547
 8273SOL     OW36451   0.241   1.263   2.874  0.2899  0.1927 -0.5593
 8273SOL    HW136452   0.281   1.323   2.937 -1.9194  0.4853  0.5700
 8273SOL    HW236453   0.312   1.247   2.813 -1.7171 -1.2772 -2.5201
 8274SOL     OW36454   1.988   1.439   9.738 -0.0529 -0.5200 -0.1846
 8274SOL    HW136455   1.905   1.446   9.691 -1.0334  2.2436  1.8927
 8274SOL    HW236456   1.958   1.462   9.827 -0.0131  1.2278 -0.6189
 8275SOL     OW36457   2.880   3.361   9.675  0.1311  0.2230  0.0346
 8275SOL    HW136458   2.847   3.285   9.723 -0.0226  0.5827  0.5102
 8275SOL    HW236459   2.850   3.335   9.588  0.7760 -1.9748  0.4664
 8276SOL     OW36460   0.077   0.967   4.349 -0.0233 -0.4644 -0.3458
 8276SOL    HW136461   0.091   0.930   4.262  0.9517 -3.3224  1.0314
 8276SOL    HW236462   0.162   0.945   4.388 -1.2679 -1.2182  1.9974
 8277SOL     OW36463   4.473   2.615   1.348 -0.0378 -0.2974 -0.4765
 8277SOL    HW136464   4.379   2.599   1.350  0.0229 -0.8009 -1.3509
 8277SOL    HW236465   4.481   2.708   1.368  2.9125 -0.4635 -0.8663
 8278SOL     OW36466   0.454   1.715   5.425  0.8132  1.0609 -0.1251
 8278SOL    HW136467   0.429   1.681   5.339  1.5641 -0.7994  0.4083
 8278SOL    HW236468   0.404   1.656   5.481 -1.4717  2.7289 -0.3963
 8279SOL     OW36469   0.428   2.122   2.193  0.1789 -0.1123  0.1916
 8279SOL    HW136470   0.345   2.167   2.181  1.2982  2.0484  0.6671
 8279SOL    HW236471   0.411   2.076   2.276  0.4947 -0.3002  0.1543
 8280SOL     OW36472   0.619   3.420   6.697 -0.2399 -0.4516  0.1757
 8280SOL    HW136473   0.533   3.442   6.660  0.6138 -1.8042 -2.5234
 8280SOL    HW236474   0.606   3.364   6.774 -1.7015 -2.5160 -1.5777
 8281SOL     OW36475   1.268   3.198   5.222  0.1318  0.0932 -0.0671
 8281SOL    HW136476   1.276   3.171   5.130 -0.2564  0.0712 -0.0952
 8281SOL    HW236477   1.173   3.194   5.231  0.1457 -0.0082  0.0219
 8282SOL     OW36478   0.809   4.001   4.390  0.0714  0.2631 -0.2738
 8282SOL    HW136479   0.802   4.024   4.298 -2.7019 -1.1691 -0.4258
 8282SOL    HW236480   0.884   3.941   4.381  1.6718  2.3146 -0.4429
 8283SOL     OW36481   4.083   2.245   6.127 -0.0202  0.5749  0.2339
 8283SOL    HW136482   4.004   2.229   6.076  0.5068 -0.9001 -0.1189
 8283SOL    HW236483   4.084   2.340   6.120 -1.0497  0.7069  1.7553
 8284SOL     OW36484   3.092   0.657  15.741  0.3318 -0.0084 -0.7762
 8284SOL    HW136485   3.020   0.702  15.697  1.9357  1.8284 -1.5222
 8284SOL    HW236486   3.070   0.568  15.713 -0.5040 -0.1499  0.2948
 8285SOL     OW36487   1.445   1.098   6.930  0.1703  0.2568  0.1058
 8285SOL    HW136488   1.486   1.180   6.958 -0.2006  0.3596  0.3357
 8285SOL    HW236489   1.516   1.067   6.873 -1.0573  1.0107 -1.8184
 8286SOL     OW36490   4.719   0.733   9.128 -0.0656  0.2846 -0.0215
 8286SOL    HW136491   4.683   0.713   9.215 -0.1334  0.4960  0.0006
 8286SOL    HW236492   4.692   0.824   9.112 -0.9018  0.2150  1.0115
 8287SOL     OW36493   4.046   3.541   4.244  0.5074 -0.2964  0.2815
 8287SOL    HW136494   3.990   3.586   4.307 -0.2365  1.6016 -1.7061
 8287SOL    HW236495   4.080   3.474   4.303 -0.7196 -1.4684 -0.3349
 8288SOL     OW36496   4.304   2.065   3.087 -0.0792 -0.0050  0.4807
 8288SOL    HW136497   4.319   2.107   3.002  2.1289 -0.9503  0.4070
 8288SOL    HW236498   4.216   2.100   3.104  1.2183  2.6410  1.7808
 8289SOL     OW36499   3.212   1.147  13.573 -0.1904 -0.5806  0.3581
 8289SOL    HW136500   3.304   1.175  13.572 -0.0158 -1.1138  1.3326
 8289SOL    HW236501   3.177   1.168  13.487 -0.1951 -1.3668  0.1644
 8290SOL     OW36502   2.280   0.683  10.318  0.3690  0.5368 -0.4033
 8290SOL    HW136503   2.264   0.617  10.385  0.0498  2.3346  1.2623
 8290SOL    HW236504   2.283   0.617  10.248 -0.5292 -0.5887  0.6390
 8291SOL     OW36505   3.623   1.838   5.684  0.3788  0.1745  0.6130
 8291SOL    HW136506   3.717   1.854   5.690  0.9327 -1.9060 -2.7882
 8291SOL    HW236507   3.613   1.834   5.589 -0.0866  1.1557  0.6252
 8292SOL     OW36508   1.555   0.825   3.497 -0.5679 -0.0386  0.5463
 8292SOL    HW136509   1.528   0.913   3.524 -0.1091  0.9213 -2.0507
 8292SOL    HW236510   1.644   0.829   3.460 -0.7739  2.7360  0.3358
 8293SOL     OW36511   0.916   3.104   1.007  0.1471  0.4467 -0.3944
 8293SOL    HW136512   0.994   3.105   0.952 -0.4715 -1.8067 -1.2705
 8293SOL    HW236513   0.910   3.200   1.010 -1.3985  0.2939  1.6088
 8294SOL     OW36514   2.819   0.523  10.102  0.1577 -0.1865  0.2385
 8294SOL    HW136515   2.780   0.524  10.014 -0.1217  1.7347  0.3838
 8294SOL    HW236516   2.906   0.484  10.094 -0.0613 -1.2286  3.0923
 8295SOL     OW36517   4.321   4.688   3.793  0.5185 -0.2126  0.0589
 8295SOL    HW136518   4.293   4.729   3.875 -2.0610  0.4066 -1.1352
 8295SOL    HW236519   4.413   4.664   3.801  0.5397  0.1111  0.7439
 8296SOL     OW36520   3.951   3.891  13.693  0.2851  0.2358  0.0253
 8296SOL    HW136521   3.881   3.945  13.657  0.8475  0.6641 -0.4237
 8296SOL    HW236522   3.948   3.815  13.634  0.4140  0.8703 -0.8038
 8297SOL     OW36523   2.074   3.989   6.758  0.7730  0.3946  1.3338
 8297SOL    HW136524   2.042   3.903   6.728 -0.6817  1.6428 -0.6689
 8297SOL    HW236525   2.054   3.986   6.852 -0.5753  2.9572  1.1307
 8298SOL     OW36526   3.036   1.074   8.865  0.7244 -0.1384  0.8411
 8298SOL    HW136527   3.015   1.103   8.776  0.6482  0.2112  0.9728
 8298SOL    HW236528   3.060   0.985   8.840 -1.6876 -0.8643  1.0847
 8299SOL     OW36529   1.875   3.453   0.778  0.5740 -0.3659  0.1662
 8299SOL    HW136530   1.933   3.460   0.703  1.4058 -2.4180  0.6170
 8299SOL    HW236531   1.922   3.500   0.847 -0.4228  1.6060 -0.5058
 8300SOL     OW36532   2.824   3.657   4.767  0.6374  0.2908  0.4980
 8300SOL    HW136533   2.821   3.592   4.838  0.7806  1.8413  1.9200
 8300SOL    HW236534   2.732   3.682   4.755  0.5946 -0.2533 -0.3152
 8301SOL     OW36535   0.028   0.679   5.994  0.2473  0.1291 -0.0412
 8301SOL    HW136536   0.024   0.603   6.051  0.1093  1.8152  2.2077
 8301SOL    HW236537   0.062   0.636   5.916 -0.8146 -0.9957  0.1243
 8302SOL     OW36538   0.323   2.502  17.704  0.5975  0.8208  0.0858
 8302SOL    HW136539   0.366   2.562   0.014  1.1298  1.4669 -0.9208
 8302SOL    HW236540   0.251   2.470   0.008  0.3286 -0.5979 -1.0936
 8303SOL     OW36541   2.133   0.064   4.386  0.3004 -0.4872  0.6815
 8303SOL    HW136542   2.166   4.712   4.385  1.1716 -0.1466 -1.1288
 8303SOL    HW236543   2.077   0.058   4.463  0.6078 -1.1110  0.8556
 8304SOL     OW36544   1.529   4.046   8.893 -0.1480 -0.1225  0.4614
 8304SOL    HW136545   1.439   4.040   8.925  0.1384 -2.7357  0.7740
 8304SOL    HW236546   1.550   3.954   8.876 -1.6392 -0.8971  2.7970
 8305SOL     OW36547   0.299   3.554   3.849 -0.1599  0.4434  0.1623
 8305SOL    HW136548   0.344   3.597   3.922  0.9850 -2.3046  1.0970
 8305SOL    HW236549   0.307   3.461   3.872 -0.8081  0.3613  0.0521
 8306SOL     OW36550   4.643   3.776   2.127 -0.2064 -0.4867 -0.9012
 8306SOL    HW136551   4.610   3.831   2.056 -0.9351 -1.2387 -1.1421
 8306SOL    HW236552   4.732   3.756   2.099 -0.4287 -2.6245 -0.1041
 8307SOL     OW36553   1.186   3.793  15.416 -0.2808  0.1462  0.3784
 8307SOL    HW136554   1.229   3.759  15.494 -2.1148 -1.2009  0.8218
 8307SOL    HW236555   1.198   3.712  15.366 -0.5154 -0.3046  1.0543
 8308SOL     OW36556   1.559   0.374   0.386  0.5567 -0.4250 -0.3243
 8308SOL    HW136557   1.470   0.339   0.388  0.4294 -0.0295  0.7156
 8308SOL    HW236558   1.618   0.299   0.393  0.2727 -0.5688  0.4989
 8309SOL     OW36559   4.212   0.280   1.531 -0.2642 -0.3771  0.7347
 8309SOL    HW136560   4.273   0.300   1.602  0.4319  1.2041 -0.3360
 8309SOL    HW236561   4.255   0.203   1.493  2.1818  0.7256  1.3436
 8310SOL     OW36562   2.625   2.691   5.222 -0.3052 -0.2198 -0.2677
 8310SOL    HW136563   2.682   2.705   5.297 -1.5974 -1.2670  0.9101
 8310SOL    HW236564   2.610   2.597   5.219 -0.5966 -0.2140  1.0757
 8311SOL     OW36565   4.091   0.058   9.289 -0.6371  0.0771  0.1493
 8311SOL    HW136566   4.126   0.095   9.208 -0.3927 -2.1273 -0.7484
 8311SOL    HW236567   3.996   0.058   9.280 -0.6056  3.3005 -0.2315
 8312SOL     OW36568   4.003   1.549   6.642  1.1742 -0.2287 -0.6986
 8312SOL    HW136569   4.041   1.470   6.603 -2.0322 -1.1087 -2.0943
 8312SOL    HW236570   4.015   1.604   6.564  1.8516  0.7564  0.0990
 8313SOL     OW36571   2.787   4.527  14.193  0.5120  0.2029 -0.3588
 8313SOL    HW136572   2.845   4.595  14.228  3.3302 -2.0535 -0.6890
 8313SOL    HW236573   2.848   4.480  14.136 -1.3096 -2.4133 -0.1353
 8314SOL     OW36574   0.595   3.426  10.411 -0.3220 -0.5795  0.7783
 8314SOL    HW136575   0.631   3.469  10.488 -0.5459  1.1982 -0.0896
 8314SOL    HW236576   0.648   3.348  10.396 -1.5859 -1.3293  0.2081
 8315SOL     OW36577   3.058   0.098   7.158 -0.2554  0.1525 -0.2765
 8315SOL    HW136578   3.030   0.018   7.114  0.3149 -1.0663  1.5573
 8315SOL    HW236579   3.153   0.095   7.150 -0.4169 -0.9330 -1.7299
 8316SOL     OW36580   1.661   1.240  14.014  0.0747 -0.3012 -0.3977
 8316SOL    HW136581   1.726   1.189  13.966  1.5265  4.0933 -3.1051
 8316SOL    HW236582   1.683   1.238  14.107  1.6069 -2.2257 -0.8049
 8317SOL     OW36583   3.724   1.320   4.442  0.5118 -0.5067 -0.1642
 8317SOL    HW136584   3.698   1.253   4.505  0.8090  1.3604  1.9617
 8317SOL    HW236585   3.673   1.397   4.466  0.8394 -0.0553 -0.9208
 8318SOL     OW36586   2.262   4.562   6.613  0.2925 -0.1474  0.4683
 8318SOL    HW136587   2.186   4.597   6.658 -0.6164 -0.7077 -0.6480
 8318SOL    HW236588   2.240   4.583   6.522  2.8453  1.2487  0.1551
 8319SOL     OW36589   3.604   0.826   6.939  0.0708  0.3572  0.3621
 8319SOL    HW136590   3.557   0.764   6.994  1.2921  0.2252  1.2652
 8319SOL    HW236591   3.615   0.897   7.002  2.5294 -0.9274  1.3880
 8320SOL     OW36592   0.837   1.420   5.081  0.1908  0.0443 -0.0469
 8320SOL    HW136593   0.834   1.449   4.990 -1.7897 -2.2515 -0.7288
 8320SOL    HW236594   0.821   1.499   5.133 -0.8414  0.7438 -1.4325
 8321SOL     OW36595   0.540   0.030  12.831 -0.0798 -0.2214 -0.1969
 8321SOL    HW136596   0.598   0.072  12.894 -0.1876 -0.2611 -0.0728
 8321SOL    HW236597   0.599   4.698  12.804 -0.9250 -0.9680 -0.0992
 8322SOL     OW36598   0.130   4.579  16.860 -0.5737 -0.4199  0.0130
 8322SOL    HW136599   0.072   4.503  16.854  0.7257 -1.3302 -1.0484
 8322SOL    HW236600   0.146   4.579  16.955  2.4735  0.9081 -0.4873
 8323SOL     OW36601   3.907   3.414   5.019  0.4832 -0.2214 -0.2632
 8323SOL    HW136602   3.861   3.402   4.936  0.5441  1.1193 -0.4921
 8323SOL    HW236603   3.987   3.465   5.005 -0.3933  0.7306 -1.7301
 8324SOL     OW36604   0.114   2.348   8.216 -0.1012  0.1968  0.1882
 8324SOL    HW136605   0.152   2.264   8.190 -1.3453 -0.1638 -0.4558
 8324SOL    HW236606   0.150   2.363   8.304 -2.9802  1.2626  1.1957
 8325SOL     OW36607   3.496   2.491  10.190  0.1357  0.3304 -0.5114
 8325SOL    HW136608   3.452   2.412  10.220 -0.1750  0.5211 -0.4569
 8325SOL    HW236609   3.578   2.463  10.150 -0.7016  1.5777 -3.0855
 8326SOL     OW36610   0.305   2.178   6.354  0.4051 -0.6030  0.0253
 8326SOL    HW136611   0.214   2.196   6.379  0.7585 -0.8375  1.4948
 8326SOL    HW236612   0.354   2.258   6.375 -1.2041  0.2666  0.5035
 8327SOL     OW36613   1.234   2.287   4.712  0.3339 -0.4048  0.1996
 8327SOL    HW136614   1.317   2.253   4.677 -0.9452  0.1199 -3.2950
 8327SOL    HW236615   1.227   2.237   4.793 -2.1240  1.0650  0.8777
 8328SOL     OW36616   4.303   4.436   3.590 -0.1061  0.5145 -0.8028
 8328SOL    HW136617   4.372   4.502   3.592  1.1794 -0.8110 -0.6469
 8328SOL    HW236618   4.315   4.377   3.664  0.1932  0.9878 -0.4801
 8329SOL     OW36619   4.621   3.489   1.489  0.3457  0.5731  0.1026
 8329SOL    HW136620   4.541   3.512   1.441 -0.2255 -0.1957  0.6836
 8329SOL    HW236621   4.679   3.559   1.460  4.0040 -2.0828  1.0888
 8330SOL     OW36622   2.894   0.947  11.125  0.5046 -0.6120 -0.1035
 8330SOL    HW136623   2.845   0.870  11.155  1.1834 -1.2706 -0.6970
 8330SOL    HW236624   2.857   0.962  11.038  0.8839 -0.5646 -0.2560
 8331SOL     OW36625   3.941   0.724  15.342  0.0810  0.1693  0.3622
 8331SOL    HW136626   3.900   0.638  15.344  1.3503 -0.4038  1.8702
 8331SOL    HW236627   4.035   0.707  15.340 -0.0536 -0.3253 -2.3142
 8332SOL     OW36628   1.779   3.180   6.853  0.4072 -0.1817 -0.4906
 8332SOL    HW136629   1.763   3.275   6.855  0.1110 -0.2488  0.3660
 8332SOL    HW236630   1.834   3.180   6.775 -0.3798 -1.7578 -1.0386
 8333SOL     OW36631   4.145   1.153   3.424  0.1104 -0.3437  0.1343
 8333SOL    HW136632   4.082   1.086   3.396 -0.1137  1.5622 -3.8662
 8333SOL    HW236633   4.220   1.097   3.445 -2.0116 -3.0946  0.5193
 8334SOL     OW36634   3.913   1.300  13.253  0.2802  0.0647 -0.6558
 8334SOL    HW136635   3.857   1.362  13.206 -0.5597  0.3658  0.7434
 8334SOL    HW236636   3.943   1.247  13.179 -1.7469 -0.1843 -1.2921
 8335SOL     OW36637   2.608   1.430   7.066 -0.4470  0.5157 -0.1550
 8335SOL    HW136638   2.689   1.425   7.015 -0.9072  1.4085 -0.9953
 8335SOL    HW236639   2.579   1.507   7.016 -0.6924  0.7150  0.3002
 8336SOL     OW36640   3.390   0.168   8.937  0.3973 -0.1551  0.5332
 8336SOL    HW136641   3.369   0.242   8.994  2.7628  2.1600 -1.5874
 8336SOL    HW236642   3.416   0.102   9.002 -0.3473  0.1057  1.0879
 8337SOL     OW36643   3.328   3.709   6.498  0.1504 -0.3322  0.0473
 8337SOL    HW136644   3.235   3.706   6.474 -0.1133 -1.5630  1.2097
 8337SOL    HW236645   3.349   3.617   6.519  3.1778  0.6134  1.1320
 8338SOL     OW36646   3.830   1.132   7.133  1.2436 -0.4007 -0.1804
 8338SOL    HW136647   3.891   1.081   7.078  1.9919 -0.3335  0.5771
 8338SOL    HW236648   3.876   1.215   7.147 -1.8426  0.7876  2.7624
 8339SOL     OW36649   3.904   0.884  13.355 -0.4091  0.1803 -0.3016
 8339SOL    HW136650   3.976   0.829  13.325  0.5604  2.7616 -2.7663
 8339SOL    HW236651   3.848   0.824  13.404  0.5300  1.5183  2.3806
 8340SOL     OW36652   1.417   0.277   4.438  0.4580 -0.0979 -0.2361
 8340SOL    HW136653   1.507   0.308   4.448  0.2696 -0.0057  1.0732
 8340SOL    HW236654   1.434   0.183   4.432  0.8568 -0.0586  0.3232
 8341SOL     OW36655   0.824   0.783   6.419 -0.1991  0.2339  0.7132
 8341SOL    HW136656   0.798   0.800   6.329  0.8770 -1.7599  0.0150
 8341SOL    HW236657   0.790   0.694   6.427  0.6523 -0.0531  1.2611
 8342SOL     OW36658   3.032   0.099   3.792 -0.0668 -0.6138  0.4208
 8342SOL    HW136659   2.999   0.189   3.793 -0.1116 -0.6307  0.4807
 8342SOL    HW236660   3.055   0.093   3.699  1.2304  1.6527  0.5883
 8343SOL     OW36661   0.245   0.345  10.971  0.2967 -0.3510 -0.2275
 8343SOL    HW136662   0.252   0.250  10.957  1.3297 -0.5199  1.5147
 8343SOL    HW236663   0.231   0.349  11.065  0.2231  0.2801 -0.2645
 8344SOL     OW36664   2.126   4.254   2.021  0.0959 -0.1413  0.0674
 8344SOL    HW136665   2.059   4.186   2.022  0.7297 -0.7675  0.0764
 8344SOL    HW236666   2.086   4.317   1.961  0.9127 -1.3924 -1.7869
 8345SOL     OW36667   4.087   1.757  11.446  0.1466 -0.3574 -0.1381
 8345SOL    HW136668   4.003   1.797  11.470  0.5920  0.7869 -0.4857
 8345SOL    HW236669   4.073   1.663  11.459 -1.1430 -0.2060 -0.4042
 8346SOL     OW36670   2.957   2.285  10.455 -0.2686 -0.2814  0.4563
 8346SOL    HW136671   2.923   2.200  10.484 -0.2690 -0.2163  0.6497
 8346SOL    HW236672   2.951   2.319  10.544  1.5931  0.3014  0.3597
 8347SOL     OW36673   0.680   2.366   4.573 -0.1527  0.0947 -0.3074
 8347SOL    HW136674   0.608   2.373   4.510 -0.1984 -1.0842 -0.3764
 8347SOL    HW236675   0.739   2.318   4.515  1.3744 -0.1848  1.5144
 8348SOL     OW36676   1.270   2.369   8.816 -0.2193  0.0401 -0.1931
 8348SOL    HW136677   1.315   2.453   8.802  0.9961 -0.7229 -0.8473
 8348SOL    HW236678   1.199   2.385   8.878  0.1392 -0.4918  0.3562
 8349SOL     OW36679   3.565   0.792   5.266 -0.0334 -0.0512 -0.5179
 8349SOL    HW136680   3.555   0.763   5.175 -3.8079 -1.4888  0.3335
 8349SOL    HW236681   3.598   0.708   5.296 -1.0915  0.2899  1.5779
 8350SOL     OW36682   1.594   0.736   6.641  0.1755  0.7283  0.1519
 8350SOL    HW136683   1.581   0.758   6.549  0.8580 -1.4580 -0.4896
 8350SOL    HW236684   1.654   0.662   6.628  0.2506  0.4291  2.2784
 8351SOL     OW36685   3.332   3.128   6.931  0.0499  0.6441 -0.2295
 8351SOL    HW136686   3.376   3.205   6.894 -1.0787  0.3290 -2.2226
 8351SOL    HW236687   3.310   3.077   6.853 -0.8334  0.6377  0.0211
 8352SOL     OW36688   3.136   0.237   4.061 -0.0217 -0.1019 -0.0211
 8352SOL    HW136689   3.214   0.225   4.007  0.4540 -0.1651  0.6913
 8352SOL    HW236690   3.079   0.172   4.019 -0.2969  0.2575 -0.2065
 8353SOL     OW36691   3.392   0.438   5.395  0.1751 -0.0972 -0.2432
 8353SOL    HW136692   3.358   0.487   5.320 -1.2107 -0.9598 -0.1704
 8353SOL    HW236693   3.458   0.380   5.356 -0.8360 -0.7775 -0.9503
 8354SOL     OW36694   3.209   0.749  12.574 -0.1617 -0.1013  0.5782
 8354SOL    HW136695   3.161   0.785  12.499  0.4742 -0.0377  0.1935
 8354SOL    HW236696   3.184   0.658  12.561 -0.4820  0.0243  0.3128
 8355SOL     OW36697   1.019   2.336   2.610  0.2088  0.1010 -0.1536
 8355SOL    HW136698   1.010   2.418   2.659  0.1563 -0.3227  0.5440
 8355SOL    HW236699   0.932   2.327   2.572 -0.3770  0.3728  1.1214
 8356SOL     OW36700   0.084   2.163   7.745 -0.0753  0.0305 -0.0758
 8356SOL    HW136701   0.161   2.200   7.788 -1.2877  1.4165  0.9446
 8356SOL    HW236702   0.116   2.112   7.671 -1.7740 -3.0756  1.3362
 8357SOL     OW36703   4.599   0.186   1.977 -0.3499 -0.2413  0.1548
 8357SOL    HW136704   4.508   0.215   1.984 -0.6516 -1.7753  2.7910
 8357SOL    HW236705   4.646   0.269   1.989 -1.2092  0.5467 -2.0205
 8358SOL     OW36706   1.627   2.761   9.897 -0.2974  0.3539 -0.0131
 8358SOL    HW136707   1.543   2.714   9.903  0.6149 -1.2399  0.3893
 8358SOL    HW236708   1.604   2.850   9.923 -0.8788  0.0852  0.4086
 8359SOL     OW36709   1.886   2.182   2.538 -0.0923  0.6274 -0.0198
 8359SOL    HW136710   1.841   2.099   2.523  0.3471  0.6448 -1.4474
 8359SOL    HW236711   1.837   2.207   2.616  0.5895  0.8903  0.3213
 8360SOL     OW36712   0.340   3.742   9.489  0.0530  0.2538  0.3608
 8360SOL    HW136713   0.275   3.755   9.420 -0.6217 -0.6744  0.8077
 8360SOL    HW236714   0.313   3.817   9.541 -2.8099  0.9064 -2.0645
 8361SOL     OW36715   4.602   3.370   3.597  0.4968 -0.8547 -0.2368
 8361SOL    HW136716   4.639   3.449   3.637  0.4959 -0.8210 -0.3024
 8361SOL    HW236717   4.525   3.404   3.551  0.3346 -0.8327  0.0515
 8362SOL     OW36718   3.728   3.398  10.045  0.3159  0.0824 -0.6815
 8362SOL    HW136719   3.636   3.389  10.022  0.1599  2.1171 -0.8917
 8362SOL    HW236720   3.741   3.493  10.034  0.3881 -0.0260 -1.5279
 8363SOL     OW36721   4.048   2.783   7.562 -0.0684  0.3437  0.4585
 8363SOL    HW136722   3.995   2.754   7.636  0.3536  0.5628  0.8508
 8363SOL    HW236723   4.000   2.861   7.535 -2.2121 -0.2897  2.4493
 8364SOL     OW36724   3.805   2.534   4.458  0.4623 -0.2682 -0.4427
 8364SOL    HW136725   3.870   2.592   4.419 -0.5948  0.7684 -0.6532
 8364SOL    HW236726   3.786   2.576   4.542  2.4274  0.9796 -0.6242
 8365SOL     OW36727   1.170   4.362   4.639 -0.1585  0.1148  0.0474
 8365SOL    HW136728   1.140   4.361   4.730 -0.0158  1.5325  0.1106
 8365SOL    HW236729   1.095   4.409   4.603  0.4018  0.7886 -0.2506
 8366SOL     OW36730   0.604   0.926   2.761 -0.2420  0.0339 -0.1510
 8366SOL    HW136731   0.552   1.006   2.747 -1.3001 -0.6593 -0.1338
 8366SOL    HW236732   0.545   0.879   2.819 -0.4756 -0.3527 -0.7009
 8367SOL     OW36733   3.718   1.244   3.770 -0.2671 -0.0581  0.3085
 8367SOL    HW136734   3.646   1.224   3.712 -1.5858 -0.2981  2.0281
 8367SOL    HW236735   3.677   1.320   3.811 -0.6463 -0.7802  1.2667
 8368SOL     OW36736   0.806   4.348   4.973  0.1213  0.4638 -0.2906
 8368SOL    HW136737   0.738   4.412   4.949 -0.4886  0.5282  1.6203
 8368SOL    HW236738   0.751   4.271   4.988  0.4073  0.6686  1.6910
 8369SOL     OW36739   1.647   3.401   0.618  0.0198  0.1480  0.4423
 8369SOL    HW136740   1.702   3.343   0.565  0.1345 -0.6863  1.4937
 8369SOL    HW236741   1.699   3.419   0.696  0.5396 -0.5571  0.2541
 8370SOL     OW36742   2.747   0.730  13.160  0.1313 -0.0142 -0.3103
 8370SOL    HW136743   2.702   0.810  13.188  1.2520  0.1033  1.1090
 8370SOL    HW236744   2.668   0.675  13.153  0.2759 -0.2482 -0.1011
 8371SOL     OW36745   1.585   1.627  12.840 -1.0862  0.2625  0.0151
 8371SOL    HW136746   1.617   1.580  12.763 -0.5748  3.6750 -1.8528
 8371SOL    HW236747   1.666   1.669  12.871 -0.4916 -1.4106  0.7655
 8372SOL     OW36748   2.850   1.159  11.288 -0.1815  0.1135  0.2073
 8372SOL    HW136749   2.885   1.098  11.223 -2.1202 -0.5675 -0.1954
 8372SOL    HW236750   2.820   1.094  11.352 -0.0938  0.2567  0.3948
 8373SOL     OW36751   2.716   4.401   2.082 -0.0214  0.3591 -0.0042
 8373SOL    HW136752   2.754   4.450   2.156 -2.4162  0.0685  1.4065
 8373SOL    HW236753   2.707   4.311   2.114 -1.7532  1.0745  1.4986
 8374SOL     OW36754   0.828   0.587   7.671 -0.5465 -0.0923 -0.4449
 8374SOL    HW136755   0.910   0.562   7.713 -1.6517 -2.2326  0.3960
 8374SOL    HW236756   0.851   0.585   7.578  0.2805  1.9393 -0.3033
 8375SOL     OW36757   3.265   1.537  16.936 -0.2133 -0.1388 -0.7641
 8375SOL    HW136758   3.278   1.604  17.004  0.1915 -0.1071 -0.8728
 8375SOL    HW236759   3.354   1.508  16.917  0.2669  0.1135  1.0747
 8376SOL     OW36760   3.441   0.348   6.276 -0.0690  0.3200 -0.2744
 8376SOL    HW136761   3.351   0.381   6.281 -0.6298 -1.3917  0.6590
 8376SOL    HW236762   3.440   0.253   6.283  0.6287  0.1217 -2.9120
 8377SOL     OW36763   4.351   3.387   3.967 -0.2019 -0.7971  0.2635
 8377SOL    HW136764   4.443   3.372   3.988 -0.0320 -0.7523 -0.4244
 8377SOL    HW236765   4.342   3.330   3.890  0.5561 -1.5444  0.7307
 8378SOL     OW36766   3.039   1.052   8.213  0.2520 -0.0203 -0.2293
 8378SOL    HW136767   3.004   1.116   8.151  0.1139 -1.2695 -1.4503
 8378SOL    HW236768   3.132   1.071   8.198  0.1946  0.9760  0.7276
 8379SOL     OW36769   0.702   4.339   6.635  0.0963 -0.5632  0.6657
 8379SOL    HW136770   0.634   4.386   6.587  2.3447  1.4235 -0.5741
 8379SOL    HW236771   0.654   4.301   6.709 -1.5412 -0.2956 -0.2726
 8380SOL     OW36772   4.569   4.340   2.951  0.1834  0.0907  0.2073
 8380SOL    HW136773   4.542   4.262   2.904  0.4057  0.1835 -0.0748
 8380SOL    HW236774   4.618   4.297   3.022  1.8154  2.3877  0.4873
 8381SOL     OW36775   2.579   0.022   8.242  0.2784 -0.1434 -0.2249
 8381SOL    HW136776   2.568   4.665   8.234 -3.1120  0.1535  1.2827
 8381SOL    HW236777   2.631   0.021   8.323 -0.9599 -0.9849  0.5514
 8382SOL     OW36778   0.565   2.209  10.213  0.4284  0.0237 -0.5960
 8382SOL    HW136779   0.497   2.246  10.269 -0.3227  0.1797 -1.6097
 8382SOL    HW236780   0.586   2.277  10.149  0.3218 -0.4952 -1.1794
 8383SOL     OW36781   0.957   4.576   2.087 -0.2499 -0.1270 -0.3205
 8383SOL    HW136782   0.975   4.664   2.119  1.8505 -0.2137 -1.2901
 8383SOL    HW236783   0.907   4.536   2.159 -1.4789  1.3727 -0.3287
 8384SOL     OW36784   0.023   3.823   2.675 -0.2848 -0.0957  1.0859
 8384SOL    HW136785   0.002   3.754   2.613 -1.3559 -1.2203  2.7034
 8384SOL    HW236786   4.736   3.893   2.615 -0.6187 -1.9493 -0.9048
 8385SOL     OW36787   3.830   3.257   6.603  0.0765 -0.0521 -0.1989
 8385SOL    HW136788   3.897   3.270   6.537 -0.9576  0.5622 -1.1304
 8385SOL    HW236789   3.867   3.318   6.666 -0.6503 -3.5254  3.5918
 8386SOL     OW36790   1.265   0.332   0.393  0.0459 -0.0689 -0.4041
 8386SOL    HW136791   1.252   0.366   0.481 -0.8948 -2.0024  0.1978
 8386SOL    HW236792   1.179   0.292   0.380 -1.4758  3.4721 -1.4621
 8387SOL     OW36793   2.811   1.036  17.441  0.1340  0.2063  0.6825
 8387SOL    HW136794   2.879   1.073  17.384 -1.2345 -2.1680 -2.4727
 8387SOL    HW236795   2.827   0.942  17.443 -1.0024  0.0378  2.6626
 8388SOL     OW36796   3.586   4.520   7.274  0.6558 -0.1138  0.5788
 8388SOL    HW136797   3.527   4.468   7.329  0.7831 -0.7420  0.1322
 8388SOL    HW236798   3.522   4.540   7.206 -0.6695  0.6219  2.0430
 8389SOL     OW36799   2.101   1.819  14.624 -0.2073  0.2323 -0.1811
 8389SOL    HW136800   2.192   1.793  14.641  0.1715  0.9879 -1.0270
 8389SOL    HW236801   2.113   1.905  14.583 -1.3526 -0.3008 -1.6330
 8390SOL     OW36802   1.321   0.169  17.087 -0.1247 -0.5780  0.0905
 8390SOL    HW136803   1.361   0.165  17.001  1.1075  1.1351  0.5900
 8390SOL    HW236804   1.369   0.099  17.132 -2.6265 -1.9427  0.6648
 8391SOL     OW36805   4.396   2.320  11.338  0.2872  0.2626 -0.4148
 8391SOL    HW136806   4.451   2.384  11.292  2.2646 -0.8170  0.4609
 8391SOL    HW236807   4.329   2.382  11.368 -1.4997 -2.0820  0.4278
 8392SOL     OW36808   3.021   0.681   7.925 -0.0642 -0.4723  0.0517
 8392SOL    HW136809   2.929   0.664   7.903 -0.3878 -0.7695  1.6275
 8392SOL    HW236810   3.058   0.616   7.865 -0.6338  0.1598 -0.9860
 8393SOL     OW36811   4.219   3.288   3.177  0.3811  0.2815  0.4900
 8393SOL    HW136812   4.159   3.233   3.228 -0.0673 -1.0649 -1.4739
 8393SOL    HW236813   4.304   3.263   3.214 -0.6560 -2.6361  0.8879
 8394SOL     OW36814   2.273   2.797   2.562  0.1829 -0.0722  0.3520
 8394SOL    HW136815   2.183   2.779   2.591 -0.4147 -2.0637 -2.6388
 8394SOL    HW236816   2.299   2.725   2.504  0.0334 -0.9997  1.4361
 8395SOL     OW36817   4.642   3.124   5.238 -0.3902  0.4787 -0.0935
 8395SOL    HW136818   4.673   3.038   5.211  1.2786  1.1113 -0.2189
 8395SOL    HW236819   4.549   3.105   5.241  0.1193 -2.0340 -0.6047
 8396SOL     OW36820   4.395   0.360   1.763  0.0632 -0.0189 -0.4082
 8396SOL    HW136821   4.393   0.304   1.841 -1.9981 -0.3426 -0.6843
 8396SOL    HW236822   4.340   0.429   1.799 -0.0385 -0.1035 -0.3997
 8397SOL     OW36823   3.106   2.948   9.843 -0.3400 -0.2385  0.8347
 8397SOL    HW136824   3.081   3.033   9.879 -0.5838  0.9170 -2.0779
 8397SOL    HW236825   3.135   2.976   9.756  0.4706 -0.2196  1.1096
 8398SOL     OW36826   2.382   2.227   4.208  0.2355  0.5195 -0.0106
 8398SOL    HW136827   2.412   2.305   4.162  1.4531  1.1437  1.8513
 8398SOL    HW236828   2.344   2.170   4.140 -1.5806  1.0600  0.5596
 8399SOL     OW36829   0.545   1.335   3.844  0.4167 -0.2982  0.3887
 8399SOL    HW136830   0.503   1.333   3.758  0.6677  1.4810  0.2265
 8399SOL    HW236831   0.479   1.343   3.914  1.1851  0.3083  1.0369
 8400SOL     OW36832   1.391   2.340  10.237 -0.2220  0.5449 -0.2708
 8400SOL    HW136833   1.404   2.303  10.325  0.6274  1.7483  0.1040
 8400SOL    HW236834   1.418   2.268  10.180 -0.4978  1.3175 -1.3815
 8401SOL     OW36835   2.268   4.143   8.781  0.1093 -0.2481 -0.1870
 8401SOL    HW136836   2.302   4.201   8.848 -1.9793 -0.4766  1.0728
 8401SOL    HW236837   2.268   4.057   8.823  1.8081 -1.1710 -2.0498
 8402SOL     OW36838   2.572   4.115   7.865  0.1131 -0.6798  0.2889
 8402SOL    HW136839   2.484   4.104   7.902 -0.3104 -1.7106 -1.0183
 8402SOL    HW236840   2.544   4.091   7.777 -0.6243 -1.4102  0.7137
 8403SOL     OW36841   2.382   1.072   0.312 -0.0228  0.4773 -0.0875
 8403SOL    HW136842   2.443   1.005   0.344  0.6972  0.6581 -1.0791
 8403SOL    HW236843   2.425   1.094   0.229 -0.5221 -0.3839 -0.5778
 8404SOL     OW36844   3.643   0.845   9.309 -0.0079 -0.0251  0.4476
 8404SOL    HW136845   3.631   0.854   9.214  2.0097  0.6388  0.2550
 8404SOL    HW236846   3.721   0.898   9.325  2.2414 -3.5611  1.4005
 8405SOL     OW36847   2.208   1.920   1.598  0.0575  0.1128  0.5096
 8405SOL    HW136848   2.196   1.851   1.533 -3.3496  0.3972  0.8069
 8405SOL    HW236849   2.210   2.005   1.554  1.5262 -0.1373  0.1166
 8406SOL     OW36850   4.383   2.522   6.069  0.9097 -0.6422 -0.0647
 8406SOL    HW136851   4.377   2.617   6.067  0.0180 -0.7136 -0.8972
 8406SOL    HW236852   4.458   2.519   6.128  0.5504 -0.7708  0.3849
 8407SOL     OW36853   1.603   2.243   6.208  0.7419 -0.3120 -0.4442
 8407SOL    HW136854   1.532   2.257   6.145  0.0267  0.3224  0.4902
 8407SOL    HW236855   1.590   2.311   6.274 -0.9248  1.1167 -2.2435
 8408SOL     OW36856   1.611   3.370   9.807  0.1475  0.5136  0.0552
 8408SOL    HW136857   1.546   3.422   9.855  0.2102  2.9853 -2.5341
 8408SOL    HW236858   1.606   3.431   9.733  1.2451  0.0096 -0.4303
 8409SOL     OW36859   1.633   3.037  10.179 -0.0779 -0.6172 -0.0376
 8409SOL    HW136860   1.721   3.060  10.149 -0.5326 -0.8068 -1.4839
 8409SOL    HW236861   1.581   3.089  10.117  1.4819 -0.6906 -1.4060
 8410SOL     OW36862   4.199   1.320   7.985 -0.1363  0.0333  0.0972
 8410SOL    HW136863   4.196   1.232   8.024  1.0247 -0.2300 -0.4103
 8410SOL    HW236864   4.242   1.304   7.901  1.4385  3.1827  0.3178
 8411SOL     OW36865   2.454   3.548   4.065 -0.2019  0.0835 -0.1187
 8411SOL    HW136866   2.505   3.549   3.984 -0.1793  0.8257 -0.0992
 8411SOL    HW236867   2.366   3.563   4.030 -0.5495 -2.1706 -0.1797
 8412SOL     OW36868   1.967   3.935   5.159  0.4104 -0.1837 -0.6519
 8412SOL    HW136869   1.922   3.925   5.243  0.1468  3.3691 -0.3850
 8412SOL    HW236870   1.903   3.998   5.126 -0.4698 -0.3407  0.7482
 8413SOL     OW36871   3.924   1.011   6.144 -0.4590 -0.8262  0.5157
 8413SOL    HW136872   3.962   1.087   6.189  0.4375 -1.2840  0.5352
 8413SOL    HW236873   3.915   0.951   6.219 -3.3803  0.4288  1.1762
 8414SOL     OW36874   2.605   1.500   3.859  0.3695 -0.3469 -0.4377
 8414SOL    HW136875   2.643   1.417   3.885  0.5176  0.5637  2.2488
 8414SOL    HW236876   2.528   1.465   3.813  0.2052 -1.1109  0.4300
 8415SOL     OW36877   0.384   2.076   2.465 -0.1203 -0.0610  0.2111
 8415SOL    HW136878   0.294   2.108   2.476 -0.1820 -0.0968 -0.2177
 8415SOL    HW236879   0.359   1.985   2.482  1.5003 -0.5146  0.1308
 8416SOL     OW36880   3.049   4.565   2.663 -0.2498 -0.8488  0.3342
 8416SOL    HW136881   3.005   4.649   2.651  1.2506 -0.5635 -3.1574
 8416SOL    HW236882   2.969   4.515   2.681 -1.5871  0.2183 -2.7112
 8417SOL     OW36883   3.065   2.039   9.418 -0.1354  0.2188  0.0161
 8417SOL    HW136884   3.027   1.988   9.346  0.6870 -0.7674  0.2819
 8417SOL    HW236885   3.091   2.124   9.385  1.0162  0.0946  0.6292
 8418SOL     OW36886   2.194   4.126  15.407  0.5271  0.0644  0.6960
 8418SOL    HW136887   2.132   4.059  15.379  0.1850  1.1855 -1.2843
 8418SOL    HW236888   2.175   4.107  15.498 -0.1785 -0.2169  0.4918
 8419SOL     OW36889   0.417   1.005   9.120  0.5281  0.1896  0.3460
 8419SOL    HW136890   0.396   1.098   9.126  1.9207  0.4966  0.5234
 8419SOL    HW236891   0.365   0.969   9.192  2.1431 -0.2919  1.2802
 8420SOL     OW36892   0.754   2.948   8.350  0.1416  0.2721  0.1465
 8420SOL    HW136893   0.767   2.877   8.287 -0.0496 -0.1303  0.5634
 8420SOL    HW236894   0.685   2.993   8.302  0.9256  1.0316 -0.2614
 8421SOL     OW36895   3.072   0.561   8.719 -0.0487 -0.7790  0.3950
 8421SOL    HW136896   3.119   0.477   8.712  1.2498 -0.0169 -0.0378
 8421SOL    HW236897   3.014   0.542   8.792 -0.6804 -2.5496 -0.5691
 8422SOL     OW36898   4.303   3.250   5.448  0.3619  0.2664  0.0870
 8422SOL    HW136899   4.219   3.291   5.426 -0.8764 -2.1869  0.2935
 8422SOL    HW236900   4.347   3.317   5.501  1.8270 -1.7248  1.3740
 8423SOL     OW36901   3.887   4.028  10.201  0.6128 -0.6036 -0.0051
 8423SOL    HW136902   3.902   3.977  10.281  0.3741  0.4554  0.7242
 8423SOL    HW236903   3.880   4.112  10.246  0.8452 -0.4924 -0.1802
 8424SOL     OW36904   0.628   3.768   5.067  0.1059 -0.1762  0.0038
 8424SOL    HW136905   0.566   3.801   5.002  1.3463  2.3774  0.1478
 8424SOL    HW236906   0.580   3.768   5.150 -1.6828  0.6774 -1.0342
 8425SOL     OW36907   1.267   2.217  13.696 -0.0484  0.0281 -0.1136
 8425SOL    HW136908   1.270   2.123  13.715  2.2081  0.5055  1.8667
 8425SOL    HW236909   1.264   2.222  13.601 -2.6825  0.5943 -0.0155
 8426SOL     OW36910   3.726   2.555  16.738  0.2483  0.1390  0.0748
 8426SOL    HW136911   3.758   2.631  16.787  0.5444 -1.3914  2.2508
 8426SOL    HW236912   3.809   2.518  16.709  0.4111 -1.9385  3.1814
 8427SOL     OW36913   0.141   0.650   5.174  0.0825 -0.7450 -0.2172
 8427SOL    HW136914   0.102   0.727   5.133 -0.6816 -0.6044  0.7914
 8427SOL    HW236915   0.230   0.657   5.138  0.2511 -1.1223  0.1200
 8428SOL     OW36916   2.383   2.411  11.593  0.2473 -0.0632  0.3013
 8428SOL    HW136917   2.304   2.365  11.563  0.8054  0.2732 -1.6524
 8428SOL    HW236918   2.364   2.471  11.665 -1.5091 -0.0123 -0.1959
 8429SOL     OW36919   1.950   0.675  10.035 -0.7452 -0.4208  0.7412
 8429SOL    HW136920   1.860   0.660  10.008 -0.6853 -1.0669  0.9023
 8429SOL    HW236921   1.978   0.583  10.034  0.0311 -0.1682 -0.3925
 8430SOL     OW36922   2.216   0.890  16.856  0.6189  0.0711 -0.4351
 8430SOL    HW136923   2.283   0.926  16.914  1.2858 -1.7482 -0.0858
 8430SOL    HW236924   2.277   0.864  16.786  0.2851 -1.2934 -0.2251
 8431SOL     OW36925   2.665   3.723  12.262  0.6961 -0.4816 -0.1746
 8431SOL    HW136926   2.725   3.744  12.333  3.3792 -1.1379 -2.2495
 8431SOL    HW236927   2.648   3.809  12.224  0.9379 -0.9156 -1.2757
 8432SOL     OW36928   2.037   0.383   2.128  0.1889  0.4477  0.8635
 8432SOL    HW136929   2.071   0.374   2.039  0.4557  3.9565  0.5998
 8432SOL    HW236930   2.091   0.319   2.174  1.5859 -0.6561 -2.3849
 8433SOL     OW36931   3.912   2.956   5.946  0.7575  0.1692  0.1442
 8433SOL    HW136932   3.934   3.025   5.883  0.1668  0.6637  0.4768
 8433SOL    HW236933   3.903   2.998   6.032 -1.8054  2.2658 -1.1514
 8434SOL     OW36934   4.479   4.679   7.118 -0.3030  0.3821  0.2292
 8434SOL    HW136935   4.447   4.599   7.160  2.2771  0.5044  2.4018
 8434SOL    HW236936   4.563   4.656   7.079 -0.3099 -0.0855  0.4830
 8435SOL     OW36937   0.657   3.711   3.033  0.0589 -0.5529  0.1241
 8435SOL    HW136938   0.585   3.684   2.975 -0.2308 -0.4377  0.4294
 8435SOL    HW236939   0.607   3.737   3.111  0.1371  0.3365 -0.1222
 8436SOL     OW36940   0.096   0.366   0.187 -0.2335 -0.0555  0.4522
 8436SOL    HW136941   0.028   0.354   0.121 -0.3742 -1.3934  0.8286
 8436SOL    HW236942   0.105   0.273   0.211  4.7687  0.3202  0.0172
 8437SOL     OW36943   3.753   3.780  10.443 -0.4975  0.2277  0.8540
 8437SOL    HW136944   3.752   3.714  10.513  0.1967 -2.0852 -1.3173
 8437SOL    HW236945   3.660   3.803  10.443 -0.9969 -1.8208 -1.3821
 8438SOL     OW36946   3.257   0.200  11.929  0.2550 -0.1356  0.3448
 8438SOL    HW136947   3.300   0.242  12.004 -0.9532  2.1722 -0.2590
 8438SOL    HW236948   3.211   0.125  11.968 -1.2675  0.6258  0.0215
 8439SOL     OW36949   3.446   1.477   5.095 -0.5070 -0.1863  0.0706
 8439SOL    HW136950   3.419   1.462   5.186 -2.3398  0.6226 -0.3391
 8439SOL    HW236951   3.380   1.424   5.050 -0.3690  0.5840 -1.0342
 8440SOL     OW36952   1.534   3.656  10.631 -0.0500 -0.5959  0.8929
 8440SOL    HW136953   1.591   3.708  10.687 -0.1305 -0.1440  0.5529
 8440SOL    HW236954   1.595   3.624  10.565 -1.3502 -1.6868  0.2213
 8441SOL     OW36955   2.706   1.366   9.505  0.2341  0.0677  0.0453
 8441SOL    HW136956   2.690   1.280   9.546  1.7788  0.9543  2.5051
 8441SOL    HW236957   2.682   1.424   9.577  2.6032  1.2855 -0.1548
 8442SOL     OW36958   4.653   3.768   9.372  0.0697 -0.4621 -0.1005
 8442SOL    HW136959   4.641   3.681   9.409 -1.4253 -0.1507  0.1794
 8442SOL    HW236960   4.614   3.818   9.444  0.4748 -3.2574  2.0620
 8443SOL     OW36961   2.963   3.251  15.933 -0.4113  0.5150 -0.0834
 8443SOL    HW136962   2.885   3.290  15.894 -0.6799  1.2833  1.2160
 8443SOL    HW236963   2.966   3.162  15.897  2.8171  2.2739 -4.2043
 8444SOL     OW36964   4.716   3.293  12.827  0.0029  0.5574  0.0959
 8444SOL    HW136965   0.059   3.251  12.857 -0.5398 -0.5933 -0.0316
 8444SOL    HW236966   4.671   3.319  12.907 -0.8798  0.5162 -0.3979
 8445SOL     OW36967   3.117   3.348   2.431  0.0756  0.1187 -0.0969
 8445SOL    HW136968   3.055   3.275   2.436  0.7575 -0.3083  2.1738
 8445SOL    HW236969   3.080   3.409   2.368 -0.8094  0.6566  0.9448
 8446SOL     OW36970   1.893   2.340   2.882  0.7326  0.1095  0.1973
 8446SOL    HW136971   1.817   2.308   2.833  1.6020 -0.4768 -0.7873
 8446SOL    HW236972   1.873   2.433   2.883  2.4199  0.5000 -2.8554
 8447SOL     OW36973   0.830   2.859   4.117 -0.7857 -0.1860  0.3907
 8447SOL    HW136974   0.817   2.906   4.200  0.4746 -0.5120  0.7846
 8447SOL    HW236975   0.895   2.794   4.143  1.5302  1.5115 -1.1424
 8448SOL     OW36976   0.103   1.348   8.943 -0.2828  0.0290  0.2940
 8448SOL    HW136977   0.011   1.372   8.933  0.0836  1.9051  1.5776
 8448SOL    HW236978   0.132   1.370   8.854 -0.2768 -1.4264 -0.0638
 8449SOL     OW36979   0.340   0.244  16.473  0.1002 -0.4787  0.0191
 8449SOL    HW136980   0.339   0.151  16.495  0.5601 -0.6249 -0.5746
 8449SOL    HW236981   0.433   0.254  16.450 -0.8474  0.3452 -3.3139
 8450SOL     OW36982   0.622   4.107   4.936 -1.0061  0.0850  0.1352
 8450SOL    HW136983   0.594   4.028   4.889  1.4059 -1.7247  1.7655
 8450SOL    HW236984   0.548   4.115   4.996  0.0712  0.9475  1.3612
 8451SOL     OW36985   4.193   1.011   5.959 -0.6719  0.5379  0.4089
 8451SOL    HW136986   4.177   1.105   5.963  1.2158  0.9105 -0.2818
 8451SOL    HW236987   4.182   0.990   6.051  0.5170 -1.3391  0.1350
 8452SOL     OW36988   0.414   2.597  12.938  0.2706 -0.3937  0.2299
 8452SOL    HW136989   0.356   2.539  12.988  0.0956 -2.5441 -2.4532
 8452SOL    HW236990   0.411   2.682  12.982  0.8705  1.0359 -2.4640
 8453SOL     OW36991   4.423   1.679   8.986  0.0375 -0.0459  0.2211
 8453SOL    HW136992   4.501   1.706   8.939 -0.8867 -0.6799 -1.6652
 8453SOL    HW236993   4.415   1.750   9.050  1.5979  0.0535  0.2864
 8454SOL     OW36994   2.171   2.036  17.336 -0.5252  0.0489  1.0842
 8454SOL    HW136995   2.105   1.970  17.356  0.1349 -0.8367  0.3577
 8454SOL    HW236996   2.138   2.109  17.389 -0.7251  0.4690  0.3859
 8455SOL     OW36997   1.390   4.456   5.566 -0.5726  0.1394 -0.2452
 8455SOL    HW136998   1.339   4.377   5.549 -1.0228  0.1980  0.8108
 8455SOL    HW236999   1.366   4.484   5.655 -0.4219 -0.5393  0.0084
 8456SOL     OW37000   2.689   2.992   6.285  0.0863 -0.2857  0.1829
 8456SOL    HW137001   2.686   2.990   6.380 -3.3007  1.4281  0.1104
 8456SOL    HW237002   2.777   3.026   6.267  0.4294 -2.9527 -3.2415
 8457SOL     OW37003   2.178   1.763  12.087 -0.5442  0.3785 -0.2282
 8457SOL    HW137004   2.232   1.819  12.142  1.7151 -1.5122 -0.5085
 8457SOL    HW237005   2.127   1.715  12.153 -1.3542  0.8137 -0.5413
 8458SOL     OW37006   3.865   3.332   7.845  0.0130 -0.3786  0.1711
 8458SOL    HW137007   3.884   3.255   7.792 -0.4286 -1.4812  1.6327
 8458SOL    HW237008   3.907   3.399   7.791 -0.2019  0.3287  0.8815
 8459SOL     OW37009   4.186   3.362   5.156  0.1037  0.0957  0.1090
 8459SOL    HW137010   4.115   3.403   5.107 -1.7445 -1.9139  1.0858
 8459SOL    HW237011   4.136   3.343   5.235  0.1236  0.1743  0.1401
 8460SOL     OW37012   2.029   0.748   3.167 -0.4556  0.2515 -0.1849
 8460SOL    HW137013   1.982   0.758   3.250 -0.0610  1.2299 -0.0726
 8460SOL    HW237014   1.958   0.763   3.104 -0.8476  1.4790  0.5372
 8461SOL     OW37015   2.978   1.295  11.883  0.1933 -0.4332 -0.0351
 8461SOL    HW137016   3.050   1.313  11.822  1.5370  2.1057  2.3080
 8461SOL    HW237017   2.933   1.220  11.844 -0.3638  0.5820 -1.3136
 8462SOL     OW37018   3.445   0.068  12.476  0.8387  0.7262 -0.0520
 8462SOL    HW137019   3.421   4.718  12.505  1.2662  0.4649 -0.5042
 8462SOL    HW237020   3.380   0.127  12.514  1.1348 -1.0350  3.2446
 8463SOL     OW37021   3.928   3.945   4.175  0.2042  0.1806  0.0193
 8463SOL    HW137022   3.949   3.955   4.268  0.3545 -2.6151  0.3032
 8463SOL    HW237023   3.857   4.009   4.174  0.5846  0.6023  0.4259
 8464SOL     OW37024   1.681   0.393  10.174  0.3161  0.1950  0.6850
 8464SOL    HW137025   1.708   0.484  10.186 -1.6798  0.7753  0.8344
 8464SOL    HW237026   1.587   0.412  10.181  0.7181  1.1627  3.3471
 8465SOL     OW37027   2.272   0.215   8.041  0.2427 -0.3874 -0.0130
 8465SOL    HW137028   2.269   0.145   8.107 -2.8737 -0.8667 -0.6290
 8465SOL    HW237029   2.268   0.288   8.103  1.6951 -0.9845  0.7946
 8466SOL     OW37030   2.095   2.137   6.391 -0.0720  0.2332  0.0427
 8466SOL    HW137031   2.164   2.202   6.405 -0.2153  0.6450 -1.1104
 8466SOL    HW237032   2.127   2.056   6.430  0.6288  0.0283 -0.9411
 8467SOL     OW37033   4.677   2.307   2.053 -0.4590  0.6192  0.0120
 8467SOL    HW137034   4.643   2.262   1.976 -2.2937  2.0207 -0.0054
 8467SOL    HW237035   4.626   2.259   2.118  2.0196 -0.6899  0.9912
 8468SOL     OW37036   4.614   2.881  10.051  0.1155  0.0788 -0.0805
 8468SOL    HW137037   4.535   2.895   9.999 -0.4424  1.9900  1.2642
 8468SOL    HW237038   4.578   2.901  10.138 -0.9718 -1.1809 -0.2494
 8469SOL     OW37039   2.825   4.737   5.355 -0.2388 -0.4241  0.2339
 8469SOL    HW137040   2.907   4.688   5.356  0.4897  0.8231  1.0855
 8469SOL    HW237041   2.799   0.016   5.264  1.5833 -0.4359 -0.2875
 8470SOL     OW37042   3.466   3.375   9.981 -0.1997  0.1781  0.0428
 8470SOL    HW137043   3.417   3.432  10.041 -0.4721 -1.3541  1.2619
 8470SOL    HW237044   3.420   3.390   9.898 -1.2182 -2.1858  0.1786
 8471SOL     OW37045   2.188   3.423   6.442 -0.0619  0.5137  0.4015
 8471SOL    HW137046   2.195   3.503   6.389 -0.3470  1.0114  1.1264
 8471SOL    HW237047   2.263   3.365   6.425 -2.9489 -3.5455  1.5685
 8472SOL     OW37048   0.964   2.247  15.481 -0.0666  0.7262 -0.1812
 8472SOL    HW137049   0.884   2.290  15.452 -2.2765 -1.4606  2.6597
 8472SOL    HW237050   0.997   2.304  15.551 -0.8883  0.0890  0.7257
 8473SOL     OW37051   1.282   2.705  10.217  0.7328  0.5761  0.5932
 8473SOL    HW137052   1.266   2.752  10.136  0.2310  0.0263  0.3717
 8473SOL    HW237053   1.377   2.713  10.221  1.0150 -1.2832 -3.0410
 8474SOL     OW37054   2.333   1.055  17.081 -0.1795  0.2731 -0.8558
 8474SOL    HW137055   2.392   1.029  17.151 -2.3893  1.5616  1.4912
 8474SOL    HW237056   2.254   1.083  17.127 -0.2555 -0.1137 -0.7552
 8475SOL     OW37057   1.661   0.220   8.199  1.0267  0.1321 -0.6943
 8475SOL    HW137058   1.587   0.236   8.139  0.8373 -1.3712 -0.8515
 8475SOL    HW237059   1.712   0.162   8.143  0.6356  0.3086 -1.2401
 8476SOL     OW37060   4.615   3.238   4.251 -0.0576 -0.2650  0.0104
 8476SOL    HW137061   4.537   3.243   4.306 -1.6020 -0.2596 -2.2264
 8476SOL    HW237062   4.651   3.150   4.260  5.3266  1.8559 -0.1162
 8477SOL     OW37063   2.803   1.111   0.944  0.4824 -0.1582  0.5029
 8477SOL    HW137064   2.820   1.204   0.961 -0.5835  0.0160  0.6200
 8477SOL    HW237065   2.886   1.069   0.966  0.0893 -1.9324 -1.4431
 8478SOL     OW37066   2.735   0.317  17.348 -0.0585  0.5734  0.6815
 8478SOL    HW137067   2.681   0.238  17.363 -1.4553  0.6056 -4.1649
 8478SOL    HW237068   2.812   0.283  17.302 -0.9800  0.0523 -0.4828
 8479SOL     OW37069   3.757   0.504   8.739  0.1145 -0.6157 -0.0420
 8479SOL    HW137070   3.693   0.573   8.758  0.2554 -0.2988 -0.7044
 8479SOL    HW237071   3.716   0.447   8.673  0.7551 -0.5606 -0.4890
 8480SOL     OW37072   0.910   2.340  10.080  0.1266  0.3638 -0.8305
 8480SOL    HW137073   0.857   2.387  10.015  0.3793 -0.2379 -1.4776
 8480SOL    HW237074   0.973   2.409  10.102  0.1095 -0.3825  1.4700
 8481SOL     OW37075   2.869   1.357  11.538  0.3039  0.3596 -0.0157
 8481SOL    HW137076   2.862   1.385  11.447  1.5731  2.9797  0.6982
 8481SOL    HW237077   2.889   1.264  11.535 -0.2097  0.2325  0.4950
 8482SOL     OW37078   2.814   3.350  15.364 -0.1953 -0.0845  0.4092
 8482SOL    HW137079   2.724   3.343  15.333  0.3766  0.6269 -1.4306
 8482SOL    HW237080   2.836   3.442  15.345 -2.7947  0.8921  2.2348
 8483SOL     OW37081   1.292   3.659   7.984  0.0304 -0.1295  0.3095
 8483SOL    HW137082   1.350   3.693   7.916  0.6003 -0.0629  0.8335
 8483SOL    HW237083   1.286   3.565   7.970  3.1844 -0.5211  1.6513
 8484SOL     OW37084   2.373   1.732   7.475  0.2900 -0.5577 -0.2836
 8484SOL    HW137085   2.409   1.749   7.388 -0.8402  0.1008 -0.6264
 8484SOL    HW237086   2.324   1.649   7.472  1.7275 -1.4253  0.3917
 8485SOL     OW37087   3.574   0.645   3.402  0.3473  0.4575 -0.5596
 8485SOL    HW137088   3.665   0.651   3.373  0.2956  1.4806 -0.4913
 8485SOL    HW237089   3.533   0.611   3.322  1.2955 -0.9790 -0.4427
 8486SOL     OW37090   3.425   2.064   8.863 -0.0013  0.2092  0.1291
 8486SOL    HW137091   3.332   2.056   8.887 -0.6078  1.6021 -1.7392
 8486SOL    HW237092   3.456   2.112   8.940  0.5634 -1.3898  0.8843
 8487SOL     OW37093   3.034   4.119   6.468 -0.6244  0.1772  0.2219
 8487SOL    HW137094   3.104   4.144   6.528  0.1199 -1.2849 -0.0407
 8487SOL    HW237095   3.007   4.043   6.519  0.6779 -1.5173 -1.5728
 8488SOL     OW37096   0.567   0.879   3.966  0.6398 -0.2479 -0.4143
 8488SOL    HW137097   0.522   0.795   3.964 -0.1669  0.1600  1.6161
 8488SOL    HW237098   0.498   0.942   3.984  1.9235  1.0778 -0.1137
 8489SOL     OW37099   2.232   2.273   0.567  0.2372  0.4722 -0.3839
 8489SOL    HW137100   2.223   2.187   0.527 -0.8168 -0.6841  2.3769
 8489SOL    HW237101   2.149   2.317   0.551  0.9956  2.2273  0.4295
 8490SOL     OW37102   0.662   2.131   7.289  0.7210  0.2505 -0.1290
 8490SOL    HW137103   0.741   2.144   7.237  0.1701  1.9243 -0.5294
 8490SOL    HW237104   0.676   2.181   7.369  2.5230 -0.3856 -0.0333
 8491SOL     OW37105   2.167   4.361   2.290 -0.0108 -0.1755  0.1574
 8491SOL    HW137106   2.172   4.340   2.196 -0.9012 -3.7495  0.8975
 8491SOL    HW237107   2.174   4.269   2.316  0.4023 -0.5181 -1.1554
 8492SOL     OW37108   4.226   2.119   4.897 -0.2185  0.6689  0.7078
 8492SOL    HW137109   4.304   2.122   4.954  0.5780  1.1791 -0.3956
 8492SOL    HW237110   4.263   2.182   4.834 -0.1782 -2.8987 -2.8445
 8493SOL     OW37111   4.014   0.414   4.823  0.7881 -0.1506 -0.0564
 8493SOL    HW137112   3.967   0.468   4.887  2.6995  0.9934  0.3805
 8493SOL    HW237113   4.090   0.470   4.805  2.4272 -2.0905  0.8819
 8494SOL     OW37114   1.877   1.469   6.463 -0.1708 -0.4464  0.6327
 8494SOL    HW137115   1.786   1.498   6.467  0.2036  0.9347 -1.1279
 8494SOL    HW237116   1.877   1.418   6.544 -0.7849 -1.4158  0.0116
 8495SOL     OW37117   3.582   0.028   0.706  0.1199  0.1466  0.3065
 8495SOL    HW137118   3.536   4.697   0.659  0.0389  0.4112 -0.0067
 8495SOL    HW237119   3.672   4.732   0.710 -0.0500 -0.3851 -0.4723
 8496SOL     OW37120   1.732   3.941  16.414 -0.6446 -0.0653  0.0823
 8496SOL    HW137121   1.745   3.866  16.355 -0.7106 -1.0660  1.3558
 8496SOL    HW237122   1.818   3.946  16.454 -1.9010  1.5754  2.5584
 8497SOL     OW37123   1.980   3.447   6.850  0.0366 -0.0339  0.1872
 8497SOL    HW137124   1.978   3.464   6.756 -3.2431  0.0961  0.2586
 8497SOL    HW237125   2.045   3.377   6.852  0.2257  0.1204 -0.7115
 8498SOL     OW37126   1.327   3.922  12.407 -0.0319 -0.4957 -0.3507
 8498SOL    HW137127   1.328   3.993  12.343 -0.6482 -0.1329  0.0435
 8498SOL    HW237128   1.415   3.941  12.440  0.3888 -1.7960 -0.7116
 8499SOL     OW37129   3.399   2.753   5.128  0.0700  0.2632  0.0646
 8499SOL    HW137130   3.468   2.743   5.194 -0.6188 -2.0859  0.4166
 8499SOL    HW237131   3.327   2.699   5.161 -0.1066  0.0688 -0.6387
 8500SOL     OW37132   0.962   1.822  11.593  0.0637  0.3561  0.0044
 8500SOL    HW137133   1.038   1.765  11.601  0.6418  1.6236  3.6339
 8500SOL    HW237134   0.903   1.792  11.662  2.3467  0.4825  1.9950
 8501SOL     OW37135   2.532   2.570   4.322 -0.1711 -0.2758 -0.3584
 8501SOL    HW137136   2.444   2.568   4.360  0.1596  0.4611  0.4525
 8501SOL    HW237137   2.570   2.494   4.367  2.0878  1.4745  0.7052
 8502SOL     OW37138   2.157   3.926   7.919  0.1397 -0.3495  0.3734
 8502SOL    HW137139   2.069   3.963   7.923 -0.5705 -1.9264 -0.5834
 8502SOL    HW237140   2.158   3.906   7.825 -2.3810  0.2123  0.2308
 8503SOL     OW37141   4.372   3.669   3.235 -0.7540 -0.0857  0.0177
 8503SOL    HW137142   4.279   3.670   3.254 -0.5500  0.0597  1.0149
 8503SOL    HW237143   4.359   3.650   3.142  0.5854  1.8249 -0.5664
 8504SOL     OW37144   2.022   0.049   6.015  0.0485 -0.2272 -0.6804
 8504SOL    HW137145   2.030   0.021   5.924 -1.6929 -0.6963 -0.6930
 8504SOL    HW237146   1.937   0.009   6.034  0.3475 -0.6122 -0.1471
 8505SOL     OW37147   2.972   4.494   3.028  0.6942  0.1619  0.4530
 8505SOL    HW137148   2.904   4.547   3.069  0.8173  0.6230  0.0668
 8505SOL    HW237149   3.045   4.556   3.019  0.9511  0.1779  2.7730
 8506SOL     OW37150   3.665   0.410   1.673  0.4213  0.2118  0.4801
 8506SOL    HW137151   3.607   0.393   1.747 -0.2288  1.1768  0.1834
 8506SOL    HW237152   3.751   0.420   1.714  1.5932 -0.6287 -1.7617
 8507SOL     OW37153   2.295   4.291   5.101 -0.7523  0.1007 -0.4801
 8507SOL    HW137154   2.213   4.329   5.070 -0.5658  1.1168  0.2817
 8507SOL    HW237155   2.273   4.206   5.136 -1.3122  0.1762 -0.6550
 8508SOL     OW37156   3.324   4.535   3.015  0.0263 -0.2505  0.5752
 8508SOL    HW137157   3.249   4.591   3.037 -0.6003 -0.5598 -0.7787
 8508SOL    HW237158   3.396   4.597   3.000 -0.9087  0.7957  0.3723
 8509SOL     OW37159   3.176   1.155  12.152  0.6285  0.4517 -0.3760
 8509SOL    HW137160   3.144   1.155  12.062  0.4616 -1.7193 -0.3188
 8509SOL    HW237161   3.096   1.122  12.193  2.3770 -3.2896  0.0124
 8510SOL     OW37162   3.331   0.796  15.645  0.3855 -0.4469 -0.0306
 8510SOL    HW137163   3.255   0.760  15.690  1.1812  0.0136  1.6621
 8510SOL    HW237164   3.337   0.879  15.692  1.4737 -0.6652  0.2219
 8511SOL     OW37165   3.819   0.676   3.250  0.1243  0.4245 -0.1195
 8511SOL    HW137166   3.786   0.654   3.163 -1.3653 -0.7105  0.7217
 8511SOL    HW237167   3.914   0.670   3.240 -0.2131  0.7503 -3.3594
 8512SOL     OW37168   0.086   3.613   7.715  0.0981 -0.3525  0.0474
 8512SOL    HW137169   0.038   3.616   7.798 -2.6770 -1.7591 -1.5373
 8512SOL    HW237170   0.161   3.670   7.733  1.2179 -1.9150  0.3455
 8513SOL     OW37171   0.866   0.620   3.210 -0.7397  0.3902 -0.4792
 8513SOL    HW137172   0.908   0.541   3.176 -2.2222 -0.7698  0.3492
 8513SOL    HW237173   0.894   0.613   3.301 -0.2202 -0.7071 -0.7240
 8514SOL     OW37174   2.741   3.754   5.225  0.4868  0.2830 -0.3259
 8514SOL    HW137175   2.808   3.686   5.231  0.0523 -0.1102  0.1445
 8514SOL    HW237176   2.789   3.835   5.211  0.1914  0.7957  1.5572
 8515SOL     OW37177   1.672   3.306   4.957 -0.2979  0.0442 -0.7461
 8515SOL    HW137178   1.739   3.282   5.020 -0.3431  1.7081 -0.0740
 8515SOL    HW237179   1.653   3.219   4.920  0.7335 -1.2285  1.7299
 8516SOL     OW37180   0.824   0.071   8.212  0.3915  0.7163  0.0337
 8516SOL    HW137181   0.884   0.066   8.287  1.2652  0.8769 -0.6530
 8516SOL    HW237182   0.789   0.159   8.218  0.0179  0.7184 -2.5557
 8517SOL     OW37183   1.130   2.164   5.571 -0.0710  0.6355 -0.3896
 8517SOL    HW137184   1.125   2.249   5.527  1.2203 -0.1770 -2.1221
 8517SOL    HW237185   1.084   2.186   5.651  0.3866  2.6210 -0.6795
 8518SOL     OW37186   2.666   3.084   4.430 -0.2654 -0.0373  0.3705
 8518SOL    HW137187   2.655   3.004   4.378 -2.3540  1.5373 -1.5677
 8518SOL    HW237188   2.762   3.086   4.432 -0.2275 -3.0465  1.2604
 8519SOL     OW37189   3.719   1.518   5.372  0.1037  0.3068 -0.0081
 8519SOL    HW137190   3.732   1.433   5.414  1.3793  0.8592  0.7345
 8519SOL    HW237191   3.812   1.540   5.363  0.5544 -1.9157 -0.6464
 8520SOL     OW37192   4.293   0.186   7.531 -0.0163  0.7743 -0.4521
 8520SOL    HW137193   4.251   0.105   7.562 -0.2018  1.0849  0.1077
 8520SOL    HW237194   4.331   0.159   7.447  1.5420 -1.5244  0.9917
 8521SOL     OW37195   0.639   0.393   2.438  0.3432  0.6233  0.0559
 8521SOL    HW137196   0.668   0.470   2.488  1.6165 -0.3754  0.8500
 8521SOL    HW237197   0.599   0.335   2.502 -0.0391  2.1335  1.1780
 8522SOL     OW37198   0.009   3.158   7.200  0.2175 -0.2364 -0.1353
 8522SOL    HW137199   4.666   3.175   7.248 -1.5497 -4.1233 -1.7075
 8522SOL    HW237200   0.001   3.063   7.187  0.2021 -0.2200 -0.2395
 8523SOL     OW37201   0.385   1.351  16.277  0.4193 -0.2172  0.0307
 8523SOL    HW137202   0.322   1.422  16.267 -0.1890 -0.3162  3.0148
 8523SOL    HW237203   0.447   1.349  16.204 -1.9186 -0.2232 -1.9505
 8524SOL     OW37204   0.774   1.617   2.925  0.7777 -0.0630 -0.0643
 8524SOL    HW137205   0.782   1.703   2.885  0.4014 -0.6544 -1.4098
 8524SOL    HW237206   0.800   1.634   3.015 -1.3017  0.0227  0.5181
 8525SOL     OW37207   0.232   0.761   4.526 -0.2843  0.2758  0.2930
 8525SOL    HW137208   0.161   0.791   4.583 -0.0290 -0.5551  1.0385
 8525SOL    HW237209   0.186   0.703   4.466  0.4991 -1.9145  1.8492
 8526SOL     OW37210   0.210   3.895   6.275  0.8809  0.0674 -0.0079
 8526SOL    HW137211   0.194   3.909   6.181  2.6458  0.7858 -0.2112
 8526SOL    HW237212   0.136   3.854   6.318  0.6916 -1.2502 -1.5875
 8527SOL     OW37213   1.072   1.275   6.505 -0.4132 -0.2423 -0.0358
 8527SOL    HW137214   1.073   1.179   6.500  0.2326 -0.4814  4.5469
 8527SOL    HW237215   1.026   1.287   6.588  0.7198  1.7607  0.2892
 8528SOL     OW37216   1.054   0.420   2.857  0.3651  0.0989 -0.1206
 8528SOL    HW137217   1.136   0.372   2.843 -0.3808 -1.6406  1.5711
 8528SOL    HW237218   1.067   0.447   2.948  2.0030  1.3167 -0.7191
 8529SOL     OW37219   3.254   1.088   5.886 -0.1745  0.1018  0.0762
 8529SOL    HW137220   3.198   1.161   5.861 -2.1069 -0.9080  1.4797
 8529SOL    HW237221   3.339   1.133   5.888  0.0625 -0.5045  3.4577
 8530SOL     OW37222   3.993   0.886   8.829 -0.2034 -0.2995 -0.1407
 8530SOL    HW137223   3.993   0.791   8.824 -2.1590 -0.2228 -1.6057
 8530SOL    HW237224   3.933   0.905   8.757  0.9213 -2.5300 -1.6562
 8531SOL     OW37225   3.387   1.863   8.379  0.1445 -0.0404  0.0637
 8531SOL    HW137226   3.388   1.922   8.454 -2.7120  0.5772 -0.3734
 8531SOL    HW237227   3.474   1.866   8.337  1.1788  0.4743  2.2427
 8532SOL     OW37228   1.063   4.631   7.308  0.6653  0.0624 -0.4026
 8532SOL    HW137229   1.091   4.722   7.320  2.5139 -0.7604  1.6409
 8532SOL    HW237230   0.972   4.636   7.338  0.2353  0.4992 -1.8025
 8533SOL     OW37231   1.839   3.747  15.351 -0.2459  0.3761  0.1032
 8533SOL    HW137232   1.816   3.746  15.443 -1.0083  4.0990 -0.0525
 8533SOL    HW237233   1.840   3.653  15.335  0.3598  0.1495  1.5161
 8534SOL     OW37234   1.388   4.020   6.637  0.8094 -0.1139  0.3048
 8534SOL    HW137235   1.296   3.997   6.653  0.5422 -0.5537 -1.8943
 8534SOL    HW237236   1.425   4.046   6.722  1.0370 -0.8235  0.4244
 8535SOL     OW37237   3.081   0.902   3.607 -0.1169 -0.2286 -0.4095
 8535SOL    HW137238   3.107   0.973   3.666 -0.8711  0.4049 -0.8327
 8535SOL    HW237239   2.999   0.866   3.640 -1.0229  1.6181 -0.6299
 8536SOL     OW37240   4.381   1.968  13.396 -0.0340  0.4122  0.6192
 8536SOL    HW137241   4.410   1.934  13.481 -0.4228  1.2806  1.0902
 8536SOL    HW237242   4.322   2.039  13.421  0.4134  0.1760  2.3392
 8537SOL     OW37243   1.320   1.934   4.921  0.7601  0.1217  0.0684
 8537SOL    HW137244   1.403   1.889   4.907 -0.9544 -2.4802 -1.7762
 8537SOL    HW237245   1.274   1.859   4.960  1.3355  0.7393  1.9266
 8538SOL     OW37246   1.979   1.013   1.223 -0.5218 -0.1734 -0.1963
 8538SOL    HW137247   2.055   1.021   1.280 -0.8130 -2.3068  0.4888
 8538SOL    HW237248   1.976   0.919   1.202 -1.3052 -0.3699  0.8002
 8539SOL     OW37249   1.608   4.245   4.400  0.2245  0.1453 -0.3163
 8539SOL    HW137250   1.513   4.260   4.400  0.3137  0.8461  3.1290
 8539SOL    HW237251   1.634   4.316   4.459  1.3046 -1.9779  1.7694
 8540SOL     OW37252   0.769   2.511   4.185  0.4397 -0.5154 -0.1487
 8540SOL    HW137253   0.829   2.502   4.110 -0.0890 -2.9153 -0.2893
 8540SOL    HW237254   0.816   2.495   4.267  0.2356 -0.8017 -0.0877
 8541SOL     OW37255   2.178   3.423   8.369 -0.0220  0.2958  0.0880
 8541SOL    HW137256   2.251   3.387   8.420 -1.0445 -1.9584 -0.0213
 8541SOL    HW237257   2.129   3.342   8.352  0.7634 -0.4099  1.1963
 8542SOL     OW37258   2.024   0.357   4.492  0.4256  0.3498  0.2010
 8542SOL    HW137259   2.023   0.276   4.440  4.1347  0.0112  0.6264
 8542SOL    HW237260   1.946   0.344   4.545  0.1920 -0.6545 -0.3840
 8543SOL     OW37261   0.183   3.425   1.926  0.1625 -0.3072  0.5309
 8543SOL    HW137262   0.134   3.437   1.845  1.3319  1.5398  0.1045
 8543SOL    HW237263   0.150   3.335   1.936  3.6659 -1.7243 -0.5101
 8544SOL     OW37264   0.183   2.673  12.690  0.0634 -0.4135 -0.5744
 8544SOL    HW137265   0.159   2.589  12.730 -1.4248  0.4878  0.4072
 8544SOL    HW237266   0.228   2.647  12.610  0.8045  0.4672 -0.4485
 8545SOL     OW37267   3.008   0.806   2.295  0.0560 -0.7022 -0.1753
 8545SOL    HW137268   2.948   0.739   2.262  0.5216 -0.2396 -1.9418
 8545SOL    HW237269   3.026   0.767   2.381 -0.8344 -2.3311 -0.7339
 8546SOL     OW37270   2.056   3.634   8.790  0.5499 -0.3811 -0.0021
 8546SOL    HW137271   2.145   3.609   8.816  0.8254  0.4674 -0.1146
 8546SOL    HW237272   2.067   3.667   8.701  1.6835  0.8978  0.6042
 8547SOL     OW37273   1.166   1.248   1.727 -0.2434 -0.9171 -0.3209
 8547SOL    HW137274   1.142   1.330   1.684  2.4031 -0.6510 -1.2995
 8547SOL    HW237275   1.128   1.192   1.660 -1.9589  0.9921 -0.9359
 8548SOL     OW37276   1.452   2.201  10.450  0.3573 -0.1038  0.0217
 8548SOL    HW137277   1.469   2.220  10.543  2.1956  0.2377 -0.3878
 8548SOL    HW237278   1.509   2.124  10.444  1.6426  0.7534  1.0196
 8549SOL     OW37279   1.923   1.345   7.726  0.1495 -0.1160  0.1626
 8549SOL    HW137280   1.901   1.310   7.812  2.7153 -1.0071  0.4585
 8549SOL    HW237281   1.850   1.307   7.678  0.1494 -0.8448  0.7447
 8550SOL     OW37282   0.932   4.305   3.955  0.1153 -0.5848  0.3307
 8550SOL    HW137283   0.913   4.356   3.877  2.3202 -1.2460 -0.6396
 8550SOL    HW237284   0.959   4.372   4.018  0.1059  0.3809 -0.7124
 8551SOL     OW37285   2.331   0.827   4.544 -0.0958 -0.1090 -0.4274
 8551SOL    HW137286   2.424   0.839   4.528 -0.2939  0.5598 -1.0988
 8551SOL    HW237287   2.317   0.741   4.504  0.7408 -0.2835 -0.3340
 8552SOL     OW37288   3.434   4.613   7.088 -0.2546 -0.8377 -0.2390
 8552SOL    HW137289   3.496   4.643   7.022  0.9136 -1.2045  0.6856
 8552SOL    HW237290   3.390   4.694   7.112  2.0020  0.5232 -0.7496
 8553SOL     OW37291   1.056   4.222  15.214 -0.3612  0.2017  0.1808
 8553SOL    HW137292   1.011   4.174  15.284  1.4428 -1.1467  0.4355
 8553SOL    HW237293   1.141   4.242  15.253 -1.1432 -0.8949  2.5026
 8554SOL     OW37294   4.172   1.916   0.724  0.0197 -0.5683 -0.0261
 8554SOL    HW137295   4.141   1.958   0.805 -1.2040 -0.8238 -0.3653
 8554SOL    HW237296   4.223   1.843   0.761  0.8590 -0.3256 -0.7060
 8555SOL     OW37297   4.617   2.281   2.604  0.0598 -0.5338 -0.6646
 8555SOL    HW137298   4.595   2.300   2.513 -2.6381 -0.2972  0.0522
 8555SOL    HW237299   4.642   2.369   2.632  1.1667 -0.7456 -0.9861
 8556SOL     OW37300   1.808   3.784   8.632 -0.6448  0.1762 -0.0172
 8556SOL    HW137301   1.832   3.849   8.566  0.7606 -1.0524 -0.7177
 8556SOL    HW237302   1.871   3.717   8.603 -0.3985  0.1625  0.5648
 8557SOL     OW37303   4.587   4.197   3.629 -0.4428 -0.0820 -0.0859
 8557SOL    HW137304   4.509   4.211   3.684 -0.3095 -2.9367  0.8205
 8557SOL    HW237305   4.559   4.138   3.560  0.4386  1.9823 -2.2101
 8558SOL     OW37306   0.268   4.355  16.136  0.0288  0.3272 -0.0256
 8558SOL    HW137307   0.274   4.451  16.140  0.0458  0.3635 -0.8755
 8558SOL    HW237308   0.332   4.319  16.196  0.8438  0.1965 -0.9688
 8559SOL     OW37309   3.193   1.918   9.851  0.7574 -0.0105  0.3692
 8559SOL    HW137310   3.213   1.985   9.785  0.4216 -0.2506  0.0228
 8559SOL    HW237311   3.142   1.968   9.915  0.5269  0.2093  0.0180
 8560SOL     OW37312   2.418   1.619  17.144  0.6452  0.4430  0.5241
 8560SOL    HW137313   2.424   1.691  17.207 -0.2055  1.0371 -0.0872
 8560SOL    HW237314   2.492   1.629  17.084  0.0046  0.9129 -0.1891
 8561SOL     OW37315   2.950   0.969  13.669 -0.1540 -0.1390  0.1044
 8561SOL    HW137316   2.867   0.930  13.696 -0.7897  0.4465 -0.9862
 8561SOL    HW237317   2.940   1.055  13.710  1.8417 -0.4073  1.1675
 8562SOL     OW37318   0.943   3.970   2.571 -0.7747  0.0381 -0.6628
 8562SOL    HW137319   0.924   3.887   2.614 -0.8726 -0.3833 -1.5422
 8562SOL    HW237320   0.899   3.951   2.489 -0.6394  1.9793 -1.1828
 8563SOL     OW37321   0.393   3.480  17.595  0.7479  0.1596  0.0536
 8563SOL    HW137322   0.336   3.513  17.664  0.9580 -0.3297  0.4582
 8563SOL    HW237323   0.362   3.525  17.516  0.4535  0.0564  0.1085
 8564SOL     OW37324   2.845   1.404  16.583  0.1557  0.3565  0.4207
 8564SOL    HW137325   2.872   1.354  16.659 -1.6689 -0.6305  0.4283
 8564SOL    HW237326   2.757   1.427  16.613 -0.4731 -0.9253 -0.4753
 8565SOL     OW37327   3.232   3.538  10.428 -0.2667  0.0867 -0.1574
 8565SOL    HW137328   3.270   3.452  10.446  0.3464  1.1155  3.4741
 8565SOL    HW237329   3.139   3.521  10.442 -0.4410  0.5732 -0.7041
 8566SOL     OW37330   3.126   4.071   0.060  0.1273 -0.4360  0.6247
 8566SOL    HW137331   3.099   4.139   0.122 -0.2298  0.4789 -0.5225
 8566SOL    HW237332   3.181   4.128   0.006  2.4339 -0.6373  2.7653
 8567SOL     OW37333   1.366   1.375  14.927 -0.0584 -0.3454 -0.3700
 8567SOL    HW137334   1.429   1.347  14.993 -0.6377  1.0126  0.7593
 8567SOL    HW237335   1.289   1.352  14.979  0.3280  0.8404  0.7415
 8568SOL     OW37336   3.726   3.629   5.667  0.1799  0.3418 -0.3889
 8568SOL    HW137337   3.664   3.697   5.692  0.7460  1.3398 -1.6756
 8568SOL    HW237338   3.792   3.633   5.736  1.3211 -1.1709 -1.3721
 8569SOL     OW37339   0.189   2.842   3.375 -0.5014  0.2907 -0.1060
 8569SOL    HW137340   0.142   2.770   3.333  0.1486  0.6586 -1.4560
 8569SOL    HW237341   0.278   2.808   3.365 -0.3321  0.0090  2.3080
 8570SOL     OW37342   3.864   2.325   9.134  0.0600 -0.1597  0.6180
 8570SOL    HW137343   3.918   2.397   9.102  0.5335 -1.0108 -0.5288
 8570SOL    HW237344   3.861   2.355   9.225  2.2354  0.6748  0.4180
 8571SOL     OW37345   2.105   2.580   4.554 -0.3576 -0.1283 -0.1608
 8571SOL    HW137346   2.175   2.644   4.568 -0.8164  0.7130 -1.6551
 8571SOL    HW237347   2.114   2.567   4.459  0.3764  0.9172 -0.2391
 8572SOL     OW37348   3.089   1.938   7.083  0.0367  0.4292  0.2772
 8572SOL    HW137349   3.139   1.941   7.001  2.4877  1.1331  1.8020
 8572SOL    HW237350   3.156   1.933   7.151  0.5131  0.3683 -0.1936
 8573SOL     OW37351   0.946   1.355   4.416 -0.1185 -0.2044 -0.9332
 8573SOL    HW137352   0.914   1.375   4.329  0.7563  1.0739 -0.9627
 8573SOL    HW237353   0.924   1.432   4.469  0.3891 -1.3481  0.9444
 8574SOL     OW37354   2.981   1.135   0.404  0.2887  0.2562 -0.3666
 8574SOL    HW137355   3.032   1.149   0.484 -1.5947 -0.2294  0.9216
 8574SOL    HW237356   3.029   1.063   0.363  2.1795  0.3517  1.6700
 8575SOL     OW37357   1.068   1.138  11.476 -0.3162  0.0047 -0.0974
 8575SOL    HW137358   1.070   1.062  11.534 -0.7112 -0.4952 -0.7363
 8575SOL    HW237359   1.076   1.096  11.391  1.1959  1.3338 -0.6094
 8576SOL     OW37360   2.191   1.373   7.610  0.3474 -0.7960 -0.2080
 8576SOL    HW137361   2.174   1.453   7.561  0.4689  0.0546  1.1752
 8576SOL    HW237362   2.104   1.354   7.644 -0.4179 -0.5471 -2.0118
 8577SOL     OW37363   3.446   2.559  11.436 -0.0856  0.0736  0.9385
 8577SOL    HW137364   3.472   2.627  11.497  1.6308  1.0235 -0.8275
 8577SOL    HW237365   3.390   2.609  11.377 -0.0246  0.4010  1.1590
 8578SOL     OW37366   4.266   2.152   1.366 -0.2137  0.2216 -0.5393
 8578SOL    HW137367   4.325   2.077   1.360 -0.2102  0.2175 -0.4438
 8578SOL    HW237368   4.186   2.103   1.388  1.4611 -1.8670  0.8396
 8579SOL     OW37369   1.748   2.994   4.180 -0.0926 -0.2927 -0.5089
 8579SOL    HW137370   1.795   3.064   4.226 -0.0471 -0.6738  0.0128
 8579SOL    HW237371   1.795   2.921   4.220 -1.1275  1.0723  3.1946
 8580SOL     OW37372   3.801   3.032   4.872 -0.3690 -0.0528  0.0818
 8580SOL    HW137373   3.794   2.937   4.882 -1.2214 -0.0375 -0.4540
 8580SOL    HW237374   3.842   3.058   4.955  1.9065 -0.5348 -0.8843
 8581SOL     OW37375   3.578   1.987   3.084  0.4383 -0.2508 -0.1463
 8581SOL    HW137376   3.502   2.012   3.032 -0.7054 -1.7770  0.8008
 8581SOL    HW237377   3.550   2.017   3.171  1.0182  4.5239 -1.6175
 8582SOL     OW37378   3.267   1.628   3.335  0.1231  0.5930 -0.4097
 8582SOL    HW137379   3.232   1.589   3.255 -1.0831  0.2669  0.2911
 8582SOL    HW237380   3.351   1.582   3.345 -0.2310  0.1182  0.3071
 8583SOL     OW37381   1.497   4.037   6.115 -0.2774  0.6684 -0.0733
 8583SOL    HW137382   1.438   4.079   6.053  2.2597  0.7778 -2.4153
 8583SOL    HW237383   1.534   4.108   6.168 -1.0222 -0.0014  1.3440
 8584SOL     OW37384   3.851   0.846   4.931 -0.2388  0.7627  0.0553
 8584SOL    HW137385   3.805   0.900   4.867  2.3872  0.8295 -1.7343
 8584SOL    HW237386   3.875   0.908   5.000  0.0246 -0.9012  1.4492
 8585SOL     OW37387   1.307   2.457   9.667  0.3085  0.0707 -0.1646
 8585SOL    HW137388   1.254   2.430   9.592  1.9956  0.5429 -1.5190
 8585SOL    HW237389   1.249   2.527   9.698 -1.4901 -1.8924  0.8891
 8586SOL     OW37390   1.900   0.490   7.587  0.4246  0.4924  0.3800
 8586SOL    HW137391   1.897   0.403   7.547 -2.4608 -0.1934  2.0834
 8586SOL    HW237392   1.806   0.500   7.604  0.6908  1.2255  1.4145
 8587SOL     OW37393   2.626   0.129   3.527  0.1935 -0.2930  0.2230
 8587SOL    HW137394   2.681   0.095   3.457  0.1371 -0.7928  0.4195
 8587SOL    HW237395   2.539   0.093   3.507 -0.0084  0.7895 -0.8592
 8588SOL     OW37396   3.424   3.638  11.383  0.2960  0.2318 -0.0067
 8588SOL    HW137397   3.496   3.598  11.432  0.6543 -1.8170 -2.2189
 8588SOL    HW237398   3.457   3.728  11.390  0.1396  0.2850  0.0466
 8589SOL     OW37399   1.977   3.134   7.464 -0.0324  0.0522  0.5273
 8589SOL    HW137400   1.969   3.227   7.445 -0.3936  0.0479  0.6678
 8589SOL    HW237401   2.025   3.131   7.547  0.0868 -2.3800  0.3967
 8590SOL     OW37402   1.487   2.833  11.176  0.1760  0.1494 -0.3898
 8590SOL    HW137403   1.555   2.796  11.119  0.5245  0.1571  0.0201
 8590SOL    HW237404   1.410   2.788  11.142 -0.1759 -0.4511  1.2097
 8591SOL     OW37405   1.252   1.637   6.033  1.1858 -0.4418  0.5722
 8591SOL    HW137406   1.329   1.586   6.059  0.8182 -2.0852 -1.6564
 8591SOL    HW237407   1.293   1.723   6.025  0.7550 -0.2383  0.5388
 8592SOL     OW37408   1.700   1.104  11.270 -0.8697 -0.3466  0.0870
 8592SOL    HW137409   1.617   1.123  11.225  0.2964  1.6354 -1.2137
 8592SOL    HW237410   1.717   1.190  11.308 -1.5451 -1.2030  2.3263
 8593SOL     OW37411   1.037   0.647   1.303 -0.6077 -0.4918 -0.0132
 8593SOL    HW137412   0.942   0.642   1.312 -0.4585 -0.9926  1.3121
 8593SOL    HW237413   1.055   0.711   1.372  0.7667 -0.5093 -0.3484
 8594SOL     OW37414   3.228   4.162   5.296  0.3359 -0.0897 -0.0442
 8594SOL    HW137415   3.266   4.101   5.232 -1.6736 -1.0824 -0.2870
 8594SOL    HW237416   3.171   4.097   5.338  0.4576 -0.0525  0.1789
 8595SOL     OW37417   4.234   1.657  11.831  0.3877 -0.2083 -0.7947
 8595SOL    HW137418   4.140   1.671  11.841  0.2604 -0.8769 -1.0201
 8595SOL    HW237419   4.274   1.705  11.904 -0.2340 -3.8752  1.9684
 8596SOL     OW37420   1.346   4.346   8.676  0.2700 -0.1184 -0.3704
 8596SOL    HW137421   1.405   4.382   8.609  0.7121 -0.1612 -0.0068
 8596SOL    HW237422   1.366   4.253   8.666  1.0416  0.0104 -0.0439
 8597SOL     OW37423   0.873   3.057   4.294 -0.1291 -0.0395  0.3276
 8597SOL    HW137424   0.953   3.069   4.345 -1.8116  2.2425  2.4468
 8597SOL    HW237425   0.805   3.095   4.351 -0.6552  1.1105 -1.0764
 8598SOL     OW37426   3.896   3.719   5.870 -0.3348  0.2202 -0.3448
 8598SOL    HW137427   3.870   3.808   5.848  1.6327  0.5235 -1.4802
 8598SOL    HW237428   3.964   3.734   5.936 -1.5772  0.1161  0.9738
 8599SOL     OW37429   1.070   2.644  11.626 -0.0476  0.2900 -0.5059
 8599SOL    HW137430   1.100   2.600  11.546 -1.9841 -1.7599 -0.0866
 8599SOL    HW237431   1.128   2.720  11.618 -0.2841  0.3914 -1.3292
 8600SOL     OW37432   4.294   4.221   5.181 -0.3162 -0.4038 -0.0818
 8600SOL    HW137433   4.303   4.316   5.171  0.5186 -0.3236  1.4798
 8600SOL    HW237434   4.232   4.197   5.112 -0.8348  0.7627 -0.0285
 8601SOL     OW37435   0.681   2.535   7.238 -0.2647  0.5457  0.1633
 8601SOL    HW137436   0.743   2.489   7.294 -0.4504  1.1825  0.8982
 8601SOL    HW237437   0.700   2.628   7.249  0.7489  0.4509 -0.8387
 8602SOL     OW37438   0.830   2.346   6.309 -0.3971  0.4236  0.0552
 8602SOL    HW137439   0.835   2.275   6.373 -1.2486  1.2946  1.0944
 8602SOL    HW237440   0.870   2.415   6.361 -0.6212  0.6977 -0.1385
 8603SOL     OW37441   0.889   2.762   2.941 -0.0304  0.6967  0.4816
 8603SOL    HW137442   0.950   2.820   2.986 -0.5925  1.1393  0.6679
 8603SOL    HW237443   0.861   2.820   2.870 -0.4673  0.7188  0.6696
 8604SOL     OW37444   2.385   4.508   2.248  0.0462  0.0622  0.1906
 8604SOL    HW137445   2.301   4.463   2.257  0.1232 -0.3655 -1.3943
 8604SOL    HW237446   2.441   4.445   2.204  0.5826 -2.2354  4.1424
 8605SOL     OW37447   1.291   1.289  11.444  0.0490 -0.3110  0.2899
 8605SOL    HW137448   1.206   1.245  11.451 -1.0375  1.5507 -1.2572
 8605SOL    HW237449   1.337   1.228  11.502  1.0060  0.4792  0.3578
 8606SOL     OW37450   0.615   3.958   3.951 -0.2876  0.0108 -0.6054
 8606SOL    HW137451   0.567   3.888   3.997 -0.3487 -0.8170 -1.9137
 8606SOL    HW237452   0.641   3.905   3.876 -2.3856  0.5223 -1.6919
 8607SOL     OW37453   1.280   4.062   3.246  0.3524  0.0862 -0.2618
 8607SOL    HW137454   1.221   4.070   3.321  0.0147 -1.4086 -0.3756
 8607SOL    HW237455   1.217   4.004   3.204 -0.3136  1.1408 -0.7261
 8608SOL     OW37456   2.748   4.313  12.627 -0.3302  0.0419 -0.4208
 8608SOL    HW137457   2.798   4.313  12.708  0.9616 -0.3594 -1.2240
 8608SOL    HW237458   2.670   4.365  12.651 -0.4872 -1.6519  2.6733
 8609SOL     OW37459   0.186   1.011   9.299  0.1541 -0.0591  0.8612
 8609SOL    HW137460   0.209   1.104   9.288  1.3314 -0.0127  3.6878
 8609SOL    HW237461   0.100   1.013   9.340 -1.5102 -1.2179 -2.6269
 8610SOL     OW37462   1.373   2.378  10.873  0.1394 -0.0260  0.2800
 8610SOL    HW137463   1.294   2.394  10.924 -1.4888 -0.9722 -1.9553
 8610SOL    HW237464   1.334   2.396  10.788  0.5287 -0.1406  0.0776
 8611SOL     OW37465   0.604   3.433   4.685  0.3155  0.4207  0.3905
 8611SOL    HW137466   0.547   3.408   4.612  1.7382 -2.0130  0.1077
 8611SOL    HW237467   0.543   3.420   4.758  1.6246 -1.5227  1.1305
 8612SOL     OW37468   0.177   2.688   5.748  0.1677 -0.0743  0.6299
 8612SOL    HW137469   0.261   2.678   5.793  0.3570 -0.3243  0.2244
 8612SOL    HW237470   0.190   2.736   5.666 -0.7789 -1.7438 -0.4878
 8613SOL     OW37471   1.912   0.517   1.612 -0.6066  0.5545 -0.3307
 8613SOL    HW137472   1.971   0.561   1.552  1.4837  0.7334  1.8333
 8613SOL    HW237473   1.898   0.438   1.560 -0.2286 -0.1256  0.5988
 8614SOL     OW37474   3.296   2.269   7.965  0.3259  0.1265 -0.4674
 8614SOL    HW137475   3.386   2.237   7.967  0.5874  0.8654 -0.5240
 8614SOL    HW237476   3.251   2.195   7.923  3.2080 -2.0513  0.2615
 8615SOL     OW37477   4.580   4.319   4.183  0.1107  0.1317 -0.4753
 8615SOL    HW137478   4.504   4.274   4.146  0.0330  0.2060 -0.4043
 8615SOL    HW237479   4.542   4.396   4.223 -0.6603 -0.5713  0.1512
 8616SOL     OW37480   4.038   1.615   3.576 -0.1533 -0.0408  0.0797
 8616SOL    HW137481   4.052   1.623   3.482  1.3121  3.2639  0.5708
 8616SOL    HW237482   4.042   1.520   3.586  0.5080 -0.1113 -0.9042
 8617SOL     OW37483   2.668   0.088   1.786 -0.2377 -0.8879  0.5780
 8617SOL    HW137484   2.760   0.078   1.760 -0.7626  0.6122 -1.8362
 8617SOL    HW237485   2.683   0.062   1.877 -2.0819  1.5381  1.5547
 8618SOL     OW37486   4.179   3.725   1.924  0.4374  0.2068 -0.7984
 8618SOL    HW137487   4.170   3.801   1.981 -0.8656  2.5113 -4.0486
 8618SOL    HW237488   4.165   3.646   1.976  0.5315 -1.0640 -2.7037
 8619SOL     OW37489   4.420   2.090   4.565  0.0342 -0.1985  0.5672
 8619SOL    HW137490   4.463   2.027   4.622  1.1859  1.6229  1.7085
 8619SOL    HW237491   4.399   2.162   4.625 -2.0553  0.8620 -1.4374
 8620SOL     OW37492   4.158   2.437  11.567  0.8123  0.1757  0.0328
 8620SOL    HW137493   4.097   2.363  11.571 -0.5695  1.3110  0.0016
 8620SOL    HW237494   4.140   2.477  11.482 -2.5700  0.7287  1.0183
 8621SOL     OW37495   0.520   3.207  17.210  0.0326  0.1116  0.4858
 8621SOL    HW137496   0.491   3.200  17.301 -0.6669  0.7717  0.3233
 8621SOL    HW237497   0.523   3.303  17.203 -1.4913  0.1661  0.5827
 8622SOL     OW37498   1.970   1.157   1.935 -0.1853 -0.0889 -0.2197
 8622SOL    HW137499   1.981   1.110   2.018 -1.1605  0.6559  0.3248
 8622SOL    HW237500   1.938   1.090   1.874 -2.1625  0.2037  0.5009
 8623SOL     OW37501   0.640   3.525   3.971  0.0794 -0.1005  0.3293
 8623SOL    HW137502   0.711   3.505   3.910  0.2689 -1.2058  0.9203
 8623SOL    HW237503   0.629   3.439   4.011 -0.9593  0.2066  0.6961
 8624SOL     OW37504   3.898   3.066   5.116  0.5686 -0.2261  0.4926
 8624SOL    HW137505   3.993   3.074   5.123  0.7550 -0.5341 -1.8083
 8624SOL    HW237506   3.878   3.009   5.191  0.6237 -0.4173  0.3621
 8625SOL     OW37507   4.223   0.266   3.827 -0.3319  0.8176  0.1110
 8625SOL    HW137508   4.165   0.247   3.753  0.7951 -1.6500 -0.1319
 8625SOL    HW237509   4.211   0.195   3.890 -0.6176 -0.5206 -1.4320
 8626SOL     OW37510   1.116   2.748   8.424 -0.2170 -0.1107  0.1979
 8626SOL    HW137511   1.041   2.775   8.477 -0.4100  0.0125 -0.1372
 8626SOL    HW237512   1.181   2.746   8.494 -2.2281 -3.7178  1.9433
 8627SOL     OW37513   0.034   3.147   4.641  0.2824  0.1945 -0.1326
 8627SOL    HW137514   4.700   3.085   4.655 -0.4597  1.4276  1.4435
 8627SOL    HW237515   0.107   3.085   4.641  1.3298  1.4373  1.6149
 8628SOL     OW37516   4.522   3.907   3.620  0.5330 -0.8491  0.8915
 8628SOL    HW137517   4.534   3.911   3.525  0.8631  1.3204  1.0148
 8628SOL    HW237518   4.612   3.909   3.653 -0.1579  0.4432  2.6869
 8629SOL     OW37519   0.906   3.283   6.980 -0.3094 -0.4244 -0.2623
 8629SOL    HW137520   0.948   3.220   7.037 -0.2697 -1.0640 -1.0012
 8629SOL    HW237521   0.813   3.262   6.983 -0.0437 -1.5410  0.0643
 8630SOL     OW37522   1.404   4.574   4.549  0.4978 -0.0539 -0.0528
 8630SOL    HW137523   1.438   4.663   4.538 -2.5965  0.8496 -2.2648
 8630SOL    HW237524   1.376   4.571   4.640  0.1264 -1.3018 -0.2097
 8631SOL     OW37525   1.244   3.479   1.222  0.1394 -0.8757  0.2169
 8631SOL    HW137526   1.169   3.539   1.212 -0.4896 -2.0475 -2.0929
 8631SOL    HW237527   1.242   3.434   1.137 -0.1257 -0.0200 -0.2272
 8632SOL     OW37528   3.846   3.617   9.709 -0.3848  0.1547  0.2504
 8632SOL    HW137529   3.897   3.694   9.735 -1.7037  1.0032  0.3267
 8632SOL    HW237530   3.781   3.622   9.779  0.0474  0.6157  0.6156
 8633SOL     OW37531   2.594   1.235   4.568 -0.3007 -0.1595  0.2615
 8633SOL    HW137532   2.600   1.329   4.551  0.8779  0.1443  2.3677
 8633SOL    HW237533   2.524   1.215   4.506 -0.9567  1.6409  0.4210
 8634SOL     OW37534   2.119   1.922   5.402 -0.0715  0.0202  0.1350
 8634SOL    HW137535   2.190   1.884   5.453  1.0134  0.3068 -1.1394
 8634SOL    HW237536   2.110   2.008   5.444  2.2848  0.5607 -0.4552
 8635SOL     OW37537   2.598   4.729   2.650  0.0853 -0.0462  0.0909
 8635SOL    HW137538   2.640   4.643   2.644  0.1413 -0.1882  2.8702
 8635SOL    HW237539   2.512   4.715   2.611  0.2485 -1.1137  0.0967
 8636SOL     OW37540   2.158   1.287  12.754  0.2856  0.4357 -0.3092
 8636SOL    HW137541   2.156   1.350  12.682 -4.1664 -1.2935 -1.7395
 8636SOL    HW237542   2.138   1.349  12.823 -0.7715  2.2019 -2.1920
 8637SOL     OW37543   2.211   1.978   3.377  0.2414 -0.1014 -0.0509
 8637SOL    HW137544   2.292   1.946   3.337  0.4579  0.6742 -0.2247
 8637SOL    HW237545   2.161   1.992   3.297  1.5430  0.6033 -0.7387
 8638SOL     OW37546   0.793   4.380   7.055 -0.0267  0.2195  0.1322
 8638SOL    HW137547   0.877   4.427   7.051  0.3653 -0.5130 -0.1688
 8638SOL    HW237548   0.766   4.406   7.143 -1.2308  0.3577 -0.2828
 8639SOL     OW37549   3.787   3.589   1.860  0.2877 -0.7983 -0.1366
 8639SOL    HW137550   3.714   3.626   1.811  0.5116 -0.6073 -0.3291
 8639SOL    HW237551   3.866   3.620   1.815  0.6243 -1.8605 -0.2926
 8640SOL     OW37552   0.206   1.429  17.268  0.0063  0.0281  0.7693
 8640SOL    HW137553   0.125   1.455  17.312 -0.8569 -0.0071 -0.8095
 8640SOL    HW237554   0.247   1.512  17.243  0.4971 -1.4023 -3.1507
 8641SOL     OW37555   2.121   2.391   3.467  0.1015 -0.4259  0.8798
 8641SOL    HW137556   2.141   2.447   3.392 -2.0965 -3.2350 -1.8212
 8641SOL    HW237557   2.137   2.447   3.543 -0.6661 -1.4415  1.7766
 8642SOL     OW37558   2.111   1.887   4.125 -0.4170 -0.4800 -0.3149
 8642SOL    HW137559   2.178   1.955   4.127 -0.2580 -0.6253 -0.7669
 8642SOL    HW237560   2.053   1.915   4.054  0.6477 -0.6623 -1.2597
 8643SOL     OW37561   1.021   0.814  12.966 -0.1746  0.2561  0.5278
 8643SOL    HW137562   1.049   0.811  12.874  0.6334  1.1828  0.7465
 8643SOL    HW237563   1.076   0.746  13.003 -1.2508 -2.1022 -2.2024
 8644SOL     OW37564   1.490   1.696  17.096 -0.1641  0.4240  0.0605
 8644SOL    HW137565   1.556   1.630  17.074 -0.1426  0.4229  0.1296
 8644SOL    HW237566   1.501   1.738  17.011  0.3380 -0.8552 -0.5116
 8645SOL     OW37567   1.803   4.371  15.462  0.6293  0.2757  0.3609
 8645SOL    HW137568   1.737   4.417  15.513 -0.2434 -0.3455 -0.2237
 8645SOL    HW237569   1.875   4.434  15.475  1.3043 -0.6896  1.3307
 8646SOL     OW37570   1.863   0.497  12.454  0.2771 -0.5503  0.1583
 8646SOL    HW137571   1.851   0.532  12.366 -0.2961 -0.6426  0.1969
 8646SOL    HW237572   1.905   0.567  12.503  1.4237 -1.3977  0.4020
 8647SOL     OW37573   3.568   0.146   7.883  0.1784 -0.1261  0.2668
 8647SOL    HW137574   3.651   0.153   7.931  0.3537 -0.7380  0.0481
 8647SOL    HW237575   3.531   0.066   7.919  2.0688 -1.5518 -1.0018
 8648SOL     OW37576   1.122   3.166   5.505 -0.5867  0.4460  0.2653
 8648SOL    HW137577   1.166   3.249   5.486 -0.2908 -0.4174 -2.8071
 8648SOL    HW237578   1.198   3.108   5.506 -0.6882  0.2919 -0.7097
 8649SOL     OW37579   4.002   0.010   0.987  0.4950  0.5105 -0.0302
 8649SOL    HW137580   4.025   0.063   1.064  1.8657  0.2659 -0.2656
 8649SOL    HW237581   4.018   0.068   0.913 -2.1972  1.1576 -0.1013
 8650SOL     OW37582   2.928   3.210   6.548 -0.4334  0.1160  1.0018
 8650SOL    HW137583   3.010   3.250   6.578  0.5501 -0.2570 -1.2087
 8650SOL    HW237584   2.961   3.131   6.506 -1.4628  1.1343 -1.7410
 8651SOL     OW37585   0.224   3.756   3.317  0.2717  0.1592 -0.3489
 8651SOL    HW137586   0.132   3.728   3.316  0.0510  0.8500  1.0555
 8651SOL    HW237587   0.250   3.742   3.407  1.5333 -3.6880 -1.3245
 8652SOL     OW37588   0.246   2.911  10.886  0.2870 -0.2038 -0.0455
 8652SOL    HW137589   0.280   2.852  10.953  0.4028  0.0945  0.1588
 8652SOL    HW237590   0.220   2.986  10.939 -0.2320  0.7944 -1.6961
 8653SOL     OW37591   2.065   2.756   3.973 -0.5650 -0.0245 -0.5480
 8653SOL    HW137592   2.019   2.699   3.912  0.3262 -1.3032 -0.0322
 8653SOL    HW237593   2.138   2.704   4.009  1.3370  2.2599 -1.0604
 8654SOL     OW37594   0.318   0.806   1.954  0.2107  0.3444  0.2192
 8654SOL    HW137595   0.327   0.712   1.970 -1.6310 -0.4074 -3.0343
 8654SOL    HW237596   0.329   0.803   1.859  1.8121 -1.9313  0.4621
 8655SOL     OW37597   1.653   2.149   1.027 -0.1578 -0.2704  0.1596
 8655SOL    HW137598   1.619   2.185   0.945 -0.9974  0.1227  0.6727
 8655SOL    HW237599   1.674   2.061   0.997  1.1931  0.0090  0.2998
 8656SOL     OW37600   1.719   0.949   8.191 -0.2749  0.2746  0.2847
 8656SOL    HW137601   1.693   0.963   8.100 -0.4011  1.8166  0.5631
 8656SOL    HW237602   1.673   0.867   8.207  2.0816 -1.1452 -0.0816
 8657SOL     OW37603   3.552   2.839   4.071 -0.7450 -0.0502 -0.1488
 8657SOL    HW137604   3.564   2.840   3.976  2.9228  1.8718  0.3371
 8657SOL    HW237605   3.503   2.757   4.081  0.9739 -0.9897  0.6628
 8658SOL     OW37606   2.390   1.457   0.295 -0.6663  0.5927 -0.3684
 8658SOL    HW137607   2.432   1.457   0.209  0.6918 -0.6161  0.2857
 8658SOL    HW237608   2.332   1.382   0.299  1.2201 -1.0270 -3.1609
 8659SOL     OW37609   0.127   1.259   7.082 -0.1834  0.4413  0.2034
 8659SOL    HW137610   0.072   1.318   7.134  1.3415  1.1597  1.0199
 8659SOL    HW237611   0.208   1.307   7.095  0.3146 -0.3269 -0.0521
 8660SOL     OW37612   1.973   3.877   7.635 -0.2968  0.3486  0.4901
 8660SOL    HW137613   1.977   3.787   7.666 -2.5550 -0.4419 -1.5491
 8660SOL    HW237614   2.065   3.893   7.612 -0.7325 -0.3699 -1.7716
 8661SOL     OW37615   2.911   0.039   4.168 -0.4167  0.4815 -0.3301
 8661SOL    HW137616   2.872   0.017   4.083  2.3802 -3.4108 -0.5979
 8661SOL    HW237617   2.996   4.734   4.167 -0.7056 -0.0628 -1.4492
 8662SOL     OW37618   0.032   0.441   1.985  0.0702  0.2947  0.3437
 8662SOL    HW137619   0.051   0.422   2.077  1.8093 -0.7722 -0.2362
 8662SOL    HW237620   4.719   0.522   1.984 -1.1416 -0.4868  0.2217
 8663SOL     OW37621   1.776   2.327   2.290 -0.9344 -0.2457  0.6689
 8663SOL    HW137622   1.781   2.262   2.361  0.7881 -1.4232 -0.5373
 8663SOL    HW237623   1.870   2.336   2.273 -1.0418 -1.4830 -0.5741
 8664SOL     OW37624   3.790   0.578   8.411 -0.4894 -0.0726 -0.9277
 8664SOL    HW137625   3.713   0.554   8.462  0.3461 -0.6730  0.0667
 8664SOL    HW237626   3.750   0.620   8.335  0.3475  2.0282 -0.1982
 8665SOL     OW37627   2.846   0.621   0.307  0.3621  0.0703 -0.2664
 8665SOL    HW137628   2.871   0.713   0.297  2.0837 -0.4179 -0.4365
 8665SOL    HW237629   2.789   0.608   0.231 -1.3713  0.2551  1.0137
 8666SOL     OW37630   1.954   0.712   6.135  0.2301  0.5395 -0.3394
 8666SOL    HW137631   1.977   0.688   6.045 -2.7920  1.4464 -1.3342
 8666SOL    HW237632   2.038   0.699   6.180  2.2989  0.4437 -4.2509
 8667SOL     OW37633   0.325   2.557   9.364  0.2940 -0.4938  0.1498
 8667SOL    HW137634   0.390   2.613   9.406 -1.2780  0.9670  0.6612
 8667SOL    HW237635   0.246   2.597   9.401  1.1154  1.0964  0.1581
 8668SOL     OW37636   4.227   1.569   4.886 -0.6308  0.4155  0.3746
 8668SOL    HW137637   4.139   1.547   4.857  0.2110 -0.1570 -1.6901
 8668SOL    HW237638   4.227   1.663   4.866 -1.6611  0.2304 -0.4703
 8669SOL     OW37639   1.045   4.371   7.324 -0.4195 -0.4046 -0.6634
 8669SOL    HW137640   1.057   4.307   7.254 -1.6013  1.1577 -2.2973
 8669SOL    HW237641   1.058   4.461   7.292  1.5334 -0.6265 -0.4406
 8670SOL     OW37642   3.626   4.560   5.732 -0.1736 -0.0017 -0.2819
 8670SOL    HW137643   3.623   4.464   5.740  0.9470 -0.1165 -1.2588
 8670SOL    HW237644   3.697   4.585   5.673  2.1465 -0.9268  2.0682
 8671SOL     OW37645   3.891   0.295  12.918 -0.2975  0.2755 -1.0503
 8671SOL    HW137646   3.841   0.248  12.984  1.8478 -2.5883 -1.4554
 8671SOL    HW237647   3.819   0.338  12.872 -0.2263  1.9056  0.3514
 8672SOL     OW37648   0.196   1.739   6.912 -0.6534  0.3539 -0.0847
 8672SOL    HW137649   0.138   1.664   6.927 -0.7739  0.2561 -1.0411
 8672SOL    HW237650   0.171   1.741   6.820 -2.5703  2.4905  0.4838
 8673SOL     OW37651   3.948   4.636   8.997 -0.1582 -0.1214  0.8601
 8673SOL    HW137652   3.978   4.548   9.020 -1.2672 -0.6172  0.4515
 8673SOL    HW237653   4.026   4.691   8.997  0.0701 -0.4358  3.1830
 8674SOL     OW37654   1.872   2.593  13.943 -0.0882 -0.2924  0.5591
 8674SOL    HW137655   1.792   2.632  13.979 -0.0684 -1.5145  1.8962
 8674SOL    HW237656   1.836   2.508  13.917  1.3859 -0.7676  0.0618
 8675SOL     OW37657   1.037   2.377   4.573 -0.4911 -0.0486 -0.1027
 8675SOL    HW137658   1.023   2.282   4.566 -2.5647  0.0427  2.7598
 8675SOL    HW237659   1.112   2.377   4.632 -1.6548  1.9974  1.3773
 8676SOL     OW37660   3.211   3.907   8.624 -0.0858 -0.1707  0.7415
 8676SOL    HW137661   3.145   3.970   8.653  0.7294  0.9140  0.2278
 8676SOL    HW237662   3.283   3.954   8.583  0.4925 -2.0717 -0.4092
 8677SOL     OW37663   3.313   4.289  16.567 -0.8032 -0.1840 -0.2346
 8677SOL    HW137664   3.392   4.342  16.563 -0.5858 -0.4685  0.4459
 8677SOL    HW237665   3.303   4.265  16.659 -0.6980 -0.2440 -0.2388
 8678SOL     OW37666   4.505   4.250   9.897  0.0018  0.6247 -0.3749
 8678SOL    HW137667   4.560   4.320   9.933  0.3294  1.1323 -1.8254
 8678SOL    HW237668   4.443   4.232   9.967 -0.2565  2.5243 -0.1279
 8679SOL     OW37669   1.694   2.274   3.840  0.3588 -0.0101  0.2976
 8679SOL    HW137670   1.744   2.351   3.865  0.1759  0.2694 -0.2024
 8679SOL    HW237671   1.696   2.227   3.924  1.1600 -1.1919 -0.3918
 8680SOL     OW37672   4.578   1.316   0.665 -0.1721 -0.1633 -0.4875
 8680SOL    HW137673   4.638   1.388   0.683 -0.2900 -0.4907  1.2287
 8680SOL    HW237674   4.532   1.303   0.748  0.1643 -1.8231 -0.5581
 8681SOL     OW37675   3.429   1.227  12.281  0.0472  0.8031  0.1342
 8681SOL    HW137676   3.395   1.151  12.328  0.8480  0.0755 -0.4658
 8681SOL    HW237677   3.367   1.232  12.208 -1.4542 -2.8441  1.1626
 8682SOL     OW37678   2.373   1.772   8.296  0.6643 -0.3036  0.2114
 8682SOL    HW137679   2.409   1.827   8.227 -0.4215 -0.0477 -0.1574
 8682SOL    HW237680   2.386   1.684   8.260 -1.6539 -1.0604  1.1860
 8683SOL     OW37681   2.405   2.004   8.091  0.0947  0.0508  0.0256
 8683SOL    HW137682   2.314   1.994   8.120 -0.2946  1.7269 -0.6256
 8683SOL    HW237683   2.427   2.093   8.117 -2.7661  1.3015 -1.8879
 8684SOL     OW37684   1.691   2.035   0.497  0.0148 -0.1735  0.7262
 8684SOL    HW137685   1.628   2.045   0.426  0.1264 -0.3580  0.6037
 8684SOL    HW237686   1.677   1.945   0.524  0.0997 -0.3750  0.0995
 8685SOL     OW37687   1.905   0.499  15.555 -0.8117 -0.3644  0.1738
 8685SOL    HW137688   1.838   0.566  15.571 -0.2929 -0.0506  1.0594
 8685SOL    HW237689   1.884   0.480  15.463 -4.0034  1.9300  0.4209
 8686SOL     OW37690   0.254   2.956   8.773  0.1234 -0.0210 -0.2425
 8686SOL    HW137691   0.272   2.866   8.748  0.9822  0.3835 -1.0869
 8686SOL    HW237692   0.166   2.944   8.808  0.5559 -0.7654  0.5836
 8687SOL     OW37693   3.929   2.326  16.197  0.3361  0.2049  0.2731
 8687SOL    HW137694   3.943   2.268  16.271 -0.4523 -1.5423 -0.9292
 8687SOL    HW237695   3.964   2.259  16.138  1.4508  0.7193  0.3673
 8688SOL     OW37696   4.092   0.925   4.724  0.4210  0.1333  0.1600
 8688SOL    HW137697   4.052   0.958   4.643 -2.0032 -0.7998  0.9748
 8688SOL    HW237698   4.028   0.862   4.758 -0.7853 -0.5019 -3.2693
 8689SOL     OW37699   0.754   2.372   7.442 -0.3146  0.5539  0.2613
 8689SOL    HW137700   0.771   2.318   7.519  0.8639 -1.4839 -1.4301
 8689SOL    HW237701   0.756   2.458   7.485  2.0845  0.1768  0.9293
 8690SOL     OW37702   2.539   0.649   2.163 -0.2346  0.1314 -0.5515
 8690SOL    HW137703   2.536   0.666   2.257 -0.1852 -0.9520 -0.3473
 8690SOL    HW237704   2.451   0.677   2.136 -0.3643  0.4079  0.1515
 8691SOL     OW37705   2.697   0.543   0.098 -0.4811 -0.0742 -0.4372
 8691SOL    HW137706   2.706   0.523   0.005  0.3915 -2.3019  0.1316
 8691SOL    HW237707   2.662   0.466   0.143  0.2259  0.1880  0.5649
 8692SOL     OW37708   1.766   2.284  10.901 -0.3160 -0.0451 -0.1173
 8692SOL    HW137709   1.743   2.207  10.953 -1.4607  1.5393  1.7419
 8692SOL    HW237710   1.833   2.317  10.961  0.4713  0.4320 -1.2641
 8693SOL     OW37711   0.785   2.145   6.530 -0.1460  0.2734  0.0436
 8693SOL    HW137712   0.694   2.119   6.545 -0.5977  0.8279 -1.7734
 8693SOL    HW237713   0.794   2.218   6.591 -2.2428  1.2061 -0.7480
 8694SOL     OW37714   1.314   1.729   7.976  0.7906  0.1286  0.0812
 8694SOL    HW137715   1.239   1.781   7.946 -0.6023 -1.8409  0.1562
 8694SOL    HW237716   1.365   1.798   8.018 -0.2805  0.8254  0.2488
 8695SOL     OW37717   0.459   0.199   6.790 -0.0884  0.1397 -0.1769
 8695SOL    HW137718   0.544   0.184   6.749  0.4798  2.4149  0.2099
 8695SOL    HW237719   0.476   0.290   6.815 -1.3543  0.9554 -2.3026
 8696SOL     OW37720   0.471   2.421  11.120  0.3007 -0.1229 -0.7813
 8696SOL    HW137721   0.556   2.444  11.084  0.2492  0.5894 -0.4656
 8696SOL    HW237722   0.446   2.359  11.052  0.6643 -1.3266  0.1937
 8697SOL     OW37723   1.299   4.306   6.346 -0.1453 -0.0431 -0.0429
 8697SOL    HW137724   1.370   4.246   6.371 -0.5353  0.4071  2.1383
 8697SOL    HW237725   1.256   4.318   6.431 -0.5415 -3.8783  0.2884
 8698SOL     OW37726   4.235   3.893   3.581  0.4425  0.3717 -0.1615
 8698SOL    HW137727   4.185   3.903   3.662 -0.0386  1.0260 -0.5381
 8698SOL    HW237728   4.322   3.892   3.620  0.9326  0.0610 -1.2538
 8699SOL     OW37729   4.330   4.582   6.899  0.3853 -0.3822  0.2937
 8699SOL    HW137730   4.350   4.661   6.948 -0.5805 -0.7956  1.3567
 8699SOL    HW237731   4.376   4.514   6.948  0.8750 -0.8286 -0.7763
 8700SOL     OW37732   2.657   0.543   6.881  0.0896  0.0824 -0.2996
 8700SOL    HW137733   2.636   0.626   6.922  1.7208  0.4946 -0.3056
 8700SOL    HW237734   2.600   0.549   6.804  1.1046 -5.2554 -1.5148
 8701SOL     OW37735   0.919   1.888   5.815 -0.4986  0.2605 -0.1826
 8701SOL    HW137736   1.011   1.886   5.791 -0.5397  0.5390 -0.3571
 8701SOL    HW237737   0.917   1.810   5.871  1.9700 -0.0967 -0.6199
 8702SOL     OW37738   1.748   2.870   8.552  0.0300 -0.3931  0.3980
 8702SOL    HW137739   1.731   2.923   8.629 -0.0038  1.6686 -1.0361
 8702SOL    HW237740   1.807   2.805   8.590  0.2514  0.8141  2.1378
 8703SOL     OW37741   1.889   3.521   6.098 -0.0936  0.3253 -0.3963
 8703SOL    HW137742   1.855   3.571   6.024 -2.7268  0.4226  0.8756
 8703SOL    HW237743   1.857   3.433   6.077  3.1528 -0.9235 -0.0128
 8704SOL     OW37744   2.834   2.061  10.555  0.3216 -0.4173  0.6772
 8704SOL    HW137745   2.877   1.976  10.552  2.4137  0.6397  0.2065
 8704SOL    HW237746   2.762   2.039  10.614 -0.0395  0.8642  0.7223
 8705SOL     OW37747   0.502   4.238   8.288 -0.4971  0.2603  0.0847
 8705SOL    HW137748   0.571   4.251   8.224 -0.8723 -2.3060 -0.8679
 8705SOL    HW237749   0.555   4.212   8.363  2.9452  1.9300 -1.7669
 8706SOL     OW37750   3.014   1.569  10.178  0.1853 -0.7948 -0.6387
 8706SOL    HW137751   3.050   1.611  10.100 -1.0101  1.0834 -0.1700
 8706SOL    HW237752   2.926   1.603  10.191  0.1931 -1.0636  0.1721
 8707SOL     OW37753   1.402   1.250   2.794  1.1375  0.4354 -0.2734
 8707SOL    HW137754   1.468   1.239   2.862  0.6115 -1.3454 -0.0496
 8707SOL    HW237755   1.403   1.346   2.804  0.1622  0.4275 -0.0678
 8708SOL     OW37756   2.133   4.011   6.273  0.1268 -0.2203  0.4083
 8708SOL    HW137757   2.169   4.020   6.361  0.1104 -2.7630  0.6729
 8708SOL    HW237758   2.212   4.041   6.228 -0.6326  1.7715  0.3938
 8709SOL     OW37759   3.978   0.968   3.341 -0.2293 -0.0935  0.3971
 8709SOL    HW137760   3.893   0.944   3.377 -0.4923  1.8123  1.0197
 8709SOL    HW237761   3.944   1.019   3.268  0.4948  0.6739  0.5895
 8710SOL     OW37762   3.935   1.307   8.278  0.2073  0.1574  0.1619
 8710SOL    HW137763   3.907   1.240   8.339  3.5795  0.6889  2.2748
 8710SOL    HW237764   4.024   1.326   8.307 -0.1578  0.1422  1.2937
 8711SOL     OW37765   2.459   2.312   7.585 -0.3658  0.2161 -0.3602
 8711SOL    HW137766   2.511   2.382   7.545 -1.6074  0.6692 -1.1681
 8711SOL    HW237767   2.376   2.311   7.538  0.4442 -0.2138 -1.7738
 8712SOL     OW37768   4.189   0.587  16.476  0.0010  0.2297 -0.1711
 8712SOL    HW137769   4.259   0.639  16.517  0.4180 -0.3491 -0.1551
 8712SOL    HW237770   4.220   0.560  16.390 -2.5990 -0.3599 -0.9139
 8713SOL     OW37771   0.397   2.893   3.783 -0.0141  0.2411 -0.0907
 8713SOL    HW137772   0.478   2.856   3.817 -0.0724  1.3396  1.2598
 8713SOL    HW237773   0.426   2.955   3.716 -2.2843  0.2289 -1.0921
 8714SOL     OW37774   1.401   2.722   2.497 -0.1200  0.2228  0.4423
 8714SOL    HW137775   1.428   2.785   2.564  1.3917  0.8176 -0.7234
 8714SOL    HW237776   1.438   2.645   2.540 -1.6188 -1.1998 -0.7919
 8715SOL     OW37777   1.392   3.755  16.438 -0.0589 -0.2617 -0.2900
 8715SOL    HW137778   1.318   3.789  16.386 -0.4872 -0.9675 -0.1403
 8715SOL    HW237779   1.435   3.701  16.372 -1.1076 -0.7706 -0.5523
 8716SOL     OW37780   0.795   1.982   3.865  0.3190  0.5450  0.2334
 8716SOL    HW137781   0.732   1.916   3.895  1.7218 -1.8736 -2.2543
 8716SOL    HW237782   0.875   1.947   3.904  0.9160  0.6513 -0.9016
 8717SOL     OW37783   1.601   3.279  13.439 -0.1770  0.4592 -1.2394
 8717SOL    HW137784   1.629   3.289  13.349  0.3337  2.1718 -0.8966
 8717SOL    HW237785   1.552   3.199  13.426  1.7026 -0.9341  0.1839
 8718SOL     OW37786   2.251   4.040   3.424 -0.3371  0.0876  0.1733
 8718SOL    HW137787   2.311   4.081   3.486  0.5915  1.5355 -1.6875
 8718SOL    HW237788   2.256   4.103   3.351 -0.7719 -1.3210 -1.0607
 8719SOL     OW37789   2.782   3.796   7.602 -0.2043  0.0942 -0.4387
 8719SOL    HW137790   2.827   3.713   7.590 -1.6098 -0.4382 -1.8891
 8719SOL    HW237791   2.726   3.770   7.676 -0.5972  2.1457 -0.0108
 8720SOL     OW37792   0.592   3.190   2.460  0.5698 -0.2616 -0.1216
 8720SOL    HW137793   0.582   3.282   2.437  1.6093  0.3673  1.8981
 8720SOL    HW237794   0.643   3.201   2.540 -1.3899  1.2165  0.9165
 8721SOL     OW37795   3.137   2.547   6.544  0.3196  0.0911 -0.0508
 8721SOL    HW137796   3.210   2.583   6.494  0.0437  1.3853  0.4802
 8721SOL    HW237797   3.168   2.485   6.611 -0.3994  1.2208  1.3333
 8722SOL     OW37798   2.422   0.733   8.302  0.4416 -0.2831  0.2758
 8722SOL    HW137799   2.330   0.725   8.277 -0.0463  1.2691  1.6094
 8722SOL    HW237800   2.414   0.796   8.374  0.9412 -0.0807  0.1557
 8723SOL     OW37801   2.301   2.173   4.735  0.0657  0.1149 -0.4131
 8723SOL    HW137802   2.294   2.094   4.788  0.7445 -0.6730 -1.4885
 8723SOL    HW237803   2.393   2.167   4.708 -0.6254  1.1761 -3.0040
 8724SOL     OW37804   0.589   2.409   9.303 -0.2159  0.0635 -0.1574
 8724SOL    HW137805   0.618   2.373   9.387  0.3569 -1.1953 -0.8817
 8724SOL    HW237806   0.494   2.408   9.309 -0.2398  0.3013 -0.5064
 8725SOL     OW37807   1.424   3.307   8.211 -0.0243  0.0426  0.0157
 8725SOL    HW137808   1.430   3.295   8.306 -0.5192 -1.4812 -0.1372
 8725SOL    HW237809   1.333   3.287   8.189 -0.7798  2.6315  0.7912
 8726SOL     OW37810   2.386   3.638   7.792  0.5170  0.5539 -0.0180
 8726SOL    HW137811   2.404   3.544   7.804  1.1241  0.5530 -0.9287
 8726SOL    HW237812   2.328   3.645   7.868  0.6053  0.1623  0.0864
 8727SOL     OW37813   3.743   4.571   4.446 -0.6254  0.2717 -0.1809
 8727SOL    HW137814   3.659   4.592   4.487 -1.5275  0.4202 -2.0881
 8727SOL    HW237815   3.767   4.648   4.393 -3.2348  0.6190 -0.8498
 8728SOL     OW37816   1.424   0.273   5.875 -0.0010 -0.0724 -0.0585
 8728SOL    HW137817   1.476   0.221   5.813  0.0806  0.5837 -0.5489
 8728SOL    HW237818   1.353   0.311   5.823  0.8290  2.3175  0.5050
 8729SOL     OW37819   2.824   3.647   4.380  0.6025  0.1982  0.7863
 8729SOL    HW137820   2.832   3.565   4.332  2.0656 -1.0561  3.1751
 8729SOL    HW237821   2.739   3.673   4.344  0.5142 -0.5907  0.4364
 8730SOL     OW37822   3.966   2.182   0.294 -0.2617  0.3722  0.2646
 8730SOL    HW137823   3.905   2.111   0.275  1.2141 -0.3440 -1.7831
 8730SOL    HW237824   3.916   2.253   0.334 -1.7510 -0.0998 -0.7724
 8731SOL     OW37825   1.478   3.179   9.580  0.2822  0.1478 -0.6286
 8731SOL    HW137826   1.507   3.249   9.639  1.3077 -0.0173 -0.9480
 8731SOL    HW237827   1.513   3.102   9.625  1.4581  0.7716 -0.4925
 8732SOL     OW37828   1.504   2.440   8.075  0.4673 -0.3444  0.6118
 8732SOL    HW137829   1.578   2.382   8.094  0.9451 -0.3193 -1.1670
 8732SOL    HW237830   1.497   2.485   8.160 -1.0162 -2.6386  1.7175
 8733SOL     OW37831   3.077   0.431   4.645  0.0256  0.1885 -0.4178
 8733SOL    HW137832   3.000   0.404   4.696  1.2106 -3.3813 -0.5522
 8733SOL    HW237833   3.095   0.363   4.581 -0.5061  1.4599 -1.9143
 8734SOL     OW37834   1.545   1.817  16.871  0.1166 -0.4882  0.4327
 8734SOL    HW137835   1.588   1.895  16.906 -0.4292  0.2726 -0.5612
 8734SOL    HW237836   1.614   1.788  16.811  1.5376 -0.7070  2.1882
 8735SOL     OW37837   1.004   3.348   4.441  0.3927  0.3809  0.3599
 8735SOL    HW137838   0.994   3.266   4.488  0.6566  1.0694  1.6185
 8735SOL    HW237839   1.099   3.346   4.426  0.3040 -3.8308  0.4719
 8736SOL     OW37840   4.353   0.370  15.484  0.3412  0.0758  0.1538
 8736SOL    HW137841   4.282   0.312  15.510 -0.5306 -0.6148 -3.6945
 8736SOL    HW237842   4.323   0.401  15.398 -1.1497  0.6614  0.8868
 8737SOL     OW37843   3.201   1.664   5.257 -0.3519 -0.0186 -0.1293
 8737SOL    HW137844   3.196   1.599   5.187 -1.0609  1.7164 -1.6866
 8737SOL    HW237845   3.260   1.623   5.320  1.7125  0.5472 -1.6964
 8738SOL     OW37846   1.568   3.151  11.367  0.0642  0.2773 -0.3857
 8738SOL    HW137847   1.565   3.128  11.274  1.0477  0.5409 -0.4804
 8738SOL    HW237848   1.603   3.067  11.398 -0.9136 -0.3077 -0.8629
 8739SOL     OW37849   1.404   1.339   6.628 -0.1312 -0.3561  0.0679
 8739SOL    HW137850   1.405   1.421   6.578  0.7023 -0.9689 -0.9120
 8739SOL    HW237851   1.355   1.360   6.708  0.1676  2.5001 -0.4845
 8740SOL     OW37852   3.792   4.625   5.106 -0.1657 -0.2211  0.1958
 8740SOL    HW137853   3.865   4.636   5.168  1.1400 -0.5895 -1.2782
 8740SOL    HW237854   3.809   4.699   5.048  0.5405 -1.1418 -0.7692
 8741SOL     OW37855   4.306   4.106   7.972 -0.0245 -0.3724  0.2091
 8741SOL    HW137856   4.256   4.184   7.996 -0.9424 -0.9440  0.1501
 8741SOL    HW237857   4.384   4.117   8.027  1.1419  0.1561 -1.5342
 8742SOL     OW37858   2.975   0.762   0.608 -0.0703  0.3703  0.2863
 8742SOL    HW137859   3.052   0.817   0.592 -1.0323  0.8230 -2.7362
 8742SOL    HW237860   2.967   0.775   0.702 -1.3649  1.5305  0.0122
 8743SOL     OW37861   3.420   0.296   5.008 -1.2741 -0.0095 -0.2892
 8743SOL    HW137862   3.433   0.202   4.998  0.3279  0.2011 -0.2757
 8743SOL    HW237863   3.432   0.286   5.102 -3.0442  3.7965  0.3438
 8744SOL     OW37864   0.893   0.581   7.410  0.1832  0.1476 -0.0328
 8744SOL    HW137865   0.982   0.546   7.410  0.0542 -0.1839 -1.3634
 8744SOL    HW237866   0.897   0.664   7.361  0.3607  0.8762  1.2114
 8745SOL     OW37867   2.748   0.307   5.070  0.3068 -0.5171  0.1451
 8745SOL    HW137868   2.727   0.214   5.070 -0.2093 -0.4006  1.4444
 8745SOL    HW237869   2.783   0.325   5.157 -1.5322 -1.4904  1.0832
 8746SOL     OW37870   2.191   3.244   3.814  0.2584  0.3984  0.3976
 8746SOL    HW137871   2.111   3.277   3.856  0.1066  2.1540 -1.3137
 8746SOL    HW237872   2.226   3.179   3.875  0.0887 -0.9242 -0.9173
 8747SOL     OW37873   2.439   4.276   4.863  0.1104  0.3589 -0.2403
 8747SOL    HW137874   2.394   4.245   4.941  0.9564  2.2271  1.0008
 8747SOL    HW237875   2.378   4.334   4.817 -1.6234 -0.2959  1.2199
 8748SOL     OW37876   3.124   0.703   2.956 -0.4728  0.5586 -0.1366
 8748SOL    HW137877   3.069   0.641   2.909  0.7130  0.3781 -1.2954
 8748SOL    HW237878   3.092   0.689   3.045  1.2967 -0.7083  0.3144
 8749SOL     OW37879   0.130   0.476   6.908 -0.3805  0.2837  0.0196
 8749SOL    HW137880   0.131   0.532   6.986  0.6176 -1.2551  1.1098
 8749SOL    HW237881   0.111   0.548   6.848  0.5612  1.0540  0.6536
 8750SOL     OW37882   3.180   0.797   4.778 -0.2227 -0.1972 -0.0488
 8750SOL    HW137883   3.172   0.740   4.702 -3.0750 -1.3233  1.1252
 8750SOL    HW237884   3.091   0.832   4.775 -0.6170 -1.3663 -2.2640
 8751SOL     OW37885   4.487   0.623   1.054 -0.1919 -0.4737  0.6332
 8751SOL    HW137886   4.426   0.553   1.076  0.3708 -1.3097 -0.4657
 8751SOL    HW237887   4.484   0.626   0.958 -2.0819 -1.5189  0.6556
 8752SOL     OW37888   3.402   4.206   7.261  0.1772 -0.0128 -0.2140
 8752SOL    HW137889   3.307   4.207   7.261  0.1636 -2.0365  0.2605
 8752SOL    HW237890   3.426   4.125   7.306 -2.1620 -1.2122 -1.1558
 8753SOL     OW37891   0.397   4.179   1.557 -0.0483 -0.0608  0.2793
 8753SOL    HW137892   0.396   4.252   1.618  3.3739  0.3062 -0.0928
 8753SOL    HW237893   0.470   4.211   1.504 -0.2693  0.4136  0.2726
 8754SOL     OW37894   1.670   1.952   9.160  0.5226  0.1129  0.4214
 8754SOL    HW137895   1.721   1.897   9.219  2.4516  0.0857 -1.2971
 8754SOL    HW237896   1.586   1.934   9.203  0.1009  0.7920 -0.1247
 8755SOL     OW37897   2.272   2.155   1.191  0.0463  0.4929  0.2676
 8755SOL    HW137898   2.260   2.141   1.285  1.2336  0.2519  0.3809
 8755SOL    HW237899   2.215   2.231   1.179 -1.2644 -0.8056 -1.7230
 8756SOL     OW37900   0.689   3.425  17.180 -0.4144 -0.7400 -0.2258
 8756SOL    HW137901   0.744   3.432  17.259 -1.7497 -3.3116  0.9431
 8756SOL    HW237902   0.702   3.515  17.151  0.0807 -0.2627  1.4642
 8757SOL     OW37903   0.022   3.553   3.126  0.2534 -0.2352  0.2052
 8757SOL    HW137904   0.099   3.510   3.164  0.7270  0.2835 -0.1869
 8757SOL    HW237905   4.701   3.557   3.201 -1.0739  0.4416 -0.8762
 8758SOL     OW37906   3.485   1.972   8.622  0.3305  0.5950 -0.2066
 8758SOL    HW137907   3.441   2.052   8.592  0.7438  0.6438 -0.6857
 8758SOL    HW237908   3.446   1.986   8.708  0.5194 -1.6155  0.2204
 8759SOL     OW37909   3.691   0.753   9.876  0.5373  0.3392  0.0247
 8759SOL    HW137910   3.676   0.824   9.938  0.1520 -0.4882  0.8802
 8759SOL    HW237911   3.786   0.764   9.872  0.4564  0.8717 -0.3594
 8760SOL     OW37912   2.447   0.567   0.331  0.2088  0.7960 -0.7878
 8760SOL    HW137913   2.360   0.543   0.362  0.4533  0.6696 -0.1887
 8760SOL    HW237914   2.464   0.514   0.253 -2.4108 -0.2332 -0.6380
 8761SOL     OW37915   4.046   0.793   0.419  0.0641  0.0231  0.2070
 8761SOL    HW137916   4.043   0.737   0.341  0.4633 -0.1360  0.3028
 8761SOL    HW237917   3.956   0.823   0.411  0.9502  3.2997  2.7024
 8762SOL     OW37918   2.896   3.231   3.774 -0.3104 -0.2362  0.5296
 8762SOL    HW137919   2.980   3.192   3.751 -0.3935 -0.9680  1.4445
 8762SOL    HW237920   2.852   3.158   3.819  2.6118 -2.2739  0.0257
 8763SOL     OW37921   3.179   3.117   6.102 -0.8247 -0.0238  0.2536
 8763SOL    HW137922   3.185   3.208   6.073  0.1537 -1.0004 -2.5918
 8763SOL    HW237923   3.238   3.078   6.038 -2.3843 -2.5428  0.3344
 8764SOL     OW37924   4.443   1.143   7.591  0.3900 -0.0999  0.1165
 8764SOL    HW137925   4.448   1.048   7.587  0.6481 -0.1036  0.5365
 8764SOL    HW237926   4.508   1.164   7.524 -0.7182 -1.1744 -1.2801
 8765SOL     OW37927   3.376   4.244   5.785  0.7235  0.0988  0.2871
 8765SOL    HW137928   3.308   4.300   5.823 -0.4636 -0.5355 -0.8994
 8765SOL    HW237929   3.363   4.248   5.690  0.3030 -1.8415  0.2576
 8766SOL     OW37930   2.001   3.958   2.789 -0.0107 -0.1282 -0.2482
 8766SOL    HW137931   1.952   3.886   2.828 -1.0207  0.7976  0.1823
 8766SOL    HW237932   1.985   3.933   2.698  0.2032 -0.6758 -0.1354
 8767SOL     OW37933   4.160   3.153   3.945  0.6684 -0.4336 -0.5168
 8767SOL    HW137934   4.243   3.160   3.991 -0.1902  1.7113  0.6730
 8767SOL    HW237935   4.181   3.093   3.873 -0.3266 -1.4125  0.0126
 8768SOL     OW37936   1.632   4.249  17.183  0.2467  0.0644  0.2299
 8768SOL    HW137937   1.577   4.236  17.106  0.2552 -1.2286  0.4459
 8768SOL    HW237938   1.565   4.270  17.247 -0.7743  0.5165 -0.9820
 8769SOL     OW37939   2.475   0.886   4.843  0.5532  0.2576  0.3413
 8769SOL    HW137940   2.401   0.911   4.787  2.4736  4.1761 -0.4599
 8769SOL    HW237941   2.465   0.962   4.900  1.4169  1.3867 -0.9987
 8770SOL     OW37942   4.287   4.618   9.405  0.0417 -0.4429  0.5826
 8770SOL    HW137943   4.225   4.561   9.450  0.5263 -0.5454  1.1183
 8770SOL    HW237944   4.237   4.672   9.343 -0.1128 -0.8283  0.3647
 8771SOL     OW37945   2.523   3.168   3.806  0.3215  0.3853 -0.2799
 8771SOL    HW137946   2.615   3.147   3.788 -0.1836 -1.8926 -0.2087
 8771SOL    HW237947   2.523   3.182   3.901 -0.2813 -2.6219  0.1473
 8772SOL     OW37948   1.567   1.253   1.621 -0.7721 -0.1244  0.9069
 8772SOL    HW137949   1.623   1.330   1.632 -0.2563 -0.1549 -1.4703
 8772SOL    HW237950   1.624   1.185   1.584  2.0184  0.5472  3.8883
 8773SOL     OW37951   0.326   3.944   3.764 -0.3115  0.3454  0.3338
 8773SOL    HW137952   0.264   3.991   3.821  3.2616  0.7357  3.8447
 8773SOL    HW237953   0.346   4.018   3.707  2.2370 -0.7835 -0.2364
 8774SOL     OW37954   3.473   1.343   8.165 -0.2404  0.7687 -0.5859
 8774SOL    HW137955   3.477   1.439   8.160  0.1578  0.8678  1.6527
 8774SOL    HW237956   3.514   1.332   8.250 -2.0696 -0.9393  0.0656
 8775SOL     OW37957   4.544   3.708  14.065  0.3605  0.1640  0.3544
 8775SOL    HW137958   4.593   3.650  14.007 -2.6435  0.3441 -2.3401
 8775SOL    HW237959   4.507   3.638  14.119  2.6940 -0.5725  1.0044
 8776SOL     OW37960   1.272   4.328  14.402 -0.2365 -0.0178  0.0199
 8776SOL    HW137961   1.234   4.240  14.408 -1.5240  0.3891 -2.0429
 8776SOL    HW237962   1.337   4.329  14.332  0.2094  2.1921  0.4661
 8777SOL     OW37963   2.933   3.884   2.416 -0.2256  0.5533 -0.4051
 8777SOL    HW137964   2.929   3.854   2.326  0.6562 -5.5302  1.5824
 8777SOL    HW237965   3.023   3.915   2.423  0.0060 -0.0323 -0.8415
 8778SOL     OW37966   4.578   4.042   4.871  0.1817  0.1453 -0.2551
 8778SOL    HW137967   4.585   3.968   4.812  0.4650  0.3932 -0.5323
 8778SOL    HW237968   4.520   4.005   4.938  0.1609 -2.5207 -1.7659
 8779SOL     OW37969   1.202   2.482   2.425 -0.0081  0.0720 -0.4190
 8779SOL    HW137970   1.226   2.537   2.500  0.3250 -2.1022  1.0806
 8779SOL    HW237971   1.120   2.442   2.454 -0.8812  1.6975 -0.6780
 8780SOL     OW37972   4.673   0.894   0.932 -0.1087 -0.2601  0.5391
 8780SOL    HW137973   0.027   0.911   0.948 -0.2001  0.0492  0.7566
 8780SOL    HW237974   4.627   0.902   1.016 -3.3230 -2.0558 -1.0273
 8781SOL     OW37975   3.872   3.301   6.069 -0.6214 -0.0690 -0.5618
 8781SOL    HW137976   3.957   3.336   6.041 -0.8224  0.8721  0.0251
 8781SOL    HW237977   3.839   3.387   6.095 -1.3704  0.0476 -1.9254
 8782SOL     OW37978   0.638   3.684   6.394 -0.0343  0.0870 -0.2634
 8782SOL    HW137979   0.721   3.732   6.398  0.0831 -0.2216  0.8250
 8782SOL    HW237980   0.571   3.749   6.417 -1.3845 -0.5754 -2.3173
 8783SOL     OW37981   3.814   0.520   2.350 -0.2057  0.0892 -0.1465
 8783SOL    HW137982   3.801   0.564   2.435  0.4582 -2.2993  1.1949
 8783SOL    HW237983   3.899   0.551   2.320  0.3890  0.4076  1.8815
 8784SOL     OW37984   0.081   4.143  16.263 -0.1707  0.4535 -0.4985
 8784SOL    HW137985   0.073   4.188  16.347 -0.2124 -1.9322  0.7905
 8784SOL    HW237986   0.140   4.197  16.210 -2.1705  1.4940 -1.6704
 8785SOL     OW37987   2.899   1.978   3.886 -0.3724  0.2426 -0.2458
 8785SOL    HW137988   2.954   1.983   3.808  1.8506 -0.3232  1.2931
 8785SOL    HW237989   2.946   1.903   3.923 -1.3006 -1.1120 -1.8585
 8786SOL     OW37990   0.879   1.585   0.015 -0.8986  0.1061 -0.4560
 8786SOL    HW137991   0.942   1.518   0.042 -0.0901  1.1059  0.1628
 8786SOL    HW237992   0.934   1.663   0.022  0.3317 -0.8711  0.9009
 8787SOL     OW37993   1.848   0.370   5.910  0.0583  0.4845 -0.7585
 8787SOL    HW137994   1.861   0.293   5.855 -1.3526 -0.3217  0.0578
 8787SOL    HW237995   1.764   0.354   5.953  1.6678 -1.4903  1.6863
 8788SOL     OW37996   3.219   1.901   2.720 -0.2035  0.4968  0.6733
 8788SOL    HW137997   3.163   1.830   2.688  0.3681 -1.3887  3.8414
 8788SOL    HW237998   3.246   1.949   2.642  1.4750 -0.6898  0.5230
 8789SOL     OW37999   4.431   0.905   7.778 -0.4282  0.1789 -0.1552
 8789SOL    HW138000   4.373   0.959   7.832  0.0159 -1.1872  1.6723
 8789SOL    HW238001   4.470   0.859   7.852  0.1395  0.9019  0.0005
 8790SOL     OW38002   2.656   0.841   3.872 -0.3125  0.0936 -0.4151
 8790SOL    HW138003   2.595   0.845   3.945  2.0286 -1.3265  1.6125
 8790SOL    HW238004   2.710   0.919   3.881  1.2815 -1.5444  4.2083
 8791SOL     OW38005   2.341   2.635   0.535  0.4850  0.2244  0.3966
 8791SOL    HW138006   2.379   2.706   0.483 -1.4831  2.0078  1.4230
 8791SOL    HW238007   2.391   2.643   0.617  0.7880  1.0376  0.1325
 8792SOL     OW38008   1.512   2.974   4.647 -0.6316  0.7555  0.0378
 8792SOL    HW138009   1.551   2.904   4.595 -2.3184  0.4420 -0.7732
 8792SOL    HW238010   1.429   2.984   4.601  0.1929 -0.4869 -1.6997
 8793SOL     OW38011   4.112   3.641   7.154 -0.3706 -1.0385  0.3946
 8793SOL    HW138012   4.116   3.591   7.235  2.2435  1.2083  1.6288
 8793SOL    HW238013   4.059   3.718   7.174  2.0366  0.6978  0.1638
 8794SOL     OW38014   1.768   2.332   4.425  0.1016  0.0961 -0.3249
 8794SOL    HW138015   1.793   2.390   4.353 -2.5169 -0.5431 -1.7785
 8794SOL    HW238016   1.797   2.372   4.506 -3.5075  3.8209 -0.8808
 8795SOL     OW38017   4.369   0.483   3.399 -0.5131 -0.2401  0.0749
 8795SOL    HW138018   4.286   0.480   3.352 -1.2463  1.5699  1.2933
 8795SOL    HW238019   4.378   0.389   3.415 -0.2358  0.0562  1.5881
 8796SOL     OW38020   3.752   2.162   1.637 -0.2692 -0.2718 -0.0738
 8796SOL    HW138021   3.696   2.208   1.575 -1.4798 -2.0659 -0.3428
 8796SOL    HW238022   3.783   2.085   1.589  2.1636  0.9557 -0.4241
 8797SOL     OW38023   2.221   2.634  11.468  0.1985 -0.2095 -0.0062
 8797SOL    HW138024   2.266   2.554  11.497  1.0388  1.4621  3.3149
 8797SOL    HW238025   2.145   2.636  11.527  0.0161  1.2962 -0.2902
 8798SOL     OW38026   3.995   2.209   9.430 -0.4189 -0.0169 -0.1126
 8798SOL    HW138027   3.991   2.114   9.419  0.7505  0.1010 -1.6597
 8798SOL    HW238028   4.048   2.235   9.354  0.6908  1.3330  1.1144
 8799SOL     OW38029   1.753   2.820   6.367  0.2029  0.3257 -0.2750
 8799SOL    HW138030   1.757   2.795   6.275 -1.2619 -2.5518  0.4219
 8799SOL    HW238031   1.812   2.753   6.402  1.8271  2.1552  0.4212
 8800SOL     OW38032   1.660   1.250   4.131  0.0257 -0.2096 -0.9164
 8800SOL    HW138033   1.670   1.235   4.226  0.8690  1.9070 -0.6603
 8800SOL    HW238034   1.625   1.173   4.088 -0.7671  0.5415 -1.6192
 8801SOL     OW38035   4.058   4.150   3.866  0.0486 -0.1603  0.1324
 8801SOL    HW138036   4.052   4.059   3.839 -0.6349 -0.5261  1.5466
 8801SOL    HW238037   4.021   4.144   3.953 -0.2123  1.3136  0.1265
 8802SOL     OW38038   3.062   0.263   4.942  0.3836 -0.2943 -0.3867
 8802SOL    HW138039   2.970   0.268   4.919 -0.0729 -0.2907  1.4151
 8802SOL    HW238040   3.083   0.339   4.997  0.7961 -0.9934  0.4243
 8803SOL     OW38041   0.535   2.571   8.405  0.6725  0.6538 -0.2989
 8803SOL    HW138042   0.467   2.504   8.396  1.0107  0.3177 -0.3302
 8803SOL    HW238043   0.492   2.627   8.470  2.5814  0.5240  1.0559
 8804SOL     OW38044   2.074   3.506  13.177 -0.9461  0.2618  0.1578
 8804SOL    HW138045   2.098   3.478  13.088 -0.4736 -1.3009  0.7827
 8804SOL    HW238046   2.138   3.461  13.232 -0.2386  0.3985 -0.5401
 8805SOL     OW38047   3.827   0.276   3.939 -0.3949 -0.4362  0.2660
 8805SOL    HW138048   3.920   0.259   3.924 -0.6632 -1.0030 -0.7070
 8805SOL    HW238049   3.787   0.209   3.884 -1.0410  1.1466 -1.2139
 8806SOL     OW38050   2.947   2.255   7.857  0.7557  0.5839  0.5492
 8806SOL    HW138051   2.860   2.268   7.896 -0.0228  1.2557 -1.4378
 8806SOL    HW238052   2.947   2.327   7.795 -0.1587  0.5082  0.4600
 8807SOL     OW38053   0.561   4.421  13.707  0.0553  0.5084  0.7670
 8807SOL    HW138054   0.604   4.440  13.623 -0.7402  0.6903  0.4099
 8807SOL    HW238055   0.486   4.371  13.675  1.8934 -2.3056  0.8329
 8808SOL     OW38056   4.183   1.352  13.006 -0.2072  0.2260 -0.2127
 8808SOL    HW138057   4.190   1.369  12.913 -0.4412  3.2061  0.3186
 8808SOL    HW238058   4.126   1.275  13.005  0.9643 -0.6788  1.0182
 8809SOL     OW38059   2.054   1.815   3.622  0.0952 -0.2194 -0.2271
 8809SOL    HW138060   1.962   1.821   3.599  0.0091 -0.2403  0.1129
 8809SOL    HW238061   2.088   1.856   3.542  0.8862  0.4099  0.4422
 8810SOL     OW38062   2.410   3.420  11.974 -0.0125  0.6272  0.3135
 8810SOL    HW138063   2.329   3.370  11.968  0.8768 -0.6637 -0.9133
 8810SOL    HW238064   2.392   3.482  11.903  0.6189  0.1662 -0.2434
 8811SOL     OW38065   1.894   0.567   9.274 -0.3272 -0.5901  0.1607
 8811SOL    HW138066   1.859   0.479   9.268 -2.5158  0.3251 -0.5661
 8811SOL    HW238067   1.868   0.596   9.361 -0.4098  1.3689 -0.5149
 8812SOL     OW38068   3.272   0.352   8.429  0.7888  0.5737  0.1576
 8812SOL    HW138069   3.236   0.278   8.380  2.0133 -0.4147  0.7567
 8812SOL    HW238070   3.217   0.426   8.405 -0.6946 -0.3673  0.7089
 8813SOL     OW38071   2.972   3.986   5.086  0.5874 -0.5633 -0.5914
 8813SOL    HW138072   2.888   4.009   5.047  0.8524 -0.0494 -0.8609
 8813SOL    HW238073   3.023   4.065   5.068 -0.6140 -0.2886 -2.7222
 8814SOL     OW38074   3.432   3.611   2.804 -0.0438 -0.1000  0.1274
 8814SOL    HW138075   3.459   3.674   2.737  1.8798 -0.2135  0.7884
 8814SOL    HW238076   3.413   3.673   2.873  0.6497  0.4984 -0.2211
 8815SOL     OW38077   0.808   3.204   1.861 -0.5602  0.0732  0.4087
 8815SOL    HW138078   0.820   3.255   1.781 -2.4713  0.5687  0.4399
 8815SOL    HW238079   0.884   3.146   1.858 -0.6618  0.0208 -1.3775
 8816SOL     OW38080   4.087   0.061   5.553  0.2140  0.0047  0.1199
 8816SOL    HW138081   4.133   0.138   5.584 -0.9971  0.8601 -0.1874
 8816SOL    HW238082   4.154   0.005   5.513  0.2246  0.2152 -0.1608
 8817SOL     OW38083   2.799   0.834   2.994 -0.2502  0.1886 -0.1084
 8817SOL    HW138084   2.835   0.764   3.048 -1.0661 -2.1418 -2.5828
 8817SOL    HW238085   2.738   0.877   3.053 -0.4635 -1.5089  0.8951
 8818SOL     OW38086   1.192   1.104   3.602 -0.0257  0.1213 -0.0593
 8818SOL    HW138087   1.221   1.079   3.514  0.0885  0.5359 -0.1414
 8818SOL    HW238088   1.274   1.123   3.648  0.1077 -0.1763 -0.1766
 8819SOL     OW38089   0.137   1.296   8.270  0.1567  0.0980 -0.4046
 8819SOL    HW138090   0.194   1.355   8.321 -1.4781  2.2275 -1.0371
 8819SOL    HW238091   0.135   1.335   8.183 -1.9317 -0.0696 -0.4224
 8820SOL     OW38092   0.429   3.583   7.318  0.6553  0.1811  0.1511
 8820SOL    HW138093   0.405   3.542   7.402 -1.4025  1.8979  0.3976
 8820SOL    HW238094   0.363   3.650   7.301  2.3712  1.5248 -1.1205
 8821SOL     OW38095   2.679   4.426   8.621  0.4507  0.0202 -0.3050
 8821SOL    HW138096   2.662   4.507   8.573 -0.5570 -1.4643 -2.5045
 8821SOL    HW238097   2.618   4.374   8.568 -0.1002  2.1057 -1.7027
 8822SOL     OW38098   0.207   4.191   1.942 -0.4257  0.3933  0.0184
 8822SOL    HW138099   0.232   4.227   1.857  0.0426 -0.9516 -0.4122
 8822SOL    HW238100   0.192   4.267   1.997  0.7616  1.0211 -0.5333
 8823SOL     OW38101   1.190   0.660  13.160 -0.0165  0.2928  0.1641
 8823SOL    HW138102   1.258   0.701  13.107 -1.4572  0.8646 -1.2354
 8823SOL    HW238103   1.169   0.731  13.220  0.0962  0.9870 -0.6217
 8824SOL     OW38104   4.006   0.442   1.494  0.0861 -0.1947  0.3020
 8824SOL    HW138105   3.959   0.445   1.577  1.0264  0.9959  0.7966
 8824SOL    HW238106   4.092   0.411   1.521 -0.1418  0.0760  1.3440
 8825SOL     OW38107   2.894   1.061  11.771 -0.2558  0.2404 -0.3486
 8825SOL    HW138108   2.858   0.996  11.831 -0.6557  1.4208  0.6920
 8825SOL    HW238109   2.989   1.049  11.777  0.1148  3.2602  0.1865
 8826SOL     OW38110   3.134   1.294   0.900  0.3218 -0.6197  0.3459
 8826SOL    HW138111   3.113   1.278   0.992 -0.2589  1.7243  0.6051
 8826SOL    HW238112   3.214   1.346   0.903 -0.4253  0.4838  1.1440
 8827SOL     OW38113   0.426   0.872   8.415  0.0113  0.5534  0.0403
 8827SOL    HW138114   0.356   0.823   8.372 -1.0019  1.1718  1.0101
 8827SOL    HW238115   0.433   0.824   8.497  1.7207  1.6314  0.5138
 8828SOL     OW38116   2.887   0.428  16.109  0.3158  0.1802  0.0356
 8828SOL    HW138117   2.839   0.393  16.034  0.7691  0.4616 -0.3918
 8828SOL    HW238118   2.971   0.381  16.111  0.9082  1.2790  1.0985
 8829SOL     OW38119   3.605   2.670   5.276 -0.3222  0.3751 -0.3476
 8829SOL    HW138120   3.641   2.583   5.289  0.2243  0.2358 -2.6448
 8829SOL    HW238121   3.679   2.730   5.290 -0.1629 -0.1643  1.0375
 8830SOL     OW38122   4.481   2.292  17.668  0.3499 -0.3429  0.1075
 8830SOL    HW138123   4.548   2.235  17.629  0.4489 -0.8682  1.0485
 8830SOL    HW238124   4.460   2.225  17.732 -0.5877  1.5277  1.7434
 8831SOL     OW38125   2.406   1.478  14.871  0.4868  0.1356  0.1518
 8831SOL    HW138126   2.443   1.396  14.901 -1.9972  0.3981  3.9343
 8831SOL    HW238127   2.383   1.515  14.956 -0.9712  0.4637 -0.3685
 8832SOL     OW38128   3.807   3.398   4.656 -0.5158  0.1633 -0.7931
 8832SOL    HW138129   3.723   3.436   4.680 -0.0039  0.8082 -0.0126
 8832SOL    HW238130   3.785   3.353   4.574  0.2557 -0.4718 -0.6500
 8833SOL     OW38131   4.397   2.171   6.599  0.5432 -0.2297  0.0426
 8833SOL    HW138132   4.424   2.079   6.602  0.5182 -0.2356  0.0814
 8833SOL    HW238133   4.352   2.179   6.515  0.3895  0.8296  0.2288
 8834SOL     OW38134   3.868   2.115   8.310 -0.1066  0.6470  0.0620
 8834SOL    HW138135   3.861   2.020   8.317 -0.4906  0.9490  3.4676
 8834SOL    HW238136   3.832   2.144   8.393 -2.1771  1.2973 -1.0543
 8835SOL     OW38137   2.737   3.442   6.831 -0.4282 -0.0728 -0.1958
 8835SOL    HW138138   2.722   3.528   6.790 -1.7591  0.8387  2.2036
 8835SOL    HW238139   2.787   3.449   6.912 -1.0351 -0.0835  0.1742
 8836SOL     OW38140   1.644   4.619   5.184 -0.6751 -0.4303  0.5870
 8836SOL    HW138141   1.639   4.605   5.278 -1.0845  1.0562  0.7885
 8836SOL    HW238142   1.704   4.693   5.175 -1.3115  0.0339  0.1411
 8837SOL     OW38143   3.198   3.095   5.452  0.5083  0.2535 -0.2328
 8837SOL    HW138144   3.204   3.010   5.496 -1.9408 -0.4893 -1.3336
 8837SOL    HW238145   3.141   3.140   5.515 -0.2698  1.0853 -1.5543
 8838SOL     OW38146   4.438   4.425   9.301 -0.3778  0.8129 -0.3596
 8838SOL    HW138147   4.368   4.486   9.324  1.9382  2.9137  1.2466
 8838SOL    HW238148   4.426   4.348   9.356 -1.1361 -0.0007 -1.6965
 8839SOL     OW38149   1.920   4.680   6.982  0.1132 -0.5094  0.1515
 8839SOL    HW138150   1.985   4.677   7.052  0.5465  0.1308 -0.2140
 8839SOL    HW238151   1.941   4.596   6.942  0.6854  0.6402 -1.9741
 8840SOL     OW38152   1.736   0.124   2.822  0.0815 -0.0558 -1.0042
 8840SOL    HW138153   1.772   0.206   2.854 -1.1401 -0.1621  0.6320
 8840SOL    HW238154   1.644   0.129   2.850  0.4178  0.3898  0.0407
 8841SOL     OW38155   2.779   3.425   4.199  0.1009 -0.3028 -0.0745
 8841SOL    HW138156   2.797   3.473   4.118  0.6498 -1.8897 -0.8900
 8841SOL    HW238157   2.827   3.345   4.181 -0.2337 -0.5058 -0.0596
 8842SOL     OW38158   1.885   0.891   4.336  0.2723 -0.1081 -0.0540
 8842SOL    HW138159   1.951   0.837   4.292  2.4616  1.6991  1.0534
 8842SOL    HW238160   1.926   0.976   4.351 -0.9499  0.1233  2.0236
 8843SOL     OW38161   0.574   3.930  12.177  0.1421  0.5453 -0.4278
 8843SOL    HW138162   0.575   3.978  12.095 -0.9788  0.3963 -0.5303
 8843SOL    HW238163   0.585   3.840  12.145  1.3749  0.8312 -0.8014
 8844SOL     OW38164   0.665   1.821   8.117  0.0115 -0.5777  0.2225
 8844SOL    HW138165   0.743   1.856   8.159  1.3953 -0.6207 -2.2929
 8844SOL    HW238166   0.667   1.728   8.137  0.4337 -1.0761 -2.1807
 8845SOL     OW38167   2.338   0.604   5.849  0.5191  0.0869  0.0060
 8845SOL    HW138168   2.362   0.513   5.829 -0.6464 -0.0470 -0.7807
 8845SOL    HW238169   2.417   0.635   5.893  1.2316  0.6435 -1.6561
 8846SOL     OW38170   2.821   4.140   2.431 -0.6268 -0.1812  0.2201
 8846SOL    HW138171   2.761   4.140   2.506 -2.4958  0.6877 -1.2883
 8846SOL    HW238172   2.853   4.050   2.439 -0.9636 -0.4846 -1.9836
 8847SOL     OW38173   1.838   1.976   5.448  0.5733  0.0052 -0.2760
 8847SOL    HW138174   1.834   2.066   5.418  3.2784  0.8735  2.0662
 8847SOL    HW238175   1.928   1.970   5.480  0.4520 -1.8451 -0.2592
 8848SOL     OW38176   1.476   1.425  13.896 -0.1668 -0.4588 -0.0251
 8848SOL    HW138177   1.529   1.363  13.945  2.0841 -0.1226 -2.0129
 8848SOL    HW238178   1.546   1.451  13.836 -0.9425 -2.1733 -1.6678
 8849SOL     OW38179   3.534   3.054   8.936 -0.0083 -0.2694 -0.2357
 8849SOL    HW138180   3.526   3.023   8.845  0.7549 -1.1579  0.0029
 8849SOL    HW238181   3.599   2.990   8.964  0.6803 -0.2683 -1.8051
 8850SOL     OW38182   0.316   0.788   9.533  0.0808  0.0873  0.3370
 8850SOL    HW138183   0.364   0.705   9.540  0.0313 -0.2146 -2.5851
 8850SOL    HW238184   0.276   0.784   9.446  0.7269  2.2361 -0.0424
 8851SOL     OW38185   1.231   4.244   5.475  0.0861 -0.6004 -0.5617
 8851SOL    HW138186   1.159   4.231   5.537 -0.1839 -0.5667 -0.8647
 8851SOL    HW238187   1.214   4.160   5.431  0.6821  0.2943 -2.5127
 8852SOL     OW38188   3.520   0.914   5.730 -0.3298  0.6681 -0.1473
 8852SOL    HW138189   3.583   0.877   5.668 -0.8299  1.4983 -1.1707
 8852SOL    HW238190   3.552   1.004   5.738 -1.2596  1.0551 -0.7127
 8853SOL     OW38191   0.453   2.745   3.433  0.1805  0.2917  0.2139
 8853SOL    HW138192   0.471   2.701   3.516 -0.5635  0.6663  0.5798
 8853SOL    HW238193   0.490   2.683   3.371  0.7467  0.5102  0.3276
 8854SOL     OW38194   1.759   1.526   9.848 -0.0145 -0.2361  0.1405
 8854SOL    HW138195   1.713   1.582   9.910 -0.6839 -0.2724 -0.3152
 8854SOL    HW238196   1.752   1.563   9.760  0.3414 -2.7595 -0.9451
 8855SOL     OW38197   3.157   0.226   6.227  0.8214  0.3306  0.9281
 8855SOL    HW138198   3.082   0.174   6.257  0.2308  1.1926  0.9491
 8855SOL    HW238199   3.155   0.302   6.285 -0.3386  1.6595 -0.8449
 8856SOL     OW38200   0.673   3.025   4.694 -0.5705 -0.0207 -0.3917
 8856SOL    HW138201   0.667   3.084   4.619  0.2793 -0.1648 -0.5724
 8856SOL    HW238202   0.754   2.979   4.671  0.1913  0.9333  0.3963
 8857SOL     OW38203   2.426   1.873   3.244 -0.2275  0.3976 -0.2340
 8857SOL    HW138204   2.454   1.787   3.275  1.8729  2.0085  2.3864
 8857SOL    HW238205   2.430   1.871   3.148 -0.8876 -0.7852 -0.2335
 8858SOL     OW38206   1.204   3.033   2.811  0.8729  0.4373  0.1720
 8858SOL    HW138207   1.127   3.006   2.860  1.0833  0.2836  0.4172
 8858SOL    HW238208   1.173   3.022   2.721  2.1716  0.2798 -0.2658
 8859SOL     OW38209   2.750   0.835   6.558 -0.0974  0.1992 -0.4688
 8859SOL    HW138210   2.759   0.740   6.567 -1.5726 -0.1303 -2.3210
 8859SOL    HW238211   2.779   0.869   6.642  2.4026  1.6750 -1.9406
 8860SOL     OW38212   3.754   2.377  10.072 -0.2988 -0.3717 -0.2356
 8860SOL    HW138213   3.807   2.439  10.121 -2.7705  0.3870  1.4775
 8860SOL    HW238214   3.758   2.401   9.979  0.7799  1.7680  0.3596
 8861SOL     OW38215   2.478   3.276   6.975  0.2195 -0.2186 -0.1072
 8861SOL    HW138216   2.560   3.310   6.940 -0.1673  0.2087 -0.5984
 8861SOL    HW238217   2.504   3.197   7.023 -0.7189 -1.2083 -1.2215
 8862SOL     OW38218   4.093   1.749   8.468  0.1963  0.1803  0.4404
 8862SOL    HW138219   4.071   1.808   8.540  0.6095 -0.0915  0.7846
 8862SOL    HW238220   4.115   1.809   8.397 -2.0948 -0.6589 -0.9832
 8863SOL     OW38221   3.174   3.885   5.729  0.4665  0.3617  0.5933
 8863SOL    HW138222   3.102   3.825   5.747  0.2455  0.9841  1.7844
 8863SOL    HW238223   3.146   3.926   5.647  0.1385  2.6736  1.8626
 8864SOL     OW38224   1.381   1.199   4.281  0.6451 -0.2086 -0.7238
 8864SOL    HW138225   1.353   1.259   4.211 -1.6451  1.2630  1.4765
 8864SOL    HW238226   1.300   1.153   4.300 -0.6996  1.0926 -3.1998
 8865SOL     OW38227   4.691   3.777   9.777  0.4018 -0.1282  0.5157
 8865SOL    HW138228   4.690   3.872   9.768  4.6455 -0.3413 -2.4190
 8865SOL    HW238229   0.030   3.758   9.830 -1.2543 -1.1062  2.5586
 8866SOL     OW38230   4.140   3.322   4.381  0.2477  0.4596 -0.7217
 8866SOL    HW138231   4.223   3.276   4.368  0.5400  0.7317  0.1466
 8866SOL    HW238232   4.079   3.253   4.356 -1.6205  1.6222  0.5910
 8867SOL     OW38233   1.304   0.853   5.794 -0.5576 -0.0120 -0.7406
 8867SOL    HW138234   1.212   0.830   5.809 -0.9549  0.3953 -2.5880
 8867SOL    HW238235   1.341   0.769   5.767  0.4391  0.4782 -0.9102
 8868SOL     OW38236   3.506   4.222   3.494  0.1408  0.0629  0.1706
 8868SOL    HW138237   3.521   4.219   3.589 -1.0087 -3.5405  0.2357
 8868SOL    HW238238   3.453   4.302   3.489 -1.4952 -1.0612 -0.4979
 8869SOL     OW38239   1.303   0.431   8.160 -0.1850  0.6321 -0.1788
 8869SOL    HW138240   1.233   0.496   8.168 -0.5782  0.0397  1.0219
 8869SOL    HW238241   1.284   0.372   8.233  1.7528 -0.1762 -0.3218
 8870SOL     OW38242   3.087   3.947  15.096 -0.0873 -0.0568 -0.4147
 8870SOL    HW138243   3.122   4.033  15.074  1.6054 -0.4441  0.7645
 8870SOL    HW238244   3.120   3.931  15.185  0.7364  0.1343 -0.6892
 8871SOL     OW38245   4.473   2.460   1.924  0.1146 -0.2909 -0.5325
 8871SOL    HW138246   4.483   2.518   1.849 -2.0309  0.0289 -0.5548
 8871SOL    HW238247   4.550   2.484   1.975 -2.5247  4.8095  1.0015
 8872SOL     OW38248   1.812   2.619   0.407  0.9241  0.5614  1.0389
 8872SOL    HW138249   1.777   2.621   0.496  0.8633  1.4081  0.9991
 8872SOL    HW238250   1.902   2.649   0.395  0.3258  1.8481 -0.2111
 8873SOL     OW38251   0.179   2.178   0.105  0.8186 -0.1890  0.0298
 8873SOL    HW138252   0.256   2.200   0.159  0.3589 -1.2518  1.1255
 8873SOL    HW238253   0.223   2.132   0.034  0.7309 -3.0591  1.8193
 8874SOL     OW38254   0.160   2.831  15.117  0.0062  0.1362 -0.0691
 8874SOL    HW138255   0.164   2.889  15.041  0.0863  0.9951  0.5889
 8874SOL    HW238256   0.149   2.901  15.182 -3.4270  0.4368 -0.9433
 8875SOL     OW38257   2.064   3.159   9.898 -0.0398 -0.1803  0.3752
 8875SOL    HW138258   2.090   3.083   9.846 -0.5381 -1.2760  1.7648
 8875SOL    HW238259   2.108   3.228   9.848  1.1722 -0.4829  1.0276
 8876SOL     OW38260   0.792   3.429   3.539  0.6984 -0.0002 -0.0572
 8876SOL    HW138261   0.724   3.473   3.488  0.5062 -0.7954 -0.4904
 8876SOL    HW238262   0.869   3.425   3.482  0.6712 -1.0724 -0.0345
 8877SOL     OW38263   0.300   1.387   0.917 -0.4027 -0.3432  0.2840
 8877SOL    HW138264   0.230   1.322   0.916 -1.0024  0.3112 -0.3620
 8877SOL    HW238265   0.351   1.363   0.840 -0.0396  3.1800 -0.5920
 8878SOL     OW38266   3.759   3.705   8.159 -0.1123  0.3871 -0.1120
 8878SOL    HW138267   3.684   3.689   8.217  1.5323  1.1764  2.2200
 8878SOL    HW238268   3.825   3.636   8.166  0.6855  1.1417 -0.2173
 8879SOL     OW38269   4.396   3.190   3.765  0.3999 -0.5521  0.2922
 8879SOL    HW138270   4.413   3.215   3.675  2.4768  0.0189  0.8546
 8879SOL    HW238271   4.467   3.135   3.797 -0.9164 -0.0840  4.0922
 8880SOL     OW38272   1.998   1.713  10.009  0.1687  0.4831 -0.2299
 8880SOL    HW138273   1.987   1.628   9.966  0.5713  1.2385 -1.8376
 8880SOL    HW238274   2.078   1.707  10.061 -1.5984 -0.5136  2.3551
 8881SOL     OW38275   0.319   4.282  16.856 -0.0124 -0.1073 -0.4116
 8881SOL    HW138276   0.399   4.232  16.839  0.9884  0.7354  1.7634
 8881SOL    HW238277   0.285   4.254  16.941 -0.3881 -0.0546 -0.5436
 8882SOL     OW38278   1.091   2.451   4.294 -0.0063  0.0519  0.1944
 8882SOL    HW138279   1.146   2.381   4.260 -1.7440 -1.2025 -0.0587
 8882SOL    HW238280   1.054   2.414   4.374 -1.2526  1.2381  0.1903
 8883SOL     OW38281   1.277   0.692   6.135 -0.1465  0.4340 -0.0301
 8883SOL    HW138282   1.259   0.774   6.182  0.3856 -0.6868  2.1330
 8883SOL    HW238283   1.372   0.695   6.135 -0.1362  0.2422  0.7906
 8884SOL     OW38284   3.816   1.844  11.642  0.0283  0.3004 -0.1439
 8884SOL    HW138285   3.808   1.793  11.561  1.2741 -0.3198  0.1196
 8884SOL    HW238286   3.765   1.923  11.624 -0.6827 -0.2601 -0.6268
 8885SOL     OW38287   4.443   3.849  10.156  0.4112 -0.2635  0.7271
 8885SOL    HW138288   4.376   3.791  10.190 -0.8068  0.8817  0.2506
 8885SOL    HW238289   4.495   3.792  10.098  0.5961  2.2227 -1.5338
 8886SOL     OW38290   1.297   2.312   6.958  0.0184 -0.3432 -0.3992
 8886SOL    HW138291   1.345   2.255   7.017 -1.2110 -0.0494  0.8853
 8886SOL    HW238292   1.365   2.347   6.900  1.7376 -0.6472  1.4064
 8887SOL     OW38293   0.979   3.335   5.339 -0.3682  0.0394  0.2733
 8887SOL    HW138294   0.952   3.255   5.294 -0.4382 -0.1694  0.6865
 8887SOL    HW238295   0.930   3.318   5.419 -2.0311  0.6970 -0.6138
 8888SOL     OW38296   3.395   1.868   0.237 -0.5608 -0.3256  0.1136
 8888SOL    HW138297   3.332   1.862   0.310 -0.6928  4.0867  0.3740
 8888SOL    HW238298   3.442   1.787   0.255 -0.8128 -0.6951 -0.8654
 8889SOL     OW38299   3.788   4.589   9.577  0.3083  0.2685 -0.3139
 8889SOL    HW138300   3.840   4.613   9.653 -0.3645 -0.4572  0.3861
 8889SOL    HW238301   3.722   4.658   9.586  0.3271  0.0396  1.4631
 8890SOL     OW38302   1.426   1.162  11.629 -0.0889 -0.9747  0.5494
 8890SOL    HW138303   1.426   1.071  11.600 -0.2400 -0.8791  0.2451
 8890SOL    HW238304   1.521   1.172  11.641  0.0587 -1.0140 -0.5969
 8891SOL     OW38305   4.414   0.326   5.023  0.1310  0.4376  0.5141
 8891SOL    HW138306   4.374   0.412   5.011  0.3787  0.5352  0.3814
 8891SOL    HW238307   4.430   0.331   5.117  1.4098  3.0207  0.1557
 8892SOL     OW38308   1.656   1.334   7.601  0.5297  0.0486 -0.3608
 8892SOL    HW138309   1.652   1.350   7.507 -0.0648  1.8390 -0.0332
 8892SOL    HW238310   1.642   1.239   7.607  2.9064 -0.3280 -1.1092
 8893SOL     OW38311   1.388   2.151   8.950  0.4042  0.6133 -0.4384
 8893SOL    HW138312   1.353   2.213   8.887 -0.4849  0.5161 -0.0373
 8893SOL    HW238313   1.322   2.082   8.941  2.2030 -1.0136 -1.2373
 8894SOL     OW38314   2.434   4.177  10.015 -0.2318 -0.0827  0.1014
 8894SOL    HW138315   2.363   4.230  10.050  2.1600  2.5975  0.9170
 8894SOL    HW238316   2.394   4.090  10.022 -0.8572  0.2982  1.3650
 8895SOL     OW38317   2.344   2.466   6.062 -1.0791 -0.8877 -0.5490
 8895SOL    HW138318   2.298   2.510   6.133  1.9741  1.1220  0.1842
 8895SOL    HW238319   2.273   2.423   6.015 -3.1471 -0.3156  2.0433
 8896SOL     OW38320   3.996   0.421   1.063  0.1931 -0.0486  0.1434
 8896SOL    HW138321   3.941   0.428   1.141 -0.3625 -0.5729 -0.1986
 8896SOL    HW238322   3.938   0.435   0.989  0.8205 -0.2870 -0.3899
 8897SOL     OW38323   3.999   1.980   7.590 -0.0970  0.1845  0.2210
 8897SOL    HW138324   4.073   2.038   7.609  0.7689  0.2236 -3.3561
 8897SOL    HW238325   3.950   1.999   7.671  1.1897 -0.0301  1.0414
 8898SOL     OW38326   4.472   1.544   7.842  0.5002 -0.1400  0.0062
 8898SOL    HW138327   4.447   1.463   7.796  0.2738  0.0981 -0.2911
 8898SOL    HW238328   4.396   1.558   7.898  0.6746 -1.1955  0.5125
 8899SOL     OW38329   0.124   2.764   2.253 -0.1663  0.0037  0.4955
 8899SOL    HW138330   0.186   2.793   2.186 -0.4667  1.5701  0.8908
 8899SOL    HW238331   0.155   2.677   2.277  0.4165  0.1607  0.3175
 8900SOL     OW38332   3.381   4.421   7.420 -0.3568  0.2695  0.7133
 8900SOL    HW138333   3.294   4.459   7.405 -1.0376 -0.8966  1.6649
 8900SOL    HW238334   3.381   4.330   7.390  1.7040  0.6206 -0.3849
 8901SOL     OW38335   1.391   0.761   2.720 -0.1540 -0.1803  0.6705
 8901SOL    HW138336   1.319   0.797   2.771 -0.4842 -0.5208  0.4450
 8901SOL    HW238337   1.438   0.844   2.722  0.7036 -0.6521  0.3097
 8902SOL     OW38338   3.410   0.321  10.361  0.0154 -0.5724 -0.1410
 8902SOL    HW138339   3.413   0.407  10.321  0.5416 -0.6795 -0.3276
 8902SOL    HW238340   3.459   0.334  10.442  0.6979  0.2023 -0.6808
 8903SOL     OW38341   1.011   4.265   7.865  0.2377  0.2589  0.2062
 8903SOL    HW138342   0.935   4.209   7.849  0.9794 -0.6279 -0.2725
 8903SOL    HW238343   1.041   4.269   7.774  1.2316 -1.0531  0.4706
 8904SOL     OW38344   1.835   1.840   3.447 -0.0942 -0.3460 -0.1043
 8904SOL    HW138345   1.798   1.925   3.470  2.8024  1.1583 -1.0104
 8904SOL    HW238346   1.757   1.803   3.404  0.0609  2.9272 -3.2136
 8905SOL     OW38347   0.071   0.953   6.592 -0.2675  0.0398  0.0631
 8905SOL    HW138348   0.028   0.905   6.662 -0.8556  0.6957  0.1545
 8905SOL    HW238349   0.012   0.933   6.520 -1.2943  0.8011  0.6972
 8906SOL     OW38350   0.039   3.271  10.278 -0.3068  0.1906  0.6194
 8906SOL    HW138351   4.710   3.258  10.211  0.2823  2.5167 -0.3949
 8906SOL    HW238352   0.007   3.213  10.347  0.4786  1.6532  2.1909
 8907SOL     OW38353   0.556   3.244   0.524  0.4082  0.8554  0.5552
 8907SOL    HW138354   0.648   3.233   0.548  0.1416 -1.5729  0.4583
 8907SOL    HW238355   0.517   3.209   0.604 -2.3403  1.7145 -0.4234
 8908SOL     OW38356   2.627   4.226   3.677 -0.8206 -0.3091  0.5967
 8908SOL    HW138357   2.649   4.242   3.769 -1.7448  0.3677  0.7048
 8908SOL    HW238358   2.678   4.146   3.669  1.1900  1.1593 -1.1355
 8909SOL     OW38359   0.419   4.201  16.297  0.6743 -0.3545 -0.1404
 8909SOL    HW138360   0.488   4.242  16.349  0.2163 -1.1960  1.1398
 8909SOL    HW238361   0.407   4.126  16.356 -0.7826  0.0573  0.0851
 8910SOL     OW38362   1.511   1.807   1.305 -0.5980 -0.1415  0.2427
 8910SOL    HW138363   1.519   1.712   1.309 -2.7890 -0.4118 -2.3094
 8910SOL    HW238364   1.599   1.831   1.335  0.2899  0.1211 -2.6260
 8911SOL     OW38365   2.088   4.566   3.093  0.0281 -0.2992  0.2214
 8911SOL    HW138366   2.052   4.574   3.005  0.4960 -1.1746 -0.0479
 8911SOL    HW238367   2.174   4.606   3.079  0.4483 -0.3925  2.4093
 8912SOL     OW38368   0.895   3.058   8.545  0.3915  0.2033 -0.0392
 8912SOL    HW138369   0.942   2.977   8.567  2.8725  1.4166 -0.8657
 8912SOL    HW238370   0.833   3.021   8.482 -1.5447  1.9668  0.8376
 8913SOL     OW38371   4.008   2.502   9.819 -0.3026  0.5206 -0.7326
 8913SOL    HW138372   3.952   2.575   9.845  2.2909  2.3167 -0.1880
 8913SOL    HW238373   3.976   2.484   9.730  0.8903  3.0445 -1.6845
 8914SOL     OW38374   1.821   4.075   8.834 -0.0399  0.0532  0.2403
 8914SOL    HW138375   1.728   4.088   8.818  0.1886 -0.2551 -1.3350
 8914SOL    HW238376   1.825   4.002   8.897 -1.5457 -1.3417 -1.2733
 8915SOL     OW38377   1.507   0.089   4.956 -0.1387 -0.0389 -0.3694
 8915SOL    HW138378   1.471   0.142   5.027  2.1990  1.5897 -0.3779
 8915SOL    HW238379   1.581   0.139   4.922  0.6161 -0.5770  0.4547
 8916SOL     OW38380   3.109   1.125   3.759 -0.4156 -0.2512  0.0855
 8916SOL    HW138381   3.195   1.127   3.799 -0.3228  0.7379 -0.1498
 8916SOL    HW238382   3.110   1.213   3.720 -0.5218 -0.5648 -0.6196
 8917SOL     OW38383   1.718   0.038   5.987 -0.1611  0.0813 -0.0407
 8917SOL    HW138384   1.732   0.091   5.908  2.1720 -3.1840 -1.8762
 8917SOL    HW238385   1.632   0.000   5.971 -0.3723  1.9195 -3.3640
 8918SOL     OW38386   4.089   3.637   5.084 -0.3588 -0.0413  0.3601
 8918SOL    HW138387   4.053   3.677   5.164  0.1733  0.2033  0.4738
 8918SOL    HW238388   4.183   3.644   5.098 -0.4126  0.3504  0.5372
 8919SOL     OW38389   3.893   0.592   4.993 -0.0123  0.2728 -0.6355
 8919SOL    HW138390   3.895   0.674   4.945  2.6644  0.2687 -0.5037
 8919SOL    HW238391   3.903   0.623   5.083  0.6976  0.3146 -0.7299
 8920SOL     OW38392   2.605   3.347   4.442 -0.0647 -0.5248 -0.4007
 8920SOL    HW138393   2.648   3.375   4.361 -1.1710 -2.5820 -1.7161
 8920SOL    HW238394   2.635   3.256   4.441  0.7866 -0.2491 -0.0864
 8921SOL     OW38395   2.137   0.082   6.546  0.0730  0.5982  0.1662
 8921SOL    HW138396   2.081   0.149   6.506 -1.0182  1.9219  3.9239
 8921SOL    HW238397   2.156   0.025   6.471 -1.0425  1.4105 -0.7508
 8922SOL     OW38398   0.219   3.824   6.649  0.4626 -0.1918  0.7874
 8922SOL    HW138399   0.190   3.905   6.607 -1.7335 -0.5351  1.6471
 8922SOL    HW238400   0.139   3.804   6.696  0.4105  0.2163  0.8755
 8923SOL     OW38401   0.308   2.773   7.208  0.7321 -0.4048  0.1950
 8923SOL    HW138402   0.338   2.804   7.122 -1.0664  1.9387  0.4375
 8923SOL    HW238403   0.326   2.680   7.192  1.8125 -0.5893  2.5466
 8924SOL     OW38404   2.887   2.797  14.607  0.4249 -0.1685  0.6340
 8924SOL    HW138405   2.793   2.805  14.624  0.2517  1.7185 -1.2084
 8924SOL    HW238406   2.891   2.719  14.663  0.7778  0.0098  0.8504
 8925SOL     OW38407   0.554   1.176   8.043  0.4564 -0.0847 -0.5202
 8925SOL    HW138408   0.487   1.128   8.092 -1.4919  0.4875 -2.6244
 8925SOL    HW238409   0.524   1.174   7.952 -1.6453 -1.9393  0.2093
 8926SOL     OW38410   1.887   0.098  15.425  0.2189  0.4146  0.0390
 8926SOL    HW138411   1.839   0.163  15.375 -1.1022 -0.2243  0.4616
 8926SOL    HW238412   1.949   0.144  15.480 -0.4386 -0.7429  1.7543
 8927SOL     OW38413   2.151   0.222  10.765 -0.2174  1.0527 -0.1770
 8927SOL    HW138414   2.124   0.139  10.804  0.0364  0.5916 -0.9801
 8927SOL    HW238415   2.068   0.265  10.744 -1.7137 -1.3702  0.7931
 8928SOL     OW38416   3.086   3.760   6.714  0.0977  0.0478 -0.4463
 8928SOL    HW138417   3.062   3.738   6.623  0.7798 -0.7463 -0.4348
 8928SOL    HW238418   3.091   3.676   6.759  1.6069 -0.0105 -0.7278
 8929SOL     OW38419   0.355   2.488   6.098 -0.5090 -0.0804 -0.4631
 8929SOL    HW138420   0.374   2.579   6.077  1.4747 -0.4196 -0.1039
 8929SOL    HW238421   0.367   2.499   6.192 -0.7892 -0.6707 -0.3585
 8930SOL     OW38422   0.619   2.060   9.897 -0.5494  0.1166 -0.9946
 8930SOL    HW138423   0.527   2.080   9.916 -0.2849  1.3955 -1.0383
 8930SOL    HW238424   0.621   1.965   9.903  0.3994  0.1624 -0.5600
 8931SOL     OW38425   2.889   2.178  15.819  0.1721 -0.0214 -0.4778
 8931SOL    HW138426   2.810   2.213  15.776 -1.1061 -1.5130  0.6388
 8931SOL    HW238427   2.934   2.258  15.845  0.3156 -0.2839  0.0640
 8932SOL     OW38428   3.067   3.877   8.880  0.4785 -0.4061  0.2779
 8932SOL    HW138429   3.039   3.920   8.961  3.0819 -0.7120  1.3397
 8932SOL    HW238430   3.063   3.787   8.912  2.4787 -2.0009 -3.8748
 8933SOL     OW38431   1.249   3.897   7.172 -0.1263  1.1247  0.6151
 8933SOL    HW138432   1.230   3.860   7.086  1.4745 -0.2998  0.8799
 8933SOL    HW238433   1.344   3.892   7.162 -0.1418 -1.1281  1.6732
 8934SOL     OW38434   3.255   3.449   9.039  0.2117  0.1100 -0.3129
 8934SOL    HW138435   3.242   3.425   9.131  0.0462  0.7260 -0.1762
 8934SOL    HW238436   3.279   3.364   9.003 -1.1061 -0.1293 -0.6187
 8935SOL     OW38437   3.628   3.342   9.006 -0.4284 -0.3439 -0.0665
 8935SOL    HW138438   3.597   3.357   9.096  1.3462  1.2457  0.2731
 8935SOL    HW238439   3.566   3.277   8.973  0.5140 -0.6321 -1.2250
 8936SOL     OW38440   0.577   1.008   7.457 -0.0758 -0.0042  0.1848
 8936SOL    HW138441   0.541   0.926   7.423  0.3450  0.2730 -0.9305
 8936SOL    HW238442   0.624   0.973   7.532 -0.3082 -2.5357 -0.8496
 8937SOL     OW38443   3.682   2.710   7.866  0.2744 -0.1818 -0.0928
 8937SOL    HW138444   3.670   2.768   7.791 -0.7156  0.4180  0.5401
 8937SOL    HW238445   3.771   2.682   7.845  0.9974  0.3878  2.1766
 8938SOL     OW38446   1.357   2.378   3.776  0.0091 -0.3976 -0.3884
 8938SOL    HW138447   1.386   2.438   3.845 -1.6287  1.5554 -1.4032
 8938SOL    HW238448   1.377   2.296   3.821 -1.8751  0.7665  2.5910
 8939SOL     OW38449   3.561   2.479   7.324 -0.4023  0.2397 -0.2422
 8939SOL    HW138450   3.486   2.537   7.315 -1.4588 -0.9409  1.0676
 8939SOL    HW238451   3.513   2.396   7.326  2.1880 -1.2528  0.5987
 8940SOL     OW38452   0.864   3.765   9.461 -0.2987  0.0167 -0.3098
 8940SOL    HW138453   0.902   3.694   9.409  1.1552  0.4677  0.1161
 8940SOL    HW238454   0.830   3.819   9.391  1.3099  1.9419  0.3666
 8941SOL     OW38455   4.503   0.538   3.615 -0.1098 -0.0759 -0.0215
 8941SOL    HW138456   4.522   0.444   3.620 -2.1898 -0.3886  1.8729
 8941SOL    HW238457   4.451   0.549   3.535 -0.2389  0.9377  0.2056
 8942SOL     OW38458   1.685   3.465  15.377  0.3125 -0.3207  0.1746
 8942SOL    HW138459   1.646   3.549  15.400 -1.9565 -1.3323 -0.0047
 8942SOL    HW238460   1.609   3.409  15.394 -0.5654  0.4517 -1.1544
 8943SOL     OW38461   3.811   2.275   3.264  0.0151 -0.3000  0.6719
 8943SOL    HW138462   3.837   2.366   3.278 -0.2926 -0.1711  0.4132
 8943SOL    HW238463   3.718   2.291   3.244  0.0189 -1.5981 -0.4015
 8944SOL     OW38464   3.142   2.460   4.012 -0.3329  0.4926  0.4236
 8944SOL    HW138465   3.136   2.379   3.962  0.6365  0.9892 -0.4843
 8944SOL    HW238466   3.069   2.452   4.073  0.1491 -1.3040  0.7672
 8945SOL     OW38467   4.180   3.370   7.798  0.2333 -0.4596 -0.0598
 8945SOL    HW138468   4.123   3.426   7.746  0.1383 -0.7983 -0.3221
 8945SOL    HW238469   4.199   3.441   7.859 -1.7465 -0.3192  0.3988
 8946SOL     OW38470   4.163   0.032   6.284  0.0557  0.0011 -0.4703
 8946SOL    HW138471   4.205   4.704   6.229  0.8558 -0.0891  0.2602
 8946SOL    HW238472   4.223   0.024   6.358  0.1710  2.2304 -0.3209
 8947SOL     OW38473   2.682   4.133  14.727  0.0768  0.3754 -0.6345
 8947SOL    HW138474   2.608   4.184  14.691 -0.6641 -0.8715 -0.8657
 8947SOL    HW238475   2.691   4.084  14.646 -2.4033  0.9371 -1.2645
 8948SOL     OW38476   0.406   3.945   5.825  0.6162 -0.2682  0.2133
 8948SOL    HW138477   0.372   3.920   5.911 -0.7065  0.5244 -0.0797
 8948SOL    HW238478   0.467   3.873   5.807  1.9398  0.9629 -0.2214
 8949SOL     OW38479   3.902   2.767   5.205 -0.6701  0.2322 -0.8721
 8949SOL    HW138480   3.986   2.805   5.231 -0.6936 -2.3689  3.1616
 8949SOL    HW238481   3.925   2.674   5.194  2.2608  0.7659  0.5654
 8950SOL     OW38482   2.548   3.141   7.723  0.2435  0.0462 -0.1611
 8950SOL    HW138483   2.531   3.050   7.700  1.7403 -0.4089  0.5781
 8950SOL    HW238484   2.565   3.186   7.640 -0.2847  0.7463  0.1024
 8951SOL     OW38485   3.423   0.560  10.234  0.4309 -0.0565 -0.2480
 8951SOL    HW138486   3.434   0.617  10.158 -0.5185 -1.4170 -1.4264
 8951SOL    HW238487   3.352   0.611  10.271  1.9557  0.4460  1.9881
 8952SOL     OW38488   0.417   0.158   4.265  0.3851 -0.1078 -0.6771
 8952SOL    HW138489   0.445   0.100   4.336  0.2396  1.6149  0.7763
 8952SOL    HW238490   0.388   0.088   4.207 -2.2534  3.3252 -3.4326
 8953SOL     OW38491   0.190   1.857   4.971 -0.6027  0.4555 -0.1541
 8953SOL    HW138492   0.162   1.909   4.897  2.1908  1.7561 -0.3168
 8953SOL    HW238493   0.109   1.810   4.991 -1.2407  1.9221  0.7251
 8954SOL     OW38494   0.455   3.094   6.717 -0.1634 -0.0458 -0.2452
 8954SOL    HW138495   0.402   3.020   6.745 -2.8076  1.6473 -0.8242
 8954SOL    HW238496   0.392   3.166   6.713 -1.1197 -0.7128  3.6746
 8955SOL     OW38497   4.119   1.434   7.510  0.0565 -0.5330 -0.8864
 8955SOL    HW138498   4.166   1.378   7.571  1.3479  0.9367 -0.5538
 8955SOL    HW238499   4.135   1.516   7.556 -0.7728 -1.8441  1.7147
 8956SOL     OW38500   4.520   0.498  12.260  0.2101  0.0898 -0.3596
 8956SOL    HW138501   4.530   0.590  12.282  1.6997 -0.1021 -0.1858
 8956SOL    HW238502   4.566   0.493  12.176  1.4463 -0.1234  0.3181
 8957SOL     OW38503   2.945   0.551   3.948 -0.3720 -0.1224  0.5874
 8957SOL    HW138504   2.984   0.512   4.026  1.8228  2.3184  0.7085
 8957SOL    HW238505   3.019   0.612   3.943  0.9105 -1.6977  0.5916
 8958SOL     OW38506   2.995   0.375   3.198 -0.4974  0.3584 -0.3105
 8958SOL    HW138507   2.938   0.333   3.133 -0.8301  0.0411  0.1907
 8958SOL    HW238508   2.944   0.436   3.251  2.2458  2.6644 -0.3443
 8959SOL     OW38509   0.161   1.500  16.219  0.0389 -0.0682 -0.1090
 8959SOL    HW138510   0.124   1.557  16.151 -0.9400  2.2082  2.3226
 8959SOL    HW238511   0.083   1.465  16.262  0.7142 -1.6085 -0.1569
 8960SOL     OW38512   3.247   3.783   9.837  0.4135  0.0987  0.0409
 8960SOL    HW138513   3.200   3.845   9.892 -0.4032 -1.6950  1.3638
 8960SOL    HW238514   3.326   3.773   9.891 -1.3066  0.4391  2.6372
 8961SOL     OW38515   3.079   3.789   7.918 -0.0939 -0.1271  0.3639
 8961SOL    HW138516   3.053   3.777   8.010  0.1064  1.0605  0.5716
 8961SOL    HW238517   3.050   3.876   7.892 -1.3592 -1.0897 -1.4102
 8962SOL     OW38518   1.185   3.395   9.319  0.6028  0.2587 -0.2500
 8962SOL    HW138519   1.134   3.471   9.347 -0.7627 -0.8951  0.3501
 8962SOL    HW238520   1.192   3.342   9.399 -3.1950 -0.7481 -0.6174
 8963SOL     OW38521   0.398   4.153   3.604 -0.1748 -0.8609  0.1187
 8963SOL    HW138522   0.397   4.201   3.521 -1.6403 -0.7501  0.2007
 8963SOL    HW238523   0.387   4.225   3.666 -1.3595 -0.8657 -0.0750
 8964SOL     OW38524   1.865   2.468   3.947 -0.2956 -0.9276 -0.4118
 8964SOL    HW138525   1.909   2.497   4.027  0.4455 -0.7550 -0.8749
 8964SOL    HW238526   1.922   2.406   3.901  1.2745 -0.3957  0.8002
 8965SOL     OW38527   3.021   0.268   6.952  0.0311 -0.0949 -0.3102
 8965SOL    HW138528   3.098   0.325   6.951  0.7556 -1.0532  3.0481
 8965SOL    HW238529   3.039   0.212   7.028 -1.1583  0.2547  0.2221
 8966SOL     OW38530   2.014   1.618   0.851  0.1613 -0.2196 -0.1026
 8966SOL    HW138531   2.005   1.682   0.921 -1.5096  0.6338 -1.1073
 8966SOL    HW238532   1.979   1.541   0.897 -2.4282  1.3464  0.5238
 8967SOL     OW38533   2.647   0.266   7.659  0.0197 -0.0331 -0.4075
 8967SOL    HW138534   2.571   0.305   7.703 -0.8920 -0.0547 -1.9682
 8967SOL    HW238535   2.600   0.216   7.593  0.5463 -0.1091 -0.7229
 8968SOL     OW38536   2.030   0.357   5.383 -0.1935  0.2174 -0.6941
 8968SOL    HW138537   2.114   0.374   5.425 -0.9212  1.5378  0.2409
 8968SOL    HW238538   2.020   0.442   5.342  0.2034 -0.3997 -2.0520
 8969SOL     OW38539   0.319   3.298   3.950 -0.0271 -0.0771  0.2225
 8969SOL    HW138540   0.275   3.213   3.963  1.9063 -0.9518  0.9346
 8969SOL    HW238541   0.319   3.314   4.044 -0.4876 -5.2184  1.1329
 8970SOL     OW38542   1.073   2.065   7.627  0.5077 -0.5593 -0.1418
 8970SOL    HW138543   1.061   2.129   7.557  0.8609  2.9128  2.9149
 8970SOL    HW238544   0.981   2.039   7.630  1.0152 -2.2619  0.6359
 8971SOL     OW38545   2.211   3.670   4.013 -0.5290 -0.2750 -0.3188
 8971SOL    HW138546   2.142   3.604   4.002  0.9569 -1.4287 -2.8644
 8971SOL    HW238547   2.194   3.720   4.092  1.9147 -1.4723  0.9489
 8972SOL     OW38548   2.628   2.003  10.735 -0.1674 -0.1665  0.1077
 8972SOL    HW138549   2.650   1.980  10.825  1.9155  0.1824 -0.3047
 8972SOL    HW238550   2.595   2.092  10.745  0.0128  0.0418 -1.1188
 8973SOL     OW38551   0.609   2.282   1.864  0.1305 -0.5175 -0.0821
 8973SOL    HW138552   0.694   2.294   1.907 -1.1990  0.6147  2.2341
 8973SOL    HW238553   0.606   2.188   1.850  0.8207 -0.6671  0.7749
 8974SOL     OW38554   2.640   4.188   5.291 -0.2208 -0.0169 -0.7181
 8974SOL    HW138555   2.707   4.120   5.293  0.2260  0.3929 -1.5307
 8974SOL    HW238556   2.607   4.189   5.380  0.3882  3.0505 -0.5137
 8975SOL     OW38557   1.780   4.111   6.936  0.3663  0.2824 -0.4345
 8975SOL    HW138558   1.862   4.074   6.967  0.3409  0.8993  0.3804
 8975SOL    HW238559   1.795   4.203   6.959  0.2565 -0.2472  1.7758
 8976SOL     OW38560   1.303   0.295  13.816 -0.2255 -0.4603  0.4600
 8976SOL    HW138561   1.212   0.266  13.803 -0.9509  2.4079 -0.9702
 8976SOL    HW238562   1.357   0.225  13.779  1.6426  2.0341 -1.5131
 8977SOL     OW38563   3.436   4.239  10.492 -0.2249 -0.4087  0.4488
 8977SOL    HW138564   3.355   4.207  10.454  0.8565 -0.3188 -1.9668
 8977SOL    HW238565   3.441   4.329  10.460 -1.0587 -0.7770 -0.7191
 8978SOL     OW38566   1.423   3.921  11.013  0.3155 -0.3997  0.2137
 8978SOL    HW138567   1.463   4.003  10.984 -0.1725  0.2677  1.4326
 8978SOL    HW238568   1.421   3.865  10.935  2.1895 -1.8165  1.1533
 8979SOL     OW38569   0.958   3.764  13.303  0.2449  0.0972 -0.2653
 8979SOL    HW138570   0.987   3.848  13.339  0.5916  0.4748 -1.4477
 8979SOL    HW238571   0.925   3.718  13.381  0.4051 -1.4340 -1.0933
 8980SOL     OW38572   0.645   4.265   8.928  0.4208  0.0819  0.3560
 8980SOL    HW138573   0.669   4.188   8.876 -0.1716 -1.1562  1.8964
 8980SOL    HW238574   0.676   4.346   8.888 -0.3813  0.2354  0.0384
 8981SOL     OW38575   4.307   4.228   2.207  0.2552  0.3705 -0.1901
 8981SOL    HW138576   4.233   4.202   2.153 -0.9588  0.0600  1.6172
 8981SOL    HW238577   4.317   4.164   2.278 -1.6378  0.5910  0.2598
 8982SOL     OW38578   2.123   1.905   1.844 -0.6478  0.1675  0.5877
 8982SOL    HW138579   2.161   1.903   1.756 -0.6735 -0.6477  0.5944
 8982SOL    HW238580   2.032   1.928   1.825 -0.3227  0.4490 -0.6758
 8983SOL     OW38581   2.674   4.124   4.277  0.0236 -0.0234 -0.2747
 8983SOL    HW138582   2.746   4.164   4.326  0.3399 -2.2545  1.0756
 8983SOL    HW238583   2.633   4.202   4.241  0.7419  0.7295  0.5438
 8984SOL     OW38584   3.473   1.459   4.104 -0.1697 -0.1214 -0.2322
 8984SOL    HW138585   3.491   1.430   4.015  0.6222  0.8826 -0.3998
 8984SOL    HW238586   3.398   1.518   4.092  1.0373  1.7171  1.1176
 8985SOL     OW38587   0.380   2.445   0.535  0.0281  0.1838  0.5626
 8985SOL    HW138588   0.457   2.493   0.565  1.1765 -1.4697  0.2714
 8985SOL    HW238589   0.386   2.368   0.591  0.9746 -0.8012 -0.9112
 8986SOL     OW38590   1.221   1.798   1.498  0.4806  0.1411 -0.5012
 8986SOL    HW138591   1.310   1.826   1.475  0.5731 -0.5192 -0.9642
 8986SOL    HW238592   1.173   1.826   1.420 -3.2683 -1.8746  1.1255
 8987SOL     OW38593   3.478   0.788   7.566 -0.0108  0.1805  0.2136
 8987SOL    HW138594   3.542   0.755   7.630 -0.5210  0.4443  0.8616
 8987SOL    HW238595   3.425   0.839   7.627 -0.1897 -0.0918  0.2860
 8988SOL     OW38596   2.951   2.928  17.648  0.5645  0.4236 -0.1437
 8988SOL    HW138597   2.992   2.863  17.591 -1.7780 -2.2939  1.2360
 8988SOL    HW238598   3.020   2.951  17.710 -1.2507  0.1812  1.9848
 8989SOL     OW38599   4.035   2.960   8.034 -0.2901  0.7657 -0.1860
 8989SOL    HW138600   4.090   2.912   8.096  2.6442  1.5722 -2.1713
 8989SOL    HW238601   4.011   3.036   8.087 -0.9384  0.6603 -0.3388
 8990SOL     OW38602   0.653   1.008   5.127  0.0877  0.1804 -0.1166
 8990SOL    HW138603   0.660   0.931   5.071  0.1018 -0.9271  1.4094
 8990SOL    HW238604   0.583   1.053   5.080 -0.2186 -0.5646 -0.3770
 8991SOL     OW38605   3.111   1.765   8.064 -0.1285  0.0825 -0.0806
 8991SOL    HW138606   3.019   1.772   8.091 -0.1445 -2.9358  0.6721
 8991SOL    HW238607   3.104   1.749   7.970 -1.1888  0.1232 -0.0170
 8992SOL     OW38608   1.295   0.573  13.978  0.3579 -0.0308 -0.6079
 8992SOL    HW138609   1.295   0.569  14.074 -0.4796  0.5975 -0.5819
 8992SOL    HW238610   1.285   0.479  13.962 -0.2512  0.0128 -0.4945
 8993SOL     OW38611   2.816   2.640   3.107  0.4227  0.0561 -0.0342
 8993SOL    HW138612   2.728   2.614   3.078  1.2836 -1.9659 -0.7916
 8993SOL    HW238613   2.804   2.735   3.106 -1.4161 -0.1513  0.8309
 8994SOL     OW38614   0.204   0.902   2.956 -0.4331  0.1106 -0.0272
 8994SOL    HW138615   0.277   0.958   2.931  1.4906 -2.8181 -0.9651
 8994SOL    HW238616   0.259   0.836   2.999 -0.5970 -0.2086 -0.3172
 8995SOL     OW38617   3.119   1.266   8.442 -0.0212 -0.1161 -0.0587
 8995SOL    HW138618   3.134   1.212   8.364  1.0641  1.6126 -1.0461
 8995SOL    HW238619   3.053   1.218   8.492  0.5748  1.2143  1.9910
 8996SOL     OW38620   3.844   4.635   5.555  0.2352  0.5226 -0.5044
 8996SOL    HW138621   3.912   4.695   5.586  0.2797  0.9254 -1.3540
 8996SOL    HW238622   3.774   4.700   5.553 -1.4388 -1.3113 -1.4141
 8997SOL     OW38623   2.066   2.618   2.651 -0.0937  0.1667  0.7717
 8997SOL    HW138624   2.063   2.533   2.608 -0.5614 -0.0379  1.2117
 8997SOL    HW238625   1.989   2.659   2.612  0.4689  1.5800  1.1407
 8998SOL     OW38626   2.244   2.864   7.020 -0.0563 -0.5017 -0.2112
 8998SOL    HW138627   2.227   2.933   6.956 -1.4724  0.6886  1.4391
 8998SOL    HW238628   2.172   2.883   7.081 -0.7318 -0.6800 -0.9457
 8999SOL     OW38629   3.173   4.192  11.668 -0.5875  0.3684  0.1212
 8999SOL    HW138630   3.084   4.179  11.700  0.1626  0.9316  2.3920
 8999SOL    HW238631   3.193   4.107  11.628  0.0542 -0.5957  2.4492
 9000SOL     OW38632   4.377   3.602   9.060 -0.1013  0.3335  0.5429
 9000SOL    HW138633   4.354   3.514   9.028 -1.1153  1.1307 -0.9053
 9000SOL    HW238634   4.406   3.574   9.147 -3.0030 -0.7233  1.1493
 9001SOL     OW38635   2.368   3.079  10.025 -0.0373  0.2146  0.2064
 9001SOL    HW138636   2.294   3.020  10.039 -0.1067 -0.0805 -1.4523
 9001SOL    HW238637   2.428   3.047  10.093 -0.4155 -1.0561 -0.0634
 9002SOL     OW38638   0.457   2.795   5.569 -0.2912  0.4287 -0.3122
 9002SOL    HW138639   0.468   2.724   5.632 -0.5187  0.7974  0.1459
 9002SOL    HW238640   0.398   2.753   5.507 -0.3690 -0.1679  0.1695
 9003SOL     OW38641   3.227   1.874   3.214  0.4054 -0.5529 -0.1792
 9003SOL    HW138642   3.227   1.801   3.276 -2.5795  0.5337  1.1056
 9003SOL    HW238643   3.236   1.829   3.131 -1.7575  0.7293 -1.1133
 9004SOL     OW38644   3.665   1.222  10.083 -0.2163  0.7532 -0.4760
 9004SOL    HW138645   3.744   1.215  10.030  0.4364 -0.6730  0.6943
 9004SOL    HW238646   3.613   1.287  10.037 -2.4308 -1.2323 -0.7330
 9005SOL     OW38647   4.025   1.947  11.863  0.2277  0.3520  0.1678
 9005SOL    HW138648   4.031   1.946  11.958 -1.1139 -1.2063  0.2182
 9005SOL    HW238649   4.004   1.856  11.843 -0.4794  0.1989  1.6324
 9006SOL     OW38650   3.802   2.673   9.862 -0.4659  0.3237  0.2310
 9006SOL    HW138651   3.739   2.601   9.868  0.2333 -0.1373  1.8767
 9006SOL    HW238652   3.762   2.731   9.926  0.2652 -0.5882  1.5272
 9007SOL     OW38653   3.958   4.493  10.729  0.2104 -0.0719 -0.0375
 9007SOL    HW138654   3.865   4.484  10.750  0.3523 -0.9993  0.1632
 9007SOL    HW238655   3.959   4.559  10.659 -0.5263  1.4736  1.4031
 9008SOL     OW38656   0.419   3.117   2.214 -0.0560  0.0219 -0.4757
 9008SOL    HW138657   0.469   3.162   2.282 -1.2041  1.2151 -0.4376
 9008SOL    HW238658   0.428   3.172   2.136  1.0115 -1.1198 -1.1622
 9009SOL     OW38659   0.399   0.787   7.529 -0.5968  0.2380 -0.1556
 9009SOL    HW138660   0.358   0.858   7.579  0.1836  1.6943 -1.6261
 9009SOL    HW238661   0.398   0.724   7.601  4.2253 -1.0019 -1.2014
 9010SOL     OW38662   0.214   1.746   5.720 -0.0410  0.7186 -0.1000
 9010SOL    HW138663   0.182   1.668   5.766  2.7841 -1.6119 -2.0977
 9010SOL    HW238664   0.249   1.797   5.793  1.1268 -0.0072 -0.1614
 9011SOL     OW38665   4.302   3.236   5.754 -0.6683  0.4025 -0.5724
 9011SOL    HW138666   4.231   3.278   5.706  0.2341  1.3758 -1.0524
 9011SOL    HW238667   4.308   3.151   5.711 -2.7827  0.9137 -1.8266
 9012SOL     OW38668   4.658   3.048   8.633  0.0018 -0.0874 -0.0628
 9012SOL    HW138669   4.673   3.000   8.552 -0.5781  2.0214 -1.3947
 9012SOL    HW238670   4.591   2.995   8.677  0.1049 -0.8381 -0.8066
 9013SOL     OW38671   3.807   1.934   8.797 -0.1295  0.0974  0.1120
 9013SOL    HW138672   3.742   1.899   8.858  0.1705 -0.3556  0.1716
 9013SOL    HW238673   3.785   2.027   8.786 -0.4953 -0.0665 -0.5094
 9014SOL     OW38674   3.151   1.270   2.683  0.2293 -0.7601  0.1966
 9014SOL    HW138675   3.080   1.299   2.741 -1.5680 -2.0960 -1.3257
 9014SOL    HW238676   3.098   1.268   2.603  0.8251 -0.3417 -0.2078
 9015SOL     OW38677   3.722   2.728   5.001 -0.1192 -0.6772  0.1337
 9015SOL    HW138678   3.637   2.721   5.045 -0.9547  1.5169 -1.1471
 9015SOL    HW238679   3.766   2.785   5.064 -1.8327  0.4005  0.3368
 9016SOL     OW38680   1.481   2.723   0.512 -0.2306  0.6878 -0.2578
 9016SOL    HW138681   1.477   2.815   0.538  0.3692  0.7782 -0.4893
 9016SOL    HW238682   1.559   2.697   0.562  0.1331  1.9983 -0.1521
 9017SOL     OW38683   0.798   1.998   5.599 -0.2194 -0.1239  0.3475
 9017SOL    HW138684   0.771   1.907   5.587  2.5578 -1.1289  1.7538
 9017SOL    HW238685   0.841   1.991   5.684 -0.1222  1.3440  0.4125
 9018SOL     OW38686   3.145   1.195   7.537 -0.5268  0.4144  0.1644
 9018SOL    HW138687   3.096   1.272   7.566  1.5354  2.1019 -0.8626
 9018SOL    HW238688   3.174   1.229   7.453  1.3809  0.1348  0.7003
 9019SOL     OW38689   3.331   4.500  10.392  1.0478  0.2983  0.1872
 9019SOL    HW138690   3.320   4.480  10.299  4.6277  0.6513 -0.3199
 9019SOL    HW238691   3.244   4.532  10.415  1.6282 -0.0747  2.8454
 9020SOL     OW38692   1.197   3.443   5.456 -0.3252  0.0428  0.4297
 9020SOL    HW138693   1.249   3.479   5.383  0.4880 -0.0703  0.9515
 9020SOL    HW238694   1.113   3.434   5.412  0.2181  2.7233 -1.1801
 9021SOL     OW38695   4.395   3.190   2.142  0.5136  0.0221  0.1435
 9021SOL    HW138696   4.323   3.131   2.165  0.0717  1.0104  1.2917
 9021SOL    HW238697   4.472   3.162   2.190  0.0723 -0.5088  0.5436
 9022SOL     OW38698   3.870   3.113   9.767  0.0656 -0.1277  0.1161
 9022SOL    HW138699   3.851   3.115   9.861  1.6560  1.7364  0.4077
 9022SOL    HW238700   3.833   3.197   9.740 -3.7533 -1.3965  1.3588
 9023SOL     OW38701   0.389   0.865   3.650 -0.1744 -0.3920  0.1679
 9023SOL    HW138702   0.360   0.956   3.644 -1.0670 -0.7270 -0.6100
 9023SOL    HW238703   0.336   0.844   3.727 -2.1441  0.5361 -0.9369
 9024SOL     OW38704   1.013   0.840   9.467 -0.1559  0.2725 -0.2669
 9024SOL    HW138705   0.924   0.873   9.465 -0.3172 -0.2158 -1.1356
 9024SOL    HW238706   1.013   0.793   9.383  2.0979 -0.4734  0.1594
 9025SOL     OW38707   2.462   1.764   8.583 -0.3548  0.0128 -0.0869
 9025SOL    HW138708   2.406   1.793   8.511 -0.2138 -1.7997 -0.9313
 9025SOL    HW238709   2.549   1.798   8.559 -0.2058  0.5733  1.2228
 9026SOL     OW38710   0.710   4.006   8.822  0.1079  0.5764  0.6608
 9026SOL    HW138711   0.698   4.013   8.727  0.3437  0.6776  0.6372
 9026SOL    HW238712   0.742   3.917   8.832 -0.0178  0.5965  1.2519
 9027SOL     OW38713   2.989   0.751  12.374  0.4544 -0.4841  0.1363
 9027SOL    HW138714   2.927   0.770  12.302  0.1080 -1.4820  0.1770
 9027SOL    HW238715   2.926   0.742  12.446 -1.1845  0.4129 -1.1619
 9028SOL     OW38716   4.165   0.833  12.461  0.3419 -0.3417  0.0804
 9028SOL    HW138717   4.240   0.843  12.403 -1.7500  0.8501 -2.4211
 9028SOL    HW238718   4.143   0.921  12.493 -0.4877 -0.7289  0.5902
 9029SOL     OW38719   0.201   2.391   1.659  0.3112  0.1169  0.4829
 9029SOL    HW138720   0.270   2.428   1.604  1.5234  0.0275  1.9459
 9029SOL    HW238721   0.212   2.455   1.729  1.0385  0.6445 -0.1153
 9030SOL     OW38722   2.206   4.098  10.180 -0.1140  0.3761  0.1609
 9030SOL    HW138723   2.135   4.114  10.243  0.3505 -2.0214  1.2786
 9030SOL    HW238724   2.269   4.155  10.222  0.7989 -1.1384  0.8394
 9031SOL     OW38725   1.958   2.045   0.390  0.4292 -0.0840 -0.1135
 9031SOL    HW138726   1.866   2.047   0.418  0.8386 -0.8819  1.3538
 9031SOL    HW238727   1.999   2.022   0.474  1.3402 -0.1131 -0.5677
 9032SOL     OW38728   3.404   4.205   2.632 -0.2203 -0.4439  0.4440
 9032SOL    HW138729   3.390   4.286   2.680  0.3942  0.3890 -0.7768
 9032SOL    HW238730   3.334   4.150   2.668  0.0355 -1.3305 -0.4189
 9033SOL     OW38731   2.616   2.560   4.045 -0.0811  0.1840  0.7954
 9033SOL    HW138732   2.601   2.591   4.134 -1.0179 -2.2539  1.5018
 9033SOL    HW238733   2.668   2.482   4.066  1.6319  1.0733 -0.0852
 9034SOL     OW38734   2.172   0.197   3.973 -0.7011  0.3623 -0.0796
 9034SOL    HW138735   2.188   0.102   3.976 -3.7661 -0.1221  2.0655
 9034SOL    HW238736   2.083   0.189   3.939 -1.7842  0.1746  2.7851
 9035SOL     OW38737   4.408   0.978   5.796  0.3372  0.3694  0.2912
 9035SOL    HW138738   4.340   1.044   5.784  1.6216  1.7190  0.3680
 9035SOL    HW238739   4.374   0.922   5.865 -2.7005  1.7413 -0.1042
 9036SOL     OW38740   3.761   3.629   5.162 -0.3545  0.1268 -0.5391
 9036SOL    HW138741   3.723   3.650   5.077 -1.3080 -2.7550 -0.8148
 9036SOL    HW238742   3.830   3.565   5.143 -2.2570 -2.1751  0.3120
 9037SOL     OW38743   1.805   1.934   8.641  0.3345  0.3123 -0.3097
 9037SOL    HW138744   1.805   1.839   8.654 -0.3653  0.3431 -0.1005
 9037SOL    HW238745   1.854   1.963   8.718  0.7212  1.0170 -0.8248
 9038SOL     OW38746   0.382   4.691  16.444  0.1431 -0.2137 -0.4053
 9038SOL    HW138747   0.339   4.615  16.485  0.7278 -1.8416 -2.8054
 9038SOL    HW238748   0.369   4.660  16.355  3.0557 -1.2732 -0.4555
 9039SOL     OW38749   4.496   3.001  15.310  0.3407 -0.5501 -0.2017
 9039SOL    HW138750   4.463   2.923  15.265 -0.5739 -1.0359  1.3051
 9039SOL    HW238751   4.491   2.969  15.400  0.5690  1.6306  0.5869
 9040SOL     OW38752   2.091   0.403   7.306 -0.0363 -0.3733  0.3052
 9040SOL    HW138753   2.027   0.357   7.360  0.0818  0.9539  1.5661
 9040SOL    HW238754   2.061   0.370   7.221 -1.3623 -2.7300  1.6721
 9041SOL     OW38755   1.926   0.068  12.160  0.0629  0.5530  0.3714
 9041SOL    HW138756   2.012   0.094  12.126 -0.4067  0.8807 -0.5610
 9041SOL    HW238757   1.907   0.135  12.226 -0.9670  1.6988 -1.0918
 9042SOL     OW38758   1.031   1.537   0.627 -0.2225  0.2911  0.0487
 9042SOL    HW138759   1.023   1.587   0.545 -0.5050  0.0371 -0.0770
 9042SOL    HW238760   1.005   1.448   0.603  0.3032  0.2147 -0.2164
 9043SOL     OW38761   3.614   1.744  11.987 -0.1922  0.4725  0.7329
 9043SOL    HW138762   3.621   1.667  12.044  2.6947  0.3169  0.1326
 9043SOL    HW238763   3.520   1.759  11.978 -0.3341 -2.3320 -2.4205
 9044SOL     OW38764   3.202   0.959   0.633 -0.2340 -0.4978  0.1081
 9044SOL    HW138765   3.271   1.017   0.599 -1.5146  0.2310 -1.2539
 9044SOL    HW238766   3.128   1.016   0.656 -0.2859 -0.2605 -0.6484
 9045SOL     OW38767   0.648   2.050   9.231 -0.5439  0.0275 -0.0931
 9045SOL    HW138768   0.629   2.049   9.325 -0.1402 -0.2838 -0.0129
 9045SOL    HW238769   0.574   2.002   9.194 -0.0865 -0.2953 -0.5952
 9046SOL     OW38770   0.549   0.378   4.147  1.3314 -0.6166 -0.1964
 9046SOL    HW138771   0.531   0.364   4.054  1.8462 -1.1985 -0.2152
 9046SOL    HW238772   0.492   0.313   4.187 -1.0831  1.1176 -0.8586
 9047SOL     OW38773   3.485   3.024   1.485 -0.1121  0.1085  0.3947
 9047SOL    HW138774   3.493   2.937   1.526 -0.6965 -0.5120 -0.8082
 9047SOL    HW238775   3.560   3.070   1.524  0.4385  1.7712 -2.6477
 9048SOL     OW38776   3.596   0.519  17.208  0.1707  0.1965 -0.3452
 9048SOL    HW138777   3.608   0.612  17.186 -1.1104 -0.4079 -3.6071
 9048SOL    HW238778   3.503   0.502  17.194  0.6400 -1.6492 -1.1270
 9049SOL     OW38779   1.428   4.382  14.175 -0.4276 -0.0642  0.2640
 9049SOL    HW138780   1.363   4.452  14.167 -0.1379 -0.0572 -1.9854
 9049SOL    HW238781   1.503   4.442  14.180 -0.8601  0.5879 -1.2420
 9050SOL     OW38782   2.784   2.007   2.197  0.5827  0.3932 -0.2160
 9050SOL    HW138783   2.750   2.012   2.286  1.6743 -3.4410  0.4365
 9050SOL    HW238784   2.754   1.918   2.178 -2.1724  1.2648  0.0811
 9051SOL     OW38785   2.447   1.742   9.700 -0.3722  0.1730  0.2530
 9051SOL    HW138786   2.480   1.828   9.726 -2.8441  0.4748  2.4118
 9051SOL    HW238787   2.522   1.683   9.710  0.3174  0.7092 -1.7160
 9052SOL     OW38788   0.142   0.569   5.728  0.1960 -0.6830 -0.3713
 9052SOL    HW138789   0.219   0.517   5.750  2.1606  1.7620 -1.3944
 9052SOL    HW238790   0.082   0.514   5.678  0.0673 -0.7353 -0.1585
 9053SOL     OW38791   2.151   0.397   8.175  0.0832  0.3074 -0.2171
 9053SOL    HW138792   2.145   0.377   8.269 -0.1315  0.6625 -0.1558
 9053SOL    HW238793   2.079   0.459   8.166 -1.0323 -0.6732  1.9414
 9054SOL     OW38794   0.213   0.304   8.102 -0.1345 -0.9212  0.4302
 9054SOL    HW138795   0.187   0.257   8.182 -0.8791 -3.8101 -1.5033
 9054SOL    HW238796   0.130   0.307   8.055  0.2513  0.5226 -0.1424
 9055SOL     OW38797   3.749   2.312   5.033  0.2067  0.2516 -0.3401
 9055SOL    HW138798   3.831   2.361   5.031 -0.4895  1.4351 -0.3155
 9055SOL    HW238799   3.775   2.262   5.110  0.0671  0.1133 -0.3814
 9056SOL     OW38800   3.456   2.942   7.369  0.1749  0.1298 -0.5003
 9056SOL    HW138801   3.376   2.901   7.403 -0.4625  2.0055  0.2566
 9056SOL    HW238802   3.480   2.898   7.287  0.2433  0.5162 -0.6874
 9057SOL     OW38803   3.402   4.643   9.606  0.5651 -0.0044 -0.6249
 9057SOL    HW138804   3.410   4.611   9.517  4.4775  0.4901 -0.4340
 9057SOL    HW238805   3.452   4.724   9.616 -1.5049  1.1670  0.3549
 9058SOL     OW38806   2.430   1.958   5.441 -0.4091  0.5734 -0.3042
 9058SOL    HW138807   2.483   1.912   5.376  2.5626  0.0759  2.4885
 9058SOL    HW238808   2.473   1.940   5.525  0.1630 -2.0262 -1.1486
 9059SOL     OW38809   1.515   3.068   3.250 -0.3993  0.5828  0.5345
 9059SOL    HW138810   1.600   3.030   3.229 -1.1325 -1.4817  1.2817
 9059SOL    HW238811   1.460   2.991   3.261 -0.3998  0.3764 -0.9883
 9060SOL     OW38812   4.462   1.913   6.572  0.6021  0.3339  0.5372
 9060SOL    HW138813   4.494   1.883   6.658 -0.0029  1.6013  1.2050
 9060SOL    HW238814   4.536   1.901   6.512  0.1851 -2.3587  0.5311
 9061SOL     OW38815   1.958   3.089   5.854 -0.1115  0.3992 -0.0628
 9061SOL    HW138816   1.913   3.126   5.779 -0.6386  0.6604  0.3836
 9061SOL    HW238817   1.941   2.995   5.850 -0.1814  0.4146 -0.1156
 9062SOL     OW38818   1.505   3.182   4.232  0.0943 -0.4909  0.0940
 9062SOL    HW138819   1.572   3.142   4.178 -0.8018 -1.2084 -0.4917
 9062SOL    HW238820   1.494   3.112   4.296 -0.2644  0.3457  0.9590
 9063SOL     OW38821   1.360   1.685   3.327  0.3923 -0.2268  0.3342
 9063SOL    HW138822   1.406   1.688   3.411  0.4655 -1.4347  0.3365
 9063SOL    HW238823   1.270   1.695   3.359  0.0848  0.4636 -0.7503
 9064SOL     OW38824   0.717   4.527   8.840  0.4725  0.3597 -0.4395
 9064SOL    HW138825   0.669   4.605   8.816  1.0224  1.0521  0.7065
 9064SOL    HW238826   0.747   4.556   8.927 -1.6177 -1.0213  0.7393
 9065SOL     OW38827   1.825   0.398   2.925 -0.2526  0.0232 -0.4781
 9065SOL    HW138828   1.759   0.458   2.892  0.7313  0.7386 -1.1298
 9065SOL    HW238829   1.896   0.408   2.861  0.7383 -3.1056  0.1028
 9066SOL     OW38830   3.245   1.527   4.893 -0.5835 -0.2907 -0.5066
 9066SOL    HW138831   3.160   1.569   4.898 -0.0753  0.2147  3.9737
 9066SOL    HW238832   3.306   1.596   4.920  0.1017 -1.4858  0.9984
 9067SOL     OW38833   0.016   0.213  11.136 -0.0184 -0.3644  0.2356
 9067SOL    HW138834   4.706   0.291  11.161  0.2669  0.3620 -1.5050
 9067SOL    HW238835   0.096   0.227  11.186  0.2751 -1.0174 -0.0484
 9068SOL     OW38836   0.012   4.291  10.243  0.4094 -0.3593 -0.0120
 9068SOL    HW138837   4.684   4.232  10.279 -2.4334  3.6001  1.1406
 9068SOL    HW238838   0.089   4.233  10.248 -0.1260 -0.7353  3.4677
 9069SOL     OW38839   2.578   1.033  11.905 -0.0035  0.1559 -0.1302
 9069SOL    HW138840   2.565   1.093  11.832  2.4363  1.9499  0.8779
 9069SOL    HW238841   2.542   1.084  11.977 -1.1042 -0.4806 -0.2390
 9070SOL     OW38842   0.392   4.651   7.173 -0.4795  0.3557  0.3924
 9070SOL    HW138843   0.419   4.604   7.093  0.0970  1.1619  0.1119
 9070SOL    HW238844   0.430   4.737   7.155  0.5112  0.1026  1.2581
 9071SOL     OW38845   4.386   4.256   3.808  0.7191  0.0496  0.0573
 9071SOL    HW138846   4.462   4.304   3.841  1.1322 -2.7267  3.1380
 9071SOL    HW238847   4.333   4.248   3.887  0.1791 -2.0769 -0.5091
 9072SOL     OW38848   2.708   0.564   0.548  0.1707  0.0052 -0.0266
 9072SOL    HW138849   2.751   0.570   0.463 -1.9416 -1.3491 -1.2084
 9072SOL    HW238850   2.771   0.611   0.603 -0.4314  0.1823  0.5155
 9073SOL     OW38851   0.807   2.605   3.182  0.2677 -0.6600 -0.2962
 9073SOL    HW138852   0.888   2.638   3.221  2.0665 -2.9395 -2.0555
 9073SOL    HW238853   0.813   2.639   3.093  0.7979  0.8614  0.3150
 9074SOL     OW38854   4.426   2.907   3.069 -0.1317  0.2629 -0.6018
 9074SOL    HW138855   4.479   2.906   2.990 -0.7522 -2.9629 -0.9790
 9074SOL    HW238856   4.351   2.945   3.024  1.2103  4.2038  0.5302
 9075SOL     OW38857   1.687   3.013  10.504  0.3339 -0.4827  0.0035
 9075SOL    HW138858   1.777   3.003  10.535 -0.1648  0.4956  1.7965
 9075SOL    HW238859   1.700   3.005  10.409  0.0625 -0.0270 -0.0692
 9076SOL     OW38860   2.985   1.316   8.984  0.0245  0.0960 -0.5590
 9076SOL    HW138861   2.930   1.282   9.055  0.9950 -2.2252 -0.9034
 9076SOL    HW238862   2.990   1.234   8.934 -0.9562 -0.2153 -0.1474
 9077SOL     OW38863   3.846   0.959   0.151 -0.1964  0.1992 -0.1158
 9077SOL    HW138864   3.802   0.891   0.099  1.4277 -1.5920  0.8630
 9077SOL    HW238865   3.780   1.027   0.160  0.7446  1.3554 -2.0004
 9078SOL     OW38866   0.286   1.114  14.585 -0.2577 -0.6920 -0.3365
 9078SOL    HW138867   0.370   1.119  14.630  0.1606 -2.2430 -0.9282
 9078SOL    HW238868   0.323   1.120  14.497  1.4548 -1.0720  0.3604
 9079SOL     OW38869   2.920   3.727   8.632  0.7983  0.2073  0.0868
 9079SOL    HW138870   2.960   3.694   8.552 -1.0720 -2.1809  0.1299
 9079SOL    HW238871   2.997   3.748   8.684  0.1507  0.3320  1.0037
 9080SOL     OW38872   0.947   4.718   3.029 -0.6070 -0.5824  0.0152
 9080SOL    HW138873   0.880   4.702   3.096 -0.2571 -0.9259  0.2780
 9080SOL    HW238874   0.894   0.008   2.955  1.9960  0.3083 -1.4971
 9081SOL     OW38875   3.426   1.286   5.371 -0.5987 -0.5476  0.3894
 9081SOL    HW138876   3.403   1.195   5.355  4.6377 -2.0811  1.5221
 9081SOL    HW238877   3.518   1.286   5.398  0.1536  0.9222 -2.1713
 9082SOL     OW38878   2.649   1.161   4.154  0.0212  0.0764  0.1110
 9082SOL    HW138879   2.725   1.120   4.195  1.0149  0.7753 -1.0350
 9082SOL    HW238880   2.581   1.094   4.166  0.5116 -0.9434 -2.9009
 9083SOL     OW38881   1.500   3.304   5.372 -0.3880 -0.0561 -0.9855
 9083SOL    HW138882   1.428   3.247   5.347 -3.1884  3.3529 -0.8344
 9083SOL    HW238883   1.505   3.355   5.291  1.2254 -0.5479 -1.2030
 9084SOL     OW38884   4.537   0.633   2.002  0.0109  0.1830 -0.0275
 9084SOL    HW138885   4.473   0.692   2.042  0.5676 -0.2453  1.4822
 9084SOL    HW238886   4.524   0.646   1.908 -2.2407 -1.2750  0.0759
 9085SOL     OW38887   4.603   1.053   2.934  0.0733  0.0695  0.3827
 9085SOL    HW138888   4.648   1.021   3.012 -1.6187 -1.0793  0.8687
 9085SOL    HW238889   4.542   1.112   2.976 -0.0285  2.0577 -2.5695
 9086SOL     OW38890   4.537   1.962  14.252  0.1918 -0.0434  0.0823
 9086SOL    HW138891   4.599   1.907  14.299  2.6353  2.3783 -0.2690
 9086SOL    HW238892   4.485   1.900  14.202  1.5675 -0.5192 -0.7559
 9087SOL     OW38893   1.542   2.587   2.694  0.0961  0.9416 -0.2043
 9087SOL    HW138894   1.488   2.509   2.683 -0.3436  1.5624 -2.4143
 9087SOL    HW238895   1.486   2.650   2.739  1.8992  1.6619  1.0425
 9088SOL     OW38896   3.185   1.242   3.300  0.0639 -0.4875 -0.1906
 9088SOL    HW138897   3.134   1.164   3.324 -0.9085 -0.0079 -0.6862
 9088SOL    HW238898   3.168   1.238   3.206 -1.2714 -1.0865  0.0681
 9089SOL     OW38899   0.104   2.330   2.839 -0.7194  0.1515  0.3181
 9089SOL    HW138900   0.046   2.306   2.767 -1.7213 -0.0781  1.1921
 9089SOL    HW238901   0.082   2.423   2.841  0.3915  0.3973  0.8946
 9090SOL     OW38902   3.599   2.618   9.162 -0.3248  0.0037 -0.4536
 9090SOL    HW138903   3.628   2.656   9.080  0.8009  2.0114  0.8736
 9090SOL    HW238904   3.550   2.541   9.132  0.4556 -0.0283 -1.6257
 9091SOL     OW38905   2.711   4.319   0.925  0.7575 -0.2157  0.3111
 9091SOL    HW138906   2.667   4.270   0.994  0.4406 -0.6169 -0.1731
 9091SOL    HW238907   2.658   4.399   0.931  1.0061  0.0029 -0.3757
 9092SOL     OW38908   0.970   2.619   7.329  0.3525  0.1034  0.1058
 9092SOL    HW138909   1.059   2.654   7.340  0.5553 -0.5293  0.4598
 9092SOL    HW238910   0.980   2.569   7.248  0.4297 -1.5678  1.1568
 9093SOL     OW38911   3.092   3.870  11.229 -0.1489  0.2113 -0.2474
 9093SOL    HW138912   3.056   3.955  11.255  2.2368  1.1229  0.0819
 9093SOL    HW238913   3.169   3.890  11.175  0.2106 -1.0113 -0.1914
 9094SOL     OW38914   1.405   2.776   4.953 -0.4830 -0.2616  0.4253
 9094SOL    HW138915   1.373   2.688   4.932  1.2933 -0.8116  0.0321
 9094SOL    HW238916   1.465   2.767   5.028 -0.3943 -2.3712  0.0860
 9095SOL     OW38917   2.150   1.401  12.471  0.2477  0.3452 -0.4457
 9095SOL    HW138918   2.115   1.403  12.382 -0.8103 -1.5110 -0.0742
 9095SOL    HW238919   2.211   1.474  12.479 -0.1635  0.5030  1.1806
 9096SOL     OW38920   2.575   4.204   5.567  0.1293 -0.4966  0.0077
 9096SOL    HW138921   2.592   4.201   5.661  2.7292  1.0842 -0.4129
 9096SOL    HW238922   2.554   4.114   5.540  1.3604 -0.8372  0.1885
 9097SOL     OW38923   2.049   2.888   4.572 -0.7008 -0.0273 -1.0834
 9097SOL    HW138924   1.998   2.912   4.649  2.1597  2.6145 -0.0065
 9097SOL    HW238925   2.133   2.926   4.598 -2.4734  1.0429  2.9994
 9098SOL     OW38926   3.152   3.965  12.319  0.6404 -0.1983 -0.0891
 9098SOL    HW138927   3.103   4.006  12.390  0.0576 -1.8180  0.4332
 9098SOL    HW238928   3.125   4.025  12.250  0.0738 -1.2203 -0.7526
 9099SOL     OW38929   1.748   3.358   5.478 -0.1408  0.2709  0.4274
 9099SOL    HW138930   1.660   3.333   5.450 -0.7373  0.2998  2.2483
 9099SOL    HW238931   1.769   3.422   5.410  0.3779  0.4049  0.7146
 9100SOL     OW38932   0.668   1.069   4.228  0.7510 -0.2589 -0.4558
 9100SOL    HW138933   0.717   1.018   4.164  0.0354 -0.1506 -1.0802
 9100SOL    HW238934   0.651   1.001   4.293 -1.7845  1.4761  0.6846
 9101SOL     OW38935   1.433   2.799   5.931 -0.3875 -0.1588  0.1505
 9101SOL    HW138936   1.495   2.858   5.889 -0.4465  0.0975  0.4268
 9101SOL    HW238937   1.367   2.766   5.870 -0.8199 -1.5633  1.3923
 9102SOL     OW38938   2.633   1.721   5.350 -0.1704 -0.0412  0.0628
 9102SOL    HW138939   2.596   1.650   5.299 -3.1503  0.4020  1.5690
 9102SOL    HW238940   2.571   1.712   5.423  0.8109 -0.6078  0.8350
 9103SOL     OW38941   3.946   2.476   7.926 -0.0167 -0.3317  0.6498
 9103SOL    HW138942   3.983   2.398   7.883  1.7974  0.5991  0.5199
 9103SOL    HW238943   4.022   2.530   7.947 -0.1516 -0.3430  1.1547
 9104SOL     OW38944   1.437   2.005  12.361  0.2198  0.8406 -0.3195
 9104SOL    HW138945   1.394   2.087  12.337  2.5318  2.0791 -0.3038
 9104SOL    HW238946   1.383   1.970  12.431 -1.4820  1.9925 -1.0688
 9105SOL     OW38947   1.494   0.658   5.720 -0.0244  0.4026  0.2176
 9105SOL    HW138948   1.477   0.566   5.700  2.8356 -0.5280  2.1466
 9105SOL    HW238949   1.529   0.646   5.808 -1.2484  1.6748  0.8747
 9106SOL     OW38950   1.746   2.131   7.314  0.0213  0.2840  0.6847
 9106SOL    HW138951   1.702   2.215   7.331 -0.0955  0.3704 -0.0625
 9106SOL    HW238952   1.784   2.151   7.228 -1.3326  0.0000  0.0308
 9107SOL     OW38953   2.343   2.024  14.585 -0.2025 -0.5306 -0.5482
 9107SOL    HW138954   2.253   2.055  14.583  0.9590  2.8587 -0.0649
 9107SOL    HW238955   2.355   2.043  14.492  2.3167 -1.4033 -0.4033
 9108SOL     OW38956   2.508   1.367   7.347 -0.3548 -0.1444 -0.1586
 9108SOL    HW138957   2.538   1.428   7.280  0.6443 -0.7092 -0.2205
 9108SOL    HW238958   2.590   1.330   7.379 -0.7152  1.2697  2.4079
 9109SOL     OW38959   3.028   0.731  13.115  0.4359 -0.1842  0.3118
 9109SOL    HW138960   2.944   0.708  13.154  0.1422 -0.6213 -0.5869
 9109SOL    HW238961   2.993   0.711  13.029 -0.4038  0.8346  0.4102
 9110SOL     OW38962   0.708   0.097   4.011 -0.1763 -0.4226  0.0929
 9110SOL    HW138963   0.640   0.029   4.006 -1.9729  1.4663 -1.5072
 9110SOL    HW238964   0.672   0.157   3.945  1.0111 -0.9280 -1.0120
 9111SOL     OW38965   4.566   4.580  13.258 -0.1482 -0.2018  0.1051
 9111SOL    HW138966   4.488   4.582  13.203 -1.2237  0.1941  1.6245
 9111SOL    HW238967   4.631   4.615  13.197 -1.0196  0.8099 -0.2383
 9112SOL     OW38968   0.959   4.457   8.066  0.7712 -0.5011 -0.2872
 9112SOL    HW138969   0.985   4.548   8.054  0.7636 -0.4204  0.3033
 9112SOL    HW238970   1.001   4.408   7.996 -0.5009  0.7719 -1.9329
 9113SOL     OW38971   2.921   4.321   4.229  0.0931 -0.2662 -0.9468
 9113SOL    HW138972   3.001   4.273   4.251  0.2734  0.6294  0.3866
 9113SOL    HW238973   2.912   4.371   4.310 -2.6555 -0.7063 -0.9863
 9114SOL     OW38974   1.942   4.424   6.918  0.6671 -0.2397 -0.0187
 9114SOL    HW138975   2.014   4.374   6.881  0.2970 -1.9986  1.6481
 9114SOL    HW238976   1.864   4.409   6.865  0.4813 -5.0826  1.5959
 9115SOL     OW38977   3.980   3.859  11.195 -0.4533 -0.5712  0.1540
 9115SOL    HW138978   4.015   3.770  11.188 -0.7038 -0.6738  0.2080
 9115SOL    HW238979   3.903   3.856  11.138 -1.1914  0.0593  1.1167
 9116SOL     OW38980   2.423   0.447  10.343 -0.0889 -0.0923 -0.4698
 9116SOL    HW138981   2.408   0.442  10.438 -0.2852 -2.8845 -0.6445
 9116SOL    HW238982   2.518   0.461  10.350  0.2991 -3.3501  1.1043
 9117SOL     OW38983   0.628   3.971   7.318 -0.0207 -0.0253  0.5794
 9117SOL    HW138984   0.694   4.035   7.293  1.4213 -0.3930  3.4167
 9117SOL    HW238985   0.557   3.987   7.256  0.9586  1.1577 -0.2314
 9118SOL     OW38986   2.573   3.330  12.180 -0.0359  0.0304  0.2161
 9118SOL    HW138987   2.512   3.343  12.253  0.3875  0.2386  0.5362
 9118SOL    HW238988   2.522   3.368  12.109 -1.2038 -1.0370  0.4910
 9119SOL     OW38989   4.625   1.553   6.237 -0.1519  1.0244  0.3450
 9119SOL    HW138990   4.629   1.643   6.205 -0.6394  0.6160 -0.8628
 9119SOL    HW238991   4.646   1.492   6.166 -1.8318  1.2995 -0.3906
 9120SOL     OW38992   4.203   0.615   4.228  0.0329  0.3760  0.1010
 9120SOL    HW138993   4.246   0.558   4.292 -0.2877 -0.2588 -0.2449
 9120SOL    HW238994   4.272   0.681   4.226 -0.2920  0.6930 -0.5250
 9121SOL     OW38995   2.478   1.555   8.128  0.2457  0.1470  0.3048
 9121SOL    HW138996   2.431   1.478   8.160 -0.1766 -0.1342 -0.9957
 9121SOL    HW238997   2.571   1.538   8.144  0.2668  0.6474  0.7037
 9122SOL     OW38998   3.464   4.377   8.690  0.1264 -0.0396 -0.0801
 9122SOL    HW138999   3.472   4.282   8.679 -2.7770  0.0346 -2.9466
 9122SOL    HW239000   3.527   4.406   8.756  0.1714  0.6187 -0.4189
 9123SOL     OW39001   1.710   1.761   2.149 -0.8314 -0.3179 -0.2430
 9123SOL    HW139002   1.728   1.684   2.203  1.9002  0.4812 -0.0471
 9123SOL    HW239003   1.742   1.729   2.064  2.5634  0.0114  0.9469
 9124SOL     OW39004   0.513   1.947   5.733 -0.5286  0.0515 -0.3841
 9124SOL    HW139005   0.467   1.986   5.659  1.0658  1.4612 -0.6091
 9124SOL    HW239006   0.576   1.887   5.693  0.0056  0.4789 -0.1691
 9125SOL     OW39007   0.372   1.586   5.220 -0.6573 -0.3168  0.4588
 9125SOL    HW139008   0.301   1.573   5.156  2.1180 -1.8040 -2.3081
 9125SOL    HW239009   0.391   1.497   5.247 -1.4619 -1.1347 -1.6482
 9126SOL     OW39010   0.088   1.894  10.473  0.2322  0.3827  0.1810
 9126SOL    HW139011   0.167   1.841  10.467 -0.2252 -0.4230  1.3688
 9126SOL    HW239012   0.056   1.864  10.558  2.9761  1.8748  1.7283
 9127SOL     OW39013   3.744   4.559  14.637 -0.3485  0.2888 -0.2944
 9127SOL    HW139014   3.717   4.510  14.714  2.8802  2.9203  2.5128
 9127SOL    HW239015   3.712   4.511  14.561  0.0216  1.0900 -0.9649
 9128SOL     OW39016   1.939   0.763  11.092 -0.0351  0.5616 -0.1270
 9128SOL    HW139017   1.876   0.691  11.093 -1.3065  1.6749 -0.9586
 9128SOL    HW239018   2.012   0.713  11.129  0.0584  1.4514  0.8854
 9129SOL     OW39019   3.347   3.708   7.920  0.2688  0.0956 -0.0109
 9129SOL    HW139020   3.256   3.735   7.913 -0.0178 -1.5811 -2.5063
 9129SOL    HW239021   3.389   3.794   7.923  0.5291 -0.0078 -0.6443
 9130SOL     OW39022   0.356   4.601   8.380  0.6740 -0.3986  0.2119
 9130SOL    HW139023   0.434   4.551   8.356  0.7550 -0.6736  1.0507
 9130SOL    HW239024   0.402   4.646   8.450 -0.3848 -2.6255  2.3189
 9131SOL     OW39025   1.108   0.897   5.525  0.3862 -0.5801 -0.3501
 9131SOL    HW139026   1.089   0.949   5.446  2.6799  0.8893  0.0800
 9131SOL    HW239027   1.196   0.863   5.508  1.1529  1.1814  0.1299
 9132SOL     OW39028   1.548   3.227   7.351 -0.6992 -0.2586 -0.1184
 9132SOL    HW139029   1.539   3.322   7.343 -1.9396 -0.3410  0.3522
 9132SOL    HW239030   1.469   3.199   7.397 -0.4010  1.7247  1.6228
 9133SOL     OW39031   1.989   3.226   2.007  0.1543  0.2739 -0.9303
 9133SOL    HW139032   1.972   3.270   1.923 -2.6059  0.0785 -0.4756
 9133SOL    HW239033   2.008   3.307   2.054  1.7104 -1.0410  0.6915
 9134SOL     OW39034   4.049   0.336   2.082  0.0117 -0.1381  0.2481
 9134SOL    HW139035   4.081   0.419   2.120 -1.5547 -0.2733  1.8725
 9134SOL    HW239036   4.010   0.290   2.157 -0.2120 -2.4474 -1.3144
 9135SOL     OW39037   2.351   4.652   3.044  0.0560  0.2410  0.5570
 9135SOL    HW139038   2.403   4.573   3.032  1.0888  1.0009 -0.0235
 9135SOL    HW239039   2.367   4.672   3.136  2.1504  1.8142 -0.1531
 9136SOL     OW39040   4.545   3.087  17.382  0.3229  0.1436 -0.2803
 9136SOL    HW139041   4.545   3.067  17.475  1.4666 -0.7655 -0.4810
 9136SOL    HW239042   4.634   3.064  17.357  0.0697 -0.1692 -0.8914
 9137SOL     OW39043   2.050   1.596  11.686  0.3258  0.0646 -0.1056
 9137SOL    HW139044   2.016   1.575  11.599 -0.8230  2.3041 -0.1986
 9137SOL    HW239045   2.063   1.688  11.667  0.1829  0.1190  0.0574
 9138SOL     OW39046   2.158   1.074   4.094  0.3645  0.3092 -0.1898
 9138SOL    HW139047   2.137   1.151   4.041 -1.6017  0.8730  1.4094
 9138SOL    HW239048   2.127   1.097   4.181  0.8464  1.9208 -0.4442
 9139SOL     OW39049   0.827   2.064  10.106  0.8340  0.5154  0.6402
 9139SOL    HW139050   0.894   2.124  10.074  1.1756  0.9035  2.1048
 9139SOL    HW239051   0.744   2.111  10.095  0.2223 -0.5171  0.8232
 9140SOL     OW39052   3.959   4.399   4.441 -0.2972  0.4872  0.0253
 9140SOL    HW139053   3.888   4.462   4.430 -0.5132  0.4146  0.9912
 9140SOL    HW239054   3.939   4.352   4.522 -0.7166 -0.4697 -0.6303
 9141SOL     OW39055   0.470   4.672   3.997  0.5681  0.3389 -0.5467
 9141SOL    HW139056   0.442   4.732   3.927  0.0299  0.8675  0.1242
 9141SOL    HW239057   0.522   4.606   3.950 -0.2085 -0.0853 -0.8048
 9142SOL     OW39058   2.274   1.207  11.736 -0.2914 -0.2990  0.2631
 9142SOL    HW139059   2.335   1.137  11.714 -0.7694 -0.8859  0.7745
 9142SOL    HW239060   2.279   1.245  11.649 -1.1713 -1.5054 -0.3285
 9143SOL     OW39061   0.790   2.815   6.982 -0.5190 -0.2747 -0.1572
 9143SOL    HW139062   0.761   2.869   7.055  0.5077  0.5395 -0.3515
 9143SOL    HW239063   0.711   2.825   6.928 -0.2909  1.4122 -0.1548
 9144SOL     OW39064   3.029   3.242   4.075  0.4187 -0.4796 -0.1259
 9144SOL    HW139065   3.109   3.190   4.080  1.6526  1.3989  0.0376
 9144SOL    HW239066   3.057   3.333   4.062 -1.1874  0.2298  1.3983
 9145SOL     OW39067   2.267   4.199   7.383  0.2317 -0.7702  0.2878
 9145SOL    HW139068   2.339   4.219   7.323  1.8207 -0.3727  2.3355
 9145SOL    HW239069   2.307   4.225   7.466 -0.6122 -1.5978  0.9603
 9146SOL     OW39070   2.137   0.391   3.539  0.1860  0.4257  0.1556
 9146SOL    HW139071   2.181   0.330   3.598 -0.1639  2.6928  2.7818
 9146SOL    HW239072   2.089   0.444   3.603 -0.1464  0.0134  0.2433
 9147SOL     OW39073   1.349   3.867  16.165  0.3105 -0.1355  0.2080
 9147SOL    HW139074   1.304   3.785  16.147  0.9248 -0.3428 -0.4147
 9147SOL    HW239075   1.324   3.912  16.084 -0.4294  0.8598  0.9888
 9148SOL     OW39076   4.641   2.753   6.546 -1.1916 -0.8238  0.2628
 9148SOL    HW139077   4.569   2.723   6.490 -1.4310 -1.3664  0.8593
 9148SOL    HW239078   4.611   2.840   6.571 -0.2631 -0.7394  1.0824
 9149SOL     OW39079   1.232   2.996   8.976  0.2411  0.8176  0.6853
 9149SOL    HW139080   1.178   3.032   8.905 -0.0150 -2.3471 -0.7029
 9149SOL    HW239081   1.306   2.959   8.928 -0.2349 -0.6843  1.1367
 9150SOL     OW39082   4.157   0.806  15.085 -0.1294  0.0103  0.0477
 9150SOL    HW139083   4.071   0.846  15.074  0.5967  1.2070 -1.3336
 9150SOL    HW239084   4.171   0.820  15.179  1.4420  1.7090 -0.4204
 9151SOL     OW39085   3.029   1.386  16.950  0.8284  0.2875  0.1964
 9151SOL    HW139086   3.112   1.432  16.947  1.0783 -0.1084  0.9286
 9151SOL    HW239087   3.043   1.342  16.866  1.9052  0.0175  0.5169
 9152SOL     OW39088   2.075   3.124   3.593  0.4271  0.0423 -0.5143
 9152SOL    HW139089   2.127   3.179   3.651 -0.7302 -1.4951  1.9928
 9152SOL    HW239090   1.988   3.146   3.626  0.6348 -0.7915  0.5901
 9153SOL     OW39091   4.507   1.361  14.693  0.7110 -0.6854  0.2602
 9153SOL    HW139092   4.583   1.401  14.650  0.6585 -0.7646  0.0923
 9153SOL    HW239093   4.526   1.268  14.680 -0.9667 -0.5594 -3.3163
 9154SOL     OW39094   0.374   4.174   8.820  0.3620  0.0104 -0.5450
 9154SOL    HW139095   0.459   4.181   8.864 -0.5861  1.8603  1.0360
 9154SOL    HW239096   0.342   4.092   8.857  0.1379  0.1461 -0.4363
 9155SOL     OW39097   1.382   1.783  12.944 -0.0263 -0.3241 -0.2324
 9155SOL    HW139098   1.414   1.771  13.034 -1.7935  1.5508  0.6413
 9155SOL    HW239099   1.436   1.718  12.899  0.5450  0.4458 -0.6649
 9156SOL     OW39100   4.296   2.551   3.384  0.1157  0.2812  0.0423
 9156SOL    HW139101   4.298   2.572   3.290 -0.5736 -3.0035 -0.7080
 9156SOL    HW239102   4.239   2.615   3.426 -0.0543 -0.4954  0.9912
 9157SOL     OW39103   3.760   2.321   7.626  0.0714  0.1421  0.4403
 9157SOL    HW139104   3.704   2.394   7.599  2.1426  1.1141 -1.2914
 9157SOL    HW239105   3.851   2.351   7.615  0.4525 -1.3034 -0.3231
 9158SOL     OW39106   1.662   4.625   8.144 -0.2071  0.4263  0.2425
 9158SOL    HW139107   1.702   4.692   8.088  1.2590 -1.0581 -0.5139
 9158SOL    HW239108   1.619   4.576   8.074  0.5305  0.4166 -0.2090
 9159SOL     OW39109   2.849   2.871   2.051  0.4472  0.1888 -0.1601
 9159SOL    HW139110   2.896   2.938   2.101 -1.2308  0.1033  1.5485
 9159SOL    HW239111   2.767   2.868   2.100 -0.1163  0.2659 -1.1188
 9160SOL     OW39112   1.715   4.286  11.282 -0.3901 -0.4084  0.2139
 9160SOL    HW139113   1.720   4.336  11.363  0.4255 -0.4963  0.2177
 9160SOL    HW239114   1.697   4.203  11.326 -0.6037  0.4687  1.7640
 9161SOL     OW39115   4.226   3.364   3.548  0.0414  0.0650 -0.0282
 9161SOL    HW139116   4.175   3.435   3.585  0.9507  0.2270  0.9048
 9161SOL    HW239117   4.176   3.284   3.567 -1.6441  0.8620 -1.0907
 9162SOL     OW39118   4.107   3.784   4.635 -0.2736  0.4847 -0.4976
 9162SOL    HW139119   4.123   3.876   4.615  1.1658  0.8696  2.4959
 9162SOL    HW239120   4.055   3.801   4.714  0.8682 -1.0147  0.5684
 9163SOL     OW39121   4.351   3.918  12.741  0.5863  0.0509  0.0121
 9163SOL    HW139122   4.396   3.908  12.657  0.7272  0.8719 -0.0055
 9163SOL    HW239123   4.347   3.823  12.757 -2.9957 -0.1354 -2.1366
 9164SOL     OW39124   1.825   4.565  15.208  0.7575 -0.4307  0.2934
 9164SOL    HW139125   1.746   4.555  15.154  2.4076 -1.7389 -1.8662
 9164SOL    HW239126   1.788   4.602  15.289  1.0819  1.1626 -0.2903
 9165SOL     OW39127   1.881   2.711   9.552  0.2887 -0.4029 -0.2330
 9165SOL    HW139128   1.914   2.800   9.544 -2.2605  0.4248 -1.4566
 9165SOL    HW239129   1.956   2.654   9.537  0.5303 -0.0477 -0.3521
 9166SOL     OW39130   1.054   1.172   2.798  0.0752  0.0815  0.0892
 9166SOL    HW139131   1.019   1.172   2.887 -2.1348 -0.3081 -0.7929
 9166SOL    HW239132   0.982   1.127   2.755 -1.8779  1.4280  1.8914
 9167SOL     OW39133   3.850   1.129  15.941  0.4663 -0.4389  0.7429
 9167SOL    HW139134   3.913   1.197  15.965 -0.2251  0.8433 -1.1043
 9167SOL    HW239135   3.855   1.125  15.845  0.2488  2.5020  0.6168
 9168SOL     OW39136   4.695   1.351   5.232 -0.4362  0.1682  0.5078
 9168SOL    HW139137   4.727   1.278   5.284  0.5312  2.0888  2.6156
 9168SOL    HW239138   4.599   1.346   5.240 -0.3774 -0.7555  0.6228
 9169SOL     OW39139   2.613   0.338   6.186 -0.0383  0.0138 -0.3526
 9169SOL    HW139140   2.575   0.354   6.099 -1.7390 -1.1715  0.1539
 9169SOL    HW239141   2.644   0.426   6.206  0.2249  0.1195 -1.2222
 9170SOL     OW39142   4.145   0.177  14.804  0.6026 -0.3378  0.5822
 9170SOL    HW139143   4.074   0.239  14.820  0.5424 -0.6760  1.6360
 9170SOL    HW239144   4.226   0.219  14.832  1.1740 -0.2069 -1.2793
 9171SOL     OW39145   1.782   0.388   7.275 -0.2469 -0.1765 -0.4940
 9171SOL    HW139146   1.737   0.398   7.359 -0.0592 -2.0852 -0.1685
 9171SOL    HW239147   1.728   0.330   7.222 -0.7790  0.1038 -0.2542
 9172SOL     OW39148   0.382   0.798  16.910 -0.1198  0.4510 -0.2737
 9172SOL    HW139149   0.358   0.709  16.937 -0.7606  1.2747  1.9052
 9172SOL    HW239150   0.348   0.848  16.985  0.7049  3.0620 -1.6536
 9173SOL     OW39151   3.398   1.026  12.474 -0.1496 -0.0997  0.2137
 9173SOL    HW139152   3.427   0.958  12.413  1.4564 -0.6720  1.6203
 9173SOL    HW239153   3.461   1.000  12.541 -1.5860 -1.9284  0.8479
 9174SOL     OW39154   4.318   1.608   6.232  0.1576  0.4397  0.4911
 9174SOL    HW139155   4.371   1.631   6.155 -2.7454  1.8721 -1.0973
 9174SOL    HW239156   4.386   1.606   6.299 -0.9769 -3.4504  1.4996
 9175SOL     OW39157   3.551   1.650   7.445 -0.0844 -0.1465  0.2080
 9175SOL    HW139158   3.559   1.738   7.481 -0.4107  0.8403 -2.1040
 9175SOL    HW239159   3.643   1.637   7.422  0.5030  1.8216  1.4317
 9176SOL     OW39160   1.087   0.173   1.943  0.0258  0.1251 -0.3057
 9176SOL    HW139161   1.118   0.221   1.867 -1.1163  1.2251 -0.0853
 9176SOL    HW239162   1.015   0.121   1.909 -1.1175  3.3500 -2.8401
 9177SOL     OW39163   3.214   4.266   0.275 -0.8481  0.0011  0.0041
 9177SOL    HW139164   3.285   4.319   0.238  0.1971 -2.0131 -0.8573
 9177SOL    HW239165   3.219   4.274   0.370  0.9725  0.5949 -0.1274
 9178SOL     OW39166   0.682   3.632  14.611 -0.1134 -0.0185  0.2101
 9178SOL    HW139167   0.643   3.716  14.636  2.2849  1.3560 -0.7517
 9178SOL    HW239168   0.669   3.585  14.693 -0.6056  0.6560  0.5201
 9179SOL     OW39169   2.429   3.524   3.224 -0.2204 -0.0993 -0.1063
 9179SOL    HW139170   2.419   3.443   3.275 -1.8990 -0.3040 -0.7403
 9179SOL    HW239171   2.398   3.585   3.292  0.2245  2.7639 -2.4844
 9180SOL     OW39172   0.406   4.722   3.710 -0.0827 -0.0647  0.5605
 9180SOL    HW139173   0.366   4.635   3.699  0.6121 -0.5370  1.9182
 9180SOL    HW239174   0.481   4.715   3.651  0.1074 -0.9736  0.9143
 9181SOL     OW39175   3.055   0.617   5.102 -0.2106  0.5496 -0.7978
 9181SOL    HW139176   2.971   0.630   5.059  1.0356  3.3198 -2.3567
 9181SOL    HW239177   3.097   0.699   5.075  1.9800 -0.7225 -1.2913
 9182SOL     OW39178   3.610   3.545   5.388  0.0453 -0.3946 -0.2419
 9182SOL    HW139179   3.558   3.620   5.419 -3.6444 -1.9612 -2.6893
 9182SOL    HW239180   3.654   3.572   5.307  1.6001  0.6312  0.9208
 9183SOL     OW39181   3.231   3.271   0.783  0.0268 -0.1226  0.1078
 9183SOL    HW139182   3.276   3.303   0.861 -2.4267  0.9289  1.0981
 9183SOL    HW239183   3.188   3.355   0.768  0.2007 -0.0424  0.0578
 9184SOL     OW39184   2.483   3.624   6.901  0.4964  0.1284  0.0068
 9184SOL    HW139185   2.436   3.547   6.871  1.2575 -1.0977  1.9210
 9184SOL    HW239186   2.426   3.660   6.968  1.5088 -0.5993  1.2629
 9185SOL     OW39187   0.445   0.527   9.539  0.3911  0.2038  0.8398
 9185SOL    HW139188   0.508   0.461   9.567  1.8496  0.8937 -0.8764
 9185SOL    HW239189   0.505   0.592   9.503 -0.8322  1.5552  1.2139
 9186SOL     OW39190   1.909   4.016   7.415  0.1667 -0.5460  0.2552
 9186SOL    HW139191   1.919   3.935   7.365  0.1514  2.2145 -4.1665
 9186SOL    HW239192   1.919   3.977   7.502 -1.1282  0.3423  0.7897
 9187SOL     OW39193   3.613   0.521   3.872 -0.7378  0.0797 -0.2834
 9187SOL    HW139194   3.624   0.615   3.880 -0.1837 -0.1235  1.4689
 9187SOL    HW239195   3.676   0.497   3.940 -0.9371  0.7200  0.1202
 9188SOL     OW39196   0.921   3.486   2.710  0.0394  0.4225  0.2682
 9188SOL    HW139197   0.879   3.450   2.632 -0.5527 -1.8187  1.6242
 9188SOL    HW239198   0.973   3.411   2.740 -2.5755 -1.2274  0.7493
 9189SOL     OW39199   3.809   0.004   0.135  0.2794  0.1780  0.3899
 9189SOL    HW139200   3.842   4.719   0.222 -0.8960 -1.3395  0.4341
 9189SOL    HW239201   3.717   4.721   0.146  0.0495  1.3212  0.6574
 9190SOL     OW39202   3.666   2.761   8.923  0.6489  0.3477  1.0315
 9190SOL    HW139203   3.761   2.769   8.918  0.6774 -1.6464 -1.2776
 9190SOL    HW239204   3.645   2.755   8.830  0.7711 -0.9056  1.0898
 9191SOL     OW39205   1.907   0.947  14.289 -0.2879 -0.0863  0.2364
 9191SOL    HW139206   1.914   0.982  14.377  0.5360  1.7750 -0.5749
 9191SOL    HW239207   1.819   0.980  14.270  0.0218  1.1155  0.8899
 9192SOL     OW39208   4.577   4.602   7.503  0.4597 -0.5132  0.3386
 9192SOL    HW139209   4.484   4.610   7.526  0.6753  0.2394  0.9506
 9192SOL    HW239210   4.614   4.566   7.584  3.1366 -0.1945 -0.7540
 9193SOL     OW39211   2.758   3.321   5.562  0.2298  0.2026  0.1783
 9193SOL    HW139212   2.691   3.331   5.494  0.2090 -2.0221 -0.1356
 9193SOL    HW239213   2.741   3.231   5.590 -2.7966  1.2045  1.5429
 9194SOL     OW39214   1.632   0.375   4.320 -0.3178  0.0092  1.0081
 9194SOL    HW139215   1.626   0.350   4.228 -0.7745  1.3864  0.6563
 9194SOL    HW239216   1.670   0.463   4.317 -2.2714  0.8833  2.1257
 9195SOL     OW39217   4.013   0.238   3.669  0.0978  0.3003 -0.3929
 9195SOL    HW139218   3.964   0.170   3.714 -2.4630  1.5629 -1.2622
 9195SOL    HW239219   3.948   0.304   3.646  0.3314  0.2753 -1.1404
 9196SOL     OW39220   1.490   3.831   2.256 -0.2222 -0.2019  0.9151
 9196SOL    HW139221   1.568   3.781   2.279 -1.2741 -2.1718  0.2116
 9196SOL    HW239222   1.492   3.832   2.161 -2.7756 -2.0558  0.8317
 9197SOL     OW39223   3.225   0.267   7.886  0.0106 -0.4352  0.1584
 9197SOL    HW139224   3.251   0.261   7.978  2.7632  0.8066 -0.5486
 9197SOL    HW239225   3.221   0.175   7.861 -1.1730  0.0704 -1.4699
 9198SOL     OW39226   1.225   2.294  12.641  0.1018 -0.1853 -0.3310
 9198SOL    HW139227   1.270   2.220  12.681 -0.8741 -0.1853  0.7597
 9198SOL    HW239228   1.163   2.307  12.713  1.2003 -0.7391  0.6963
 9199SOL     OW39229   0.306   3.674   4.481 -0.3865  0.3451 -0.0776
 9199SOL    HW139230   0.275   3.593   4.522  0.3598  0.0701 -0.0640
 9199SOL    HW239231   0.392   3.684   4.521 -1.2073 -1.0762  2.0668
 9200SOL     OW39232   2.793   0.047  15.546  0.2562  0.0805 -0.3026
 9200SOL    HW139233   2.761   4.700  15.517 -0.4266 -0.2805  1.4912
 9200SOL    HW239234   2.744   0.103  15.486  0.3348  0.3369 -0.1280
 9201SOL     OW39235   1.625   1.972  13.354 -0.0802 -0.0735  0.3397
 9201SOL    HW139236   1.588   2.059  13.340 -0.3993 -0.5228 -1.5958
 9201SOL    HW239237   1.649   1.964  13.447  0.8865 -4.0216 -0.2762
 9202SOL     OW39238   0.410   3.177   8.765  0.2023 -0.2018  0.0670
 9202SOL    HW139239   0.345   3.108   8.753 -0.3210  0.7156 -2.5029
 9202SOL    HW239240   0.449   3.146   8.846  0.2525 -2.9073 -0.9963
 9203SOL     OW39241   2.146   0.902   5.568 -0.0031  0.1525 -0.5351
 9203SOL    HW139242   2.103   0.817   5.578  3.7946 -1.5971  0.7710
 9203SOL    HW239243   2.220   0.897   5.628  0.6252 -0.4426 -1.3568
 9204SOL     OW39244   1.763   2.873   8.834  0.7142 -0.8042  0.3892
 9204SOL    HW139245   1.837   2.912   8.880 -0.8692  1.4602  1.0871
 9204SOL    HW239246   1.687   2.921   8.868 -0.1209 -0.1408 -2.4030
 9205SOL     OW39247   4.270   4.115   8.332  0.4862  0.8377 -0.0447
 9205SOL    HW139248   4.308   4.199   8.307  3.1940  0.6362  3.2545
 9205SOL    HW239249   4.331   4.055   8.289 -0.7737  0.2231 -0.9750
 9206SOL     OW39250   0.248   0.551   0.059  0.4369  0.5283  0.6397
 9206SOL    HW139251   0.185   0.486   0.092 -2.0460  1.2227 -2.7561
 9206SOL    HW239252   0.258   0.537  17.716  3.0808 -0.2161  1.0294
 9207SOL     OW39253   1.673   3.052   6.108 -0.0578 -0.8925 -0.2181
 9207SOL    HW139254   1.637   3.037   6.020 -0.3992 -1.1178 -0.0393
 9207SOL    HW239255   1.680   2.963   6.144  3.2993 -0.1018  1.0592
 9208SOL     OW39256   3.527   3.913   5.108  0.0272 -0.1011 -0.5404
 9208SOL    HW139257   3.600   3.871   5.062  0.2531  0.3860 -0.6211
 9208SOL    HW239258   3.452   3.862   5.077 -1.0647  1.3731 -0.3123
 9209SOL     OW39259   1.126   1.410   3.835 -0.8315 -0.1007 -0.3467
 9209SOL    HW139260   1.122   1.505   3.824 -0.7340 -0.4128 -3.2130
 9209SOL    HW239261   1.044   1.387   3.791 -0.5490 -1.8270  0.0194
 9210SOL     OW39262   1.060   0.706   3.933 -0.5661  0.2066 -0.3113
 9210SOL    HW139263   1.013   0.655   3.999 -1.9524  0.0115 -1.4371
 9210SOL    HW239264   1.016   0.790   3.948 -1.0613  0.1492 -1.4058
 9211SOL     OW39265   1.822   0.905   6.307  0.1239 -1.0600  1.0523
 9211SOL    HW139266   1.848   0.830   6.253 -0.5679 -0.7700  0.3186
 9211SOL    HW239267   1.751   0.936   6.252  1.5221 -2.0780 -1.3664
 9212SOL     OW39268   3.143   0.868  13.490  0.7132 -0.9639  0.1516
 9212SOL    HW139269   3.101   0.895  13.572 -0.4723  0.2405 -0.8488
 9212SOL    HW239270   3.097   0.785  13.482 -0.1554 -0.3723 -0.9465
 9213SOL     OW39271   3.340   4.417  14.540 -0.6999 -0.0011  0.1720
 9213SOL    HW139272   3.386   4.336  14.518  1.2758  0.0269  4.1125
 9213SOL    HW239273   3.256   4.399  14.498 -0.2746  2.8099 -1.8539
 9214SOL     OW39274   3.597   0.459  14.200 -0.1537  0.5121 -0.5778
 9214SOL    HW139275   3.642   0.393  14.148  0.4818  0.0970  0.4863
 9214SOL    HW239276   3.670   0.511  14.233 -1.8469  2.5093  0.0239
 9215SOL     OW39277   3.482   0.474   5.649 -0.6624 -0.8410 -0.1352
 9215SOL    HW139278   3.448   0.472   5.559 -0.6546  0.3223 -0.1668
 9215SOL    HW239279   3.438   0.550   5.686  0.5298 -0.7796  1.1633
 9216SOL     OW39280   2.732   2.814   5.006  0.1174  0.2373  0.0554
 9216SOL    HW139281   2.701   2.769   5.085 -0.2267  0.3733 -0.0007
 9216SOL    HW239282   2.821   2.780   5.000  0.6345  1.5497  0.3182
 9217SOL     OW39283   2.557   4.408   3.048 -0.2124  0.4801 -0.7472
 9217SOL    HW139284   2.570   4.404   3.143  3.3695  1.4202 -1.1997
 9217SOL    HW239285   2.507   4.328   3.036 -1.0167  0.9882 -0.7732
 9218SOL     OW39286   0.784   1.854   0.331 -0.9287 -0.0293 -0.1894
 9218SOL    HW139287   0.702   1.858   0.281 -1.0115 -0.8307 -0.1221
 9218SOL    HW239288   0.839   1.922   0.293  0.3705  0.5868  2.8074
 9219SOL     OW39289   0.248   4.262   3.832 -0.4527 -0.5517 -0.6374
 9219SOL    HW139290   0.247   4.317   3.910  0.9372 -0.4796 -0.6745
 9219SOL    HW239291   0.208   4.187   3.875 -1.8591  0.3006 -0.4697
 9220SOL     OW39292   2.776   1.054  11.544 -0.2832 -0.5927 -0.6712
 9220SOL    HW139293   2.769   0.958  11.543  0.8365 -0.6708 -0.9831
 9220SOL    HW239294   2.820   1.072  11.627 -0.5897 -0.2534 -0.5821
 9221SOL     OW39295   0.137   3.599  10.150 -0.3591  0.1468 -0.4771
 9221SOL    HW139296   0.220   3.553  10.138  0.8177  2.3203 -0.6914
 9221SOL    HW239297   0.174   3.688  10.147  0.7028 -0.3061 -0.7714
 9222SOL     OW39298   2.917   3.682   2.645  1.0537 -0.6707  0.0054
 9222SOL    HW139299   3.009   3.676   2.618  0.7800 -0.3143 -1.0145
 9222SOL    HW239300   2.867   3.680   2.563  1.7877  0.8579 -0.4911
 9223SOL     OW39301   1.568   4.648  17.153  0.3295 -0.4026  0.1292
 9223SOL    HW139302   1.541   4.556  17.156 -0.7935 -0.0534  0.8918
 9223SOL    HW239303   1.608   4.657  17.240  1.9444  0.8482 -0.7479
 9224SOL     OW39304   0.671   0.750   0.664  0.5890  0.1002 -0.1327
 9224SOL    HW139305   0.761   0.754   0.693 -0.3360  2.2785  2.4047
 9224SOL    HW239306   0.681   0.783   0.575  0.8324  3.9076  1.3419
 9225SOL     OW39307   0.406   1.327   0.667 -0.4462  0.0481 -0.1022
 9225SOL    HW139308   0.501   1.326   0.654 -0.4796 -2.8902 -0.0262
 9225SOL    HW239309   0.374   1.254   0.614  0.5706 -0.9164  0.6121
 9226SOL     OW39310   0.379   2.325   2.781  0.3291 -0.0334  0.4020
 9226SOL    HW139311   0.295   2.330   2.826 -0.2575  0.3120 -0.7257
 9226SOL    HW239312   0.347   2.353   2.695  0.2715  0.4926  0.5904
 9227SOL     OW39313   1.558   4.018   4.823 -0.2621  0.3414  0.6655
 9227SOL    HW139314   1.508   4.088   4.782  0.7760  1.1217  0.7415
 9227SOL    HW239315   1.535   4.037   4.914 -3.4385 -1.3757  0.2564
 9228SOL     OW39316   3.924   2.550  13.471  0.1257 -0.1878 -0.0944
 9228SOL    HW139317   3.913   2.589  13.385  0.3986  1.9603  0.8481
 9228SOL    HW239318   3.837   2.511  13.483  0.1075  0.3708  1.7122
 9229SOL     OW39319   0.117   0.358   3.844  0.1396  0.4849 -1.1303
 9229SOL    HW139320   0.056   0.413   3.795 -1.4602  0.1608  0.4670
 9229SOL    HW239321   0.138   0.415   3.918 -0.2174  0.0763 -0.7115
 9230SOL     OW39322   0.727   2.662   6.727 -0.7539  0.0332  0.1136
 9230SOL    HW139323   0.704   2.753   6.706  0.6054  1.0259  2.9076
 9230SOL    HW239324   0.821   2.664   6.708 -0.8156 -0.3640 -0.2357
 9231SOL     OW39325   4.039   2.532   6.096 -0.7404 -0.0135  0.3625
 9231SOL    HW139326   3.957   2.579   6.110 -0.4535  0.3913  0.6841
 9231SOL    HW239327   4.072   2.573   6.015 -3.1026  1.6342  0.2284
 9232SOL     OW39328   1.826   1.403   0.947 -0.0682 -0.3033  0.3322
 9232SOL    HW139329   1.900   1.344   0.957  0.0738  0.0732  1.4549
 9232SOL    HW239330   1.758   1.377   1.009 -0.4476 -0.3513 -0.1005
 9233SOL     OW39331   2.429   3.681   2.144  0.1703 -0.0904  0.0287
 9233SOL    HW139332   2.478   3.763   2.139  0.1341  0.0964  2.6618
 9233SOL    HW239333   2.453   3.631   2.222  0.0778  1.1258  0.8286
 9234SOL     OW39334   3.456   4.112   8.593  0.4321 -0.0867  0.0847
 9234SOL    HW139335   3.529   4.087   8.537  0.3944  0.5338 -0.2489
 9234SOL    HW239336   3.417   4.179   8.537  0.5859  0.0440  0.1336
 9235SOL     OW39337   3.189   2.743   5.462  0.3112  0.3171  0.0133
 9235SOL    HW139338   3.130   2.786   5.400 -1.4304 -0.2762  1.2758
 9235SOL    HW239339   3.211   2.664   5.411 -2.1629 -0.8223  0.7355
 9236SOL     OW39340   0.224   0.510  16.322  0.0260 -0.5739 -0.2018
 9236SOL    HW139341   0.303   0.556  16.294  0.1966  0.0547  1.3188
 9236SOL    HW239342   0.243   0.421  16.290  2.6054  0.1737 -0.7446
 9237SOL     OW39343   3.848   3.975   5.210 -0.4240 -0.0560 -0.0065
 9237SOL    HW139344   3.855   4.070   5.196 -0.9814 -0.0029  0.0714
 9237SOL    HW239345   3.842   3.947   5.118 -2.6258  2.2649 -0.5692
 9238SOL     OW39346   4.231   2.307   0.318 -0.2686  0.3948  0.0070
 9238SOL    HW139347   4.230   2.365   0.242 -2.1242  1.9553  1.2146
 9238SOL    HW239348   4.138   2.287   0.330 -1.0697  0.7266 -5.4121
 9239SOL     OW39349   3.909   3.913   9.311  0.0699 -1.0006  0.1353
 9239SOL    HW139350   3.819   3.907   9.279 -0.7999  2.6597  1.8928
 9239SOL    HW239351   3.906   3.960   9.394  2.2765 -0.4322 -0.0946
 9240SOL     OW39352   1.551   0.545   3.680  0.2206  0.5807 -0.5300
 9240SOL    HW139353   1.559   0.637   3.704 -0.9197  0.2539  1.0874
 9240SOL    HW239354   1.644   0.527   3.670  0.6776  1.3565  2.2926
 9241SOL     OW39355   0.583   4.711   6.882 -0.0008 -0.0865  0.0113
 9241SOL    HW139356   0.524   0.046   6.865 -0.2336  0.4157  2.9987
 9241SOL    HW239357   0.521   4.638   6.892 -0.7301  0.2388 -1.9557
 9242SOL     OW39358   4.673   0.361   0.743 -0.1777 -0.0126  0.9040
 9242SOL    HW139359   4.617   0.434   0.770  0.3266  0.4383  0.7322
 9242SOL    HW239360   4.718   0.390   0.664 -1.1933  0.2715  0.4260
 9243SOL     OW39361   2.059   2.390  14.069 -0.2752  0.0200 -0.1251
 9243SOL    HW139362   1.999   2.435  14.009  0.3883 -0.3934 -1.1109
 9243SOL    HW239363   2.039   2.421  14.157 -0.9080  3.7066 -1.5664
 9244SOL     OW39364   0.437   2.155   3.101 -0.2815 -0.3096  0.2162
 9244SOL    HW139365   0.358   2.129   3.055  1.6861 -1.3266 -2.5981
 9244SOL    HW239366   0.404   2.232   3.148  1.0778 -1.0671  2.4130
 9245SOL     OW39367   0.229   2.780   9.082 -0.0011  0.2718  0.2618
 9245SOL    HW139368   0.212   2.823   8.998  0.4021  0.7725  0.4402
 9245SOL    HW239369   0.154   2.807   9.134  0.9933  1.3621  1.1133
 9246SOL     OW39370   1.406   0.788   2.089 -0.1981 -0.0996  0.3542
 9246SOL    HW139371   1.369   0.702   2.110 -2.1285  0.4142 -0.9666
 9246SOL    HW239372   1.354   0.810   2.012 -0.2140  1.0667  0.7036
 9247SOL     OW39373   4.553   2.788  10.526  0.2666 -0.0290 -0.3093
 9247SOL    HW139374   4.586   2.848  10.593 -0.0707 -0.0157 -0.1550
 9247SOL    HW239375   4.463   2.785  10.560 -0.6809 -0.0518 -2.7698
 9248SOL     OW39376   3.013   3.664  11.048  0.1226  0.3332  0.1861
 9248SOL    HW139377   3.088   3.681  11.106 -0.1201  0.6971  0.3968
 9248SOL    HW239378   2.977   3.752  11.061 -1.0535  0.3344 -3.3490
 9249SOL     OW39379   2.395   1.348   4.096  0.2104 -0.8255 -0.4210
 9249SOL    HW139380   2.470   1.292   4.074 -1.0881 -2.9208  0.4542
 9249SOL    HW239381   2.434   1.436   4.098 -0.8940 -0.3483 -0.0477
 9250SOL     OW39382   0.658   3.045   1.617 -0.5148  0.3565 -1.2846
 9250SOL    HW139383   0.734   3.103   1.623  0.2372 -0.6287 -1.1844
 9250SOL    HW239384   0.598   3.080   1.683  1.0303  0.6851 -0.0521
 9251SOL     OW39385   0.491   2.539   5.711  0.0888 -0.1764 -0.2282
 9251SOL    HW139386   0.448   2.495   5.784 -2.9271  0.7623 -1.4466
 9251SOL    HW239387   0.490   2.476   5.640  0.9815 -0.9667  0.4506
 9252SOL     OW39388   3.593   0.663   7.347 -0.3148  0.2006 -0.4190
 9252SOL    HW139389   3.680   0.703   7.337 -0.0420 -0.8188 -2.2432
 9252SOL    HW239390   3.551   0.724   7.408  0.5905  1.9877 -1.5740
 9253SOL     OW39391   2.409   4.705   4.075  0.5851  0.0726 -0.7858
 9253SOL    HW139392   2.313   4.704   4.084  0.6383  0.4654 -0.1822
 9253SOL    HW239393   2.415   4.698   3.979  1.3876 -0.9473 -0.6628
 9254SOL     OW39394   0.987   3.826  17.331 -0.0853 -0.2834 -0.5170
 9254SOL    HW139395   1.082   3.834  17.327 -0.1756  1.7796  1.7642
 9254SOL    HW239396   0.973   3.756  17.267  0.8802 -1.1537  0.2338
 9255SOL     OW39397   2.505   3.500   4.658 -0.2043 -0.0175  0.1159
 9255SOL    HW139398   2.511   3.447   4.578 -0.3205  1.3079 -0.7744
 9255SOL    HW239399   2.595   3.532   4.662  0.2283 -0.8271 -2.9581
 9256SOL     OW39400   1.983   0.035   5.757  0.0400  0.0037 -0.5514
 9256SOL    HW139401   1.913   0.085   5.716  2.5358  2.5204 -1.7641
 9256SOL    HW239402   2.057   0.089   5.727 -1.2860  2.3078  0.3027
 9257SOL     OW39403   4.673   2.167  11.394 -0.0639  0.6584 -0.1713
 9257SOL    HW139404   0.025   2.179  11.425  0.2732 -3.7511  0.5213
 9257SOL    HW239405   4.687   2.178  11.300  1.2292  0.8446  0.0414
 9258SOL     OW39406   3.776   0.124  11.719  0.2314  0.0049  0.2343
 9258SOL    HW139407   3.777   0.208  11.674  2.0556  0.2525  0.7064
 9258SOL    HW239408   3.682   0.110  11.724  0.1010  1.2854  1.2739
 9259SOL     OW39409   4.616   0.283   3.204 -0.1902 -0.1792 -0.1334
 9259SOL    HW139410   4.541   0.299   3.146 -1.2740 -1.4740  0.8993
 9259SOL    HW239411   4.573   0.257   3.286  1.8976 -1.0779  0.6637
 9260SOL     OW39412   2.823   0.196   7.862  0.1251  0.0467  0.4118
 9260SOL    HW139413   2.740   0.228   7.825  1.0949  0.0805 -1.7309
 9260SOL    HW239414   2.877   0.264   7.822  0.7470 -0.6885  0.0091
 9261SOL     OW39415   3.924   3.320  15.052 -0.4320 -0.3878 -0.5120
 9261SOL    HW139416   3.927   3.318  15.148 -0.5965 -1.0873 -0.5188
 9261SOL    HW239417   4.015   3.344  15.035 -0.5008  1.3482  1.4097
 9262SOL     OW39418   0.289   2.273   5.708 -0.4240  0.0459  0.2420
 9262SOL    HW139419   0.209   2.321   5.688 -0.8653 -0.3187  1.1138
 9262SOL    HW239420   0.287   2.253   5.802 -0.8715  3.8474  1.0841
 9263SOL     OW39421   1.804   0.045   4.204 -0.4741  0.0601 -0.6346
 9263SOL    HW139422   1.786   0.014   4.115 -2.6362  0.4268 -0.3306
 9263SOL    HW239423   1.844   0.129   4.180  0.1534 -0.3939 -1.1696
 9264SOL     OW39424   0.055   0.072   3.476 -0.0438 -0.3666  0.4401
 9264SOL    HW139425   0.138   0.036   3.445  0.5974  0.7613  0.8384
 9264SOL    HW239426   0.007   0.031   3.404  1.5295 -1.6757  0.1304
 9265SOL     OW39427   4.197   1.259  12.121  0.0275  0.5609 -0.2493
 9265SOL    HW139428   4.201   1.240  12.215 -1.9785 -0.1787 -0.3047
 9265SOL    HW239429   4.112   1.303  12.115 -0.4628 -0.5749 -1.5605
 9266SOL     OW39430   4.155   4.091   4.956 -0.1936  0.6064  0.3351
 9266SOL    HW139431   4.080   4.139   4.920 -0.0762 -0.6819 -1.6056
 9266SOL    HW239432   4.123   4.003   4.936  0.6960 -0.0883  1.9198
 9267SOL     OW39433   0.991   1.849   3.983  0.3990  0.4053 -0.4746
 9267SOL    HW139434   1.042   1.898   4.048  1.6849 -1.9384  0.2798
 9267SOL    HW239435   1.062   1.805   3.936  0.1470 -0.2229 -0.2581
 9268SOL     OW39436   1.936   1.044   9.084  0.0992  0.2325 -0.2427
 9268SOL    HW139437   1.908   1.046   9.175  1.1659 -0.2199  0.0887
 9268SOL    HW239438   1.952   0.950   9.073 -1.8053 -0.3696  2.1388
 9269SOL     OW39439   1.127   0.058  15.915  0.2330 -0.1607 -0.3616
 9269SOL    HW139440   1.200   0.023  15.967 -0.2703 -1.0462 -0.2474
 9269SOL    HW239441   1.158   0.039  15.827 -1.1649  0.6997 -1.0227
 9270SOL     OW39442   4.186   0.869   3.092  0.5426  0.6477 -0.0129
 9270SOL    HW139443   4.272   0.849   3.129 -0.2195  1.2067  2.1102
 9270SOL    HW239444   4.139   0.896   3.171 -0.2550  0.1817 -0.3369
 9271SOL     OW39445   1.066   0.199  13.718 -0.3890 -0.5061 -0.3395
 9271SOL    HW139446   1.080   0.176  13.627 -0.2108 -0.7407 -0.2519
 9271SOL    HW239447   0.971   0.193  13.732 -0.1886 -3.1359 -0.0540
 9272SOL     OW39448   1.820   4.187  15.921  0.0181 -0.8047 -0.3065
 9272SOL    HW139449   1.859   4.254  15.864 -1.1957  0.6076  0.5023
 9272SOL    HW239450   1.731   4.224  15.925  0.9153  1.1657  1.3512
 9273SOL     OW39451   2.260   4.442  14.938 -0.0685 -0.3474  0.1626
 9273SOL    HW139452   2.170   4.441  14.972  0.3747  0.4039  1.3400
 9273SOL    HW239453   2.243   4.408  14.850  1.1700 -0.6515  0.0347
 9274SOL     OW39454   1.730   4.339   4.896 -0.1860 -0.1846 -0.2614
 9274SOL    HW139455   1.789   4.415   4.899  1.9197 -1.7166 -2.1769
 9274SOL    HW239456   1.651   4.372   4.938  0.3481 -0.9511  1.3768
 9275SOL     OW39457   0.568   1.226   6.080 -0.0741  0.3701  0.0393
 9275SOL    HW139458   0.529   1.139   6.081  1.6978 -0.4458 -1.2998
 9275SOL    HW239459   0.535   1.258   6.164 -0.4955  1.6405 -0.6000
 9276SOL     OW39460   1.497   3.080   6.959 -0.2929  0.1562  0.2144
 9276SOL    HW139461   1.446   3.160   6.959  0.4858  0.6522  1.6577
 9276SOL    HW239462   1.577   3.113   6.918  0.7353 -2.4968  0.0532
 9277SOL     OW39463   3.196   1.391  10.260  0.1678 -0.5942  0.3820
 9277SOL    HW139464   3.254   1.428  10.193 -0.6624 -1.3535 -0.7756
 9277SOL    HW239465   3.124   1.452  10.246 -1.5981 -2.7077  0.3631
 9278SOL     OW39466   0.507   0.933   4.586  0.0455 -0.5889  0.2079
 9278SOL    HW139467   0.462   0.849   4.599  0.2094 -0.6902  0.1158
 9278SOL    HW239468   0.576   0.908   4.525 -1.3292 -1.1880 -1.1156
 9279SOL     OW39469   4.013   3.294   0.879  0.2925 -0.8441 -0.0620
 9279SOL    HW139470   3.948   3.224   0.883  0.6083 -1.0321  1.5459
 9279SOL    HW239471   4.004   3.326   0.789 -0.4465 -0.8134  0.0225
 9280SOL     OW39472   0.413   1.694   7.521 -0.2377 -0.1970 -0.1679
 9280SOL    HW139473   0.333   1.685   7.470 -0.0272  0.1249 -0.5565
 9280SOL    HW239474   0.472   1.734   7.457 -0.8670  1.0090 -0.0076
 9281SOL     OW39475   3.854   4.329   2.078 -0.0751 -0.3541  0.3501
 9281SOL    HW139476   3.790   4.260   2.095 -2.0661  1.6950  1.1505
 9281SOL    HW239477   3.815   4.415   2.094 -2.4279 -1.0096 -1.7990
 9282SOL     OW39478   0.544   1.990  13.682  0.2037 -0.4017 -0.5990
 9282SOL    HW139479   0.579   2.067  13.726  1.8656 -2.7058  2.1368
 9282SOL    HW239480   0.454   2.023  13.681  0.3533  0.0944  3.4177
 9283SOL     OW39481   3.887   0.731   1.937 -0.6155  0.4965 -0.4144
 9283SOL    HW139482   3.797   0.756   1.919 -1.5666 -2.0683  0.7016
 9283SOL    HW239483   3.944   0.794   1.893 -1.2494  1.2346 -0.1723
 9284SOL     OW39484   2.112   1.313  16.851  0.2707  0.0013  0.4896
 9284SOL    HW139485   2.100   1.338  16.943  0.8231  2.7929 -0.1941
 9284SOL    HW239486   2.206   1.292  16.849  0.1106 -0.5578 -1.0625
 9285SOL     OW39487   0.915   0.399  15.152 -0.8578  0.0425 -0.9310
 9285SOL    HW139488   0.893   0.389  15.244 -2.7140  0.9173 -1.2843
 9285SOL    HW239489   0.834   0.360  15.120 -0.2683 -0.4981 -1.7808
 9286SOL     OW39490   0.004   3.910  10.969  0.2550 -0.4137 -0.3541
 9286SOL    HW139491   0.049   3.982  10.924 -1.4603  1.7747  1.4437
 9286SOL    HW239492   0.042   3.838  10.917  1.6105 -0.7907  1.1737
 9287SOL     OW39493   4.498   3.252   0.908  0.3346 -0.7233 -0.0906
 9287SOL    HW139494   4.553   3.220   0.980  0.5219  2.4281  1.1779
 9287SOL    HW239495   4.504   3.345   0.928 -0.9416 -0.8169  0.7281
 9288SOL     OW39496   1.680   3.984   5.805 -0.6163  0.2999 -0.3766
 9288SOL    HW139497   1.657   3.934   5.883  0.0894  1.6840  0.7273
 9288SOL    HW239498   1.773   3.980   5.825 -0.6667  0.1561 -0.1767
 9289SOL     OW39499   0.951   0.689   2.376 -0.1367  0.2434  0.5335
 9289SOL    HW139500   0.976   0.778   2.351  2.4232 -0.2558  1.4153
 9289SOL    HW239501   1.009   0.666   2.448  2.1202 -1.3725 -1.7964
 9290SOL     OW39502   4.173   0.787   7.101  0.2439 -0.3856 -0.7749
 9290SOL    HW139503   4.230   0.711   7.117  2.4869  1.6755  0.9484
 9290SOL    HW239504   4.093   0.778   7.153 -1.5635 -1.5579 -3.7658
 9291SOL     OW39505   0.224   4.125  10.295 -0.4199  0.1038 -0.0710
 9291SOL    HW139506   0.297   4.184  10.278  1.3603 -2.0547  0.0826
 9291SOL    HW239507   0.239   4.067  10.220  0.5935  0.6310 -0.2733
 9292SOL     OW39508   3.406   0.704  16.791  0.4642  0.4489 -0.5674
 9292SOL    HW139509   3.418   0.736  16.701  0.0978  1.1827 -0.3566
 9292SOL    HW239510   3.498   0.697  16.817 -0.3334 -1.2653  1.7964
 9293SOL     OW39511   3.816   1.807   3.585  0.3805 -0.2402  1.0178
 9293SOL    HW139512   3.907   1.780   3.576  1.4187  2.8186  2.1758
 9293SOL    HW239513   3.787   1.826   3.496  1.0910 -0.3600  0.7628
 9294SOL     OW39514   0.257   0.465   5.397  0.3586  0.0437 -0.1878
 9294SOL    HW139515   0.287   0.419   5.319 -1.2201  0.6173 -1.1204
 9294SOL    HW239516   0.324   0.531   5.416 -0.0757  0.4062  0.0745
 9295SOL     OW39517   3.855   0.705  14.966  0.3084  0.7215 -0.5151
 9295SOL    HW139518   3.892   0.713  14.878 -0.0961  0.3509 -0.7185
 9295SOL    HW239519   3.854   0.794  15.002 -1.5051  0.7359 -0.5929
 9296SOL     OW39520   1.691   2.072   4.536  0.6407  1.0011  0.1503
 9296SOL    HW139521   1.752   2.049   4.606 -0.2487  2.4716  1.3967
 9296SOL    HW239522   1.734   2.152   4.504 -0.7769  1.8354  0.3665
 9297SOL     OW39523   4.121   1.227  13.679  0.4386 -0.2694 -0.1756
 9297SOL    HW139524   4.143   1.137  13.702  0.0577  0.1864  1.9980
 9297SOL    HW239525   4.107   1.214  13.585  1.0355 -0.2815 -0.2637
 9298SOL     OW39526   3.614   0.047   5.245 -0.1815 -0.5953  0.8695
 9298SOL    HW139527   3.560   4.718   5.286 -1.8288 -0.2921 -0.8057
 9298SOL    HW239528   3.677   4.733   5.196 -0.3581 -0.5595  0.6097
 9299SOL     OW39529   1.213   2.829   4.556  0.0964  0.2399  0.0044
 9299SOL    HW139530   1.264   2.749   4.543  0.1628  0.0568  1.4441
 9299SOL    HW239531   1.200   2.845   4.650 -0.9731  0.3853 -0.1598
 9300SOL     OW39532   4.461   2.251  12.695 -0.4675  0.1837  0.7758
 9300SOL    HW139533   4.388   2.313  12.701 -1.5969 -0.9989 -0.6619
 9300SOL    HW239534   4.483   2.245  12.788 -2.3336  1.0249  1.2805
 9301SOL     OW39535   4.632   1.139   4.485 -0.1412 -1.1712  0.1855
 9301SOL    HW139536   4.691   1.067   4.463  1.0990  0.9247 -3.4467
 9301SOL    HW239537   4.631   1.186   4.402 -1.3893  0.1130  0.9386
 9302SOL     OW39538   3.927   1.503   4.340 -0.1395  0.4133  0.2480
 9302SOL    HW139539   3.876   1.506   4.421 -0.1819 -0.7386  0.2659
 9302SOL    HW239540   3.858   1.534   4.281  2.0003  1.7503 -1.5498
 9303SOL     OW39541   3.821   0.943   8.184  0.1650  0.7478 -0.4425
 9303SOL    HW139542   3.917   0.944   8.192 -0.0707  2.3263  2.0407
 9303SOL    HW239543   3.796   1.016   8.128 -0.8479 -0.4473 -1.5460
 9304SOL     OW39544   2.519   4.303   6.512  0.6899  0.1360  0.1596
 9304SOL    HW139545   2.571   4.335   6.585 -0.2748 -0.2016  0.9841
 9304SOL    HW239546   2.587   4.263   6.457  0.2684  0.9841 -0.9982
 9305SOL     OW39547   1.072   3.108   9.716  0.5696  0.3225 -0.1675
 9305SOL    HW139548   1.135   3.138   9.650  0.3627 -0.2108 -0.6143
 9305SOL    HW239549   1.007   3.177   9.719  2.4515  2.1287 -0.8311
 9306SOL     OW39550   3.420   2.211  10.225  0.0907  0.2049 -0.0856
 9306SOL    HW139551   3.373   2.133  10.254 -2.5874  1.1744 -1.8737
 9306SOL    HW239552   3.373   2.279  10.273 -1.2195 -0.3006 -0.6602
 9307SOL     OW39553   3.151   0.169   3.274  0.2498 -0.0722 -0.3442
 9307SOL    HW139554   3.098   0.245   3.249  0.5910  0.2572 -0.0686
 9307SOL    HW239555   3.222   0.198   3.332 -0.3102  0.2209  0.1945
 9308SOL     OW39556   1.890   1.926   6.594  0.0544  0.4278  0.5879
 9308SOL    HW139557   1.873   1.983   6.519  2.2494 -0.1630 -0.3521
 9308SOL    HW239558   1.935   1.855   6.549  0.0682  0.6329  0.2756
 9309SOL     OW39559   0.809   4.302   5.671 -0.3455 -0.3353 -0.3836
 9309SOL    HW139560   0.787   4.249   5.747  0.3377  0.0473  0.0856
 9309SOL    HW239561   0.897   4.332   5.696 -0.5640 -1.5799  1.9108
 9310SOL     OW39562   1.967   2.766   7.002  0.1171 -0.1434 -0.1141
 9310SOL    HW139563   1.963   2.826   6.928 -2.7819 -1.8232 -1.3252
 9310SOL    HW239564   1.876   2.755   7.026  0.5202 -0.8161  1.0836
 9311SOL     OW39565   1.906   1.964  12.191 -0.1716  0.5323 -0.8813
 9311SOL    HW139566   1.924   1.870  12.193  1.6556  0.9805  3.0307
 9311SOL    HW239567   1.831   1.968  12.250 -1.1450  0.0764 -2.0558
 9312SOL     OW39568   4.479   4.205   1.896 -0.4988  0.0598 -0.1568
 9312SOL    HW139569   4.409   4.269   1.881  0.7496  1.3610 -0.4920
 9312SOL    HW239570   4.548   4.268   1.920  1.0167 -1.8750  0.5087
 9313SOL     OW39571   4.215   3.013   2.240  0.0493 -0.1322 -0.2015
 9313SOL    HW139572   4.135   3.063   2.222 -1.8633 -2.9211  0.5482
 9313SOL    HW239573   4.222   3.038   2.332  1.0446 -1.0436 -0.0285
 9314SOL     OW39574   4.442   1.320   5.528  0.2572 -0.2517 -0.2385
 9314SOL    HW139575   4.478   1.316   5.440 -0.4578  2.4320 -0.6696
 9314SOL    HW239576   4.520   1.319   5.584  0.8852  1.8220 -1.0829
 9315SOL     OW39577   3.778   0.106   4.928 -0.4107 -0.1070  0.2566
 9315SOL    HW139578   3.816   0.183   4.970 -1.6072  1.2009 -1.0752
 9315SOL    HW239579   3.730   0.146   4.856 -1.1959  0.4800  1.1014
 9316SOL     OW39580   1.179   2.547  15.466  0.1769 -1.1250  0.3090
 9316SOL    HW139581   1.252   2.486  15.459  0.0015 -1.3782  0.6722
 9316SOL    HW239582   1.143   2.521  15.551  0.7832 -0.0769  0.8802
 9317SOL     OW39583   3.113   3.439   7.478 -0.1285 -0.2744  0.2204
 9317SOL    HW139584   3.059   3.390   7.416 -0.2310 -0.8956  0.8037
 9317SOL    HW239585   3.192   3.449   7.425 -0.4886  1.6811  0.0481
 9318SOL     OW39586   0.580   3.042   8.133 -0.4537  0.0861  0.5216
 9318SOL    HW139587   0.588   2.962   8.081  3.8799  1.7727 -1.4112
 9318SOL    HW239588   0.647   3.094   8.088  1.3432 -0.1071  2.9910
 9319SOL     OW39589   2.675   0.598   4.745  0.1245  0.4834 -0.6094
 9319SOL    HW139590   2.593   0.602   4.696 -0.7441 -0.0466  0.7930
 9319SOL    HW239591   2.737   0.587   4.673  1.1032  1.0845  0.1382
 9320SOL     OW39592   4.397   1.031   9.294  0.6684  0.2058 -0.1537
 9320SOL    HW139593   4.370   0.941   9.278  0.4988  0.4675 -1.3432
 9320SOL    HW239594   4.319   1.069   9.334 -0.8697 -2.2763 -0.8469
 9321SOL     OW39595   2.155   3.135  16.979  0.3207 -0.1355 -0.3640
 9321SOL    HW139596   2.141   3.046  17.010 -0.9352 -0.3162 -1.4482
 9321SOL    HW239597   2.066   3.170  16.988 -0.3052 -1.4413 -1.4174
 9322SOL     OW39598   2.651   3.794   1.377 -0.6996  0.1827 -0.3013
 9322SOL    HW139599   2.708   3.778   1.452 -0.7120  1.6036  0.0053
 9322SOL    HW239600   2.578   3.840   1.418  0.5153  0.2001  1.8503
 9323SOL     OW39601   0.252   2.511   7.144  0.0073 -0.0915  0.3198
 9323SOL    HW139602   0.243   2.416   7.149  0.5199 -0.1462  0.2405
 9323SOL    HW239603   0.207   2.537   7.224  0.8414  2.1902  0.0719
 9324SOL     OW39604   1.526   0.641   4.710  0.1305  0.0963 -0.4387
 9324SOL    HW139605   1.505   0.549   4.725  0.6004 -0.3884 -2.7454
 9324SOL    HW239606   1.435   0.669   4.726  0.1410 -0.4620  0.5620
 9325SOL     OW39607   3.811   2.988   4.088  0.0412  0.2446  0.9531
 9325SOL    HW139608   3.772   2.908   4.122 -1.0746  0.0517 -0.7537
 9325SOL    HW239609   3.785   3.055   4.151 -2.1827  1.0587 -0.8279
 9326SOL     OW39610   4.653   0.829   6.407  0.1117  0.3650 -0.1411
 9326SOL    HW139611   4.584   0.889   6.376 -1.3663 -1.3584 -0.1811
 9326SOL    HW239612   4.593   0.766   6.447 -0.9319  1.9200  0.7259
 9327SOL     OW39613   4.319   4.049   3.204  0.6452  0.0193 -0.0606
 9327SOL    HW139614   4.316   4.134   3.247 -2.6256 -0.9788  1.6218
 9327SOL    HW239615   4.390   4.011   3.255  0.3817 -0.8487 -0.3369
 9328SOL     OW39616   4.489   2.040   5.712  0.2399  0.0731 -0.1785
 9328SOL    HW139617   4.506   2.068   5.802  0.1955  1.2887 -0.5413
 9328SOL    HW239618   4.407   1.992   5.726  0.5392 -0.9065 -1.7790
 9329SOL     OW39619   0.315   4.434   3.099  0.5202 -0.3450 -0.0772
 9329SOL    HW139620   0.242   4.484   3.063  1.3661  2.0105  1.4463
 9329SOL    HW239621   0.305   4.344   3.070 -1.1586 -0.2157  0.0990
 9330SOL     OW39622   2.250   1.661   7.058  0.4230  0.8662  0.2159
 9330SOL    HW139623   2.263   1.651   7.152  0.7732  0.0291  0.0715
 9330SOL    HW239624   2.340   1.671   7.025 -0.0813  0.4498 -1.2664
 9331SOL     OW39625   1.795   1.843   0.103 -0.5204 -0.1962 -0.3863
 9331SOL    HW139626   1.774   1.758   0.141 -4.3201  0.3698 -1.2091
 9331SOL    HW239627   1.728   1.894   0.149 -0.4475  0.0454 -0.5502
 9332SOL     OW39628   4.547   2.695   9.779 -0.3821 -0.7112  0.1698
 9332SOL    HW139629   4.456   2.695   9.749 -0.8740  2.7871  1.6916
 9332SOL    HW239630   4.547   2.759   9.850 -1.5551 -1.8030  1.1562
 9333SOL     OW39631   4.118   0.751   7.937 -0.0729 -0.7231 -0.3744
 9333SOL    HW139632   4.177   0.712   7.872  2.3504  3.2699 -0.5835
 9333SOL    HW239633   4.061   0.783   7.867 -1.4113  2.2468  2.0204
 9334SOL     OW39634   4.036   0.473  12.014 -0.1192 -0.0864  0.7009
 9334SOL    HW139635   4.035   0.388  12.058  0.0496 -1.0375 -1.1300
 9334SOL    HW239636   4.092   0.457  11.938 -1.8739 -0.4336 -0.5151
 9335SOL     OW39637   0.883   1.533  11.515 -0.2607 -0.6300  0.1401
 9335SOL    HW139638   0.909   1.499  11.428 -0.1725 -2.6533  0.9429
 9335SOL    HW239639   0.930   1.616  11.509 -0.4792 -0.4974  0.2929
 9336SOL     OW39640   3.836   4.155  10.661 -0.4367 -0.7065  0.2952
 9336SOL    HW139641   3.863   4.230  10.608 -0.2054  0.3051  1.8762
 9336SOL    HW239642   3.841   4.177  10.754  0.4975 -0.1005  0.1019
 9337SOL     OW39643   1.865   4.300   9.023 -0.1060 -0.2791  0.0186
 9337SOL    HW139644   1.911   4.363   8.969 -2.1549 -0.8116 -2.3299
 9337SOL    HW239645   1.854   4.227   8.962 -1.1060  0.9130 -1.2155
 9338SOL     OW39646   3.147   0.295   0.656  0.0998  0.8441  0.3682
 9338SOL    HW139647   3.090   0.371   0.643 -1.3873 -0.4173 -0.4480
 9338SOL    HW239648   3.108   0.244   0.586 -0.8458  2.1999 -0.0939
 9339SOL     OW39649   0.983   2.898   3.363 -0.3214 -0.0204  0.1931
 9339SOL    HW139650   1.036   2.909   3.442 -0.4519  2.6126 -0.0840
 9339SOL    HW239651   0.967   2.989   3.338 -1.0360 -0.3515 -0.5516
 9340SOL     OW39652   0.455   3.539   0.269 -0.2274 -0.0191  0.1547
 9340SOL    HW139653   0.508   3.468   0.232 -1.9214 -1.0988 -0.2422
 9340SOL    HW239654   0.452   3.505   0.358  0.5568 -0.2064  0.1090
 9341SOL     OW39655   1.669   2.290   1.264 -0.5052  0.1756 -0.2791
 9341SOL    HW139656   1.652   2.238   1.185 -0.9201  1.3107 -0.9305
 9341SOL    HW239657   1.634   2.379   1.256 -0.9906 -0.3281 -3.7844
 9342SOL     OW39658   0.783   1.414  11.737 -0.1411 -0.1258  0.4606
 9342SOL    HW139659   0.863   1.363  11.752 -0.7821 -1.4985 -0.6806
 9342SOL    HW239660   0.814   1.468  11.664 -0.1022 -0.2139  0.4111
 9343SOL     OW39661   2.448   3.715   5.032  0.5031  0.4933 -0.1030
 9343SOL    HW139662   2.446   3.648   5.101  1.8814  1.8735  1.2949
 9343SOL    HW239663   2.359   3.750   5.025 -0.5838 -2.1635  0.3884
 9344SOL     OW39664   4.020   0.705  12.745 -0.2081 -0.2476  0.0378
 9344SOL    HW139665   4.004   0.615  12.770 -0.6782  0.0502  0.8012
 9344SOL    HW239666   4.084   0.708  12.674  0.8777  0.5928  1.0471
 9345SOL     OW39667   3.769   3.782   3.384 -0.8664 -0.0221  0.1729
 9345SOL    HW139668   3.863   3.765   3.379 -0.9784 -0.8227  0.8472
 9345SOL    HW239669   3.750   3.766   3.476  2.1385  1.0460  0.9698
 9346SOL     OW39670   2.877   3.155   2.467  0.2055  0.4413 -0.7195
 9346SOL    HW139671   2.801   3.175   2.521 -1.7188 -2.0562 -2.5518
 9346SOL    HW239672   2.836   3.119   2.388  1.6041 -1.4583 -0.5799
 9347SOL     OW39673   1.340   3.570   3.315  0.5690  0.1496  0.0239
 9347SOL    HW139674   1.389   3.653   3.320  0.5836  0.1678 -0.4426
 9347SOL    HW239675   1.344   3.545   3.223 -0.2614 -1.3405  0.4128
 9348SOL     OW39676   4.017   2.824   9.625 -0.3508 -0.1998  0.8776
 9348SOL    HW139677   4.034   2.914   9.597  1.3178 -1.2141 -1.3526
 9348SOL    HW239678   3.926   2.805   9.599  0.5260 -0.5679 -1.9132
 9349SOL     OW39679   2.711   0.250   8.576  0.6177 -0.8474  0.4563
 9349SOL    HW139680   2.734   0.314   8.643  2.4884  0.9832 -1.9190
 9349SOL    HW239681   2.733   0.168   8.620  0.0772 -0.7507  0.9171
 9350SOL     OW39682   3.734   4.714   1.099 -0.2811 -0.2865 -0.4876
 9350SOL    HW139683   3.733   4.737   1.192 -0.5349  0.6050 -0.7113
 9350SOL    HW239684   3.820   0.011   1.074 -0.7288 -0.2250 -1.9111
 9351SOL     OW39685   2.506   2.792   2.172 -0.7227 -0.3013  0.7147
 9351SOL    HW139686   2.513   2.737   2.094 -1.5904  0.2749  0.2214
 9351SOL    HW239687   2.473   2.873   2.135  0.6539  1.3122  3.0045
 9352SOL     OW39688   3.719   0.602   5.379 -0.7891 -0.1419 -0.8146
 9352SOL    HW139689   3.722   0.514   5.417 -0.0520  0.2444  0.0099
 9352SOL    HW239690   3.800   0.620   5.332 -0.1326 -0.6132  0.1441
 9353SOL     OW39691   0.441   0.204   8.357 -0.2298  0.0524 -0.0523
 9353SOL    HW139692   0.352   0.179   8.331 -0.0205 -1.7354  0.9536
 9353SOL    HW239693   0.447   0.178   8.448  0.4646  0.5580  0.0432
 9354SOL     OW39694   2.921   0.073  13.005  0.2799  0.0150  0.3831
 9354SOL    HW139695   2.903   0.146  13.064 -0.2326 -0.3450  0.6673
 9354SOL    HW239696   2.974   0.122  12.942  1.3455 -0.0399  1.2600
 9355SOL     OW39697   1.935   2.844  16.603 -0.3133 -0.2046  0.2363
 9355SOL    HW139698   1.907   2.910  16.540 -0.6455  1.7480  2.3982
 9355SOL    HW239699   1.921   2.762  16.556  2.2699  0.7516 -2.2262
 9356SOL     OW39700   1.616   2.720   5.147 -0.0103 -0.2600 -0.0138
 9356SOL    HW139701   1.669   2.654   5.193  2.7368  3.0381  1.4759
 9356SOL    HW239702   1.682   2.789   5.145 -1.5840  1.1700 -2.5940
 9357SOL     OW39703   3.179   3.339  13.270 -0.3077  0.3379  0.2791
 9357SOL    HW139704   3.145   3.366  13.184  2.5228  1.2370 -0.5664
 9357SOL    HW239705   3.261   3.299  13.241 -0.4511 -0.6048  1.1946
 9358SOL     OW39706   2.574   3.987  14.042  0.0178  0.1065  0.9334
 9358SOL    HW139707   2.575   4.028  13.955 -3.7281 -0.1906  0.7267
 9358SOL    HW239708   2.511   4.040  14.090 -0.2953  0.0587  0.5825
 9359SOL     OW39709   2.635   2.625   6.514  0.2698  0.8616  0.7858
 9359SOL    HW139710   2.699   2.695   6.509 -0.6532  1.7264  0.9989
 9359SOL    HW239711   2.565   2.678   6.474 -0.9860 -1.1839  0.2197
 9360SOL     OW39712   4.219   3.001   2.923 -0.0024  0.0604  0.5474
 9360SOL    HW139713   4.189   3.060   2.854 -0.9137 -0.3901  0.5543
 9360SOL    HW239714   4.152   2.932   2.921 -0.2888  0.3285  0.9246
 9361SOL     OW39715   3.821   4.196   6.455  0.4512  0.3271  0.0852
 9361SOL    HW139716   3.756   4.222   6.520  0.6045 -0.4024  0.5362
 9361SOL    HW239717   3.826   4.264   6.388 -1.1001 -0.2324 -0.5845
 9362SOL     OW39718   0.569   3.299   3.652 -0.2954  0.1678  0.2225
 9362SOL    HW139719   0.649   3.346   3.630 -0.6970  0.3640 -0.8334
 9362SOL    HW239720   0.587   3.235   3.721  0.0691  0.9291  0.8294
 9363SOL     OW39721   4.240   1.670   0.849  0.0466 -0.2180  0.1034
 9363SOL    HW139722   4.334   1.686   0.854  0.2161 -0.6025 -1.8685
 9363SOL    HW239723   4.219   1.635   0.936 -1.8829 -1.5652 -0.9057
 9364SOL     OW39724   3.661   1.891   3.986 -0.4579 -0.2976 -0.2124
 9364SOL    HW139725   3.643   1.984   3.997  1.3945  0.2617 -1.9742
 9364SOL    HW239726   3.624   1.857   4.068 -0.3741 -2.4282 -1.0575
 9365SOL     OW39727   2.809   2.221  17.442  0.8309 -0.0717  0.3795
 9365SOL    HW139728   2.787   2.203  17.533  0.3988 -1.1893  0.0480
 9365SOL    HW239729   2.767   2.145  17.402 -1.4129  1.0521  0.6277
 9366SOL     OW39730   1.230   0.410   0.641  0.3684  0.6793 -0.4986
 9366SOL    HW139731   1.281   0.408   0.722 -1.0616  2.8647  0.4466
 9366SOL    HW239732   1.141   0.412   0.675  0.6979  0.0088  0.4149
 9367SOL     OW39733   3.954   3.880   6.618  0.3246  0.3734 -0.3690
 9367SOL    HW139734   3.908   3.942   6.675 -0.5476 -1.9156  1.4254
 9367SOL    HW239735   4.027   3.857   6.676 -1.6854  0.9080  2.3533
 9368SOL     OW39736   1.310   2.738   0.302 -0.4439  0.0125 -0.2970
 9368SOL    HW139737   1.360   2.739   0.383 -0.8355  0.7061 -0.0659
 9368SOL    HW239738   1.364   2.787   0.240 -1.7569 -0.7931 -2.0823
 9369SOL     OW39739   0.656   0.156   1.979  0.2558 -0.0337  0.2186
 9369SOL    HW139740   0.657   0.161   1.884  1.6222  1.9356  0.3368
 9369SOL    HW239741   0.644   0.240   2.023  2.3084 -0.1789  1.0515
 9370SOL     OW39742   0.680   2.945   7.187  0.1636 -0.1003  0.4767
 9370SOL    HW139743   0.746   3.008   7.213  0.0097  0.0444  0.5154
 9370SOL    HW239744   0.679   2.888   7.264  1.7353 -2.6765 -1.4167
 9371SOL     OW39745   1.777   4.716   8.411 -0.0020 -0.2034  0.0722
 9371SOL    HW139746   1.804   4.627   8.434  1.8767  0.8370  1.8807
 9371SOL    HW239747   1.720   4.695   8.337  0.7814 -0.2477 -0.5052
 9372SOL     OW39748   1.038   3.769   2.292  0.2494 -0.4819  0.5297
 9372SOL    HW139749   1.061   3.750   2.201 -0.3278  0.5936  0.1634
 9372SOL    HW239750   0.963   3.828   2.288  1.2347  0.7549  0.4370
 9373SOL     OW39751   0.426   3.261   8.473 -0.4158 -0.3769  0.0671
 9373SOL    HW139752   0.414   3.172   8.439  0.3811 -0.4110 -0.1328
 9373SOL    HW239753   0.410   3.243   8.565  1.0770 -0.1341  0.3675
 9374SOL     OW39754   1.762   3.322   7.505  0.1240 -0.8454  0.4114
 9374SOL    HW139755   1.765   3.287   7.594  2.7382  0.0463  0.6668
 9374SOL    HW239756   1.698   3.270   7.455  0.1066 -1.5673  1.1787
 9375SOL     OW39757   1.279   4.157  16.508 -0.4910 -0.0408  0.4126
 9375SOL    HW139758   1.355   4.128  16.458 -1.9918 -0.4558 -1.6388
 9375SOL    HW239759   1.278   4.090  16.576 -0.2245  1.0497  1.4688
 9376SOL     OW39760   3.896   3.695   8.541  0.3524  0.7414 -0.6752
 9376SOL    HW139761   3.887   3.640   8.620 -0.0085 -1.1340 -2.0171
 9376SOL    HW239762   3.898   3.629   8.472  1.1235 -1.4845  1.4475
 9377SOL     OW39763   0.505   2.717   5.062  0.1681  0.3319 -0.1250
 9377SOL    HW139764   0.499   2.803   5.019  0.8921  0.8905  0.8764
 9377SOL    HW239765   0.433   2.676   5.015  0.1490 -0.2698  0.4409
 9378SOL     OW39766   0.188   1.384  16.974  0.5936  0.0914  0.0183
 9378SOL    HW139767   0.245   1.309  16.959 -0.1629 -0.5530  0.4392
 9378SOL    HW239768   0.200   1.396  17.068 -2.9696 -0.7461  0.5662
 9379SOL     OW39769   3.100   3.668   5.983 -0.4773 -0.0461 -0.1555
 9379SOL    HW139770   3.045   3.713   5.919 -0.6331  0.8163  0.6031
 9379SOL    HW239771   3.154   3.737   6.022  0.8832 -1.2772  0.1421
 9380SOL     OW39772   1.459   3.650   1.619  0.3691 -0.7089 -0.0414
 9380SOL    HW139773   1.371   3.618   1.638 -1.0085  3.3858  0.4762
 9380SOL    HW239774   1.507   3.569   1.637 -0.4074 -0.9600  0.8956
 9381SOL     OW39775   3.847   4.328   8.850 -0.2588 -0.2194 -0.6497
 9381SOL    HW139776   3.884   4.416   8.843 -0.7694  0.0913  0.6239
 9381SOL    HW239777   3.919   4.266   8.864 -1.5602 -1.3563  0.9681
 9382SOL     OW39778   4.212   4.014  12.030 -0.1421  0.6804  0.9985
 9382SOL    HW139779   4.294   4.039  11.987  0.1661  0.3051  1.3626
 9382SOL    HW239780   4.217   3.919  12.020 -0.3143  0.9169 -1.4146
 9383SOL     OW39781   0.947   4.731   8.988  0.3716 -0.1761  0.1496
 9383SOL    HW139782   0.952   4.637   9.007 -3.6226 -0.2915  0.7653
 9383SOL    HW239783   0.970   0.002   8.895  1.6628 -0.9703  0.3877
 9384SOL     OW39784   4.678   0.062  16.935  0.0050 -0.1024 -0.2467
 9384SOL    HW139785   0.019   0.025  16.897 -0.6483 -0.4081 -1.3322
 9384SOL    HW239786   4.617   4.730  16.914 -0.6511  0.3538  0.1279
 9385SOL     OW39787   2.433   0.282   6.555 -0.1382  0.3054 -0.4299
 9385SOL    HW139788   2.473   0.366   6.532  1.1893  0.0587  0.9885
 9385SOL    HW239789   2.416   0.263   6.462 -0.2568 -2.1167  0.0768
 9386SOL     OW39790   4.307   1.020   1.403 -0.4357  0.0286  0.2455
 9386SOL    HW139791   4.386   0.967   1.395 -1.5534 -1.4112 -1.3944
 9386SOL    HW239792   4.266   1.002   1.318  0.2410  0.5166 -0.1798
 9387SOL     OW39793   2.882   3.909   2.136  0.6014  0.5206 -0.2849
 9387SOL    HW139794   2.959   3.964   2.141  0.9259  0.0498 -0.1030
 9387SOL    HW239795   2.903   3.858   2.058  0.4604 -1.1325  0.7528
 9388SOL     OW39796   0.094   0.166   0.907 -0.3603 -0.6062 -0.7611
 9388SOL    HW139797   0.131   0.225   0.841  0.2864  0.0455  0.1769
 9388SOL    HW239798   0.004   0.182   0.879  0.2620 -0.9057 -2.9410
 9389SOL     OW39799   2.722   1.053   1.449 -0.0374  0.2468 -0.3111
 9389SOL    HW139800   2.730   0.968   1.493 -0.8493  0.9613  1.2404
 9389SOL    HW239801   2.627   1.057   1.462  0.0239  0.5918  0.0259
 9390SOL     OW39802   4.367   0.367  14.858  0.1885 -0.1540 -0.2654
 9390SOL    HW139803   4.311   0.439  14.887  0.3264 -0.5264  0.9435
 9390SOL    HW239804   4.453   0.410  14.856  0.0519  0.0283 -1.8801
 9391SOL     OW39805   3.882   2.626   5.608 -0.0488 -0.4569 -0.0816
 9391SOL    HW139806   3.857   2.552   5.663 -2.0066  1.0559  1.0831
 9391SOL    HW239807   3.864   2.591   5.520 -2.0563  2.6604 -0.9382
 9392SOL     OW39808   4.701   3.335  17.472  0.0822  0.0578  0.7665
 9392SOL    HW139809   4.611   3.304  17.478 -1.3578  3.1525 -4.1813
 9392SOL    HW239810   4.736   3.303  17.389  1.6682 -0.2973  1.5713
 9393SOL     OW39811   3.293   3.149  10.079  0.5719 -0.4620  0.1694
 9393SOL    HW139812   3.341   3.182  10.002 -1.1767  1.3928 -0.1208
 9393SOL    HW239813   3.314   3.056  10.069 -0.9338 -0.8119  0.3768
 9394SOL     OW39814   3.286   1.533  15.605  0.3127  0.3246  0.2253
 9394SOL    HW139815   3.227   1.608  15.617  2.0566  1.5010  1.4547
 9394SOL    HW239816   3.212   1.473  15.602 -0.2531  0.9704  1.1930
 9395SOL     OW39817   2.696   2.466  14.306 -0.2151 -0.1492 -0.2985
 9395SOL    HW139818   2.715   2.544  14.253 -1.0515 -0.0368 -0.4425
 9395SOL    HW239819   2.752   2.401  14.264  1.1889  0.6735  0.3137
 9396SOL     OW39820   0.126   2.993  14.883  1.9328 -0.0505 -0.2107
 9396SOL    HW139821   0.139   3.068  14.825  0.2245  0.7339  0.4062
 9396SOL    HW239822   0.061   2.940  14.837 -0.0256 -0.1990  2.7030
 9397SOL     OW39823   3.114   2.527  12.320 -0.1512  0.0488  0.2361
 9397SOL    HW139824   3.202   2.538  12.357  0.4110  3.5407 -2.1377
 9397SOL    HW239825   3.098   2.612  12.279  0.1284  0.6478  1.3736
 9398SOL     OW39826   0.835   2.236   4.376  0.1767  0.5693 -0.0903
 9398SOL    HW139827   0.817   2.184   4.298 -0.3817 -0.2926  0.6116
 9398SOL    HW239828   0.913   2.196   4.415 -0.4970 -1.4131 -0.7633
 9399SOL     OW39829   0.951   0.150   6.971 -0.2476 -0.2510  0.3140
 9399SOL    HW139830   0.867   0.196   6.974  0.9452  1.8569  1.4792
 9399SOL    HW239831   0.973   0.161   7.063 -1.8453  2.1349  0.3902
 9400SOL     OW39832   0.979   2.548   2.200 -0.0909 -0.6707 -0.3490
 9400SOL    HW139833   1.047   2.548   2.132  0.5529 -0.4290  0.2862
 9400SOL    HW239834   1.004   2.625   2.252 -0.7984 -1.1620  0.7073
 9401SOL     OW39835   0.877   3.367  16.971 -0.3299  0.2288  0.4469
 9401SOL    HW139836   0.835   3.389  17.055 -0.2489  0.1807  0.5000
 9401SOL    HW239837   0.964   3.403  16.986  1.2048 -4.1144  1.9088
 9402SOL     OW39838   3.826   4.475  11.339  0.0938  0.2197 -0.0355
 9402SOL    HW139839   3.800   4.467  11.247 -0.7509  1.3966  0.1070
 9402SOL    HW239840   3.750   4.440  11.386  2.0819 -2.1687  1.3892
 9403SOL     OW39841   4.558   3.637   6.156  0.1861 -0.3585 -0.0630
 9403SOL    HW139842   4.595   3.711   6.108  0.3615 -0.3864  0.0275
 9403SOL    HW239843   4.628   3.617   6.218  1.2901 -1.0969 -1.5680
 9404SOL     OW39844   4.214   1.906   6.383  0.1798  0.0841  0.1286
 9404SOL    HW139845   4.218   2.001   6.374  0.1476  0.1137  0.4399
 9404SOL    HW239846   4.295   1.891   6.432 -0.3948 -2.2227  0.3773
 9405SOL     OW39847   1.673   0.222  15.269  0.4493 -0.4072  0.1293
 9405SOL    HW139848   1.600   0.165  15.246 -1.5822  2.1192  0.3179
 9405SOL    HW239849   1.736   0.203  15.199  0.4407  0.8216 -0.2001
 9406SOL     OW39850   2.587   0.991  17.622  0.0812  0.8032 -0.1831
 9406SOL    HW139851   2.671   0.991  17.576 -0.0332  1.1295 -0.3900
 9406SOL    HW239852   2.538   1.062  17.580  0.8405  0.7103 -1.2129
 9407SOL     OW39853   2.948   3.567  10.210 -0.0410  0.1538  0.0737
 9407SOL    HW139854   2.935   3.498  10.275 -1.6197  1.5121  1.1928
 9407SOL    HW239855   2.946   3.514  10.130  0.5216 -0.3651  0.4011
 9408SOL     OW39856   1.713   1.590   0.203 -0.5709  0.3637 -0.4966
 9408SOL    HW139857   1.791   1.556   0.247  0.4357 -0.0561 -2.6011
 9408SOL    HW239858   1.681   1.517   0.150  1.4960 -0.9571  0.0680
 9409SOL     OW39859   0.629   4.393   7.556  0.5081 -0.1217  0.1751
 9409SOL    HW139860   0.637   4.304   7.590  4.0876 -0.2167 -1.0178
 9409SOL    HW239861   0.618   4.440   7.639 -0.7946 -0.5846  0.2747
 9410SOL     OW39862   1.929   0.990  11.532 -0.1710  0.2812 -0.0294
 9410SOL    HW139863   1.991   0.934  11.485  1.1680  1.2469  0.5657
 9410SOL    HW239864   1.937   1.073  11.485 -0.3035  0.2608 -0.0884
 9411SOL     OW39865   0.031   1.570   4.805  0.0466  0.2390  0.7849
 9411SOL    HW139866   0.001   1.616   4.727 -0.8467 -1.2214  0.2631
 9411SOL    HW239867   0.101   1.510   4.778  0.3060  0.4554  0.9661
 9412SOL     OW39868   2.904   1.253  17.641  0.6365  0.0711 -0.0451
 9412SOL    HW139869   2.885   1.212  17.557  0.8678 -0.9929  0.4154
 9412SOL    HW239870   2.885   1.345  17.626  0.4764 -0.1836 -1.3470
 9413SOL     OW39871   4.073   4.600   3.065  0.2190  0.1765  0.0548
 9413SOL    HW139872   4.007   4.541   3.101  0.7162 -0.4731 -0.1097
 9413SOL    HW239873   4.142   4.598   3.131  0.4794  0.3242 -0.2144
 9414SOL     OW39874   4.272   1.804   7.106 -0.4336 -0.3661  0.2058
 9414SOL    HW139875   4.233   1.878   7.153 -0.9833  0.3185 -1.3195
 9414SOL    HW239876   4.275   1.833   7.015 -0.0945 -0.3480  0.2258
 9415SOL     OW39877   3.306   1.526  10.062 -0.0444 -0.1110  0.1481
 9415SOL    HW139878   3.240   1.572  10.009 -0.5790 -0.0560  0.8499
 9415SOL    HW239879   3.382   1.510  10.007 -1.8470 -1.7328 -1.8756
 9416SOL     OW39880   0.344   2.891   7.607  0.3109 -0.1292 -0.0897
 9416SOL    HW139881   0.397   2.826   7.653  0.0746  0.0887  0.4891
 9416SOL    HW239882   0.409   2.961   7.609 -0.1791  0.2638  2.2402
 9417SOL     OW39883   1.121   4.339   4.903 -0.2110 -0.2747 -0.2447
 9417SOL    HW139884   1.043   4.381   4.938 -1.7250 -2.3678 -1.0885
 9417SOL    HW239885   1.165   4.325   4.987 -0.1599  1.7468  0.0620
 9418SOL     OW39886   4.093   1.457   9.251 -0.5442 -0.1937  0.2235
 9418SOL    HW139887   4.157   1.457   9.179 -1.4447  1.6629 -0.5876
 9418SOL    HW239888   4.098   1.547   9.284 -0.2668 -0.5642  1.1824
 9419SOL     OW39889   4.080   0.081  12.354  0.5033  0.1292  0.3803
 9419SOL    HW139890   4.052   4.728  12.355 -0.4441  0.4253  1.3626
 9419SOL    HW239891   4.016   0.119  12.294  2.0054  1.1307 -0.5887
 9420SOL     OW39892   2.392   0.958  17.342 -0.6653  0.0180  0.2417
 9420SOL    HW139893   2.415   0.929  17.430 -0.2690 -0.2734  0.0410
 9420SOL    HW239894   2.296   0.963  17.339 -0.6364  0.6648  0.5581
 9421SOL     OW39895   4.735   2.292   1.490  0.0976 -0.0652  0.2340
 9421SOL    HW139896   4.649   2.278   1.530  0.2548 -2.3053 -0.2467
 9421SOL    HW239897   0.049   2.288   1.570 -0.8541 -1.0625  0.8125
 9422SOL     OW39898   4.644   3.311   3.992  0.1973 -0.4785 -0.3252
 9422SOL    HW139899   4.622   3.295   4.083  1.2314  0.7855  0.1594
 9422SOL    HW239900   4.682   3.226   3.971 -1.5097 -2.1767  3.5844
 9423SOL     OW39901   1.517   1.435  14.694  0.4403  0.6920  0.3477
 9423SOL    HW139902   1.481   1.393  14.772 -0.7249 -0.9106 -1.0693
 9423SOL    HW239903   1.487   1.525  14.706  1.4789  0.8508  1.8944
 9424SOL     OW39904   3.855   3.104  13.323  0.3537  0.8117 -0.2491
 9424SOL    HW139905   3.876   3.126  13.413 -0.0567  0.1377  0.0060
 9424SOL    HW239906   3.819   3.018  13.343  0.5140  0.5438 -1.0720
 9425SOL     OW39907   1.153   4.382   3.419  0.2949  0.0411 -0.5477
 9425SOL    HW139908   1.246   4.379   3.443  0.0568 -0.7297  0.2724
 9425SOL    HW239909   1.137   4.292   3.447 -2.5712  0.8113  0.2922
 9426SOL     OW39910   3.252   0.394   3.088  0.2069  0.2520 -0.7865
 9426SOL    HW139911   3.165   0.380   3.126  0.2919  2.3905  0.1871
 9426SOL    HW239912   3.281   0.303   3.081  0.7919  0.4726 -1.1875
 9427SOL     OW39913   2.910   0.582   6.982  0.3034  0.5060 -0.0462
 9427SOL    HW139914   2.918   0.548   7.071 -2.8401 -2.2957 -0.8446
 9427SOL    HW239915   2.818   0.561   6.963  1.2219 -2.0298 -1.6348
 9428SOL     OW39916   0.755   3.702   0.532 -0.2511  0.4413 -0.0262
 9428SOL    HW139917   0.792   3.726   0.616 -2.2023 -0.2427  1.0316
 9428SOL    HW239918   0.663   3.687   0.557 -0.0090 -1.6118 -0.3540
 9429SOL     OW39919   2.740   1.856  15.346 -0.1460 -0.2910 -0.8068
 9429SOL    HW139920   2.759   1.945  15.376  0.6427 -0.8711  0.4364
 9429SOL    HW239921   2.765   1.808  15.425 -3.1626 -0.5825 -0.0459
 9430SOL     OW39922   2.324   2.403  16.660 -0.7105  0.0727  0.6958
 9430SOL    HW139923   2.320   2.351  16.741 -0.8471 -0.9558  0.0215
 9430SOL    HW239924   2.359   2.338  16.600 -0.2806  1.0135 -0.0609
 9431SOL     OW39925   2.366   1.195   7.519 -0.1101 -0.1706  0.5610
 9431SOL    HW139926   2.308   1.255   7.567  0.2670  0.3855  0.3324
 9431SOL    HW239927   2.395   1.248   7.444  1.5002 -0.8099  0.7292
 9432SOL     OW39928   3.580   4.092  10.133 -0.4004  0.4390 -0.0755
 9432SOL    HW139929   3.527   4.155  10.085 -2.7817 -2.5114 -1.3106
 9432SOL    HW239930   3.506   4.042  10.167 -1.2941  2.9017  1.5833
 9433SOL     OW39931   1.303   3.905   6.335  0.4307 -0.4152  0.2612
 9433SOL    HW139932   1.320   3.999   6.340  0.2661 -0.4284  1.1715
 9433SOL    HW239933   1.231   3.926   6.275  0.5934  2.8634  1.2028
 9434SOL     OW39934   0.190   4.202   3.382  0.1872  0.2182 -0.4989
 9434SOL    HW139935   0.280   4.235   3.388  0.2709 -0.9338  4.5241
 9434SOL    HW239936   0.150   4.233   3.464  0.6777  0.1444 -0.2332
 9435SOL     OW39937   0.712   1.100   6.831 -0.1476 -0.1300 -0.3595
 9435SOL    HW139938   0.804   1.115   6.851 -0.2668 -1.1259  0.9700
 9435SOL    HW239939   0.664   1.162   6.885 -0.6589 -0.0668 -0.8820
 9436SOL     OW39940   4.733   1.627   5.240  0.0461  0.2089  0.0357
 9436SOL    HW139941   0.013   1.534   5.226 -1.6328  0.1458 -1.7378
 9436SOL    HW239942   0.034   1.650   5.324 -2.1753 -0.2107  1.1799
 9437SOL     OW39943   4.509   3.783   4.713 -0.3444 -0.7175  0.4723
 9437SOL    HW139944   4.573   3.731   4.762 -1.6061 -0.6160  2.1976
 9437SOL    HW239945   4.430   3.740   4.743  0.3093 -0.5146  2.4780
 9438SOL     OW39946   0.213   4.246  17.408 -0.3792 -0.0880  0.3592
 9438SOL    HW139947   0.120   4.235  17.427 -0.6870  2.8043  0.5417
 9438SOL    HW239948   0.228   4.157  17.377 -0.5838  1.0869 -3.0594
 9439SOL     OW39949   3.677   2.540   2.622 -0.7285  0.1174  0.0615
 9439SOL    HW139950   3.706   2.506   2.538  0.5527  2.4879 -0.4787
 9439SOL    HW239951   3.738   2.609   2.648  0.0592 -0.2337 -0.8870
 9440SOL     OW39952   0.050   2.243  16.995  0.7427  0.4447 -0.4077
 9440SOL    HW139953   0.058   2.186  16.919  0.8928 -2.6701  1.9477
 9440SOL    HW239954   0.010   2.320  16.955  1.2853  0.3538 -1.1367
 9441SOL     OW39955   4.568   2.443   4.048  0.2606  0.5377 -0.1522
 9441SOL    HW139956   4.567   2.366   3.992 -0.9201  0.8710 -0.5863
 9441SOL    HW239957   4.600   2.501   3.979  0.7883  1.3050  0.7298
 9442SOL     OW39958   2.843   4.359   1.862 -0.0312  0.3233 -0.0419
 9442SOL    HW139959   2.813   4.269   1.872  0.7076 -0.1364 -1.9648
 9442SOL    HW239960   2.795   4.391   1.939  2.3712 -0.4223  1.7800
 9443SOL     OW39961   0.039   2.103   6.637  0.0189  0.3845  0.1454
 9443SOL    HW139962   4.722   2.057   6.574 -1.9926 -0.8077  2.8400
 9443SOL    HW239963   0.080   2.172   6.584  0.9242 -1.2076 -1.2342
 9444SOL     OW39964   0.992   1.013   0.818  0.2251  0.5382 -0.2744
 9444SOL    HW139965   0.905   0.974   0.819 -0.0421  1.1277 -1.4259
 9444SOL    HW239966   1.027   0.996   0.906 -0.7146 -2.1565 -0.4071
 9445SOL     OW39967   2.167   1.420   4.264  0.1728  0.0266 -0.1715
 9445SOL    HW139968   2.147   1.512   4.246 -0.8692 -0.2789 -0.5554
 9445SOL    HW239969   2.237   1.401   4.202  0.3830 -1.2099  0.4293
 9446SOL     OW39970   3.402   4.130   2.357  0.1922  0.0069 -0.2893
 9446SOL    HW139971   3.374   4.173   2.437  2.2896  2.7997 -1.0776
 9446SOL    HW239972   3.469   4.190   2.324  0.1065 -1.0011 -2.3598
 9447SOL     OW39973   1.915   4.052   3.259 -0.4783  0.1130  0.0361
 9447SOL    HW139974   1.988   4.103   3.292 -0.4528 -0.0101  0.1678
 9447SOL    HW239975   1.900   4.098   3.176  0.0773 -0.8217 -0.5723
 9448SOL     OW39976   2.175   0.977   1.383 -0.0399  0.2116  0.0822
 9448SOL    HW139977   2.253   1.020   1.349  1.1775 -0.7089  1.7203
 9448SOL    HW239978   2.207   0.946   1.468  1.1553 -0.7574 -0.7316
 9449SOL     OW39979   0.630   1.006   1.975  0.5409 -0.5376  0.5020
 9449SOL    HW139980   0.616   0.912   1.978  1.8933 -0.7306  0.7453
 9449SOL    HW239981   0.588   1.038   2.055 -0.7316 -1.5642  0.2327
 9450SOL     OW39982   2.070   2.076  11.138 -0.4459 -0.0163 -0.4462
 9450SOL    HW139983   2.147   2.115  11.178 -1.5866  1.5808  0.1644
 9450SOL    HW239984   2.028   2.031  11.211  0.4748 -1.5085 -0.8359
 9451SOL     OW39985   2.893   3.547   2.374 -0.1924  0.3997  0.1425
 9451SOL    HW139986   2.940   3.549   2.291  1.3359 -0.9166  0.9787
 9451SOL    HW239987   2.802   3.535   2.347  0.4119  0.8737 -2.1322
 9452SOL     OW39988   3.255   4.269  12.008  0.7489  0.0326  0.5473
 9452SOL    HW139989   3.323   4.336  11.999  0.1778  0.4812 -0.4143
 9452SOL    HW239990   3.249   4.228  11.922  0.9115  0.0225  0.5397
 9453SOL     OW39991   0.569   3.405   7.177 -0.3748  0.0188  0.0588
 9453SOL    HW139992   0.544   3.369   7.262  0.9560 -0.3449  0.2967
 9453SOL    HW239993   0.542   3.495   7.194 -4.5715 -1.4621  1.1846
 9454SOL     OW39994   4.673   3.018  10.649  0.3049  0.1143 -0.4347
 9454SOL    HW139995   0.024   2.989  10.628 -0.0115 -0.6908 -0.6650
 9454SOL    HW239996   4.703   3.081  10.715 -0.3027 -0.4703  0.3895
 9455SOL     OW39997   0.553   2.121   9.475  0.1624 -0.0348 -0.0776
 9455SOL    HW139998   0.476   2.163   9.436  0.1435  1.4793  1.6030
 9455SOL    HW239999   0.601   2.190   9.521  0.7104 -0.0514 -0.6332
 9456SOL     OW40000   3.318   0.624   9.341 -0.4386  0.3140  0.1304
 9456SOL    HW140001   3.268   0.619   9.423 -0.6046 -1.5986 -0.0919
 9456SOL    HW240002   3.409   0.609   9.367 -0.6737  0.3329  0.9802
 9457SOL     OW40003   1.127   0.433  11.451 -0.5699  0.5264  0.3692
 9457SOL    HW140004   1.051   0.377  11.441  0.6089 -0.5950 -2.2444
 9457SOL    HW240005   1.097   0.502  11.392  2.7310  0.3972 -1.4805
 9458SOL     OW40006   2.709   4.591  12.524  0.2370 -0.2963 -0.1050
 9458SOL    HW140007   2.753   4.634  12.597 -0.1153 -2.3905  1.3328
 9458SOL    HW240008   2.657   4.537  12.584 -0.2794 -0.8432 -1.0480
 9459SOL     OW40009   3.303   2.421  13.426 -0.2058  0.4318  0.3486
 9459SOL    HW140010   3.293   2.332  13.459  0.3480  0.5764  0.9004
 9459SOL    HW240011   3.233   2.469  13.471 -1.2413  1.1732 -2.0362
 9460SOL     OW40012   2.728   3.505   1.397 -0.2675  0.0206  0.2724
 9460SOL    HW140013   2.637   3.528   1.419 -0.4984 -0.2990 -0.3419
 9460SOL    HW240014   2.774   3.564   1.457  0.9558 -0.6837  0.0321
 9461SOL     OW40015   0.568   1.945  10.283 -0.0637 -0.2547 -0.1218
 9461SOL    HW140016   0.660   1.971  10.272  0.1251 -1.4666 -1.4983
 9461SOL    HW240017   0.528   2.000  10.215  0.2369 -0.3020 -0.3401
 9462SOL     OW40018   0.275   3.266   6.607 -0.3153  0.3579  0.0121
 9462SOL    HW140019   0.201   3.221   6.565  0.5251 -0.4251 -0.6422
 9462SOL    HW240020   0.229   3.298   6.684  0.0327  0.0126  0.3632
 9463SOL     OW40021   3.139   0.323   5.416 -0.2875 -0.0590  0.1316
 9463SOL    HW140022   3.219   0.359   5.456 -0.3788 -2.5996  2.6394
 9463SOL    HW240023   3.175   0.285   5.336 -1.0630  0.1903 -0.3232
 9464SOL     OW40024   2.792   4.497   2.703 -0.4587 -0.1631  0.3352
 9464SOL    HW140025   2.703   4.482   2.670 -0.2201 -1.4953  0.3145
 9464SOL    HW240026   2.776   4.471   2.794  2.5028 -2.7616  0.1043
 9465SOL     OW40027   3.935   4.237   5.161  0.4055 -0.0797  0.1895
 9465SOL    HW140028   3.987   4.299   5.109 -1.8762  2.4256  0.8626
 9465SOL    HW240029   3.938   4.285   5.244 -3.8364 -0.4370  0.5482
 9466SOL     OW40030   0.904   2.867   4.649  0.8847 -0.2465 -0.0626
 9466SOL    HW140031   0.891   2.778   4.618  0.3756 -0.0903 -0.2907
 9466SOL    HW240032   0.929   2.849   4.739  2.5207  0.9176 -0.2675
 9467SOL     OW40033   1.490   2.174  10.050  0.6373 -0.1263 -0.3668
 9467SOL    HW140034   1.471   2.191   9.958  0.4038 -2.7386 -0.8143
 9467SOL    HW240035   1.546   2.097  10.038 -1.6267 -2.2430  2.4823
 9468SOL     OW40036   3.724   3.796   4.584 -0.1997 -0.4073  0.4111
 9468SOL    HW140037   3.639   3.756   4.599 -0.1132 -1.0829 -0.8869
 9468SOL    HW240038   3.706   3.884   4.617  2.9560  0.7129 -0.7646
 9469SOL     OW40039   1.155   0.244   3.641 -0.4937 -0.0492 -0.5182
 9469SOL    HW140040   1.192   0.157   3.657 -0.0723 -0.3122 -3.0503
 9469SOL    HW240041   1.212   0.303   3.691 -1.7821 -0.6539  1.6972
 9470SOL     OW40042   2.041   3.756   6.131  0.3244  0.1397 -0.6522
 9470SOL    HW140043   2.123   3.722   6.167  0.1756  2.4910  1.9489
 9470SOL    HW240044   1.998   3.671   6.127 -0.5778  0.5700 -0.0266
 9471SOL     OW40045   1.373   3.394  11.603  0.7063 -1.0101  0.2017
 9471SOL    HW140046   1.320   3.472  11.623  0.7074 -0.9766  0.0751
 9471SOL    HW240047   1.447   3.427  11.552  0.6166  0.7497  1.1980
 9472SOL     OW40048   1.844   3.009   7.080 -0.4565 -0.0397  0.6265
 9472SOL    HW140049   1.838   3.051   6.994  0.0587  1.4946  1.3304
 9472SOL    HW240050   1.757   2.975   7.099 -0.1710 -0.4736  1.1642
 9473SOL     OW40051   2.528   3.360   9.628  0.0180  0.6759  0.2442
 9473SOL    HW140052   2.531   3.279   9.576  2.0625  0.1407  1.1936
 9473SOL    HW240053   2.512   3.341   9.720 -0.5104  0.2715  0.0667
 9474SOL     OW40054   4.550   3.103  16.864 -0.2779 -0.1166 -0.3148
 9474SOL    HW140055   4.503   3.038  16.812 -1.9302 -1.4641  2.8976
 9474SOL    HW240056   4.478   3.124  16.923  0.9093 -0.1814  1.1490
 9475SOL     OW40057   2.538   4.672   1.549 -0.2007  0.0685  0.7561
 9475SOL    HW140058   2.568   0.001   1.609  0.6518  0.8287 -0.5288
 9475SOL    HW240059   2.465   4.718   1.507 -0.4681  0.0741  1.2303
 9476SOL     OW40060   3.656   4.370   6.079  0.4521 -0.6407  0.3443
 9476SOL    HW140061   3.646   4.340   5.988 -0.0285 -4.8609  1.8041
 9476SOL    HW240062   3.746   4.403   6.073  0.1731  0.2568  1.2538
 9477SOL     OW40063   3.833   0.414   3.653 -0.0746 -0.0727 -0.4836
 9477SOL    HW140064   3.775   0.407   3.729 -0.6442  0.7683 -0.8406
 9477SOL    HW240065   3.867   0.503   3.656 -1.1873  0.3109  0.7987
 9478SOL     OW40066   4.704   2.986   4.312  0.0016  1.1708  0.4726
 9478SOL    HW140067   4.667   2.947   4.391  1.5160  1.6133  1.4089
 9478SOL    HW240068   4.691   2.919   4.246 -0.6710  0.7417  1.0428
 9479SOL     OW40069   2.253   0.159  10.510 -0.0271  0.0016 -0.1598
 9479SOL    HW140070   2.230   0.217  10.583 -0.6853  0.1986 -0.5270
 9479SOL    HW240071   2.202   0.193  10.437 -0.4750 -0.5649 -0.1123
 9480SOL     OW40072   3.962   0.716   5.219  0.3669  0.5594 -0.4155
 9480SOL    HW140073   4.054   0.701   5.243 -0.7952 -0.8443  3.1409
 9480SOL    HW240074   3.948   0.810   5.227  1.0612  0.6229  0.1022
 9481SOL     OW40075   0.361   2.493   7.526  0.2217 -0.2094 -0.5736
 9481SOL    HW140076   0.390   2.460   7.441  0.5688 -0.3815 -0.3874
 9481SOL    HW240077   0.295   2.554   7.494 -2.1243 -2.6677 -0.4704
 9482SOL     OW40078   0.648   2.186  17.341 -0.1241 -0.2276 -0.8513
 9482SOL    HW140079   0.619   2.251  17.406 -1.6150 -0.8994 -0.8398
 9482SOL    HW240080   0.627   2.109  17.394 -2.1527  1.4759  0.8487
 9483SOL     OW40081   3.307   1.052   7.952 -0.5223 -0.3651 -0.6628
 9483SOL    HW140082   3.300   1.068   8.046  2.5771 -0.2687 -0.4325
 9483SOL    HW240083   3.328   1.143   7.934 -1.7243 -0.2921 -1.6350
 9484SOL     OW40084   4.003   2.945  15.787  0.2770 -0.4341 -0.2768
 9484SOL    HW140085   3.914   2.918  15.811  0.6552  0.4579  2.1146
 9484SOL    HW240086   4.054   2.901  15.855  0.0352 -1.0187 -0.4766
 9485SOL     OW40087   0.792   3.857  16.932  0.2652 -0.3948  0.9180
 9485SOL    HW140088   0.876   3.827  16.966  1.0981 -2.8347 -3.2201
 9485SOL    HW240089   0.759   3.912  17.003 -2.9393  2.0411 -2.4490
 9486SOL     OW40090   0.830   0.973   8.926  0.0705 -0.0552  0.0859
 9486SOL    HW140091   0.912   1.022   8.928  0.0856 -0.0060 -1.2944
 9486SOL    HW240092   0.833   0.928   8.841 -0.4126 -1.0454  0.5939
 9487SOL     OW40093   4.655   3.071   6.260  0.0822 -0.1932  0.5640
 9487SOL    HW140094   4.718   3.112   6.200  0.0053 -0.2683  0.4304
 9487SOL    HW240095   4.598   3.026   6.197 -1.1013  0.2195  1.3607
 9488SOL     OW40096   3.653   2.453   8.750  0.2375 -0.4063  0.0417
 9488SOL    HW140097   3.677   2.545   8.739 -0.9812 -0.0357  0.5467
 9488SOL    HW240098   3.596   2.468   8.825 -0.8611 -2.8637 -0.2822
 9489SOL     OW40099   1.484   2.704  15.397 -0.0246 -0.0013 -0.0166
 9489SOL    HW140100   1.481   2.755  15.478  1.7512  1.7548 -1.0688
 9489SOL    HW240101   1.407   2.743  15.356 -0.1753 -2.2471 -1.8827
 9490SOL     OW40102   4.672   3.587  17.522 -0.0348  0.1063 -0.2570
 9490SOL    HW140103   4.664   3.494  17.500  0.9473 -0.0683  0.1266
 9490SOL    HW240104   4.675   3.593  17.617 -1.3537 -1.1146 -0.1490
 9491SOL     OW40105   4.035   3.309   5.368 -0.0908 -0.3905 -0.1565
 9491SOL    HW140106   3.972   3.237   5.362  0.1817 -0.4511 -2.2660
 9491SOL    HW240107   3.977   3.383   5.384 -0.0926  0.0863 -2.3563
 9492SOL     OW40108   0.479   4.579   9.524  0.1388 -0.5422  0.3291
 9492SOL    HW140109   0.424   4.512   9.482 -3.1308  1.7320  1.0355
 9492SOL    HW240110   0.419   4.653   9.530  0.5470 -0.2552  0.8467
 9493SOL     OW40111   4.448   2.421  11.627 -0.1629 -0.0800  0.6081
 9493SOL    HW140112   4.491   2.491  11.577 -1.8582 -0.2283 -1.0748
 9493SOL    HW240113   4.363   2.456  11.655  0.4678  1.6748  0.3322
 9494SOL     OW40114   1.057   4.586  12.624  0.0264 -0.2640  0.9012
 9494SOL    HW140115   1.040   4.514  12.684 -0.3157 -0.8155  0.1380
 9494SOL    HW240116   1.082   4.532  12.549 -0.1318  0.1366  0.5586
 9495SOL     OW40117   0.992   1.952   6.540 -0.4358  0.0979 -0.7435
 9495SOL    HW140118   0.979   1.942   6.446 -2.9358  0.8095 -0.4919
 9495SOL    HW240119   0.906   1.989   6.564 -0.0464  0.1682  0.5619
 9496SOL     OW40120   1.749   2.634   2.862 -0.0271 -0.5265  0.1578
 9496SOL    HW140121   1.728   2.727   2.867 -0.4574 -0.6813  1.2445
 9496SOL    HW240122   1.675   2.608   2.809  0.3893  3.3941 -2.3462
 9497SOL     OW40123   0.961   1.610   5.691  0.1353  0.5692 -0.0524
 9497SOL    HW140124   1.029   1.562   5.645  0.3350 -0.2302  1.0880
 9497SOL    HW240125   1.006   1.657   5.761  0.2060 -0.5962  0.6814
 9498SOL     OW40126   2.745   2.676   6.021  0.6973 -0.8082 -0.4865
 9498SOL    HW140127   2.798   2.610   5.977  2.3315 -0.6033  1.1491
 9498SOL    HW240128   2.662   2.647   5.982  1.4475 -1.3927 -1.6461
 9499SOL     OW40129   2.784   3.005   5.596  0.4527 -0.5656 -0.1182
 9499SOL    HW140130   2.877   2.999   5.575  0.0444 -0.6409 -1.8616
 9499SOL    HW240131   2.778   2.918   5.637 -0.2108 -0.6717 -0.4413
 9500SOL     OW40132   1.393   0.191   6.772 -0.3954  0.2427 -0.6751
 9500SOL    HW140133   1.312   0.202   6.720  0.6945 -1.7324 -2.7956
 9500SOL    HW240134   1.393   0.109   6.821 -0.1055 -1.8619 -4.2057
 9501SOL     OW40135   3.308   1.125   8.232 -0.3652 -0.5655 -0.0346
 9501SOL    HW140136   3.322   1.216   8.206  1.3688 -1.1908 -1.2640
 9501SOL    HW240137   3.378   1.121   8.298 -0.6899 -0.0843  0.3410
 9502SOL     OW40138   2.941   4.663  12.051 -0.2073  0.3328 -0.4970
 9502SOL    HW140139   2.950   4.585  11.997  1.9655 -0.6797  1.3644
 9502SOL    HW240140   3.025   4.659  12.097  0.0985  1.2963 -0.9571
 9503SOL     OW40141   4.395   2.146   0.150 -0.1892 -0.7939  0.1113
 9503SOL    HW140142   4.458   2.109   0.212  1.6199 -0.7763 -1.7200
 9503SOL    HW240143   4.334   2.191   0.209 -1.0769 -0.8535 -0.7603
 9504SOL     OW40144   4.271   2.991  14.436 -0.1008  1.1440 -0.2338
 9504SOL    HW140145   4.322   3.020  14.512  0.8283 -2.4214  0.5157
 9504SOL    HW240146   4.205   3.059  14.426 -0.7819  0.6052  0.5448
 9505SOL     OW40147   0.384   2.852   6.944 -0.2869 -0.1819  0.2029
 9505SOL    HW140148   0.423   2.785   6.888 -1.3330  0.6119 -1.4949
 9505SOL    HW240149   0.308   2.869   6.888 -1.1205  0.0690  1.4339
 9506SOL     OW40150   1.893   2.392  10.658  0.2338  0.0882 -0.6847
 9506SOL    HW140151   1.830   2.454  10.619  0.9348  1.4134  0.2896
 9506SOL    HW240152   1.840   2.369  10.734 -0.1285  1.4006 -0.5269
 9507SOL     OW40153   2.115   0.718  12.914  0.0900  0.0826 -0.5671
 9507SOL    HW140154   2.116   0.742  13.007  0.3905  1.6738 -0.9661
 9507SOL    HW240155   2.117   0.623  12.919 -2.0649 -0.0245 -1.7202
 9508SOL     OW40156   0.458   1.078   6.973  0.4640  0.2683  0.1948
 9508SOL    HW140157   0.437   0.995   7.016  0.3618 -0.0053 -0.3851
 9508SOL    HW240158   0.429   1.056   6.885 -1.4995 -1.0827  1.1722
 9509SOL     OW40159   4.203   2.742   5.813  0.4960 -0.2865  0.4000
 9509SOL    HW140160   4.112   2.727   5.840  1.0393 -1.5379  1.5299
 9509SOL    HW240161   4.248   2.761   5.896  1.0398  0.5733 -0.0920
 9510SOL     OW40162   4.401   0.050   5.910  0.3307 -0.9099 -0.2500
 9510SOL    HW140163   4.398   4.694   5.926 -1.9425 -0.7388  0.4232
 9510SOL    HW240164   4.495   0.062   5.914  0.3965 -1.9330  1.5818
 9511SOL     OW40165   3.766   1.938   0.296  0.2603  0.0414  0.7914
 9511SOL    HW140166   3.771   1.902   0.385 -0.5933 -2.6726 -0.2720
 9511SOL    HW240167   3.852   1.922   0.257 -0.6143 -1.1766 -0.6305
 9512SOL     OW40168   4.415   3.007   7.463  0.2529 -0.0034  0.2079
 9512SOL    HW140169   4.367   2.925   7.452 -0.6302  0.3038  1.6965
 9512SOL    HW240170   4.496   2.979   7.506  0.0329  1.4269  1.5718
 9513SOL     OW40171   0.940   4.707  10.671  0.2047 -0.5770  0.2014
 9513SOL    HW140172   0.939   4.737  10.580 -1.4953 -0.5508  0.2265
 9513SOL    HW240173   0.870   4.642  10.678 -0.2577 -0.1726 -0.7014
 9514SOL     OW40174   4.466   3.882   8.320  0.1812  0.5551  0.6958
 9514SOL    HW140175   4.527   3.811   8.296 -1.0980  0.1977 -1.4772
 9514SOL    HW240176   4.398   3.832   8.365  0.2173  1.1188  1.3605
 9515SOL     OW40177   4.625   0.554  12.015  0.3816  0.1079 -0.0426
 9515SOL    HW140178   4.716   0.540  11.988  1.1016  2.5100  1.2047
 9515SOL    HW240179   4.635   0.648  12.024  1.8597 -0.0701  0.1028
 9516SOL     OW40180   2.259   0.078   8.275  0.0204  0.1015 -0.1283
 9516SOL    HW140181   2.355   0.080   8.275  0.0608 -2.2598 -0.3034
 9516SOL    HW240182   2.240   0.110   8.363  0.2471 -2.2439  0.7644
 9517SOL     OW40183   2.835   0.186   0.155 -0.5608  0.1180 -0.3953
 9517SOL    HW140184   2.771   0.253   0.177  1.1846  2.0751 -1.2172
 9517SOL    HW240185   2.817   0.119   0.221  0.9433 -0.1501 -0.2386
 9518SOL     OW40186   2.859   3.573   7.241  0.7921 -0.2838 -0.3663
 9518SOL    HW140187   2.770   3.604   7.258  0.0915 -1.9174 -1.0137
 9518SOL    HW240188   2.853   3.478   7.235 -2.7936 -0.1234  0.9364
 9519SOL     OW40189   2.387   3.053   2.314  0.6084 -0.0814 -0.0907
 9519SOL    HW140190   2.353   2.965   2.328  1.3002 -0.3452 -0.0346
 9519SOL    HW240191   2.320   3.112   2.348  1.2918  0.6474 -0.0106
 9520SOL     OW40192   1.209   1.636  12.690 -0.3025  0.0256 -0.5128
 9520SOL    HW140193   1.247   1.603  12.771  0.7897  3.8557  0.5632
 9520SOL    HW240194   1.118   1.621  12.714 -0.5853 -0.2471 -1.7439
 9521SOL     OW40195   4.064   2.910   2.538  0.1447 -0.5342 -0.0797
 9521SOL    HW140196   3.992   2.926   2.477  0.0932  1.4281  0.5156
 9521SOL    HW240197   4.115   2.989   2.518 -2.2309  0.6147 -1.5985
 9522SOL     OW40198   1.368   2.576  17.285 -0.3879 -0.1488  0.7633
 9522SOL    HW140199   1.433   2.592  17.352  1.0053  0.7920 -0.8086
 9522SOL    HW240200   1.386   2.652  17.229  0.3933  0.3926  1.7554
 9523SOL     OW40201   4.191   0.218   5.997 -0.0793 -0.1098  0.0640
 9523SOL    HW140202   4.275   0.187   5.962  0.7834  2.3885 -0.0906
 9523SOL    HW240203   4.219   0.222   6.088  0.8719  2.8440 -0.3655
 9524SOL     OW40204   0.438   0.605   9.165  0.5770 -0.3809  0.2530
 9524SOL    HW140205   0.368   0.666   9.187 -0.7351 -1.6346 -0.3918
 9524SOL    HW240206   0.511   0.666   9.171 -1.0823  1.8817 -2.4392
 9525SOL     OW40207   2.277   0.676   3.075 -0.5305 -0.1611 -0.6336
 9525SOL    HW140208   2.189   0.687   3.111 -0.2051  2.5596 -0.7379
 9525SOL    HW240209   2.318   0.744   3.128 -1.2640 -1.6257  1.8168
 9526SOL     OW40210   1.279   4.620   0.206  0.2082  0.4307  0.1120
 9526SOL    HW140211   1.215   4.575   0.261  1.3791 -0.9568  0.3446
 9526SOL    HW240212   1.219   4.676   0.157  1.7284  0.7889 -1.3347
 9527SOL     OW40213   3.035   0.375  17.490  0.3285 -0.6207 -0.4538
 9527SOL    HW140214   3.036   0.289  17.533  0.7291 -0.9609 -1.1340
 9527SOL    HW240215   3.037   0.448  17.551  1.1679 -2.2351  1.4476
 9528SOL     OW40216   2.341   0.892   2.557 -0.4360  0.6982  0.9935
 9528SOL    HW140217   2.375   0.965   2.506 -1.1703  0.2072 -0.1886
 9528SOL    HW240218   2.253   0.873   2.525 -0.6616  1.3117  1.2560
 9529SOL     OW40219   0.484   1.966  10.547  0.3956 -0.6143  0.3140
 9529SOL    HW140220   0.507   1.961  10.454  0.6236 -3.2252  0.5281
 9529SOL    HW240221   0.415   2.031  10.534  1.8596  0.4322 -2.0878
 9530SOL     OW40222   3.444   1.503   7.240 -0.5070  0.5110  0.0568
 9530SOL    HW140223   3.486   1.571   7.294 -0.2550  0.8152 -0.5254
 9530SOL    HW240224   3.507   1.502   7.168 -1.2644 -1.1311 -0.5797
 9531SOL     OW40225   3.540   0.891   4.208 -0.0860  0.3247  0.7443
 9531SOL    HW140226   3.480   0.825   4.174  1.1684 -0.8938  0.8718
 9531SOL    HW240227   3.475   0.960   4.222  0.1079  0.5791  0.4144
 9532SOL     OW40228   2.227   0.275   4.224  0.0583  0.3448  0.2089
 9532SOL    HW140229   2.210   0.203   4.285  0.6516  0.2742  0.2940
 9532SOL    HW240230   2.184   0.237   4.147  0.8349  0.4854 -0.2958
 9533SOL     OW40231   1.297   2.290   4.176  0.2887 -0.0178 -0.5107
 9533SOL    HW140232   1.337   2.277   4.089  1.3162 -0.2531 -0.0054
 9533SOL    HW240233   1.357   2.240   4.232 -1.9413 -2.4592 -0.3094
 9534SOL     OW40234   1.237   4.692  16.542  0.2384  0.3838  0.0342
 9534SOL    HW140235   1.205   0.027  16.594  0.7493  0.3795  0.3526
 9534SOL    HW240236   1.176   4.623  16.569 -0.1438  0.4308 -0.7007
 9535SOL     OW40237   1.098   3.678   7.562 -0.3373 -0.7227 -0.6628
 9535SOL    HW140238   1.177   3.731   7.554 -2.3149  2.3497 -0.2415
 9535SOL    HW240239   1.085   3.663   7.468  1.8028 -2.5494 -0.6390
 9536SOL     OW40240   0.626   1.096   0.439 -0.2102 -0.1841 -0.3063
 9536SOL    HW140241   0.657   1.005   0.437  2.2371  0.6550 -0.1659
 9536SOL    HW240242   0.695   1.140   0.390  0.1083  0.9816  1.1762
 9537SOL     OW40243   3.940   0.123   1.302  0.4656  0.2703 -0.6203
 9537SOL    HW140244   3.902   0.189   1.360  0.9353 -1.2201  1.4204
 9537SOL    HW240245   4.015   0.088   1.350  0.2942  0.4783 -0.2042
 9538SOL     OW40246   3.668   3.005   7.007 -0.1761  0.4297 -0.4281
 9538SOL    HW140247   3.747   3.041   7.046 -1.2059  2.8935 -0.5808
 9538SOL    HW240248   3.704   3.018   6.920  0.2943 -0.9701 -0.4472
 9539SOL     OW40249   3.122   2.593   7.443  0.1304  0.1887  0.0021
 9539SOL    HW140250   3.152   2.635   7.362 -0.5563 -0.5314 -0.6226
 9539SOL    HW240251   3.175   2.513   7.453 -0.5691 -0.1558  0.9478
 9540SOL     OW40252   0.136   1.980   1.436  0.2039  0.1840  0.2206
 9540SOL    HW140253   0.141   1.906   1.497  2.4277  0.7659  0.7503
 9540SOL    HW240254   0.219   2.024   1.456 -0.1003  1.2291 -0.8285
 9541SOL     OW40255   1.196   2.174   4.967 -0.3279  0.3180 -0.1735
 9541SOL    HW140256   1.173   2.137   5.052 -1.6590  1.9204  0.1613
 9541SOL    HW240257   1.243   2.102   4.926  0.2974  0.8539 -0.4003
 9542SOL     OW40258   3.309   2.088   5.162 -0.9106 -0.3472  0.2938
 9542SOL    HW140259   3.359   2.011   5.189  1.4805 -0.1976 -3.7697
 9542SOL    HW240260   3.364   2.115   5.089 -0.2933  0.2503  0.9841
 9543SOL     OW40261   2.086   2.712   8.549 -0.0262  0.0253  0.2104
 9543SOL    HW140262   2.019   2.688   8.613 -0.0329  0.1109  0.2360
 9543SOL    HW240263   2.160   2.656   8.569  0.1132  0.2791  0.4097
 9544SOL     OW40264   1.510   0.770   6.382  1.0270  0.0230  0.0226
 9544SOL    HW140265   1.560   0.753   6.302  1.0281  0.0154  0.0249
 9544SOL    HW240266   1.421   0.783   6.350  1.2336  2.9671  0.6454
 9545SOL     OW40267   0.636   2.128   2.883 -0.0399 -0.0133  0.5048
 9545SOL    HW140268   0.706   2.189   2.907  2.0976 -2.3379  0.1420
 9545SOL    HW240269   0.566   2.137   2.947  0.0765  1.5480  0.4212
 9546SOL     OW40270   1.294   4.462   3.871  0.4029 -0.1809  0.3954
 9546SOL    HW140271   1.325   4.417   3.949  1.7507  0.6708  0.3498
 9546SOL    HW240272   1.268   4.387   3.817  0.3147 -0.0412  0.2455
 9547SOL     OW40273   1.776   1.556   2.330  0.5596 -0.4805 -0.0003
 9547SOL    HW140274   1.697   1.504   2.344  1.2781 -1.6864 -0.4484
 9547SOL    HW240275   1.843   1.492   2.306  1.8704  0.9364 -0.1546
 9548SOL     OW40276   0.360   3.113   5.007 -0.8274  0.2370 -0.4833
 9548SOL    HW140277   0.420   3.067   5.066 -2.2415  0.0647  0.8420
 9548SOL    HW240278   0.335   3.046   4.944  1.6859 -0.8350 -0.3250
 9549SOL     OW40279   1.014   2.268   7.426  0.5963  0.6278  0.2147
 9549SOL    HW140280   1.014   2.282   7.332 -1.4399  0.4567  0.1943
 9549SOL    HW240281   0.939   2.321   7.452  0.7608 -0.0764  2.1574
 9550SOL     OW40282   0.310   3.332   9.129 -0.8289 -0.3157  0.6720
 9550SOL    HW140283   0.283   3.345   9.220 -0.9791  1.4814  0.3694
 9550SOL    HW240284   0.297   3.237   9.127 -0.1512 -0.4169  0.8821
 9551SOL     OW40285   4.248   3.623   7.900 -0.5507 -0.7232  0.4796
 9551SOL    HW140286   4.187   3.676   7.951  0.6453 -0.1865  1.3412
 9551SOL    HW240287   4.287   3.691   7.845  1.0372 -1.9063  0.1456
 9552SOL     OW40288   1.790   1.542  17.574  0.5283  0.3640  0.2095
 9552SOL    HW140289   1.726   1.614  17.576  0.3750  0.1602  2.1740
 9552SOL    HW240290   1.862   1.582  17.526 -0.3437  2.7757  0.8839
 9553SOL     OW40291   2.034   2.025   6.822  0.1945  0.2137  0.0385
 9553SOL    HW140292   2.091   1.952   6.846 -1.8128 -1.2968  0.2094
 9553SOL    HW240293   1.993   1.983   6.746  1.3803 -0.4547 -0.2274
 9554SOL     OW40294   3.497   0.219  14.452  0.1365 -0.3173  0.5221
 9554SOL    HW140295   3.557   0.238  14.379 -2.9440  1.3305 -1.5739
 9554SOL    HW240296   3.563   0.195  14.517  0.5360 -0.6392 -0.0045
 9555SOL     OW40297   3.600   2.845   4.471 -0.2470  0.5087 -0.5421
 9555SOL    HW140298   3.548   2.881   4.543  0.6301  2.2603 -0.8023
 9555SOL    HW240299   3.536   2.777   4.449  0.4259 -0.6142  0.9947
 9556SOL     OW40300   2.454   1.910   7.695 -0.6079 -0.2761  0.3368
 9556SOL    HW140301   2.479   1.857   7.771  1.4962 -1.5581 -1.2527
 9556SOL    HW240302   2.450   1.843   7.627  1.0784 -1.4313  1.3552
 9557SOL     OW40303   2.030   1.120   8.742  0.1411  0.8181  0.0988
 9557SOL    HW140304   2.054   1.164   8.823  2.3591 -1.7861  0.8708
 9557SOL    HW240305   2.090   1.161   8.679  0.7805 -1.3458 -0.7023
 9558SOL     OW40306   3.647   2.615   1.851 -0.3100  0.3329  0.8243
 9558SOL    HW140307   3.697   2.635   1.772  0.8138  0.9748  1.7052
 9558SOL    HW240308   3.600   2.535   1.826  0.4417  0.0820  0.2156
 9559SOL     OW40309   0.222   0.833   3.912  0.1129  0.5145  0.4742
 9559SOL    HW140310   0.155   0.851   3.846 -1.4843 -1.7952  1.4137
 9559SOL    HW240311   0.208   0.911   3.965  1.4934  0.9356  0.1927
 9560SOL     OW40312   4.473   0.034  17.530 -0.6060  0.0841 -0.1307
 9560SOL    HW140313   4.453   0.065  17.618 -0.7435 -2.3700  0.7006
 9560SOL    HW240314   4.568   0.044  17.534 -0.4254 -1.5695 -0.1551
 9561SOL     OW40315   3.744   0.226   2.014  0.0869  0.6018  0.1638
 9561SOL    HW140316   3.720   0.317   2.034 -0.7078  0.3436  0.3736
 9561SOL    HW240317   3.838   0.239   2.002  0.0108  1.5107  0.5016
 9562SOL     OW40318   1.923   3.296   5.154  0.1702 -0.6875  0.7249
 9562SOL    HW140319   1.926   3.322   5.246  2.6778 -1.0218  0.7257
 9562SOL    HW240320   1.999   3.238   5.154  1.2457  0.7001  2.0477
 9563SOL     OW40321   2.154   1.661   2.690  0.1438  0.6726  0.5921
 9563SOL    HW140322   2.145   1.578   2.737  0.7178 -0.0852 -0.6603
 9563SOL    HW240323   2.247   1.682   2.699  0.7430 -1.1437 -1.5638
 9564SOL     OW40324   0.891   3.801   0.122  0.6144  0.0233  0.1943
 9564SOL    HW140325   0.849   3.873   0.074  1.2192  1.7351  2.2587
 9564SOL    HW240326   0.809   3.778   0.166  0.4477 -0.4119 -0.3471
 9565SOL     OW40327   0.510   1.239   5.002  0.7704  0.5901 -0.0430
 9565SOL    HW140328   0.569   1.312   4.981 -0.6927  1.8236  0.1807
 9565SOL    HW240329   0.471   1.219   4.917  3.7751  1.0400 -1.5409
 9566SOL     OW40330   2.689   4.012   3.485  0.1368  0.2624  0.3473
 9566SOL    HW140331   2.652   3.997   3.398  1.4266  1.6856 -0.4556
 9566SOL    HW240332   2.780   3.988   3.465  0.1356  0.4565  0.1203
 9567SOL     OW40333   3.728   0.796   2.590 -0.3001  0.4175  0.5924
 9567SOL    HW140334   3.687   0.789   2.676  0.7456 -0.3700  1.0401
 9567SOL    HW240335   3.651   0.790   2.534 -0.1246 -0.4045  0.4347
 9568SOL     OW40336   2.081   0.667   0.962 -0.0068  0.4266  0.9721
 9568SOL    HW140337   2.169   0.632   0.975  0.5243  1.9993  1.6235
 9568SOL    HW240338   2.103   0.718   0.884 -1.7973 -1.9933 -1.0988
 9569SOL     OW40339   1.675   1.981   6.247  0.3177 -0.8699 -0.6554
 9569SOL    HW140340   1.720   2.027   6.317  1.3938 -1.7164 -0.7979
 9569SOL    HW240341   1.614   2.052   6.227 -1.4835 -2.4413 -0.7537
 9570SOL     OW40342   1.014   3.311   3.038 -0.0830  0.1508  0.0464
 9570SOL    HW140343   1.024   3.270   2.952 -2.1381 -1.2290  0.4690
 9570SOL    HW240344   1.085   3.264   3.083  2.2021  1.3097 -2.3739
 9571SOL     OW40345   4.307   3.345   8.945 -0.2295  0.2570  0.2411
 9571SOL    HW140346   4.321   3.271   9.005  1.3549  0.9265  0.7020
 9571SOL    HW240347   4.387   3.333   8.894  0.0189  1.1253  0.4368
   4.73825   4.73825  17.75105
