Membrane in water
40347
    1TMC1    C1    1   4.292   0.912  11.337 -0.0532 -0.2331  1.2758
    1TMC1    C2    2   4.364   1.033  11.350 -0.0710  0.1387 -0.0479
    1TMC1    C3    3   4.345   1.110  11.239  0.1909 -0.2448 -0.8984
    1TMC1    C4    4   4.231   0.871  11.222 -0.1113  0.0918  0.6549
    1TMC1    C5    5   4.240   0.947  11.109  0.1339  0.0679 -0.1241
    1TMC1    C6    6   4.298   1.066  11.121  0.4985 -0.3095  0.2208
    1TMC1     C    7   4.273   0.836  11.452  1.3217  0.5888  1.1126
    1TMC1     O    8   4.161   0.789  11.465 -0.2694 -0.2426 -0.0686
    1TMC1     H    9   4.410   1.064  11.443  1.5224 -0.9480 -0.4605
    1TMC1    H1   10   4.174   0.780  11.208  1.1097 -0.9653  2.6160
    1TMC1    H2   11   4.294   1.131  11.034  1.3246 -1.1845 -0.4756
    1TMC1    C7   12   4.195   0.894  10.981  0.4372  0.6695  0.4622
    1TMC1    C8   13   4.411   1.235  11.233  0.5217  0.5888  0.1057
    1TMC1    O1   14   4.092   0.826  10.976 -0.2282  0.3565 -0.4101
    1TMC1    O2   15   4.505   1.256  11.159 -0.2758 -0.2495  0.6564
    1TMC1    O3   16   4.299   0.890  10.892 -0.0171 -0.2627 -0.2952
    1TMC1    H3   17   4.381   0.911  10.940  0.2593 -2.0148 -0.0267
    1TMC1    O5   18   4.368   1.311  11.334 -0.3712  0.1015  0.0948
    1TMC1    H5   19   4.280   1.278  11.362 -0.7883  0.1809 -1.1141
    2MPD2     C   20   4.412   0.655  11.924  0.3344 -0.0160 -0.3819
    2MPD2    C1   21   4.299   0.647  11.849 -0.1177 -0.1578 -0.3000
    2MPD2    C2   22   4.277   0.706  11.723 -0.0013 -0.2782 -0.3871
    2MPD2    C3   23   4.383   0.783  11.674  0.6067  0.4095  1.0311
    2MPD2    C4   24   4.501   0.790  11.750 -0.1015  0.0003 -0.3940
    2MPD2    C5   25   4.518   0.726  11.871  0.5598  0.5496  0.8115
    2MPD2     H   26   4.179   0.705  11.677 -0.5063  1.7369  0.6615
    2MPD2    H1   27   4.574   0.865  11.722 -1.3146  0.2997 -2.7233
    2MPD2    H2   28   4.428   0.609  12.021  1.3290 -0.2073 -0.6312
    2MPD2    H3   29   4.607   0.738  11.932  0.7616 -1.8531  0.9830
    2MPD2     N   30   4.371   0.846  11.546 -0.4407  0.3645 -0.1713
    2MPD2    H5   31   4.457   0.892  11.518 -0.1063  0.5230  1.0970
    2MPD2    N1   32   4.190   0.577  11.893  0.3459 -0.5997  1.0231
    2MPD2    H7   33   4.102   0.579  11.843  0.6172 -2.2387  0.4854
    3TMC1    C1   34   4.002   2.541  11.151  0.3534 -0.4866 -0.2106
    3TMC1    C2   35   4.049   2.670  11.140  0.3624  0.0989 -0.0582
    3TMC1    C3   36   4.188   2.681  11.140 -0.0584  0.5460 -0.6957
    3TMC1    C4   37   4.082   2.435  11.179 -0.3955 -0.7705  0.3327
    3TMC1    C5   38   4.215   2.451  11.182 -0.0909  1.0317 -0.3735
    3TMC1    C6   39   4.277   2.572  11.159  0.0211 -0.3213 -0.1979
    3TMC1     C   40   3.870   2.506  11.107 -0.2305 -0.5026  0.2414
    3TMC1     O   41   3.845   2.389  11.084  0.8759 -0.1093 -0.3133
    3TMC1     H   42   3.986   2.752  11.107  0.3849 -0.1261 -0.6608
    3TMC1    H1   43   4.043   2.334  11.185 -1.5165 -0.4606 -1.5594
    3TMC1    H2   44   4.385   2.577  11.159 -0.0482  1.2279  0.3178
    3TMC1    C7   45   4.299   2.333  11.194  0.3759  0.2818  0.1924
    3TMC1    C8   46   4.233   2.803  11.081  0.4431 -0.1712 -0.3982
    3TMC1    O1   47   4.406   2.316  11.129 -0.2515 -0.8036 -0.3571
    3TMC1    O2   48   4.165   2.907  11.081 -0.6819  0.2770 -0.6031
    3TMC1    O3   49   4.240   2.250  11.289  0.2801 -0.3502  0.4151
    3TMC1    H3   50   4.169   2.297  11.338 -1.6429 -2.2750 -0.5142
    3TMC1    O5   51   4.291   2.760  10.969  0.2321  0.0131  0.1329
    3TMC1    H5   52   4.350   2.682  10.974  1.7163  1.1563  0.5782
    4MPD2     C   53   3.380   2.594  10.985 -0.2636  0.1554 -0.1430
    4MPD2    C1   54   3.432   2.696  11.056 -0.3836 -0.0405 -0.0385
    4MPD2    C2   55   3.566   2.694  11.100 -0.4682 -0.1835 -0.0158
    4MPD2    C3   56   3.652   2.593  11.068 -0.0207 -0.3678  0.7365
    4MPD2    C4   57   3.603   2.495  10.983  0.5898 -0.1135 -0.0999
    4MPD2    C5   58   3.467   2.492  10.956 -0.6223  0.4042 -0.3447
    4MPD2     H   59   3.605   2.773  11.164  1.3605 -1.2861  0.2304
    4MPD2    H1   60   3.662   2.410  10.948 -1.5343 -2.1935  1.3658
    4MPD2    H2   61   3.274   2.583  10.963 -0.7747  1.8729  1.4817
    4MPD2    H3   62   3.435   2.404  10.903 -0.1010 -0.3736  0.6156
    4MPD2     N   63   3.781   2.607  11.112  0.1438  0.3459  0.3265
    4MPD2    H5   64   3.813   2.698  11.144 -0.0999  0.9889 -1.2627
    4MPD2    N1   65   3.356   2.814  11.102  0.1774 -0.5008  0.4075
    4MPD2    H7   66   3.399   2.881  11.165  2.0941 -0.3594 -1.0452
    5TCq1    O1   67   4.407   3.342  12.196 -0.0992  0.5342  0.2644
    5TCq1    C1   68   4.406   3.438  12.099 -0.0768 -0.2036 -0.3123
    5TCq1    O2   69   4.504   3.486  12.045 -0.2974 -0.3176 -0.6136
    5TCq1    C2   70   4.280   3.428  12.029 -0.1345 -0.0474 -0.1700
    5TCq1    C3   71   4.163   3.457  12.097 -0.0928  0.4143  0.1226
    5TCq1    C4   72   4.056   3.493  12.020  0.9877  0.2917 -0.2181
    5TCq1    C5   73   4.061   3.477  11.883 -0.8143  0.0657  0.8167
    5TCq1    C6   74   4.179   3.450  11.821 -1.2825  0.6111 -0.2914
    5TCq1    C7   75   4.289   3.422  11.891  0.2428  0.9373 -0.6040
    5TCq1    C8   76   4.174   3.437  11.678  0.4939  0.4387  0.1476
    5TCq1    O4   77   4.247   3.354  11.624 -0.1641  0.2610 -0.6609
    5TCq1    C9   78   3.933   3.516  12.087  0.4961 -0.6211  1.3236
    5TCq1    O5   79   3.849   3.559  12.007 -0.2401  0.3067 -0.9080
    5TCq1    O6   80   3.930   3.534  12.213 -0.2055  0.4318  0.2319
    5TCq1    H1   81   4.317   3.311  12.218 -0.0732  1.1185  1.1828
    5TCq1    H2   82   4.153   3.463  12.205  2.0437 -0.0979  0.3551
    5TCq1    H3   83   3.975   3.495  11.820 -1.2113  1.1429  1.6761
    5TCq1    H4   84   4.379   3.378  11.851 -0.1809 -1.3569  0.9836
    6MPD2     C   85   3.982   3.673  11.466  0.6858 -0.5454  0.0387
    6MPD2    C1   86   4.080   3.580  11.494  0.9513 -0.1576 -0.2860
    6MPD2    C2   87   4.136   3.507  11.397  0.3611 -1.2241  0.7099
    6MPD2    C3   88   4.103   3.524  11.263  0.5359 -0.3014 -0.0213
    6MPD2    C4   89   4.008   3.622  11.235 -0.4338 -0.2718 -0.3521
    6MPD2    C5   90   3.950   3.695  11.331 -0.0655  0.5427 -0.3412
    6MPD2     H   91   4.202   3.423  11.419  0.0255 -1.3342  1.3068
    6MPD2    H1   92   3.965   3.624  11.135 -1.3715  1.0562  0.0805
    6MPD2    H2   93   3.930   3.736  11.537  1.6313  2.3934 -1.8908
    6MPD2    H3   94   3.876   3.769  11.302 -1.5347 -1.4402 -1.5700
    6MPD2     N   95   4.150   3.433  11.175  0.0470  0.7437 -0.2296
    6MPD2    H5   96   4.218   3.369  11.213 -0.1891  1.7461  1.8482
    6MPD2    N1   97   4.107   3.543  11.629  0.1745  0.2672 -0.0099
    6MPD2    H7   98   4.061   3.603  11.696  0.3351  0.8683 -0.4431
    7TCq1    O1   99   1.919   2.923  13.024 -0.5523 -0.5548 -0.5236
    7TCq1    C1  100   1.789   2.954  13.028  0.1360  0.4607  0.2927
    7TCq1    O2  101   1.743   3.062  12.993  0.6967 -0.2199  0.1852
    7TCq1    C2  102   1.713   2.831  13.039  0.1937 -0.6898  0.2344
    7TCq1    C3  103   1.571   2.834  13.042 -0.0233 -0.0477 -0.1050
    7TCq1    C4  104   1.500   2.725  13.047 -0.0256  0.0125 -0.2458
    7TCq1    C5  105   1.552   2.599  13.058  0.3743 -0.2515 -0.5217
    7TCq1    C6  106   1.689   2.594  13.041  0.0609 -0.1319 -0.0243
    7TCq1    C7  107   1.772   2.705  13.037  0.2222 -0.0665 -0.7586
    7TCq1    C8  108   1.749   2.463  13.047 -0.5469  0.1762  0.2362
    7TCq1    O4  109   1.674   2.366  13.039 -0.2391 -0.0544 -0.3657
    7TCq1    C9  110   1.357   2.729  13.037  0.2058  0.0868 -0.1341
    7TCq1    O5  111   1.300   2.616  13.018  0.9040 -0.0078 -0.2999
    7TCq1    O6  112   1.303   2.839  13.055  0.1872 -0.4680 -0.2900
    7TCq1    H1  113   1.947   2.840  13.069  1.5074  0.2825 -0.2755
    7TCq1    H2  114   1.523   2.931  13.038 -0.6191 -0.3817 -1.0592
    7TCq1    H3  115   1.487   2.514  13.072  0.7750 -0.6294 -0.9765
    7TCq1    H4  116   1.871   2.693  12.995  1.4677  1.1353  1.8366
    8MPD2     C  117   2.129   2.156  13.194 -0.1408 -0.0506  0.2331
    8MPD2    C1  118   2.004   2.128  13.147  0.2429 -0.6919 -0.5182
    8MPD2    C2  119   1.922   2.225  13.099  0.0363  0.8363  0.3586
    8MPD2    C3  120   1.973   2.357  13.107  0.4030 -0.2148  0.2462
    8MPD2    C4  121   2.106   2.385  13.146 -0.1903  0.2914 -0.0360
    8MPD2    C5  122   2.182   2.281  13.188 -0.0517  0.4258 -0.6409
    8MPD2     H  123   1.820   2.204  13.070 -0.0661  1.7699  0.0342
    8MPD2    H1  124   2.151   2.483  13.158  1.1536 -0.4394  0.8558
    8MPD2    H2  125   2.195   2.076  13.227  1.8613  1.6495  0.3176
    8MPD2    H3  126   2.284   2.300  13.220 -0.4346 -0.9423  1.3834
    8MPD2     N  127   1.884   2.465  13.087 -0.1654 -0.3694 -0.9028
    8MPD2    H5  128   1.923   2.549  13.129 -0.2268 -1.2551  0.9197
    8MPD2    N1  129   1.971   1.987  13.144 -0.2517 -0.5604  0.1270
    8MPD2    H7  130   2.033   1.922  13.191  2.6203  0.2232 -2.6007
    9TMC1    C1  131   3.901   1.184  10.656  0.3709  0.0049 -0.4296
    9TMC1    C2  132   3.891   1.198  10.521  0.0109 -0.6146 -0.0089
    9TMC1    C3  133   4.006   1.211  10.451  0.3033 -0.1135 -0.3676
    9TMC1    C4  134   4.019   1.197  10.727 -0.6333 -0.7246 -0.9002
    9TMC1    C5  135   4.131   1.203  10.647 -0.2438 -0.3045 -0.2483
    9TMC1    C6  136   4.124   1.211  10.514 -0.2120 -0.7659 -0.7796
    9TMC1     C  137   3.780   1.150  10.720  0.3648  0.1968  0.2041
    9TMC1     O  138   3.692   1.110  10.647 -0.2888  0.4648 -0.1154
    9TMC1     H  139   3.800   1.180  10.465  1.0762 -0.3307 -1.8267
    9TMC1    H1  140   4.023   1.204  10.835  1.1925 -1.2160 -0.9369
    9TMC1    H2  141   4.215   1.207  10.454 -1.4302  0.8142 -2.7369
    9TMC1    C7  142   4.249   1.265  10.717  0.3315 -0.3353 -0.2909
    9TMC1    C8  143   3.992   1.226  10.309 -0.9022  0.1507 -0.0262
    9TMC1    O1  144   4.288   1.234  10.827 -0.2503  0.1520  0.0376
    9TMC1    O2  145   3.899   1.167  10.256 -0.3814 -0.2399  0.2898
    9TMC1    O3  146   4.291   1.360  10.626 -0.7258  0.2349  0.0734
    9TMC1    H3  147   4.228   1.386  10.555  2.3108  0.1710 -2.6016
    9TMC1    O5  148   4.106   1.264  10.256 -0.6492 -0.7142 -0.5409
    9TMC1    H5  149   4.144   1.335  10.312  1.0216 -1.3996 -0.8024
   10MPD2     C  150   3.569   1.079  10.916 -0.5177  0.4762 -0.1139
   10MPD2    C1  151   3.680   1.162  10.945  0.1580  0.0548  0.1365
   10MPD2    C2  152   3.695   1.213  11.075 -0.1125  0.2705 -0.4175
   10MPD2    C3  153   3.595   1.197  11.169 -0.1009  0.8747  0.3421
   10MPD2    C4  154   3.475   1.146  11.125 -1.1830  0.3784  0.2197
   10MPD2    C5  155   3.465   1.080  11.005 -0.0776 -0.3539  0.3354
   10MPD2     H  156   3.780   1.277  11.095 -1.4068  1.5405  1.0825
   10MPD2    H1  157   3.397   1.154  11.200 -1.2627 -1.3700  0.3278
   10MPD2    H2  158   3.561   1.027  10.821 -3.2663  1.4534 -0.4304
   10MPD2    H3  159   3.378   1.029  10.964 -0.5868  0.5111  0.3292
   10MPD2     N  160   3.600   1.235  11.300 -0.5077 -0.2831 -0.7500
   10MPD2    H5  161   3.525   1.199  11.358  0.4577  0.6572  1.0750
   10MPD2    N1  162   3.784   1.178  10.852  0.3143 -0.2272  0.1239
   10MPD2    H7  163   3.859   1.241  10.880  2.5337 -3.1123  0.5855
   11TCq1    O1  164   0.323   2.062  14.505 -0.7191 -0.2891 -0.6067
   11TCq1    C1  165   0.195   2.076  14.468  0.2499 -1.0048 -0.4757
   11TCq1    O2  166   0.159   2.159  14.389  0.6319  0.2702 -0.5224
   11TCq1    C2  167   0.156   1.937  14.456  0.2340 -0.1422 -0.5047
   11TCq1    C3  168   0.160   1.865  14.572  0.1134  0.1459  0.2286
   11TCq1    C4  169   0.121   1.732  14.573 -0.8951  0.6712  0.0704
   11TCq1    C5  170   0.077   1.675  14.457 -0.0902 -0.5987  0.9823
   11TCq1    C6  171   0.080   1.748  14.337  0.1270  0.5617 -0.6811
   11TCq1    C7  172   0.137   1.874  14.337 -0.9554 -0.1390  0.0132
   11TCq1    C8  173   0.033   1.690  14.209 -0.7478 -0.2789 -1.0592
   11TCq1    O4  174   0.091   1.734  14.109  0.5394  0.3427 -0.4067
   11TCq1    C9  175   0.138   1.653  14.697  0.2297  0.4072  0.0890
   11TCq1    O5  176   0.164   1.715  14.800 -0.3415 -0.3847 -0.4130
   11TCq1    O6  177   0.138   1.527  14.690 -0.5090  0.1772  0.1507
   11TCq1    H1  178   0.351   1.980  14.550  1.8909  1.1894  0.4675
   11TCq1    H2  179   0.189   1.915  14.665 -0.9748 -1.3998  1.3893
   11TCq1    H3  180   0.045   1.572  14.463 -2.2110  0.1412  2.3794
   11TCq1    H4  181   0.132   1.935  14.247  1.0257  0.3012  0.2016
   12MPD2     C  182   4.605   1.574  13.989  0.3534 -0.0394 -0.7927
   12MPD2    C1  183   4.615   1.526  14.120 -0.5982  0.7499 -0.6726
   12MPD2    C2  184   4.532   1.417  14.141  0.7625  0.2145  0.3975
   12MPD2    C3  185   4.474   1.340  14.036 -0.5017  0.4383  0.2797
   12MPD2    C4  186   4.493   1.380  13.905 -0.6005 -0.2536 -0.7263
   12MPD2    C5  187   4.554   1.501  13.880 -0.7671 -0.2840 -0.3365
   12MPD2     H  188   4.512   1.381  14.242  1.1572 -2.5000 -0.4870
   12MPD2    H1  189   4.460   1.309  13.829  0.9968 -0.3780 -1.3088
   12MPD2    H2  190   4.652   1.667  13.959  0.2881  0.1467 -0.3142
   12MPD2    H3  191   4.569   1.538  13.780  0.9897  0.4782  0.2221
   12MPD2     N  192   4.404   1.216  14.056  0.6812 -0.0515 -0.3919
   12MPD2    H5  193   4.368   1.176  13.970 -1.7978 -0.9773  1.0667
   12MPD2    N1  194   4.675   1.587  14.222 -0.0206 -0.2280  0.2504
   12MPD2    H7  195   4.646   1.566  14.317  0.9623 -0.2436  0.5463
   13TCq1    O1  196   4.295   2.061  10.504 -0.5290 -0.5189 -0.7977
   13TCq1    C1  197   4.164   2.038  10.540 -1.0629 -0.3255 -0.3867
   13TCq1    O2  198   4.084   2.121  10.577 -0.2508  0.2010  0.4955
   13TCq1    C2  199   4.149   1.896  10.549 -0.0634 -0.1574 -0.0546
   13TCq1    C3  200   4.213   1.800  10.472 -0.7821 -0.1428 -0.6058
   13TCq1    C4  201   4.165   1.674  10.467  0.1412 -0.0941 -0.2053
   13TCq1    C5  202   4.056   1.632  10.539  1.0710 -0.6339  0.5128
   13TCq1    C6  203   3.994   1.733  10.612 -0.0866 -0.3708 -0.7317
   13TCq1    C7  204   4.035   1.866  10.616  0.2975  0.0954  0.2548
   13TCq1    C8  205   3.874   1.690  10.682  0.1576 -0.2517 -0.2955
   13TCq1    O4  206   3.837   1.773  10.764 -0.6906 -0.3059  0.1340
   13TCq1    C9  207   4.245   1.574  10.390  0.1414  0.0356  0.3157
   13TCq1    O5  208   4.204   1.458  10.397  0.1716  0.1193  0.2833
   13TCq1    O6  209   4.322   1.620  10.301  0.1475 -0.3179 -0.2706
   13TCq1    H1  210   4.346   1.979  10.488  0.5983 -0.0990  0.6067
   13TCq1    H2  211   4.308   1.823  10.424  0.0924  0.9019  1.6301
   13TCq1    H3  212   4.038   1.525  10.544  1.3458 -0.6826  0.4955
   13TCq1    H4  213   3.974   1.940  10.667 -1.0947 -0.6804 -0.2809
   14MPD2     C  214   3.620   1.443  10.619  0.5781 -0.3224 -0.0280
   14MPD2    C1  215   3.697   1.528  10.692 -0.6762  0.0972 -0.1833
   14MPD2    C2  216   3.654   1.555  10.821  0.0879 -0.0365 -0.4104
   14MPD2    C3  217   3.552   1.489  10.882 -0.8952  0.5440 -1.1023
   14MPD2    C4  218   3.489   1.389  10.814 -0.4897  0.3624 -0.5148
   14MPD2    C5  219   3.522   1.374  10.682 -0.0555  0.2236 -0.2021
   14MPD2     H  220   3.714   1.622  10.881 -0.1788 -0.3402  0.2007
   14MPD2    H1  221   3.408   1.335  10.862  0.2621  1.6857  2.2962
   14MPD2    H2  222   3.641   1.423  10.514  1.7148  0.8951 -0.0356
   14MPD2    H3  223   3.460   1.301  10.631 -0.2964 -0.3539  0.8968
   14MPD2     N  224   3.521   1.527  11.018 -0.2106  0.1106 -0.6317
   14MPD2    H5  225   3.589   1.581  11.071  0.8002 -1.4793 -0.3214
   14MPD2    N1  226   3.815   1.576  10.633 -0.4934  0.7380  0.1964
   14MPD2    H7  227   3.849   1.537  10.546 -1.5407  1.1260 -0.3771
   15TCq1    O1  228   1.461   0.657   1.997 -0.1133  0.7282 -0.9350
   15TCq1    C1  229   1.538   0.596   1.905 -0.5945 -0.7275 -0.0681
   15TCq1    O2  230   1.582   0.639   1.798 -0.4342  0.2298  0.4174
   15TCq1    C2  231   1.559   0.459   1.938 -0.2624  0.0569  0.4200
   15TCq1    C3  232   1.596   0.435   2.066  0.7432 -0.3885  0.8063
   15TCq1    C4  233   1.686   0.331   2.092  0.4338 -0.8744 -0.2552
   15TCq1    C5  234   1.747   0.260   1.996 -0.4131 -0.3373 -0.0868
   15TCq1    C6  235   1.710   0.289   1.864 -0.6039  0.2689 -0.3084
   15TCq1    C7  236   1.612   0.386   1.831 -0.1632 -0.2390  0.8265
   15TCq1    C8  237   1.752   0.193   1.760  0.4398 -0.1100  0.4688
   15TCq1    O4  238   1.860   0.141   1.784 -0.4250 -1.4315 -0.0184
   15TCq1    C9  239   1.727   0.308   2.229  0.5198 -0.6716  0.7064
   15TCq1    O5  240   1.831   0.237   2.224  0.4353  0.4927 -0.1701
   15TCq1    O6  241   1.651   0.346   2.324  0.4701  0.2548 -0.1580
   15TCq1    H1  242   1.403   0.597   2.048  0.5856  0.9410  0.0992
   15TCq1    H2  243   1.574   0.501   2.150 -0.5615  0.8905 -0.5335
   15TCq1    H3  244   1.823   0.188   2.021 -0.3226  0.0321  0.6994
   15TCq1    H4  245   1.580   0.409   1.730  0.8524 -0.0977  0.5437
   16MPD2     C  246   1.568   0.105   1.456 -1.3274 -0.5517 -0.0884
   16MPD2    C1  247   1.674   0.101   1.541 -0.8739 -0.2278 -0.1517
   16MPD2    C2  248   1.789   0.031   1.515  0.3798 -1.0738  0.8720
   16MPD2    C3  249   1.792   4.681   1.408  0.4419 -0.2884 -1.3062
   16MPD2    C4  250   1.688   4.680   1.322  0.1724  0.1113  0.4255
   16MPD2    C5  251   1.581   0.018   1.353 -0.4418 -0.4652 -0.1684
   16MPD2     H  252   1.875   0.027   1.581  2.1708  0.9905 -1.2936
   16MPD2    H1  253   1.688   4.613   1.238  0.7165 -1.3318  1.5728
   16MPD2    H2  254   1.470   0.147   1.477 -1.3417 -1.0811  0.8921
   16MPD2    H3  255   1.505   0.015   1.275  0.2140  0.8188 -0.8502
   16MPD2     N  256   1.909   4.606   1.385 -0.3046  0.0549 -0.5874
   16MPD2    H5  257   1.978   4.619   1.459 -2.1660 -0.4733  1.2542
   16MPD2    N1  258   1.661   0.180   1.657 -0.2487 -0.3060 -0.6685
   16MPD2    H7  259   1.576   0.236   1.664  0.1278  0.1917 -0.1096
   17TMC1    C1  260   3.278   0.128  10.524  0.1523  0.9121  0.1406
   17TMC1    C2  261   3.278   0.142  10.657  1.2386 -0.1828 -0.1013
   17TMC1    C3  262   3.149   0.136  10.712 -0.1274 -0.6961  0.4937
   17TMC1    C4  263   3.164   0.098  10.446  0.3205  0.0459  0.2578
   17TMC1    C5  264   3.049   0.075  10.511 -0.2513 -0.8862  0.1021
   17TMC1    C6  265   3.034   0.105  10.640 -0.0787 -0.6060 -0.4250
   17TMC1     C  266   3.398   0.150  10.447 -0.1949  0.1522 -1.2932
   17TMC1     O  267   3.377   0.167  10.330  0.4076 -0.2432  0.0144
   17TMC1     H  268   3.367   0.163  10.716 -1.4197  3.6002  2.5544
   17TMC1    H1  269   3.167   0.072  10.341 -1.4490  1.4133 -0.1233
   17TMC1    H2  270   2.934   0.099  10.682  0.2958  1.0520  0.7272
   17TMC1    C7  271   2.922   0.080  10.432  0.1169  0.7028  0.9068
   17TMC1    C8  272   3.136   0.067  10.839 -0.2506 -0.2976 -1.0169
   17TMC1    O1  273   2.814   0.038  10.479 -0.5030  0.0829 -0.3342
   17TMC1    O2  274   3.063   4.706  10.851 -0.0373 -0.0790 -0.0218
   17TMC1    O3  275   2.926   0.175  10.345 -0.3229 -0.5592  0.4605
   17TMC1    H3  276   3.015   0.217  10.350 -0.8223  0.4110  1.0039
   17TMC1    O5  277   3.257   0.088  10.900 -0.7120 -0.1083 -0.6988
   17TMC1    H5  278   3.293   0.178  10.881  0.1187 -0.6399 -1.6722
   18MPD2     C  279   3.662   0.160  10.324 -0.6552 -0.5834  0.2234
   18MPD2    C1  280   3.649   0.187  10.456 -0.3531 -0.1884 -0.6731
   18MPD2    C2  281   3.739   0.265  10.523  0.2355  0.0803  0.9225
   18MPD2    C3  282   3.849   0.317  10.456 -0.2498 -0.0830  0.0247
   18MPD2    C4  283   3.878   0.282  10.326 -0.4578 -0.3198  0.0281
   18MPD2    C5  284   3.776   0.205  10.267 -0.9652 -0.4903  0.1780
   18MPD2     H  285   3.712   0.274  10.627  1.7413  3.4693  1.0078
   18MPD2    H1  286   3.972   0.301  10.277 -0.5331 -1.1589 -0.4531
   18MPD2    H2  287   3.594   0.095  10.270 -1.0404 -1.6042  1.9221
   18MPD2    H3  288   3.778   0.186  10.160 -2.1635  1.2353 -0.1620
   18MPD2     N  289   3.950   0.391  10.526  0.4837 -0.6773 -0.0906
   18MPD2    H5  290   4.033   0.422  10.476 -0.3365 -2.1761 -2.3916
   18MPD2    N1  291   3.520   0.154  10.519  0.1001  0.4602 -0.1747
   18MPD2    H7  292   3.513   0.168  10.619  0.2864  1.9306 -0.3643
   19TMC2    C1  293   0.927   0.904  13.695  0.1262 -0.2718  0.2291
   19TMC2    C2  294   0.858   0.933  13.582  0.1961 -0.0776  0.0074
   19TMC2    C3  295   0.742   0.995  13.597  0.0290  0.0421  0.5175
   19TMC2    C4  296   0.873   0.932  13.818 -0.1217  0.5733  0.1052
   19TMC2    C5  297   0.753   0.995  13.825 -0.3860  0.0607  0.0380
   19TMC2    C6  298   0.689   1.027  13.717  0.2665  0.5530  0.3769
   19TMC2     C  299   1.049   0.830  13.679 -0.1648  0.3185 -0.2039
   19TMC2     O  300   1.064   0.767  13.576  0.4648 -0.0618  0.3420
   19TMC2     H  301   0.879   0.889  13.485  1.1272  1.4169 -0.4560
   19TMC2    H1  302   0.927   0.895  13.904 -0.1245 -1.7377 -0.8961
   19TMC2    H2  303   0.595   1.082  13.713 -0.1281 -0.1614 -0.2397
   19TMC2    C7  304   0.671   0.942  13.931  0.2099  0.0052 -0.7239
   19TMC2    C8  305   0.684   1.051  13.479 -0.0751  0.2574 -0.6771
   19TMC2    O1  306   0.726   0.860  13.999 -0.1904 -0.3017 -0.1366
   19TMC2    O2  307   0.565   1.073  13.464  0.6586 -0.4376 -0.0747
   19TMC2    O5  308   0.783   1.076  13.393  0.7792  0.2406 -0.0526
   19TMC2    H5  309   0.873   1.075  13.433  1.5195  0.7903 -1.7256
   20MPD2     C  310   1.287   0.648  13.722 -0.3510 -0.4854  0.0295
   20MPD2    C1  311   1.270   0.772  13.780  0.0675 -0.0439 -0.5264
   20MPD2    C2  312   1.370   0.820  13.865 -0.0373 -0.0431  0.9522
   20MPD2    C3  313   1.486   0.751  13.899 -0.3534 -0.4541 -0.2956
   20MPD2    C4  314   1.499   0.628  13.835 -0.5824  0.3819  0.0635
   20MPD2    C5  315   1.401   0.577  13.748  0.6111 -0.2605 -0.0147
   20MPD2     H  316   1.355   0.915  13.916 -0.7334  0.9426 -1.1175
   20MPD2    H1  317   1.592   0.573  13.847 -0.3387  0.7367 -0.1906
   20MPD2    H2  318   1.213   0.610  13.652 -0.0549 -2.0476  0.5798
   20MPD2    H3  319   1.415   0.485  13.693 -1.6619 -1.7778  1.9089
   20MPD2     N  320   1.585   0.798  13.987  0.4550 -0.1674 -0.6094
   20MPD2    H5  321   1.657   0.729  14.009 -0.7042 -0.2612  2.9797
   20MPD2    N1  322   1.144   0.839  13.784  0.5015  0.4776  0.1783
   20MPD2    H7  323   1.132   0.917  13.847  2.8001  1.0198 -0.0430
   21TMC2    C1  324   3.428   1.141  14.249 -0.1829 -0.5545 -0.0275
   21TMC2    C2  325   3.540   1.063  14.255 -0.3165  0.0952 -0.8284
   21TMC2    C3  326   3.567   1.001  14.373  0.8265 -0.2063  0.1695
   21TMC2    C4  327   3.349   1.162  14.362  0.0093  0.3153 -0.1036
   21TMC2    C5  328   3.389   1.108  14.480  0.7090 -0.5647 -0.3059
   21TMC2    C6  329   3.490   1.021  14.484 -0.7550 -0.1569  0.2384
   21TMC2     C  330   3.422   1.240  14.143 -0.6103 -0.7426  1.2199
   21TMC2     O  331   3.399   1.187  14.038  0.2083  0.7469 -0.7848
   21TMC2     H  332   3.591   1.032  14.165 -2.1157  1.7968 -2.4410
   21TMC2    H1  333   3.258   1.215  14.338 -0.0154 -0.2497 -1.2514
   21TMC2    H2  334   3.517   0.961  14.571 -1.1628  3.6292  2.9413
   21TMC2    C7  335   3.333   1.172  14.601 -0.6328 -0.6868 -0.6235
   21TMC2    C8  336   3.681   0.907  14.369 -0.1131 -0.6894 -0.2051
   21TMC2    O1  337   3.379   1.136  14.707  0.2450 -0.2185 -0.1745
   21TMC2    O2  338   3.751   0.909  14.267  0.5877 -0.3232  0.4057
   21TMC2    O5  339   3.702   0.836  14.484  0.0625  0.1129  0.2685
   21TMC2    H5  340   3.656   0.872  14.563 -0.4781 -0.5464  0.2563
   22MPD2     C  341   3.536   1.593  14.515 -0.5084  0.1633 -0.4494
   22MPD2    C1  342   3.596   1.470  14.487 -1.1285 -0.4524 -0.1196
   22MPD2    C2  343   3.551   1.402  14.376 -0.2829  0.3619 -0.7054
   22MPD2    C3  344   3.447   1.445  14.291  0.5019  0.0086  0.0663
   22MPD2    C4  345   3.392   1.571  14.317 -0.8658 -0.4247  0.1437
   22MPD2    C5  346   3.434   1.634  14.435  0.8893 -0.5649 -0.3783
   22MPD2     H  347   3.601   1.308  14.353 -0.3656 -0.2542  1.6331
   22MPD2    H1  348   3.317   1.622  14.257  0.7511  0.9682 -0.7190
   22MPD2    H2  349   3.555   1.647  14.607  3.6804 -2.9833  0.5191
   22MPD2    H3  350   3.386   1.726  14.467 -0.1643 -0.9221 -0.9267
   22MPD2     N  351   3.397   1.374  14.186  0.2921  0.5699  0.8346
   22MPD2    H5  352   3.337   1.418  14.118  0.0252  0.7624  1.1982
   22MPD2    N1  353   3.679   1.400  14.572 -0.0536 -0.0172  0.5228
   22MPD2    H7  354   3.705   1.307  14.542  0.7962  0.7986 -1.2593
   23TMC2    C1  355   4.685   2.536  14.959  0.0324 -0.3030  0.2358
   23TMC2    C2  356   4.631   2.659  14.944  1.0602  0.0252 -0.5331
   23TMC2    C3  357   4.516   2.677  14.869  0.6762 -0.0287 -0.4252
   23TMC2    C4  358   4.622   2.419  14.906 -0.1723  0.2875 -0.3755
   23TMC2    C5  359   4.509   2.440  14.830  0.7668 -0.6115  1.0637
   23TMC2    C6  360   4.455   2.570  14.807  0.0760 -0.3973 -0.6129
   23TMC2     C  361   0.080   2.518  15.019 -0.0395  0.4263 -0.5810
   23TMC2     O  362   0.088   2.439  15.112  0.4092 -0.1211 -0.3749
   23TMC2     H  363   4.680   2.747  14.984 -1.4572  0.9080  0.6193
   23TMC2    H1  364   4.669   2.322  14.908  0.3589  0.5477 -0.0912
   23TMC2    H2  365   4.370   2.592  14.745 -2.1796  0.9366  2.9666
   23TMC2    C7  366   4.440   2.334  14.769  0.3233 -0.6457  0.2097
   23TMC2    C8  367   4.446   2.803  14.869 -0.3353  0.5797 -0.7248
   23TMC2    O1  368   4.510   2.235  14.755  0.0136  0.2670 -0.0811
   23TMC2    O2  369   4.347   2.816  14.798 -0.2842 -0.8067  0.2197
   23TMC2    O5  370   4.436   2.829  15.005  0.0086  0.4909 -0.3117
   23TMC2    H5  371   4.511   2.815  15.067  0.1364  2.2688 -0.0477
   24MPD2     C  372   0.581   2.636  15.088 -1.0149  0.0827 -0.4992
   24MPD2    C1  373   0.503   2.537  15.131 -0.3398 -0.3012 -0.0747
   24MPD2    C2  374   0.365   2.537  15.112  0.1263  0.4499 -0.0519
   24MPD2    C3  375   0.300   2.628  15.025 -0.5730 -0.7939  0.2066
   24MPD2    C4  376   0.383   2.727  14.977 -0.2154 -0.2322  0.6975
   24MPD2    C5  377   0.521   2.729  15.010 -0.5716 -0.4185  0.3337
   24MPD2     H  378   0.309   2.454  15.152  0.4675  1.0164  1.6132
   24MPD2    H1  379   0.345   2.794  14.900 -2.4725 -0.1834  1.8478
   24MPD2    H2  380   0.687   2.640  15.110 -1.4874 -2.0096  2.2069
   24MPD2    H3  381   0.589   2.796  14.959 -2.1637  0.3014 -0.8332
   24MPD2     N  382   0.164   2.621  14.980 -0.0375 -0.2669  0.2099
   24MPD2    H5  383   0.134   2.676  14.900 -1.0139 -2.0953 -0.7024
   24MPD2    N1  384   0.562   2.433  15.203 -1.0544 -0.5060  0.2523
   24MPD2    H7  385   0.652   2.449  15.248 -1.5420 -0.6612  1.2896
   25TMC2    C1  386   3.370   0.323  11.631  0.4783 -0.1772  0.3416
   25TMC2    C2  387   3.489   0.388  11.638 -0.2372 -0.3349 -0.1773
   25TMC2    C3  388   3.548   0.381  11.762 -0.4264 -0.3630  0.4963
   25TMC2    C4  389   3.305   0.258  11.735 -0.0656  0.1919  0.5857
   25TMC2    C5  390   3.379   0.246  11.852  0.4964  0.8561 -0.4691
   25TMC2    C6  391   3.500   0.304  11.862  0.4663 -0.0078  0.4861
   25TMC2     C  392   3.293   0.342  11.511  0.2020 -0.2825  0.6730
   25TMC2     O  393   3.296   0.447  11.447 -0.0435 -0.4926  0.2147
   25TMC2     H  394   3.532   0.428  11.547 -1.2466 -1.9623 -1.3623
   25TMC2    H1  395   3.216   0.200  11.715  0.1053  0.0965  0.0820
   25TMC2    H2  396   3.563   0.278  11.947  1.9464  0.7416 -0.3928
   25TMC2    C7  397   3.336   0.169  11.968  0.0055  0.3219 -0.2986
   25TMC2    C8  398   3.693   0.388  11.765  0.1357 -0.0623 -0.1145
   25TMC2    O1  399   3.377   0.214  12.074  0.1901 -0.5201  0.4097
   25TMC2    O2  400   3.761   0.320  11.841 -0.1817  0.1348  0.5332
   25TMC2    O5  401   3.739   0.438  11.652 -0.4538 -0.0091  0.2009
   25TMC2    H5  402   3.675   0.506  11.622 -0.1889  0.9338  1.7594
   26MPD2     C  403   2.977   0.153  11.158 -0.8137  0.1581 -0.1822
   26MPD2    C1  404   3.009   0.058  11.252 -0.4821 -0.2040  0.3917
   26MPD2    C2  405   3.070   0.087  11.371  0.1492  0.2155  0.0542
   26MPD2    C3  406   3.127   0.217  11.382 -0.0807 -0.2216  0.0762
   26MPD2    C4  407   3.090   0.317  11.298  0.5699  0.1719 -0.1835
   26MPD2    C5  408   3.017   0.281  11.186  0.2881  0.1923  0.7116
   26MPD2     H  409   3.107   0.016  11.445 -1.2380  0.6594  1.1820
   26MPD2    H1  410   3.117   0.420  11.318  1.6796  0.1986 -1.8447
   26MPD2    H2  411   2.919   0.128  11.070  0.0380 -0.8315 -0.4574
   26MPD2    H3  412   2.997   0.357  11.111  0.5498 -0.1723  0.2741
   26MPD2     N  413   3.220   0.231  11.486 -0.3562  0.0724 -0.1844
   26MPD2    H5  414   3.250   0.147  11.534  0.2603  1.1108  1.2461
   26MPD2    N1  415   2.982   4.658  11.215  0.3689 -0.0710 -0.6865
   26MPD2    H7  416   2.925   4.642  11.132 -2.7475 -0.7477  1.5812
   27TMC2    C1  417   2.424   2.330  12.086  0.1971  0.0211 -0.4555
   27TMC2    C2  418   2.452   2.440  12.005 -0.0714 -1.0347 -0.7886
   27TMC2    C3  419   2.539   2.530  12.042  0.6154 -0.3565 -0.0212
   27TMC2    C4  420   2.486   2.325  12.206  0.5138  0.4132 -1.0304
   27TMC2    C5  421   2.598   2.407  12.228 -0.6765  0.4545 -0.4902
   27TMC2    C6  422   2.625   2.514  12.148  0.2725  0.1739 -0.0762
   27TMC2     C  423   2.313   2.249  12.041 -0.2876  0.3759  0.9375
   27TMC2     O  424   2.303   2.222  11.920 -0.1539 -0.2051 -0.3400
   27TMC2     H  425   2.394   2.448  11.914  0.1622  2.6890 -0.6227
   27TMC2    H1  426   2.472   2.245  12.277 -2.5545  2.0688  0.2208
   27TMC2    H2  427   2.698   2.589  12.173  0.2893 -0.0746  0.6124
   27TMC2    C7  428   2.667   2.401  12.356 -0.3526 -0.3034  0.1972
   27TMC2    C8  429   2.568   2.630  11.933  0.2262 -0.2603  0.6884
   27TMC2    O1  430   2.609   2.348  12.448 -0.2339 -0.0156 -0.2853
   27TMC2    O2  431   2.677   2.680  11.907  0.3820 -0.2779 -0.0529
   27TMC2    O5  432   2.447   2.690  11.911 -0.1031  0.0536 -0.8156
   27TMC2    H5  433   2.374   2.633  11.943  1.2203 -1.6215 -0.7727
   28MPD2     C  434   1.875   1.977  12.105 -0.2223  0.4865  0.5517
   28MPD2    C1  435   1.928   2.012  12.227 -0.2707  0.4352 -0.0455
   28MPD2    C2  436   2.049   2.074  12.235  0.8649 -0.4296 -0.0421
   28MPD2    C3  437   2.121   2.114  12.124 -1.3185 -0.1526 -1.1129
   28MPD2    C4  438   2.062   2.082  11.997 -0.1814  0.5252  1.0956
   28MPD2    C5  439   1.946   2.007  11.991  0.3847  0.4694 -0.4204
   28MPD2     H  440   2.088   2.101  12.333 -0.5805 -0.5434  0.5666
   28MPD2    H1  441   2.103   2.108  11.901  0.4040 -0.3785  1.0992
   28MPD2    H2  442   1.774   1.941  12.095  0.4572 -0.8650 -1.5629
   28MPD2    H3  443   1.902   1.988  11.893 -0.1792 -0.6142  0.0436
   28MPD2     N  444   2.236   2.196  12.144  0.5862  0.4325  0.2699
   28MPD2    H5  445   2.249   2.230  12.239  0.8904 -2.6568  1.3120
   28MPD2    N1  446   1.859   1.976  12.338  0.1159 -0.4935  0.1544
   28MPD2    H7  447   1.763   1.942  12.335 -0.0140 -0.1192  0.1786
   29TMC2    C1  448   2.215   4.221  14.360 -0.6952 -0.3414 -0.3744
   29TMC2    C2  449   2.232   4.218  14.493 -0.4956  0.0608  0.5577
   29TMC2    C3  450   2.257   4.327  14.563  0.3855  0.0835  0.3227
   29TMC2    C4  451   2.237   4.341  14.289  0.4183  0.2772  0.0781
   29TMC2    C5  452   2.283   4.446  14.359 -0.0380 -0.6237 -0.1957
   29TMC2    C6  453   2.291   4.443  14.492  0.2923 -0.0648  0.4302
   29TMC2     C  454   2.172   4.094  14.294 -0.6985 -0.2390  0.9061
   29TMC2     O  455   2.196   3.988  14.348  0.2030  0.3164 -0.5250
   29TMC2     H  456   2.196   4.124  14.532 -0.5045  0.7039  2.1287
   29TMC2    H1  457   2.215   4.356  14.184  0.2132 -0.7614 -0.0251
   29TMC2    H2  458   2.292   4.536  14.549 -1.8378  0.4289 -0.3190
   29TMC2    C7  459   2.256   4.578  14.305 -0.1956 -0.2258 -0.2152
   29TMC2    C8  460   2.240   4.330  14.706  0.5100 -0.0524 -0.1957
   29TMC2    O1  461   2.179   4.589  14.209 -0.3591 -0.2208  0.0080
   29TMC2    O2  462   2.158   4.260  14.769  0.5226 -0.7258 -0.1904
   29TMC2    O5  463   2.350   4.389  14.752  0.5333  0.6439 -0.3097
   29TMC2    H5  464   2.417   4.398  14.681  1.9308  1.6504  1.1456
   30MPD2     C  465   1.917   3.848  13.936  0.1228 -0.1223  0.0943
   30MPD2    C1  466   2.028   3.806  14.003 -0.1227  0.2615  0.1086
   30MPD2    C2  467   2.081   3.898  14.098  0.4782 -0.2907  0.0392
   30MPD2    C3  468   2.030   4.028  14.099  1.3216 -0.1678 -0.4524
   30MPD2    C4  469   1.916   4.060  14.027  0.2141  0.2195 -0.5938
   30MPD2    C5  470   1.860   3.969  13.951 -0.0647 -0.2584  0.0213
   30MPD2     H  471   2.174   3.883  14.151  0.4887  0.9570  0.3967
   30MPD2    H1  472   1.860   4.151  14.049 -0.4645  0.1067 -1.8237
   30MPD2    H2  473   1.872   3.783  13.862 -0.5486  2.9056 -2.1539
   30MPD2    H3  474   1.768   3.986  13.896 -0.2557  0.3772  0.5335
   30MPD2     N  475   2.080   4.125  14.187  0.2000 -0.1542 -0.5187
   30MPD2    H5  476   2.054   4.222  14.176  0.2634 -0.1182 -0.3411
   30MPD2    N1  477   2.092   3.679  13.984 -0.0669  0.1634  0.0075
   30MPD2    H7  478   2.178   3.665  14.036 -1.5300 -0.7506  2.1797
   31TMC2    C1  479   4.711   2.972  15.892  0.0234  0.2092  0.2853
   31TMC2    C2  480   4.580   3.001  15.903  0.1377  0.0396  0.0907
   31TMC2    C3  481   4.534   3.023  16.030 -0.0064  0.5994  0.2888
   31TMC2    C4  482   0.061   2.989  15.998 -0.1851  0.1493 -0.1522
   31TMC2    C5  483   0.009   3.015  16.120  0.3358  0.1237 -0.5091
   31TMC2    C6  484   4.611   3.026  16.141  0.1050  0.1105 -0.1765
   31TMC2     C  485   0.028   2.970  15.755 -0.0900 -0.2256 -0.5056
   31TMC2     O  486   4.692   3.019  15.662  0.1104  0.0411 -0.5537
   31TMC2     H  487   4.527   3.004  15.809 -1.1306  1.7073  0.8665
   31TMC2    H1  488   0.168   2.971  15.987 -0.0563  0.6558  0.2526
   31TMC2    H2  489   4.570   3.032  16.242 -0.2198  3.2829 -0.5083
   31TMC2    C7  490   0.100   2.993  16.229 -0.1702 -0.5748 -0.4201
   31TMC2    C8  491   4.397   3.001  16.054  0.5249 -0.0341  0.5558
   31TMC2    O1  492   0.205   2.934  16.218  0.0143 -0.1680  0.1970
   31TMC2    O2  493   4.356   2.897  16.107  0.1001  0.6265 -0.2894
   31TMC2    O5  494   4.344   3.080  15.958  0.0202  0.0947 -0.1730
   31TMC2    H5  495   4.415   3.144  15.934 -0.4180  0.4924 -0.3914
   32MPD2     C  496   0.330   2.769  15.412  0.0654 -0.7651 -0.4637
   32MPD2    C1  497   0.267   2.894  15.408 -0.1776 -0.0883 -0.1245
   32MPD2    C2  498   0.202   2.933  15.524 -0.8646  0.5510  0.4231
   32MPD2    C3  499   0.203   2.848  15.637 -0.6800 -0.1527 -0.4650
   32MPD2    C4  500   0.258   2.725  15.629  0.5529 -0.5328  1.0766
   32MPD2    C5  501   0.327   2.683  15.522  0.3933 -0.1972 -0.4209
   32MPD2     H  502   0.155   3.030  15.527  0.2415  1.0639  0.9478
   32MPD2    H1  503   0.255   2.651  15.708 -1.8805 -0.4031  1.1059
   32MPD2    H2  504   0.360   2.716  15.323 -1.0419  2.6796 -2.8602
   32MPD2    H3  505   0.374   2.586  15.513  1.8017  0.8349 -4.2966
   32MPD2     N  506   0.138   2.888  15.758 -0.2648 -0.0661 -0.4122
   32MPD2    H5  507   0.160   2.837  15.843 -0.4944 -1.2177 -1.0435
   32MPD2    N1  508   0.259   2.972  15.292 -0.1308 -0.4396  0.4596
   32MPD2    H7  509   0.197   3.053  15.296  2.4666  1.5881 -0.5374
   33TMC2    C1  510   4.425   1.179   9.994 -0.1566  0.5415 -0.5809
   33TMC2    C2  511   4.325   1.158   9.903 -0.1575  0.4153  0.3793
   33TMC2    C3  512   4.311   1.243   9.790  0.5115  0.3408 -0.1919
   33TMC2    C4  513   4.503   1.294   9.987  0.2210 -0.5624  0.5377
   33TMC2    C5  514   4.491   1.369   9.873 -0.4832 -0.2123  0.0667
   33TMC2    C6  515   4.396   1.352   9.777 -0.0502  0.0204  0.4593
   33TMC2     C  516   4.399   1.112  10.121  0.1268  0.0518 -0.2985
   33TMC2     O  517   4.349   1.000  10.117  0.3865  0.0125 -0.5475
   33TMC2     H  518   4.264   1.068   9.902 -0.4455  0.6129  0.2722
   33TMC2    H1  519   4.582   1.312  10.059  0.1381  0.5537  0.3510
   33TMC2    H2  520   4.388   1.421   9.694 -1.3121  1.1340  1.5056
   33TMC2    C7  521   4.566   1.496   9.867  0.3906  0.6506  0.4632
   33TMC2    C8  522   4.221   1.217   9.682 -0.1668 -0.6130 -0.0712
   33TMC2    O1  523   4.670   1.506   9.934  0.1887 -0.0293 -0.5238
   33TMC2    O2  524   4.242   1.265   9.576 -0.0606 -0.1289  0.5417
   33TMC2    O5  525   4.105   1.173   9.732 -0.4295  0.9073 -0.0603
   33TMC2    H5  526   4.091   1.160   9.828 -3.2311  0.2120 -0.5515
   34MPD2     C  527   4.467   1.028  10.615 -0.8990  0.4637  0.4912
   34MPD2    C1  528   4.384   0.962  10.531 -0.0486  0.6887 -0.4053
   34MPD2    C2  529   4.378   1.007  10.402 -0.4168 -0.1062  0.3508
   34MPD2    C3  530   4.452   1.116  10.358 -0.5945  0.0271  0.7337
   34MPD2    C4  531   4.526   1.183  10.447 -0.2839 -0.2974 -0.0454
   34MPD2    C5  532   4.543   1.135  10.571 -0.3491  0.0312  0.4078
   34MPD2     H  533   4.323   0.943  10.334 -0.7581  0.5283  0.0282
   34MPD2    H1  534   4.574   1.276  10.421  0.2584 -0.6428 -0.2645
   34MPD2    H2  535   4.487   0.989  10.714 -0.8351 -1.2976 -0.2247
   34MPD2    H3  536   4.619   1.172  10.639  0.9494 -1.6915 -0.1085
   34MPD2     N  537   4.449   1.171  10.227  0.4882 -0.4579 -0.1437
   34MPD2    H5  538   4.487   1.264  10.218  0.5493 -0.2868  1.8937
   34MPD2    N1  539   4.337   0.840  10.581 -0.4096 -0.6211 -0.0203
   34MPD2    H7  540   4.339   0.823  10.681  1.3224  0.4498  0.1170
   35TMC2    C1  541   0.519   2.542  11.698  0.4872 -0.5034  0.1687
   35TMC2    C2  542   0.399   2.590  11.658  0.0486  0.6054  0.0232
   35TMC2    C3  543   0.289   2.514  11.688 -0.0753 -0.2183  0.5132
   35TMC2    C4  544   0.535   2.413  11.746 -0.4848 -0.0912  0.1886
   35TMC2    C5  545   0.420   2.333  11.760 -0.5606  0.8537  0.0792
   35TMC2    C6  546   0.299   2.389  11.734  1.2092  0.4152  0.1015
   35TMC2     C  547   0.640   2.626  11.680  1.0675 -0.2890 -0.9826
   35TMC2     O  548   0.631   2.729  11.610 -0.1881  0.1793  0.2937
   35TMC2     H  549   0.387   2.697  11.644 -0.9756  0.1756 -2.3594
   35TMC2    H1  550   0.625   2.360  11.772 -0.6414 -0.2289  0.4568
   35TMC2    H2  551   0.209   2.331  11.747  2.1869 -1.4647 -1.4546
   35TMC2    C7  552   0.409   2.241  11.869 -0.2747  0.2141 -0.4566
   35TMC2    C8  553   0.156   2.566  11.653  0.3485  0.1777  0.5111
   35TMC2    O1  554   0.308   2.172  11.862 -0.4573 -0.1665 -0.5895
   35TMC2    O2  555   0.050   2.541  11.710  0.0185  0.0891 -0.2710
   35TMC2    O5  556   0.161   2.657  11.556  0.3307  0.4311  0.0205
   35TMC2    H5  557   0.234   2.649  11.490  2.6081  0.5119  2.5659
   36MPD2     C  558   1.124   2.731  11.805 -0.2212  0.4311  0.0741
   36MPD2    C1  559   1.097   2.599  11.839 -0.5928 -0.3645 -0.5223
   36MPD2    C2  560   0.975   2.550  11.817  0.1573  0.3610  0.0435
   36MPD2    C3  561   0.877   2.621  11.747 -0.4981 -0.0148 -0.1242
   36MPD2    C4  562   0.906   2.749  11.705 -0.3819 -0.4027 -1.0594
   36MPD2    C5  563   1.029   2.803  11.737  0.2373  0.8245  0.8422
   36MPD2     H  564   0.957   2.451  11.855 -1.5264  0.9177  0.6969
   36MPD2    H1  565   0.840   2.817  11.652 -1.8316 -0.5766  0.5216
   36MPD2    H2  566   1.217   2.777  11.837  0.8141 -1.9258  0.4025
   36MPD2    H3  567   1.046   2.910  11.730  0.5119  0.8395  1.7390
   36MPD2     N  568   0.745   2.575  11.750  0.5833  0.1892  0.0574
   36MPD2    H5  569   0.727   2.497  11.813  0.0330  0.0467 -0.2862
   36MPD2    N1  570   1.206   2.541  11.909  0.0315  0.0615 -0.3988
   36MPD2    H7  571   1.280   2.606  11.934 -0.4679 -0.9660  3.8189
   37TMC2    C1  572   3.201   2.210  12.150 -0.7584  0.0216 -0.4759
   37TMC2    C2  573   3.156   2.090  12.120 -0.0257  0.8998  0.2886
   37TMC2    C3  574   3.155   2.053  11.984 -0.1225  0.7869  0.4503
   37TMC2    C4  575   3.250   2.302  12.066 -0.2566 -0.1229  0.0623
   37TMC2    C5  576   3.260   2.260  11.936  0.1568 -0.1253  0.4509
   37TMC2    C6  577   3.211   2.138  11.892 -0.7716  0.0134  0.8303
   37TMC2     C  578   3.229   2.229  12.289  0.1670 -0.2718 -0.5277
   37TMC2     O  579   3.182   2.159  12.377  0.4009  0.1065  0.4464
   37TMC2     H  580   3.113   2.023  12.194  0.6346 -0.2060 -0.3373
   37TMC2    H1  581   3.275   2.401  12.101 -1.2686  0.1631 -0.0033
   37TMC2    H2  582   3.227   2.111  11.788 -0.2829  2.4362  0.2791
   37TMC2    C7  583   3.358   2.335  11.859 -0.2982  0.7662  0.1491
   37TMC2    C8  584   3.091   1.938  11.923 -0.5582  0.2549 -0.1464
   37TMC2    O1  585   3.434   2.401  11.928  0.1304  0.0753  0.1167
   37TMC2    O2  586   3.057   1.940  11.804  0.0393  0.3241  0.1063
   37TMC2    O5  587   3.043   1.849  12.011  0.3105 -0.4382 -0.8885
   37TMC2    H5  588   3.080   1.847  12.102  1.2247  3.4394 -1.1616
   38MPD2     C  589   3.560   2.432  12.617 -0.1836  0.5273  0.5179
   38MPD2    C1  590   3.625   2.426  12.494 -0.2730 -0.0498 -0.5152
   38MPD2    C2  591   3.546   2.394  12.387 -0.2853 -0.3833 -0.1365
   38MPD2    C3  592   3.416   2.344  12.410 -0.0344 -0.1361  0.4537
   38MPD2    C4  593   3.363   2.331  12.534 -0.2347 -0.2520  0.1293
   38MPD2    C5  594   3.441   2.373  12.637  0.0565  0.3508 -0.6660
   38MPD2     H  595   3.587   2.400  12.287  0.0051 -1.3250 -0.0801
   38MPD2    H1  596   3.262   2.295  12.553  0.3094 -1.6857  0.3241
   38MPD2    H2  597   3.596   2.478  12.708 -1.4272 -0.6115  1.5787
   38MPD2    H3  598   3.388   2.385  12.731  0.8192  0.5511 -0.2611
   38MPD2     N  599   3.345   2.301  12.293  0.2715 -0.1381 -0.1165
   38MPD2    H5  600   3.391   2.321  12.204 -0.0450 -0.5233 -0.3694
   38MPD2    N1  601   3.765   2.450  12.473 -0.2454 -0.5756 -0.5125
   38MPD2    H7  602   3.800   2.447  12.377  0.1320  0.0939 -0.3994
   39TMC2    C1  603   2.710   4.434   1.682 -0.7060 -0.0001 -0.1697
   39TMC2    C2  604   2.847   4.432   1.636  0.2054 -0.2468  0.7938
   39TMC2    C3  605   2.924   4.528   1.689 -0.2962 -0.1523 -0.0481
   39TMC2    C4  606   2.671   4.529   1.774  0.5055  0.1912  0.1045
   39TMC2    C5  607   2.768   4.598   1.835  0.0530  0.6812  0.4620
   39TMC2    C6  608   2.893   4.611   1.791 -0.0181 -0.1318  0.2179
   39TMC2     C  609   2.604   4.343   1.642  0.1625  0.0203  0.7357
   39TMC2     O  610   2.504   4.346   1.710  0.3282  0.8399 -0.0650
   39TMC2     H  611   2.887   4.358   1.568  1.2665  1.2470 -0.2063
   39TMC2    H1  612   2.569   4.538   1.808  0.5108  1.3071 -0.1858
   39TMC2    H2  613   2.969   4.667   1.843 -2.1770  0.7819  2.3944
   39TMC2    C7  614   2.707   4.718   1.892  0.0216  0.7643  0.3190
   39TMC2    C8  615   3.069   4.516   1.662 -0.5186  0.5338 -0.2288
   39TMC2    O1  616   2.609   4.697   1.962 -0.2709  0.4686 -0.2303
   39TMC2    O2  617   3.124   4.426   1.597 -0.2987  0.6075  0.0872
   39TMC2    O5  618   3.126   4.638   1.657  0.3789  0.2587  0.5041
   39TMC2    H5  619   3.060   4.702   1.692 -0.1284 -1.3234  2.4511
   40MPD2     C  620   2.599   4.031   1.451 -0.7025  0.0581  0.0119
   40MPD2    C1  621   2.550   4.151   1.506 -0.7828  0.3863  0.4135
   40MPD2    C2  622   2.412   4.163   1.528 -0.5343 -0.3283  0.4061
   40MPD2    C3  623   2.329   4.055   1.488  0.0858 -0.2822  0.1027
   40MPD2    C4  624   2.378   3.937   1.436 -0.1142  1.0036  0.6575
   40MPD2    C5  625   2.511   3.938   1.406  0.0813  0.3940  0.3182
   40MPD2     H  626   2.374   4.260   1.558  0.1537  0.7572 -2.2384
   40MPD2    H1  627   2.313   3.869   1.382  1.9418 -0.3445 -0.1142
   40MPD2    H2  628   2.706   4.022   1.438 -0.7590 -0.5530 -0.0701
   40MPD2    H3  629   2.547   3.855   1.348 -1.1592 -0.7657  1.2101
   40MPD2     N  630   2.188   4.063   1.480  0.6502  0.7424 -0.6122
   40MPD2    H5  631   2.129   3.986   1.449  0.7409  0.1157  0.7954
   40MPD2    N1  632   2.647   4.246   1.552 -0.2022  0.2174 -0.2326
   40MPD2    H7  633   2.740   4.241   1.512  0.9630  0.9998  2.4046
   41TMC2    C1  634   1.101   1.591  13.956 -0.3868 -0.0651 -0.4924
   41TMC2    C2  635   1.068   1.475  13.887  0.3275 -0.0693  0.5649
   41TMC2    C3  636   1.042   1.488  13.750 -0.0600 -0.5184  0.1743
   41TMC2    C4  637   1.138   1.703  13.895 -0.2478  0.1423  0.6107
   41TMC2    C5  638   1.132   1.704  13.758  0.4164  0.3658  0.0559
   41TMC2    C6  639   1.085   1.599  13.682 -0.1415  0.3277 -0.9416
   41TMC2     C  640   1.133   1.580  14.098  0.2450  0.6115 -0.1872
   41TMC2     O  641   1.173   1.471  14.140  0.0410 -0.7498 -0.2282
   41TMC2     H  642   1.031   1.384  13.933  0.0310 -0.5016 -0.5251
   41TMC2    H1  643   1.184   1.788  13.944 -2.2320  1.2342  0.6092
   41TMC2    H2  644   1.094   1.592  13.574  2.6487  0.9977 -0.7525
   41TMC2    C7  645   1.163   1.826  13.686 -0.1621  0.2275 -0.3216
   41TMC2    C8  646   0.987   1.373  13.684 -0.0876  0.2425 -0.0471
   41TMC2    O1  647   1.196   1.922  13.752  0.0594  0.4839 -0.0080
   41TMC2    O2  648   1.006   1.266  13.741 -0.1641 -0.6070  0.3571
   41TMC2    O5  649   0.882   1.416  13.604 -0.0728  0.2282 -0.0000
   41TMC2    H5  650   0.870   1.514  13.602  1.0627  0.3756  0.6272
   42MPD2     C  651   1.175   1.649  14.397 -0.2184 -0.4122  0.1057
   42MPD2    C1  652   1.102   1.721  14.303 -0.7098 -0.4218  0.5041
   42MPD2    C2  653   1.025   1.825  14.360  0.4805 -0.2016  0.2487
   42MPD2    C3  654   1.021   1.854  14.497 -0.2748  0.4408  0.1133
   42MPD2    C4  655   1.089   1.774  14.582  0.5941  0.1329 -0.0391
   42MPD2    C5  656   1.167   1.669  14.533 -0.0199 -0.5097  0.2360
   42MPD2     H  657   0.964   1.877  14.287  1.8402 -0.9746 -1.4595
   42MPD2    H1  658   1.073   1.776  14.689 -1.7537 -1.4474 -0.3479
   42MPD2    H2  659   1.228   1.558  14.371  0.0901  0.0771 -0.9495
   42MPD2    H3  660   1.227   1.606  14.598 -0.7862 -0.6946  0.7614
   42MPD2     N  661   0.950   1.962  14.553  0.0486  0.5511 -0.2237
   42MPD2    H5  662   0.968   1.979  14.652 -1.7730 -1.9390  0.5292
   42MPD2    N1  663   1.081   1.694  14.160  0.1610  0.1268  0.2231
   42MPD2    H7  664   1.037   1.764  14.102 -0.9043  0.2799  1.2094
   43TMC2    C1  665   2.714   0.643   0.843 -0.3851  0.2964 -0.2151
   43TMC2    C2  666   2.584   0.619   0.833 -0.0882 -0.3654  0.5971
   43TMC2    C3  667   2.507   0.687   0.924 -0.2473 -0.2950 -0.5191
   43TMC2    C4  668   2.769   0.734   0.932  0.1520 -0.6042 -0.2104
   43TMC2    C5  669   2.683   0.800   1.008 -0.3615  0.8002  0.6968
   43TMC2    C6  670   2.553   0.769   1.018  0.6935  0.2328  0.4944
   43TMC2     C  671   2.797   0.583   0.743  0.0841  0.0131 -0.0680
   43TMC2     O  672   2.913   0.565   0.776 -0.3142 -0.3450 -0.6450
   43TMC2     H  673   2.537   0.557   0.757  0.8212 -0.1520 -0.1268
   43TMC2    H1  674   2.872   0.768   0.922  0.3186 -1.0438  0.0233
   43TMC2    H2  675   2.483   0.821   1.083  0.7194  0.8851 -0.0073
   43TMC2    C7  676   2.726   0.924   1.072  0.0074 -0.1490  1.3034
   43TMC2    C8  677   2.366   0.680   0.912  0.1780  0.4322 -0.5140
   43TMC2    O1  678   2.832   0.972   1.036 -0.9186  0.2936  0.1443
   43TMC2    O2  679   2.308   0.785   0.938  0.2421  0.1631  0.0375
   43TMC2    O5  680   2.339   0.562   0.964 -0.4967  0.2710  0.3878
   43TMC2    H5  681   2.400   0.487   0.948 -0.7713  0.1390 -0.0494
   44MPD2     C  682   2.928   0.464   0.271 -0.1423 -0.5494 -0.3796
   44MPD2    C1  683   3.005   0.502   0.377 -0.2855 -0.0850 -0.1861
   44MPD2    C2  684   2.939   0.525   0.497 -0.1465 -0.3077 -0.4152
   44MPD2    C3  685   2.807   0.511   0.510  0.4547 -0.4234 -0.6503
   44MPD2    C4  686   2.736   0.475   0.400  0.2342 -0.3670 -0.5203
   44MPD2    C5  687   2.797   0.442   0.283 -0.7511  0.5263  0.8911
   44MPD2     H  688   3.002   0.555   0.580 -1.4475  1.6298 -0.1328
   44MPD2    H1  689   2.629   0.493   0.406  0.6109  1.6914  0.0923
   44MPD2    H2  690   2.979   0.442   0.177  2.8746  0.1263  1.0921
   44MPD2    H3  691   2.739   0.397   0.203 -2.3051  2.1550  1.0836
   44MPD2     N  692   2.737   0.545   0.624 -0.1534  0.1620 -0.3644
   44MPD2    H5  693   2.636   0.562   0.622 -0.0829  0.5976 -0.1439
   44MPD2    N1  694   3.146   0.512   0.376 -0.1057  0.3365  0.1434
   44MPD2    H7  695   3.179   0.545   0.466  2.3040 -4.0575  0.8717
   45TMC2    C1  696   2.709   2.395  10.035  0.5877 -0.4716  0.2776
   45TMC2    C2  697   2.820   2.336   9.992 -0.1992 -0.2142  0.6564
   45TMC2    C3  698   2.930   2.411   9.965 -0.0326  0.1971 -0.5872
   45TMC2    C4  699   2.708   2.528  10.072 -0.1856  0.6157  0.3019
   45TMC2    C5  700   2.814   2.603  10.023 -0.0737  0.8316 -0.2314
   45TMC2    C6  701   2.921   2.548   9.963  0.4406 -0.3504 -0.6786
   45TMC2     C  702   2.607   2.302  10.068  0.9148 -0.2374  0.5583
   45TMC2     O  703   2.639   2.202  10.134  0.9373  0.6214  0.5232
   45TMC2     H  704   2.815   2.228   9.978  0.1554 -0.3557  1.6628
   45TMC2    H1  705   2.624   2.573  10.124  1.7914  2.4296  1.8656
   45TMC2    H2  706   2.997   2.618   9.930 -0.9018  0.6233 -1.7348
   45TMC2    C7  707   2.835   2.729  10.093  0.3119 -0.3252 -0.3468
   45TMC2    C8  708   3.054   2.353   9.911  0.1649  0.3696  0.2138
   45TMC2    O1  709   2.947   2.778  10.091  0.1400 -0.4049  0.2846
   45TMC2    O2  710   3.132   2.434   9.870 -0.0278 -0.2418  0.2685
   45TMC2    O5  711   3.090   2.264  10.008  0.5695  0.3921 -0.2815
   45TMC2    H5  712   3.022   2.226  10.068  0.3750 -1.2672 -1.5692
   46MPD2     C  713   2.399   2.112  10.007  0.8095  0.7474 -0.2062
   46MPD2    C1  714   2.405   2.239   9.953 -0.0423 -0.2223 -0.0896
   46MPD2    C2  715   2.313   2.275   9.859  0.0227  0.1623  0.2022
   46MPD2    C3  716   2.209   2.194   9.818  0.8359  0.5044  0.1165
   46MPD2    C4  717   2.197   2.072   9.882  0.2931 -0.2922 -0.2661
   46MPD2    C5  718   2.294   2.034   9.976 -0.2222 -0.2555  0.1990
   46MPD2     H  719   2.325   2.373   9.813 -0.0692 -0.5152 -1.2533
   46MPD2    H1  720   2.112   2.010   9.857 -1.9381  2.3134  0.9610
   46MPD2    H2  721   2.473   2.064  10.070 -1.9473 -1.2812  1.4993
   46MPD2    H3  722   2.290   1.935  10.019 -1.5806 -0.1573  0.2975
   46MPD2     N  723   2.112   2.254   9.735 -0.3374  0.0676  0.3450
   46MPD2    H5  724   2.133   2.345   9.695 -0.2373 -0.5776 -1.0568
   46MPD2    N1  725   2.503   2.333   9.993  0.8588  0.3344 -0.0533
   46MPD2    H7  726   2.508   2.421   9.942 -0.2372  0.6615  0.4065
   47TMC2    C1  727   4.602   3.729   9.666 -0.0981  0.1580 -0.3589
   47TMC2    C2  728   4.633   3.737   9.534  0.1697  0.2335  1.1227
   47TMC2    C3  729   4.523   3.731   9.453  0.1342  0.2646 -0.5525
   47TMC2    C4  730   4.479   3.757   9.722  0.3024  0.3688  0.1270
   47TMC2    C5  731   4.373   3.753   9.633 -0.2150  0.5557  0.3974
   47TMC2    C6  732   4.395   3.749   9.497  0.3116  0.6751 -0.7088
   47TMC2     C  733   4.712   3.756   9.758 -0.1209  1.0226 -0.5041
   47TMC2     O  734   4.684   3.804   9.869  0.0171 -0.6358 -0.4977
   47TMC2     H  735   4.732   3.743   9.491  0.8191  1.5184  2.7772
   47TMC2    H1  736   4.478   3.739   9.829  1.5105 -2.7757 -0.3857
   47TMC2    H2  737   4.312   3.762   9.429 -1.2200 -1.6658  0.7330
   47TMC2    C7  738   4.243   3.794   9.678  0.0855  0.3656 -0.5318
   47TMC2    C8  739   4.554   3.701   9.317 -0.3033  0.3150 -0.2749
   47TMC2    O1  740   4.156   3.802   9.594  0.3579 -0.2159  0.6425
   47TMC2    O2  741   4.672   3.710   9.278 -0.2004 -0.1074  0.4563
   47TMC2    O5  742   4.449   3.701   9.240 -0.2143  0.2113  0.2229
   47TMC2    H5  743   4.380   3.652   9.289  1.3180  0.1732  2.3521
   48MPD2     C  744   0.240   3.785   9.882 -0.9975 -0.4665 -0.0138
   48MPD2    C1  745   0.214   3.702   9.775  0.1299  0.2469 -0.7121
   48MPD2    C2  746   0.321   3.622   9.734 -1.2166  0.4957 -0.6826
   48MPD2    C3  747   0.444   3.624   9.797  0.2104  0.6361  0.3403
   48MPD2    C4  748   0.463   3.716   9.902 -0.4500  0.1102 -0.3668
   48MPD2    C5  749   0.359   3.790   9.949  0.2959  0.8683  0.0434
   48MPD2     H  750   0.313   3.541   9.662  0.3407  2.3844 -3.0197
   48MPD2    H1  751   0.551   3.723   9.965 -1.5057  1.1991  0.9870
   48MPD2    H2  752   0.160   3.854   9.908  1.9129  2.6351  0.7629
   48MPD2    H3  753   0.373   3.865  10.026  2.8868 -0.4815  0.8626
   48MPD2     N  754   0.537   3.524   9.773  0.2024 -0.1158  0.3491
   48MPD2    H5  755   0.506   3.456   9.704  1.1410  0.7102 -0.8876
   48MPD2    N1  756   0.092   3.696   9.706  0.1827 -0.1730  0.5710
   48MPD2    H7  757   0.083   3.633   9.628  1.2916 -0.8811  1.0023
   49TMC2    C1  758   3.520   0.539  10.287 -0.8793  0.3621 -0.3096
   49TMC2    C2  759   3.513   0.495  10.156 -0.3559  0.6737 -0.2810
   49TMC2    C3  760   3.399   0.432  10.121 -0.3212  1.1047 -1.0826
   49TMC2    C4  761   3.414   0.542  10.374 -0.2482 -0.0173 -0.1694
   49TMC2    C5  762   3.304   0.466  10.330  0.9706 -0.2866 -1.0433
   49TMC2    C6  763   3.297   0.407  10.206  0.3572 -0.0795 -0.1216
   49TMC2     C  764   3.634   0.623  10.327 -0.0880 -0.5822  0.8167
   49TMC2     O  765   3.715   0.639  10.236  0.0041  0.0698 -0.4120
   49TMC2     H  766   3.597   0.505  10.089  0.2600  2.2690  0.7301
   49TMC2    H1  767   3.411   0.585  10.474 -0.7802  0.4056 -0.3712
   49TMC2    H2  768   3.208   0.358  10.168 -2.0260  2.5907  1.9170
   49TMC2    C7  769   3.187   0.434  10.415 -0.4292  0.6117 -0.1213
   49TMC2    C8  770   3.414   0.340  10.014  0.4912  0.3315 -1.1534
   49TMC2    O1  771   3.090   0.382  10.370  0.0567  0.4442 -0.0685
   49TMC2    O2  772   3.481   0.376   9.920 -0.6953 -0.3856 -0.3243
   49TMC2    O5  773   3.445   0.231  10.087  0.1242 -0.2650  0.0996
   49TMC2    H5  774   3.402   0.227  10.175  1.0147  0.3396  0.5653
   50MPD2     C  775   3.856   0.780  10.482  0.1524 -0.4617 -0.6156
   50MPD2    C1  776   3.749   0.715  10.537  0.2121  0.5673 -0.0596
   50MPD2    C2  777   3.734   0.722  10.676  0.2724  0.8383  0.0268
   50MPD2    C3  778   3.829   0.779  10.757 -0.2158  0.0811 -0.4042
   50MPD2    C4  779   3.931   0.846  10.698 -0.4412 -0.2569  0.7474
   50MPD2    C5  780   3.944   0.855  10.563  0.6991  0.2440  0.2212
   50MPD2     H  781   3.650   0.669  10.720  0.2590 -0.9443 -2.1563
   50MPD2    H1  782   4.002   0.909  10.750 -3.0681  2.8230  0.6215
   50MPD2    H2  783   3.860   0.789  10.374 -2.6377 -1.1923 -0.7637
   50MPD2    H3  784   4.016   0.918  10.513  0.9479 -2.4997 -2.9317
   50MPD2     N  785   3.809   0.792  10.896  0.2555  0.7911 -0.2361
   50MPD2    H5  786   3.888   0.840  10.937  0.9307 -0.7476  0.2417
   50MPD2    N1  787   3.645   0.637  10.466 -0.0997  0.2293 -0.5784
   50MPD2    H7  788   3.581   0.572  10.510  1.8629 -1.0855  0.3129
   51TMC2    C1  789   3.845   0.116   1.063 -0.1218 -0.3585 -0.2565
   51TMC2    C2  790   3.755   0.208   1.015 -0.1386 -0.0871  0.0447
   51TMC2    C3  791   3.795   0.282   0.905  0.2602 -0.7925 -0.2268
   51TMC2    C4  792   3.964   0.085   0.999  0.6991 -0.0049 -0.0790
   51TMC2    C5  793   4.002   0.169   0.893  0.9064  0.8446 -0.1082
   51TMC2    C6  794   3.919   0.260   0.839  0.6266 -0.1148 -0.5339
   51TMC2     C  795   3.793   0.005   1.139 -0.0768 -0.0033  0.9863
   51TMC2     O  796   3.863   4.640   1.138  0.5291  0.1849  0.3344
   51TMC2     H  797   3.662   0.226   1.066 -0.5330  0.5915 -0.9233
   51TMC2    H1  798   4.035   0.016   1.042  1.9472  0.5135 -1.3282
   51TMC2    H2  799   3.955   0.336   0.770 -3.8866  0.4528 -2.2355
   51TMC2    C7  800   4.099   0.113   0.798 -0.5560  0.6088 -0.2131
   51TMC2    C8  801   3.761   0.427   0.907  0.5186 -0.0195 -0.3239
   51TMC2    O1  802   4.092   0.149   0.679  0.2745 -1.1338 -0.0147
   51TMC2    O2  803   3.847   0.513   0.887 -0.3903 -0.1965 -0.4202
   51TMC2    O5  804   3.640   0.452   0.947 -0.4082  0.0755  0.1231
   51TMC2    H5  805   3.586   0.370   0.953  0.3603 -0.3405  1.3099
   52MPD2     C  806   3.434   4.503   1.419  0.8480  0.1406 -0.4287
   52MPD2    C1  807   3.544   4.454   1.344  0.3283 -0.3770  0.5105
   52MPD2    C2  808   3.632   4.540   1.280 -0.2265 -0.1730  0.7680
   52MPD2    C3  809   3.606   4.679   1.285 -0.3025  0.1298 -0.5698
   52MPD2    C4  810   3.496   4.720   1.349 -0.0470 -0.1471 -0.4597
   52MPD2    C5  811   3.415   4.636   1.420  0.2975  0.4782  0.1370
   52MPD2     H  812   3.709   4.505   1.213 -0.0179  0.1833  0.8222
   52MPD2    H1  813   3.461   0.087   1.346 -0.3160 -0.1770  1.2507
   52MPD2    H2  814   3.366   4.431   1.464  0.4929  0.4396 -0.4884
   52MPD2    H3  815   3.338   4.679   1.483 -0.4362 -0.6220 -0.0244
   52MPD2     N  816   3.672   0.033   1.200  0.0118  0.1380 -0.7368
   52MPD2    H5  817   3.633   0.126   1.194  0.6225  0.5954  2.1375
   52MPD2    N1  818   3.584   4.320   1.341  0.5089 -0.0859 -0.3454
   52MPD2    H7  819   3.675   4.314   1.297  0.4725 -2.9885 -0.0222
   53TMC2    C1  820   3.951   2.668  11.641 -0.0747  0.0181  0.5132
   53TMC2    C2  821   4.088   2.670  11.597 -0.3178 -0.1460  0.2826
   53TMC2    C3  822   4.184   2.702  11.677  1.1421  0.8714 -0.0382
   53TMC2    C4  823   3.923   2.697  11.772 -0.1177  0.0408 -0.3300
   53TMC2    C5  824   4.026   2.722  11.853 -0.0243 -0.4323 -0.5737
   53TMC2    C6  825   4.161   2.725  11.811  0.0558 -0.2513 -0.4141
   53TMC2     C  826   3.849   2.628  11.553  1.1922 -0.2750  0.2354
   53TMC2     O  827   3.873   2.624  11.432  0.5709 -0.4232 -0.3732
   53TMC2     H  828   4.115   2.632  11.500 -0.5306  2.1828 -0.7003
   53TMC2    H1  829   3.822   2.719  11.804  0.2112 -3.0635  2.7583
   53TMC2    H2  830   4.244   2.751  11.875  1.4030  0.9536 -2.6688
   53TMC2    C7  831   3.992   2.775  11.984  0.2643  0.0796 -0.5872
   53TMC2    C8  832   4.320   2.709  11.633 -0.3687  0.2704  0.1959
   53TMC2    O1  833   3.876   2.818  11.995 -0.0320 -0.0377  0.0128
   53TMC2    O2  834   4.414   2.681  11.704 -0.6329  0.2101 -0.0458
   53TMC2    O5  835   4.325   2.764  11.507  0.3051 -0.2514  0.1151
   53TMC2    H5  836   4.248   2.808  11.467  1.5098 -0.4640 -2.4133
   54MPD2     C  837   3.594   2.506  11.435  0.3357 -0.2135  0.0073
   54MPD2    C1  838   3.628   2.510  11.572  0.3631  0.3015  0.7174
   54MPD2    C2  839   3.542   2.458  11.665  0.3496  0.0691  0.7162
   54MPD2    C3  840   3.421   2.397  11.629  0.4482 -0.8369 -0.1919
   54MPD2    C4  841   3.387   2.397  11.490  0.3493  0.3828  0.2548
   54MPD2    C5  842   3.470   2.456  11.399 -0.1367 -0.1877 -0.1552
   54MPD2     H  843   3.570   2.471  11.769  4.2901 -0.4600 -0.2772
   54MPD2    H1  844   3.309   2.343  11.436  0.0784  1.6102 -0.5842
   54MPD2    H2  845   3.670   2.548  11.370 -0.3584  0.3594 -0.4337
   54MPD2    H3  846   3.445   2.466  11.294  1.7215  1.7336 -0.4279
   54MPD2     N  847   3.338   2.332  11.724 -0.3835  0.7662  0.6597
   54MPD2    H5  848   3.262   2.273  11.691  0.3239 -0.8801  1.9342
   54MPD2    N1  849   3.746   2.567  11.626  0.2297  0.9469  0.0767
   54MPD2    H7  850   3.757   2.555  11.726 -4.7429 -0.8474  0.4147
   55TMC2    C1  851   0.757   1.013   0.260 -0.8309 -0.9643  0.3098
   55TMC2    C2  852   0.854   1.065   0.185  0.2080 -0.0940 -0.6227
   55TMC2    C3  853   0.957   0.987   0.149  0.2584 -0.6606 -0.5356
   55TMC2    C4  854   0.769   0.882   0.310  0.3076 -0.1471  0.3999
   55TMC2    C5  855   0.893   0.817   0.293  0.4608  0.2165  0.6023
   55TMC2    C6  856   0.978   0.862   0.196 -0.2765  0.1810  0.6712
   55TMC2     C  857   0.631   1.080   0.286 -0.6997  0.3257  0.3344
   55TMC2     O  858   0.541   1.019   0.334  0.4550 -0.0541 -0.0567
   55TMC2     H  859   0.840   1.154   0.125  0.7243 -0.2121 -0.9214
   55TMC2    H1  860   0.683   0.840   0.360 -0.9248  0.7966 -0.9070
   55TMC2    H2  861   1.066   0.806   0.166 -0.5778 -0.6512  1.3249
   55TMC2    C7  862   0.913   0.684   0.344 -0.0744 -0.6913  0.3653
   55TMC2    C8  863   1.048   1.038   0.052 -0.7006  0.0144  0.2736
   55TMC2    O1  864   0.986   0.615   0.280 -0.0655 -0.6028 -0.1176
   55TMC2    O2  865   1.016   1.114  17.701 -0.4295  0.2454 -0.0972
   55TMC2    O5  866   1.168   1.023   0.110  0.1713 -0.1404 -0.3569
   55TMC2    H5  867   1.169   0.954   0.180 -0.9445  0.3401  0.1419
   56MPD2     C  868   0.530   1.424   0.180 -0.7260  0.4341  0.4204
   56MPD2    C1  869   0.514   1.297   0.240  0.2648  0.1692 -0.7397
   56MPD2    C2  870   0.402   1.274   0.314 -0.3250 -0.4167 -1.0561
   56MPD2    C3  871   0.299   1.369   0.321 -0.0774  0.0743 -0.1412
   56MPD2    C4  872   0.316   1.496   0.254 -0.0558  0.1655 -0.3455
   56MPD2    C5  873   0.431   1.519   0.186  0.4879 -0.9239 -0.3796
   56MPD2     H  874   0.384   1.172   0.345 -0.0031 -0.1966 -0.1572
   56MPD2    H1  875   0.243   1.577   0.254 -1.2291 -0.8926 -2.1076
   56MPD2    H2  876   0.619   1.456   0.127 -0.0572 -1.1658  0.5858
   56MPD2    H3  877   0.442   1.615   0.135 -2.7755  0.9825  2.4910
   56MPD2     N  878   0.178   1.336   0.384  0.8530 -0.0052 -0.1531
   56MPD2    H5  879   0.180   1.248   0.436 -2.3518  0.1306  0.2154
   56MPD2    N1  880   0.621   1.203   0.232 -0.2738 -0.3664 -0.4467
   56MPD2    H7  881   0.702   1.237   0.180  1.2762 -0.9903  1.5611
   57TMC2    C1  882   3.755   1.405  12.937 -0.1229  0.7707  0.2238
   57TMC2    C2  883   3.746   1.320  12.830 -0.0947  0.2909  0.2990
   57TMC2    C3  884   3.855   1.242  12.801 -0.0879  0.7013 -0.5727
   57TMC2    C4  885   3.870   1.436  12.997  0.2325 -0.7707 -0.5881
   57TMC2    C5  886   3.982   1.367  12.957 -0.5981 -0.1299 -0.5932
   57TMC2    C6  887   3.974   1.262  12.867 -0.7656  0.3538  0.1550
   57TMC2     C  888   3.635   1.421  13.028 -0.3448  0.5528 -0.0235
   57TMC2     O  889   3.649   1.508  13.112 -0.3204  0.3938 -0.0037
   57TMC2     H  890   3.657   1.305  12.770  0.7878 -1.9758 -0.4421
   57TMC2    H1  891   3.883   1.511  13.074  3.5768 -1.6576 -0.2573
   57TMC2    H2  892   4.061   1.205  12.837 -2.1039 -1.3347 -0.5534
   57TMC2    C7  893   4.107   1.360  13.044 -0.5311 -0.4824 -0.7586
   57TMC2    C8  894   3.833   1.142  12.692  0.3324 -0.8497 -0.4123
   57TMC2    O1  895   4.145   1.464  13.095 -0.0025 -0.3848  0.1382
   57TMC2    O2  896   3.754   1.159  12.600  0.1782  0.2399  0.7063
   57TMC2    O5  897   3.918   1.039  12.702  0.1258 -0.0096  0.1815
   57TMC2    H5  898   3.966   1.046  12.788  0.6327  0.6388 -0.1544
   58MPD2     C  899   3.263   1.199  13.285 -0.0547  0.3842 -0.5816
   58MPD2    C1  900   3.380   1.242  13.335  0.8652 -0.3590 -0.3853
   58MPD2    C2  901   3.475   1.297  13.244  0.6740  0.0171  0.4271
   58MPD2    C3  902   3.454   1.279  13.109 -0.4393  0.0312 -0.0155
   58MPD2    C4  903   3.343   1.210  13.060 -0.0039  0.0866 -0.6509
   58MPD2    C5  904   3.242   1.177  13.148 -0.0029  0.6319 -0.2025
   58MPD2     H  905   3.560   1.349  13.286 -0.1322  1.4590  0.2959
   58MPD2    H1  906   3.328   1.182  12.956  0.4587 -1.2551 -0.3666
   58MPD2    H2  907   3.181   1.172  13.349  0.4046  1.6196  0.5238
   58MPD2    H3  908   3.147   1.139  13.111 -1.5051  3.7538  0.4614
   58MPD2     N  909   3.541   1.325  13.010  0.1084  0.2311  0.6639
   58MPD2    H5  910   3.524   1.290  12.916 -0.4052  1.0672  0.4438
   58MPD2    N1  911   3.395   1.258  13.467  0.3911  0.6400  0.3447
   58MPD2    H7  912   3.322   1.233  13.533  0.3589  0.3306  0.1923
   59TMC2    C1  913   1.751   1.498  12.633  0.5257 -1.0749 -0.3710
   59TMC2    C2  914   1.813   1.372  12.623 -0.0751 -0.1850 -0.1343
   59TMC2    C3  915   1.741   1.275  12.549 -1.5186 -0.5101  0.5888
   59TMC2    C4  916   1.638   1.531  12.561 -0.3502 -0.4682  0.2154
   59TMC2    C5  917   1.583   1.431  12.482  1.1381  0.2288 -0.3310
   59TMC2    C6  918   1.628   1.302  12.476 -0.7772 -0.3253 -0.2536
   59TMC2     C  919   1.827   1.606  12.695 -0.1775 -0.3451  0.4808
   59TMC2     O  920   1.778   1.718  12.687  0.8771  0.5433  0.0508
   59TMC2     H  921   1.900   1.340  12.680  0.4430 -1.0812 -1.4315
   59TMC2    H1  922   1.592   1.626  12.586 -0.1691 -1.0408  2.7962
   59TMC2    H2  923   1.584   1.243  12.397  0.4923 -0.7595 -0.6296
   59TMC2    C7  924   1.473   1.471  12.398 -0.0777  0.2305  0.2068
   59TMC2    C8  925   1.809   1.148  12.528 -0.3146 -0.0192 -0.1188
   59TMC2    O1  926   1.406   1.381  12.348  0.0451 -0.0087 -0.3018
   59TMC2    O2  927   1.920   1.137  12.572 -0.7651  0.1289 -0.3944
   59TMC2    O5  928   1.729   1.051  12.478 -0.2008  0.4619 -0.5114
   59TMC2    H5  929   1.633   1.069  12.484 -0.4723 -0.6012 -1.6349
   60MPD2     C  930   2.036   1.775  12.807 -0.2920 -0.0338 -0.6925
   60MPD2    C1  931   2.013   1.646  12.852 -0.5343 -0.2956  0.7313
   60MPD2    C2  932   2.088   1.603  12.963 -0.4069  0.5696  0.1622
   60MPD2    C3  933   2.169   1.694  13.029  0.2609  0.0251  0.3703
   60MPD2    C4  934   2.198   1.815  12.966 -0.7195  0.3999  0.3655
   60MPD2    C5  935   2.123   1.859  12.864  0.6282 -0.0059  1.1945
   60MPD2     H  936   2.068   1.503  13.001  1.7355  0.8542  1.9894
   60MPD2    H1  937   2.253   1.897  13.010  2.4290 -1.2149 -0.5289
   60MPD2    H2  938   1.987   1.814  12.719 -1.1243  0.9793  0.2103
   60MPD2    H3  939   2.117   1.958  12.821  1.7783 -0.4309  0.0552
   60MPD2     N  940   2.242   1.668  13.143  0.2390 -0.0480 -0.8317
   60MPD2    H5  941   2.319   1.730  13.166 -1.0909  1.3787 -0.2385
   60MPD2    N1  942   1.932   1.555  12.775  1.0435 -0.1056  0.2695
   60MPD2    H7  943   1.944   1.457  12.797 -0.9622 -0.5726 -0.7689
   61TMC2    C1  944   1.524   2.208  15.066  0.7589  0.8036 -0.2832
   61TMC2    C2  945   1.561   2.112  15.155  0.5331  0.3113  0.3584
   61TMC2    C3  946   1.542   2.140  15.282  0.5013 -0.9330 -0.7789
   61TMC2    C4  947   1.469   2.327  15.103  0.4909 -0.1981  0.8514
   61TMC2    C5  948   1.485   2.358  15.236 -0.2091 -0.5654 -0.4221
   61TMC2    C6  949   1.516   2.264  15.328 -0.2971 -0.1465 -0.0298
   61TMC2     C  950   1.493   2.150  14.932  0.1834  0.7570  0.2231
   61TMC2     O  951   1.439   2.038  14.932  0.6657  0.1210 -0.3759
   61TMC2     H  952   1.598   2.016  15.121  0.3767 -0.6797  2.8989
   61TMC2    H1  953   1.449   2.400  15.024  1.3266 -1.1021 -0.1937
   61TMC2    H2  954   1.507   2.276  15.435 -1.3337  0.0083 -0.1411
   61TMC2    C7  955   1.458   2.494  15.266 -0.0925  0.6725  0.1862
   61TMC2    C8  956   1.519   2.035  15.371 -1.1130  0.5443  0.3062
   61TMC2    O1  957   1.439   2.579  15.180  0.1691 -0.3626  0.4708
   61TMC2    O2  958   1.526   2.046  15.496  0.1262  0.4749 -0.2200
   61TMC2    O5  959   1.468   1.934  15.300  0.3199  0.2605  0.1016
   61TMC2    H5  960   1.444   1.967  15.211  0.6236 -1.4890 -0.6425
   62MPD2     C  961   1.458   2.089  14.633 -0.0259 -0.0902 -0.5075
   62MPD2    C1  962   1.549   2.184  14.675  0.3940  0.4074  0.7295
   62MPD2    C2  963   1.610   2.260  14.578  0.0302 -0.3898 -0.3957
   62MPD2    C3  964   1.578   2.247  14.443 -0.1972  0.0463  0.2899
   62MPD2    C4  965   1.494   2.146  14.405 -0.7504 -1.1572  0.1305
   62MPD2    C5  966   1.433   2.072  14.504 -0.3724 -0.3233  0.1370
   62MPD2     H  967   1.681   2.332  14.617  0.2464 -2.5663  3.2713
   62MPD2    H1  968   1.474   2.122  14.301 -0.5953 -0.0401 -0.1586
   62MPD2    H2  969   1.411   2.021  14.703  0.5921 -0.9350 -0.9157
   62MPD2    H3  970   1.364   1.993  14.476  0.4602 -1.4296  1.1815
   62MPD2     N  971   1.618   2.334  14.344 -0.0193 -0.2330 -0.1321
   62MPD2    H5  972   1.575   2.323  14.253 -1.0973 -1.2715  0.5122
   62MPD2    N1  973   1.549   2.216  14.823 -0.0505  0.0680 -0.5124
   62MPD2    H7  974   1.609   2.291  14.855 -0.3079  0.0397  0.0298
   63TMC2    C1  975   4.308   2.693  10.141 -0.0184 -0.9289  0.2979
   63TMC2    C2  976   4.247   2.633  10.036 -0.1441 -0.7011 -1.0301
   63TMC2    C3  977   4.172   2.709   9.948 -0.3697  0.2019  0.8889
   63TMC2    C4  978   4.281   2.830  10.166 -0.4100  0.6091 -0.0482
   63TMC2    C5  979   4.191   2.900  10.086  0.0126 -0.0812 -0.7213
   63TMC2    C6  980   4.137   2.838   9.975 -0.4074 -0.1258  0.4522
   63TMC2     C  981   4.442   2.657  10.157 -0.1214 -0.1538 -0.1982
   63TMC2     O  982   4.481   2.542  10.173  0.3273 -0.1796 -0.1900
   63TMC2     H  983   4.283   2.538   9.998 -0.0068 -0.8882 -0.4166
   63TMC2    H1  984   4.317   2.874  10.258 -0.7835  0.0357  0.3784
   63TMC2    H2  985   4.088   2.897   9.898  0.7380  0.6524  0.3223
   63TMC2    C7  986   4.254   3.029  10.069  0.0952 -0.5729 -0.1387
   63TMC2    C8  987   4.115   2.650   9.826 -0.7385 -0.4114  0.3659
   63TMC2    O1  988   4.369   3.038  10.107 -0.2789  0.3891 -0.1103
   63TMC2    O2  989   4.085   2.718   9.727 -0.1715  0.0053  0.3450
   63TMC2    O5  990   4.046   2.535   9.859 -0.2504 -0.1513 -0.4104
   63TMC2    H5  991   4.069   2.491   9.943 -0.3304  1.0486  0.2344
   64MPD2     C  992   0.168   2.832  10.291  0.0850  0.0066  0.3444
   64MPD2    C1  993   0.114   2.710  10.307 -0.0795  0.1714  0.1717
   64MPD2    C2  994   4.718   2.680  10.266 -0.1073 -0.0421  0.2530
   64MPD2    C3  995   4.646   2.785  10.211 -0.0689  0.0217  0.2906
   64MPD2    C4  996   4.705   2.908  10.189 -0.2706  0.4844  0.5160
   64MPD2    C5  997   0.096   2.931  10.234 -0.2290 -0.3182 -1.0447
   64MPD2     H  998   4.687   2.576  10.272 -2.0577  0.4759 -1.0738
   64MPD2    H1  999   4.661   2.994  10.141 -1.2629 -1.0608 -1.3699
   64MPD2    H2 1000   0.269   2.855  10.323 -0.7793  3.9424  0.1794
   64MPD2    H3 1001   0.156   3.017  10.207 -0.3869  0.3841  0.8474
   64MPD2     N 1002   4.512   2.770  10.163 -0.7461 -0.8411 -0.1568
   64MPD2    H5 1003   4.476   2.861  10.139  0.6830 -0.3121 -0.3163
   64MPD2    N1 1004   0.189   2.597  10.347 -0.4583  0.1237 -0.0694
   64MPD2    H7 1005   0.149   2.510  10.379  0.3737  0.1162  0.9759
   65TMC2    C1 1006   1.862   2.638  15.702  0.4882 -0.1301 -0.0188
   65TMC2    C2 1007   1.875   2.615  15.569 -0.3257 -0.3348  0.1617
   65TMC2    C3 1008   1.872   2.717  15.479 -0.2558  0.1077 -0.2414
   65TMC2    C4 1009   1.852   2.767  15.747 -0.1449 -0.3544  0.1075
   65TMC2    C5 1010   1.858   2.867  15.649 -0.1766 -0.4561 -0.2069
   65TMC2    C6 1011   1.872   2.851  15.518 -1.0828 -1.1516 -1.0062
   65TMC2     C 1012   1.851   2.525  15.795  0.1839 -0.8423  0.8032
   65TMC2     O 1013   1.837   2.549  15.914 -0.7605 -0.6664 -0.8089
   65TMC2     H 1014   1.871   2.515  15.529  1.7536 -0.2475 -0.3167
   65TMC2    H1 1015   1.848   2.782  15.854  1.3224  1.0807 -0.0264
   65TMC2    H2 1016   1.886   2.933  15.449 -0.1536  1.4321  2.2633
   65TMC2    C7 1017   1.819   3.002  15.675 -0.3473  0.4709  0.1017
   65TMC2    C8 1018   1.867   2.676  15.342 -0.2436  0.0997 -0.3289
   65TMC2    O1 1019   1.783   3.069  15.576 -0.0724 -0.2310  0.4823
   65TMC2    O2 1020   1.846   2.557  15.316  0.1798 -0.4098  0.0580
   65TMC2    O5 1021   1.940   2.760  15.268  0.2331  0.0463 -0.1801
   65TMC2    H5 1022   1.968   2.849  15.298  1.1569 -0.6248  0.9424
   66MPD2     C 1023   1.788   2.266  15.929  0.1539 -0.2659 -0.4399
   66MPD2    C1 1024   1.834   2.281  15.793 -0.3253  0.1736 -0.0123
   66MPD2    C2 1025   1.842   2.173  15.705 -0.2026 -0.3657 -0.4876
   66MPD2    C3 1026   1.798   2.053  15.750  0.4210 -0.0593 -0.3891
   66MPD2    C4 1027   1.750   2.041  15.881 -0.1518 -0.1660 -0.4458
   66MPD2    C5 1028   1.748   2.142  15.968  0.4610  0.1542 -0.2315
   66MPD2     H 1029   1.884   2.178  15.605  0.1082  1.8098 -0.2581
   66MPD2    H1 1030   1.708   1.946  15.912  0.8952 -0.1176  1.1394
   66MPD2    H2 1031   1.778   2.346  16.001 -1.3640  0.3135 -1.2814
   66MPD2    H3 1032   1.714   2.121  16.069  2.1782  1.2636  0.5632
   66MPD2     N 1033   1.795   1.932  15.679 -0.2231  0.0289 -0.0350
   66MPD2    H5 1034   1.755   1.858  15.736 -1.2030 -0.4433 -1.3405
   66MPD2    N1 1035   1.858   2.404  15.735 -0.1751  0.0964  0.1983
   66MPD2    H7 1036   1.885   2.400  15.637 -1.9512 -0.6082 -0.2719
   67TMC2    C1 1037   2.092   1.354  14.336  0.5865 -0.8485 -0.4691
   67TMC2    C2 1038   1.975   1.421  14.350  0.6725  0.0314 -0.3384
   67TMC2    C3 1039   1.977   1.520  14.452 -0.1377 -0.1866  0.9221
   67TMC2    C4 1040   2.204   1.393  14.403  0.3782 -0.1719 -0.5838
   67TMC2    C5 1041   2.196   1.488  14.493  0.2176 -0.3992 -0.6859
   67TMC2    C6 1042   2.085   1.555  14.527  0.1609 -0.0605 -0.2217
   67TMC2     C 1043   2.088   1.223  14.274 -0.4342  0.9425  0.0015
   67TMC2     O 1044   2.161   1.146  14.336 -0.5708  0.0003  0.3752
   67TMC2     H 1045   1.879   1.393  14.308 -0.1471  2.7344 -0.2554
   67TMC2    H1 1046   2.296   1.336  14.397  0.9757  0.4463  2.3941
   67TMC2    H2 1047   2.081   1.636  14.599 -0.6057  0.3803 -0.7607
   67TMC2    C7 1048   2.316   1.529  14.560  0.5190 -0.2924 -0.1296
   67TMC2    C8 1049   1.874   1.621  14.442 -0.5895  1.2140 -0.5237
   67TMC2    O1 1050   2.429   1.527  14.508  0.1525 -0.6693  0.5725
   67TMC2    O2 1051   1.802   1.625  14.344 -0.4873  0.4797  0.2240
   67TMC2    O5 1052   1.858   1.701  14.549 -0.1914 -0.2615  0.0532
   67TMC2    H5 1053   1.907   1.671  14.629 -1.2448 -2.3132 -0.0836
   68MPD2     C 1054   2.059   0.970  14.106  0.2191 -0.5059  0.0127
   68MPD2    C1 1055   2.020   1.101  14.067  0.2543 -0.7517 -0.3110
   68MPD2    C2 1056   1.984   1.124  13.936 -0.6576  0.1615  0.7553
   68MPD2    C3 1057   1.990   1.024  13.838  0.6151 -0.1987  0.4810
   68MPD2    C4 1058   2.037   0.899  13.878 -0.8496  0.1052  0.6152
   68MPD2    C5 1059   2.057   0.874  14.011 -0.3174  0.0702 -0.2396
   68MPD2     H 1060   1.953   1.224  13.910 -1.6090 -0.0201  1.1871
   68MPD2    H1 1061   2.050   0.825  13.800  0.4068 -1.0508  1.9301
   68MPD2    H2 1062   2.088   0.946  14.208 -0.7669  2.1807  0.9238
   68MPD2    H3 1063   2.083   0.773  14.043 -0.6730  0.1994  0.4532
   68MPD2     N 1064   1.956   1.033  13.702  0.3724 -0.3002 -0.5037
   68MPD2    H5 1065   1.970   0.949  13.647  2.6252 -0.0244 -0.3500
   68MPD2    N1 1066   2.027   1.217  14.148  0.2882 -0.5426  0.3735
   68MPD2    H7 1067   1.981   1.302  14.115 -2.0993 -1.8497  0.3156
   69TMC2    C1 1068   4.052   3.234  12.631 -0.6157 -0.5375 -0.4736
   69TMC2    C2 1069   3.955   3.320  12.648 -0.2015  0.8475  0.8393
   69TMC2    C3 1070   3.893   3.378  12.542  0.0701 -0.0147  0.0948
   69TMC2    C4 1071   4.088   3.181  12.506 -0.0284  0.1176  0.6282
   69TMC2    C5 1072   4.006   3.217  12.401  0.4606  0.0203 -0.7871
   69TMC2    C6 1073   3.909   3.318  12.419  0.1927 -0.0148  0.5466
   69TMC2     C 1074   4.090   3.155  12.743 -0.5944 -0.1216 -0.1278
   69TMC2     O 1075   3.999   3.130  12.819  0.0356 -0.2472 -0.2935
   69TMC2     H 1076   3.943   3.363  12.746  1.4636  0.7518  1.0880
   69TMC2    H1 1077   4.163   3.105  12.488 -1.5167 -1.2384  0.1854
   69TMC2    H2 1078   3.845   3.352  12.338 -0.5385 -1.5567  0.4867
   69TMC2    C7 1079   4.064   3.197  12.275  0.7565  0.0662 -0.1475
   69TMC2    C8 1080   3.822   3.500  12.566  0.4737  0.2280  0.6236
   69TMC2    O1 1081   4.187   3.212  12.283 -0.2228 -0.5013  0.5434
   69TMC2    O2 1082   3.755   3.510  12.667 -0.3424  0.2481 -0.0268
   69TMC2    O5 1083   3.816   3.570  12.454 -0.7785  0.0280  0.4575
   69TMC2    H5 1084   3.851   3.529  12.372  0.8813  1.4787  0.4373
   70MPD2     C 1085   4.397   2.949  12.783 -0.1827  0.4286  0.1290
   70MPD2    C1 1086   4.261   2.973  12.801 -0.6191  0.6257 -0.0574
   70MPD2    C2 1087   4.177   2.877  12.860 -0.1906  0.2699  0.3234
   70MPD2    C3 1088   4.235   2.753  12.886  0.3255 -0.7675  0.6879
   70MPD2    C4 1089   4.371   2.734  12.877  0.4500  0.1194 -0.2190
   70MPD2    C5 1090   4.451   2.833  12.827 -0.7161  0.9585  0.2522
   70MPD2     H 1091   4.070   2.893  12.867 -0.2777 -0.9971  2.0039
   70MPD2    H1 1092   4.419   2.638  12.896 -0.9129 -0.1066  2.0164
   70MPD2    H2 1093   4.470   3.023  12.751 -0.6536 -0.2279 -2.4433
   70MPD2    H3 1094   4.558   2.822  12.812 -0.6707 -0.0823  1.3697
   70MPD2     N 1095   4.163   2.637  12.919  0.2732  0.3426 -0.6437
   70MPD2    H5 1096   4.219   2.552  12.925 -0.5703 -0.0525  1.4985
   70MPD2    N1 1097   4.217   3.095  12.737 -0.7219 -0.5508  0.5705
   70MPD2    H7 1098   4.265   3.125  12.652  0.6455  0.1538  1.5922
   71TMC2    C1 1099   1.901   3.578   1.875 -0.5997  0.1666 -0.2525
   71TMC2    C2 1100   2.020   3.596   1.938 -0.3489  0.6616 -0.3463
   71TMC2    C3 1101   2.010   3.655   2.064 -0.7883  0.0074  0.2988
   71TMC2    C4 1102   1.782   3.627   1.916  0.7215 -0.2007 -0.7561
   71TMC2    C5 1103   1.779   3.693   2.039 -0.4700  0.2987  0.0941
   71TMC2    C6 1104   1.894   3.702   2.115  0.8960  0.0870 -1.1803
   71TMC2     C 1105   1.902   3.483   1.768  0.5152  0.4382  0.1334
   71TMC2     O 1106   2.007   3.467   1.704  0.0870  0.1544 -0.1296
   71TMC2     H 1107   2.114   3.559   1.898 -0.0060  2.8600 -1.5793
   71TMC2    H1 1108   1.695   3.607   1.855  0.9814  1.6285 -1.7151
   71TMC2    H2 1109   1.902   3.736   2.217 -1.5125 -1.6686 -0.4151
   71TMC2    C7 1110   1.663   3.769   2.081  0.1652 -0.5580  0.2494
   71TMC2    C8 1111   2.133   3.690   2.126  0.6661 -0.0122  1.5315
   71TMC2    O1 1112   1.685   3.821   2.185  0.3054  0.8838  0.6164
   71TMC2    O2 1113   2.136   3.784   2.202 -0.3081  0.2957 -0.2448
   71TMC2    O5 1114   2.204   3.572   2.128  0.3228 -0.0575 -0.0733
   71TMC2    H5 1115   2.181   3.502   2.064 -2.9028  1.1259 -0.1905
   72MPD2     C 1116   1.667   3.221   1.390 -1.0449 -0.2323  0.5839
   72MPD2    C1 1117   1.768   3.308   1.389 -0.2072  0.0700  0.2189
   72MPD2    C2 1118   1.811   3.364   1.513  0.5162  0.0334  0.4308
   72MPD2    C3 1119   1.752   3.338   1.637  0.4182 -0.4252  0.0226
   72MPD2    C4 1120   1.644   3.254   1.628  0.5473  0.4374 -0.1081
   72MPD2    C5 1121   1.601   3.198   1.506 -0.4368  0.2971  0.0995
   72MPD2     H 1122   1.891   3.437   1.511  0.4411  0.0631 -1.0970
   72MPD2    H1 1123   1.593   3.225   1.719  0.7371 -1.2194 -0.5319
   72MPD2    H2 1124   1.638   3.172   1.298  0.8788  0.9369 -0.6409
   72MPD2    H3 1125   1.514   3.133   1.503 -0.6960  0.8180 -4.2899
   72MPD2     N 1126   1.786   3.407   1.758 -0.0093 -0.3560  1.0313
   72MPD2    H5 1127   1.730   3.412   1.842  0.7492 -0.2438  1.5261
   72MPD2    N1 1128   1.833   3.341   1.271 -0.3457  0.4010 -0.0065
   72MPD2    H7 1129   1.914   3.398   1.295  1.9983 -1.7686 -2.6701
   73TMC2    C1 1130   1.098   0.363  13.994 -0.4558  0.1062 -0.3485
   73TMC2    C2 1131   1.155   0.473  14.041 -0.0501 -0.2695 -1.1363
   73TMC2    C3 1132   1.258   0.456  14.127 -0.4967 -0.4080 -0.0437
   73TMC2    C4 1133   1.147   0.232  14.007 -1.2069  0.7156  0.6810
   73TMC2    C5 1134   1.264   0.223  14.078  0.3327 -0.3163 -0.7561
   73TMC2    C6 1135   1.322   0.332  14.143  0.2022 -0.2778  0.5031
   73TMC2     C 1136   1.036   0.375  13.861 -0.5610  0.1151 -0.0637
   73TMC2     O 1137   1.081   0.289  13.792 -0.0670 -0.0389  1.2999
   73TMC2     H 1138   1.115   0.572  14.021  0.3349 -0.0975 -1.0631
   73TMC2    H1 1139   1.109   0.142  13.961 -1.6481  1.4444 -0.3675
   73TMC2    H2 1140   1.404   0.330  14.213 -0.0045 -1.6109  0.7045
   73TMC2    C7 1141   1.365   0.156  13.997  0.3326  0.1703 -0.1473
   73TMC2    C8 1142   1.340   0.571  14.170 -0.2005  0.5076  0.5531
   73TMC2    O1 1143   1.471   0.116  14.045  0.1447  0.2378 -0.4209
   73TMC2    O2 1144   1.453   0.566  14.212  0.1686  0.5618  0.1724
   73TMC2    O5 1145   1.259   0.681  14.176  0.0798  0.2256  0.6561
   73TMC2    H5 1146   1.164   0.658  14.183  0.1643 -0.0520  0.8729
   74MPD2     C 1147   0.758   0.531  13.463  0.1724  0.7686 -0.3872
   74MPD2    C1 1148   0.882   0.461  13.467  0.2867 -0.0549 -0.0954
   74MPD2    C2 1149   0.932   0.437  13.594 -0.2049  0.3270 -0.1434
   74MPD2    C3 1150   0.867   0.480  13.708 -0.3584  0.0881  0.0033
   74MPD2    C4 1151   0.746   0.552  13.698 -0.0177 -0.0306 -0.0526
   74MPD2    C5 1152   0.689   0.573  13.572 -0.2839 -0.6424 -0.6260
   74MPD2     H 1153   1.023   0.378  13.593  0.8361  1.8995  2.3846
   74MPD2    H1 1154   0.685   0.583  13.782 -0.2645  0.8259 -0.5476
   74MPD2    H2 1155   0.718   0.563  13.367 -1.5685 -0.6889 -0.1492
   74MPD2    H3 1156   0.601   0.636  13.564  1.1162  1.4626  0.4120
   74MPD2     N 1157   0.931   0.463  13.835  0.3593  0.0954  0.5027
   74MPD2    H5 1158   0.891   0.513  13.913 -0.4506 -0.9890  0.7910
   74MPD2    N1 1159   0.940   0.404  13.345  0.5627  0.1245  0.4407
   74MPD2    H7 1160   0.907   0.441  13.256 -0.4695 -0.0019  0.7783
   75TMC2    C1 1161   1.874   1.108  13.497 -0.4219 -0.4499 -0.1553
   75TMC2    C2 1162   1.974   1.038  13.444 -0.1194  0.3497  0.3298
   75TMC2    C3 1163   1.954   0.993  13.321 -0.0907  0.0635  0.3109
   75TMC2    C4 1164   1.769   1.156  13.429  0.3060 -0.0295 -0.1009
   75TMC2    C5 1165   1.762   1.121  13.298  0.0513  0.2310  0.3589
   75TMC2    C6 1166   1.852   1.034  13.246 -0.6367 -0.0105  0.0446
   75TMC2     C 1167   1.889   1.139  13.638 -0.0511 -0.4264 -0.0089
   75TMC2     O 1168   1.839   1.236  13.695 -0.0007 -0.0001  0.3942
   75TMC2     H 1169   2.067   1.015  13.495  0.8463  1.2529 -1.0364
   75TMC2    H1 1170   1.703   1.226  13.478  0.0553  1.5499 -2.6858
   75TMC2    H2 1171   1.861   0.994  13.145 -0.2473  1.7113 -0.6081
   75TMC2    C7 1172   1.627   1.138  13.238  0.1805 -0.8727  0.1026
   75TMC2    C8 1173   2.058   0.904  13.268  0.8139  0.4131 -0.4125
   75TMC2    O1 1174   1.554   1.226  13.278 -0.6433  0.1641 -0.4045
   75TMC2    O2 1175   2.095   0.918  13.153  0.4246  0.8901  0.0664
   75TMC2    O5 1176   2.033   0.786  13.332 -0.1062  0.3470 -0.0869
   75TMC2    H5 1177   1.984   0.782  13.417  0.0069 -0.3475 -0.0579
   76TMC2    C1 1178   0.029   2.105  12.131  0.0782 -0.2673  0.7127
   76TMC2    C2 1179   4.638   2.056  12.119 -0.1188 -0.0413 -0.2283
   76TMC2    C3 1180   4.614   1.925  12.152 -0.2020 -0.2439 -0.2718
   76TMC2    C4 1181   0.129   2.032  12.180  0.2074 -0.7079 -0.4924
   76TMC2    C5 1182   0.100   1.900  12.214  0.1317  0.4814  0.5337
   76TMC2    C6 1183   4.713   1.841  12.192 -0.1610 -0.2886 -0.1660
   76TMC2     C 1184   0.039   2.249  12.116  0.0890 -0.2733 -0.4220
   76TMC2     O 1185   4.674   2.314  12.082  0.0096  0.2399 -0.5693
   76TMC2     H 1186   4.557   2.116  12.079  0.1583  1.2050  1.0541
   76TMC2    H1 1187   0.231   2.068  12.179  0.3573 -1.1799 -3.1561
   76TMC2    H2 1188   4.689   1.745  12.236  2.0787 -1.0753 -0.6544
   76TMC2    C7 1189   0.200   1.812  12.267 -0.1038 -0.3838  0.3548
   76TMC2    C8 1190   4.492   1.863  12.111  0.1346  0.1467  0.5611
   76TMC2    O1 1191   0.171   1.694  12.260  0.0664  0.5169 -0.0238
   76TMC2    O2 1192   4.491   1.745  12.089  0.3784  0.2726  0.1537
   76TMC2    O5 1193   4.391   1.949  12.087 -0.1182 -0.3378 -0.1107
   76TMC2    H5 1194   4.398   2.043  12.113 -2.1538  0.1964 -1.5120
   77MPD2     C 1195   0.308   2.683  12.057 -0.2689  0.0268  0.5109
   77MPD2    C1 1196   0.176   2.650  12.029  0.3064  0.6215 -0.1695
   77MPD2    C2 1197   0.136   2.524  12.052  0.7354 -0.3553 -0.2827
   77MPD2    C3 1198   0.214   2.433  12.117  0.4021  0.3892 -0.6060
   77MPD2    C4 1199   0.342   2.470  12.158  0.2186 -1.2638 -0.7846
   77MPD2    C5 1200   0.391   2.596  12.127  0.3926 -0.3632  0.7049
   77MPD2     H 1201   0.042   2.485  12.017  0.6169  0.9887 -1.4807
   77MPD2    H1 1202   0.414   2.402  12.203 -0.5228 -1.2201  0.4895
   77MPD2    H2 1203   0.349   2.782  12.043 -0.2000 -0.3158 -1.7254
   77MPD2    H3 1204   0.482   2.627  12.176  0.7263 -0.9251  0.4397
   77MPD2     N 1205   0.166   2.298  12.135 -0.5358  0.0458  0.5512
   77MPD2    H5 1206   0.241   2.242  12.175 -2.3950 -3.0688 -0.3550
   77MPD2    N1 1207   0.082   2.736  11.961  0.2009  0.2729  0.0475
   77MPD2    H7 1208   4.723   2.700  11.951  0.8750 -1.2156 -0.9599
   78TMC2    C1 1209   2.257   2.060   1.490  0.6944  0.0665  0.2428
   78TMC2    C2 1210   2.285   1.946   1.423  0.1401  0.2221  0.2073
   78TMC2    C3 1211   2.270   1.953   1.293 -0.5613 -0.3451  0.3941
   78TMC2    C4 1212   2.196   2.174   1.434 -0.0124  0.4344 -0.0879
   78TMC2    C5 1213   2.192   2.170   1.299 -0.2152  0.5890  0.0892
   78TMC2    C6 1214   2.225   2.060   1.224  0.7685 -0.5235  0.0336
   78TMC2     C 1215   2.289   2.057   1.633  0.0085 -0.5764  0.1274
   78TMC2     O 1216   2.295   1.952   1.699  0.2932  0.2110  0.0007
   78TMC2     H 1217   2.317   1.855   1.472 -2.0067 -0.8253 -0.3207
   78TMC2    H1 1218   2.170   2.262   1.491 -2.2963  1.1429 -2.2011
   78TMC2    H2 1219   2.238   2.054   1.117 -0.3165  1.0996 -0.1960
   78TMC2    C7 1220   2.154   2.291   1.234  0.6944 -0.4698 -1.1319
   78TMC2    C8 1221   2.331   1.847   1.213 -0.3133  0.5715 -0.2390
   78TMC2    O1 1222   2.178   2.392   1.301 -0.1570  0.6087 -1.0081
   78TMC2    O2 1223   2.344   1.732   1.256  0.2905  0.2036  0.2122
   78TMC2    O5 1224   2.444   1.921   1.172 -0.1497 -0.0902  0.4597
   78TMC2    H5 1225   2.427   2.017   1.174 -1.0046 -0.2395  0.7778
   79MPD1     C 1226   2.312   2.308   2.068  0.1485  0.0032  0.2264
   79MPD1    C1 1227   2.358   2.183   2.042 -0.2364 -0.0420 -0.3321
   79MPD1    C2 1228   2.338   2.134   1.912 -0.3301  0.3979 -0.3932
   79MPD1    C3 1229   2.303   2.222   1.811 -0.3873 -0.0164 -0.0938
   79MPD1    C4 1230   2.292   2.360   1.838 -0.2905 -0.1001  0.1249
   79MPD1    C5 1231   2.292   2.401   1.970 -0.7655 -0.0479 -0.2354
   79MPD1     H 1232   2.354   2.028   1.897 -1.9594 -0.0331  0.8511
   79MPD1    H1 1233   2.277   2.433   1.760 -0.5898  0.2277  0.4880
   79MPD1    H2 1234   2.287   2.348   2.165 -1.4345  0.5358 -0.4065
   79MPD1    H3 1235   2.284   2.503   2.006  2.2786 -0.0109  0.3356
   79MPD1     N 1236   2.281   2.182   1.680 -0.1024  0.0770 -0.3676
   79MPD1    H5 1237   2.279   2.253   1.607  0.7555  1.1331  0.6409
   79MPD1    N1 1238   2.376   2.092   2.145  0.7980 -0.1760 -0.0785
   79MPD1    H6 1239   2.422   2.008   2.110 -0.0188 -0.9084  0.6042
   79MPD1    H7 1240   2.445   2.135   2.206 -0.5342  2.3450 -0.3480
   80TMC2    C1 1241   3.814   2.197  11.487  0.2220  0.0581 -0.8201
   80TMC2    C2 1242   3.778   2.211  11.352 -0.1221  1.1982 -0.3136
   80TMC2    C3 1243   3.653   2.178  11.308  0.6847  0.0515  0.4428
   80TMC2    C4 1244   3.725   2.151  11.578  0.6421 -0.1667 -0.0850
   80TMC2    C5 1245   3.600   2.117  11.534  0.4799  0.2895 -0.0025
   80TMC2    C6 1246   3.564   2.137  11.407 -0.1780  0.9134  0.1023
   80TMC2     C 1247   3.940   2.263  11.523 -0.0023  1.1789  0.3131
   80TMC2     O 1248   4.013   2.309  11.434 -0.4619 -0.0043  0.1126
   80TMC2     H 1249   3.848   2.246  11.278  0.5221  2.0242  0.6924
   80TMC2    H1 1250   3.758   2.121  11.677 -0.4237  2.9842  1.2335
   80TMC2    H2 1251   3.465   2.105  11.378  1.9032 -3.8750 -1.5516
   80TMC2    C7 1252   3.503   2.043  11.617 -0.3978 -0.3265  0.3884
   80TMC2    C8 1253   3.600   2.221  11.175  0.7439 -0.3039 -1.0839
   80TMC2    O1 1254   3.405   1.996  11.558  0.6090  0.1145  0.8297
   80TMC2    O2 1255   3.477   2.210  11.168 -0.6756 -0.1087  0.7991
   80TMC2    O5 1256   3.676   2.154  11.089 -0.0547  0.0003 -0.1554
   80TMC2    H5 1257   3.771   2.179  11.096 -0.5361  1.9880 -0.8178
   81MPD2     C 1258   4.206   2.305  11.665  0.2910 -0.0053  0.1092
   81MPD2    C1 1259   4.086   2.305  11.730  0.4470 -0.5567 -0.4423
   81MPD2    C2 1260   4.081   2.342  11.862 -0.4897 -0.0589 -0.3607
   81MPD2    C3 1261   4.190   2.384  11.932 -0.7394  0.9662  0.0752
   81MPD2    C4 1262   4.314   2.374  11.877 -0.1861  0.4561  0.4879
   81MPD2    C5 1263   4.315   2.332  11.746  0.1321  0.2895  0.7388
   81MPD2     H 1264   3.985   2.336  11.912 -0.4499  1.1246 -0.1477
   81MPD2    H1 1265   4.407   2.395  11.930  0.9030 -4.2246  0.5031
   81MPD2    H2 1266   4.219   2.281  11.561 -0.7722  1.4425 -0.3693
   81MPD2    H3 1267   4.410   2.325  11.695 -0.7261  2.7962 -1.2123
   81MPD2     N 1268   4.189   2.417  12.076 -0.1720 -0.1643 -0.0095
   81MPD2    H5 1269   4.275   2.436  12.125 -1.0090 -2.9644  2.5225
   81MPD2    N1 1270   3.961   2.272  11.665  0.2448  0.0733 -0.0912
   81MPD2    H7 1271   3.878   2.260  11.722  0.1811  0.0319 -0.1925
   82TMC2    C1 1272   1.888   1.636  11.546  0.0307 -0.4379  0.2590
   82TMC2    C2 1273   2.015   1.685  11.575 -0.2856  0.3394  0.2244
   82TMC2    C3 1274   2.113   1.613  11.528  0.6544 -0.0959 -0.4652
   82TMC2    C4 1275   1.863   1.528  11.468  0.5233  0.3455 -0.0346
   82TMC2    C5 1276   1.973   1.450  11.432  0.3960 -0.2399  0.0757
   82TMC2    C6 1277   2.100   1.493  11.462  0.2346  0.6715  0.0556
   82TMC2     C 1278   1.771   1.724  11.567 -0.6724 -0.4786  0.2757
   82TMC2     O 1279   1.663   1.670  11.547  0.3325  0.5584 -0.4555
   82TMC2     H 1280   2.037   1.777  11.630  3.2308 -0.8105  0.7660
   82TMC2    H1 1281   1.761   1.493  11.456  0.5652  0.8224 -1.6627
   82TMC2    H2 1282   2.180   1.428  11.429 -1.6479 -1.1895 -0.8109
   82TMC2    C7 1283   1.961   1.306  11.425  0.0284  0.6053 -0.2206
   82TMC2    C8 1284   2.246   1.650  11.557  1.3292  0.0739  1.2857
   82TMC2    O1 1285   2.038   1.236  11.488  0.4831 -0.0899 -0.1817
   82TMC2    O2 1286   2.334   1.566  11.583  0.0567 -0.0434  0.1761
   82TMC2    O5 1287   2.263   1.760  11.489  0.2716  0.7841 -0.7672
   82TMC2    H5 1288   2.180   1.813  11.490  1.3383  2.3444  3.9647
   83MPD2     C 1289   1.539   2.171  11.605  0.1718  0.5250  0.3091
   83MPD2    C1 1290   1.480   2.046  11.579  0.0203  0.2610  0.6102
   83MPD2    C2 1291   1.573   1.944  11.553  0.2550  0.1029 -0.2754
   83MPD2    C3 1292   1.710   1.965  11.566  0.0234 -0.5265 -0.1302
   83MPD2    C4 1293   1.757   2.083  11.608 -0.2851  0.1402 -0.7158
   83MPD2    C5 1294   1.674   2.188  11.629 -0.4588 -0.1583 -0.5411
   83MPD2     H 1295   1.539   1.844  11.526  0.8074  0.1353 -1.0918
   83MPD2    H1 1296   1.861   2.108  11.622  0.3502 -1.8149 -1.9611
   83MPD2    H2 1297   1.476   2.257  11.585  1.1702  1.2322  0.1968
   83MPD2    H3 1298   1.707   2.286  11.662 -0.0811 -1.0941  1.8130
   83MPD2     N 1299   1.804   1.862  11.568  0.1201  0.2702  0.0575
   83MPD2    H5 1300   1.900   1.895  11.577 -0.2844  1.7397 -1.0274
   83MPD2    N1 1301   1.340   2.034  11.563 -0.0630  0.0338  0.3910
   83MPD2    H7 1302   1.275   2.111  11.572  0.6978  0.5197  1.6675
   84TMC2    C1 1303   3.587   0.873  11.308 -0.0324  0.3360  0.1599
   84TMC2    C2 1304   3.697   0.928  11.372  0.2112 -0.2479  0.2764
   84TMC2    C3 1305   3.805   0.921  11.289  0.1053 -0.5608 -0.4676
   84TMC2    C4 1306   3.589   0.811  11.185  0.0878 -0.3705  0.6054
   84TMC2    C5 1307   3.701   0.810  11.112  0.7558 -0.3536  0.5984
   84TMC2    C6 1308   3.813   0.870  11.163 -0.5864  0.0284  0.0128
   84TMC2     C 1309   3.451   0.897  11.370  0.1018 -1.1021 -0.6733
   84TMC2     O 1310   3.450   0.972  11.467 -0.1536 -0.1306 -0.1164
   84TMC2     H 1311   3.679   0.984  11.462  0.0768 -0.2120  0.2272
   84TMC2    H1 1312   3.498   0.766  11.145 -0.6194  0.5797  1.1498
   84TMC2    H2 1313   3.911   0.860  11.117  0.5268  0.0838  2.4119
   84TMC2    C7 1314   3.695   0.766  10.972 -0.0021 -0.6584 -0.6928
   84TMC2    C8 1315   3.911   1.016  11.321 -0.7949  0.0246 -0.2606
   84TMC2    O1 1316   3.598   0.701  10.938 -0.1097  0.3153  0.4128
   84TMC2    O2 1317   3.975   1.072  11.232 -0.5572 -0.3858  0.0799
   84TMC2    O5 1318   3.914   1.063  11.451  0.0869  0.0225  0.2430
   84TMC2    H5 1319   3.897   0.993  11.517  0.7563  1.2029  1.6523
   85TMC2    C1 1320   4.566   3.746  16.198  0.2462 -0.0463 -0.4250
   85TMC2    C2 1321   4.600   3.875  16.229  0.6651  0.1742  0.2098
   85TMC2    C3 1322   4.654   3.955  16.136  0.0975 -0.5077  0.0987
   85TMC2    C4 1323   4.601   3.698  16.075  0.3486 -0.1990 -0.0514
   85TMC2    C5 1324   4.666   3.772  15.982 -0.5045  0.1035 -0.4443
   85TMC2    C6 1325   4.680   3.909  16.007  0.7738 -0.5148  0.0654
   85TMC2     C 1326   4.502   3.661  16.299  0.7315 -0.9305  0.2251
   85TMC2     O 1327   4.505   3.697  16.414  0.2694  0.2700 -0.1771
   85TMC2     H 1328   4.582   3.901  16.333  2.2997  2.1023  0.0045
   85TMC2    H1 1329   4.596   3.590  16.064 -4.9696  0.1844 -1.4682
   85TMC2    H2 1330   0.002   3.968  15.936  0.0004  0.7360  0.4924
   85TMC2    C7 1331   4.727   3.711  15.875  0.2311  0.2655 -0.0338
   85TMC2    C8 1332   4.727   4.078  16.172  0.8484 -0.6280 -0.1361
   85TMC2    O1 1333   0.051   3.605  15.903  0.7895 -0.4023  0.5635
   85TMC2    O2 1334   0.100   4.106  16.124  0.0825 -0.2824 -0.2085
   85TMC2    O5 1335   4.636   4.164  16.212 -0.3421  0.2255  0.4130
   85TMC2    H5 1336   4.554   4.123  16.248 -0.8573 -1.6161 -2.8691
   86MPD2     C 1337   4.337   3.215  16.440 -0.0975  0.2422 -0.1917
   86MPD2    C1 1338   4.260   3.247  16.331 -0.0062  0.2049 -0.1498
   86MPD2    C2 1339   4.300   3.361  16.260  0.2260  0.6481  0.3593
   86MPD2    C3 1340   4.400   3.441  16.314  0.0853 -0.1053  0.6989
   86MPD2    C4 1341   4.462   3.416  16.431 -0.2949  0.4946 -0.0976
   86MPD2    C5 1342   4.437   3.296  16.493 -1.0175  0.0505 -0.3114
   86MPD2     H 1343   4.255   3.378  16.163  0.4973  2.0975  0.4911
   86MPD2    H1 1344   4.542   3.476  16.474 -0.0336  1.5959 -2.1037
   86MPD2    H2 1345   4.303   3.128  16.496 -0.1149  0.3332 -0.0608
   86MPD2    H3 1346   4.507   3.282  16.574 -1.2622 -0.2960 -0.1586
   86MPD2     N 1347   4.431   3.559  16.242  0.0144 -0.3741 -0.4166
   86MPD2    H5 1348   4.401   3.563  16.145  0.1935 -0.9267 -0.4936
   86MPD2    N1 1349   4.163   3.163  16.279 -0.5454  0.4023  0.0278
   86MPD2    H7 1350   4.138   3.169  16.181 -4.0218 -2.9606  0.7242
   87TMC2    C1 1351   2.020   1.604   1.275  0.0192  0.5555 -1.0132
   87TMC2    C2 1352   2.014   1.546   1.399 -0.2805 -0.7395  0.0199
   87TMC2    C3 1353   1.948   1.624   1.494  0.0650  0.1757  1.0800
   87TMC2    C4 1354   1.964   1.727   1.251 -0.1687 -0.3298 -0.4333
   87TMC2    C5 1355   1.918   1.799   1.355 -0.8591 -0.2940  0.4256
   87TMC2    C6 1356   1.898   1.749   1.480  0.7285  0.0957 -0.0454
   87TMC2     C 1357   2.086   1.532   1.162  0.4283  0.0267 -0.7527
   87TMC2     O 1358   2.070   1.579   1.051 -0.1500  0.5605  0.2038
   87TMC2     H 1359   2.042   1.445   1.424 -0.6498 -1.2853 -1.7553
   87TMC2    H1 1360   1.982   1.775   1.156 -1.5983  1.5094  0.2230
   87TMC2    H2 1361   1.866   1.796   1.572 -0.2091  1.8390 -1.2567
   87TMC2    C7 1362   1.908   1.942   1.340  0.2701 -0.0093  0.0913
   87TMC2    C8 1363   1.913   1.549   1.612 -0.0636  0.5140  0.3507
   87TMC2    O1 1364   1.906   1.977   1.223 -0.2137  0.5630 -0.5073
   87TMC2    O2 1365   1.914   1.597   1.722  0.3138 -0.5339  0.1463
   87TMC2    O5 1366   1.815   1.468   1.571  0.1979  0.6655 -0.0803
   87TMC2    H5 1367   1.813   1.470   1.473 -2.0939  0.0219 -0.0282
   88MPD2     C 1368   1.892   2.200   1.603 -0.3692  0.3642  0.1786
   88MPD2    C1 1369   1.867   2.147   1.476  0.6300  0.6903 -0.6019
   88MPD2    C2 1370   1.826   2.232   1.375  0.4434  0.1763  0.3793
   88MPD2    C3 1371   1.802   2.366   1.406  0.5738  0.4509  0.0806
   88MPD2    C4 1372   1.832   2.423   1.526  0.2054  0.1508 -0.3921
   88MPD2    C5 1373   1.872   2.336   1.624  0.4244  0.0915 -0.1928
   88MPD2     H 1374   1.816   2.190   1.276 -0.1056  1.5242 -0.1346
   88MPD2    H1 1375   1.816   2.529   1.540 -1.3688 -0.2093  0.4966
   88MPD2    H2 1376   1.933   2.139   1.682  0.0336 -0.1169 -0.4101
   88MPD2    H3 1377   1.887   2.369   1.726 -0.0825  0.8181 -0.3554
   88MPD2     N 1378   1.755   2.459   1.311  0.2415  0.4735  0.0954
   88MPD2    H5 1379   1.752   2.558   1.329 -1.4973  0.9025 -2.5233
   88MPD2    N1 1380   1.894   2.009   1.454 -0.0300  0.8325  0.1101
   88MPD2    H7 1381   1.913   1.951   1.535  1.0937 -0.5697 -1.1649
   89TMC2    C1 1382   2.786   0.774   1.644 -0.2537  0.3720 -0.3103
   89TMC2    C2 1383   2.816   0.717   1.527 -0.4117 -0.1701  0.0108
   89TMC2    C3 1384   2.917   0.767   1.456  0.2407 -0.3609  0.5560
   89TMC2    C4 1385   2.854   0.876   1.694  0.0806 -0.2217  0.0537
   89TMC2    C5 1386   2.954   0.925   1.616  0.1481 -0.9551 -0.5031
   89TMC2    C6 1387   2.991   0.874   1.493 -0.0016  0.4083  0.8488
   89TMC2     C 1388   2.721   0.699   1.745  0.0241  0.3219 -0.8720
   89TMC2     O 1389   2.663   0.764   1.826 -0.0298  0.3205 -0.1295
   89TMC2     H 1390   2.758   0.632   1.493  2.4591 -1.6431 -1.2125
   89TMC2    H1 1391   2.815   0.938   1.774  0.5827  0.1117  0.0400
   89TMC2    H2 1392   3.071   0.910   1.429 -0.5691 -1.3038 -0.8287
   89TMC2    C7 1393   3.023   1.038   1.663 -0.9477  0.6374 -0.1558
   89TMC2    C8 1394   2.954   0.683   1.345  0.3608  0.0900  0.3556
   89TMC2    O1 1395   3.007   1.057   1.783  0.3142  0.0919  0.0517
   89TMC2    O2 1396   2.914   0.568   1.331  0.5250 -0.1604 -0.4610
   89TMC2    O5 1397   2.963   0.768   1.241  0.1945 -0.4150  0.1042
   89TMC2    H5 1398   2.984   0.861   1.264  0.4814 -0.0562 -1.6267
   90MPD2     C 1399   2.640   0.243   1.985 -1.0988 -0.4401 -0.1703
   90MPD2    C1 1400   2.725   0.230   1.878  0.1268  0.6078 -1.0064
   90MPD2    C2 1401   2.755   0.341   1.802  0.2028  0.6269 -0.0465
   90MPD2    C3 1402   2.706   0.466   1.832 -0.3559  0.3123 -0.3033
   90MPD2    C4 1403   2.624   0.484   1.940  0.3480  0.6228  0.6647
   90MPD2    C5 1404   2.590   0.374   2.011 -0.1597 -0.3109  0.2946
   90MPD2     H 1405   2.821   0.320   1.719  1.7260 -0.2945  1.3952
   90MPD2    H1 1406   2.595   0.582   1.976 -2.4453 -0.6875  2.0112
   90MPD2    H2 1407   2.612   0.166   2.057  0.6748 -1.2499 -0.3565
   90MPD2    H3 1408   2.532   0.386   2.102  2.0626  0.1170  1.6624
   90MPD2     N 1409   2.751   0.565   1.744 -0.3241 -0.3520  1.1091
   90MPD2    H5 1410   2.818   0.532   1.675 -1.2745 -0.0379  0.0222
   90MPD2    N1 1411   2.761   0.101   1.838  0.9675  0.1270  1.0855
   90MPD2    H7 1412   2.828   0.099   1.762 -0.4802  1.5922 -0.2114
   91TMC2    C1 1413   3.985   4.176  16.270  0.2257  0.3328 -0.0101
   91TMC2    C2 1414   4.068   4.139  16.372 -0.0927  0.0095  0.2948
   91TMC2    C3 1415   4.031   4.039  16.457 -1.2802 -0.1169 -0.3728
   91TMC2    C4 1416   3.866   4.113  16.256  0.2556  0.2179 -0.3249
   91TMC2    C5 1417   3.835   4.011  16.334  0.0020  0.0241 -0.4548
   91TMC2    C6 1418   3.912   3.966  16.438 -0.1602  0.4493 -0.7295
   91TMC2     C 1419   4.029   4.254  16.157  0.2144  0.6271 -0.1878
   91TMC2     O 1420   3.959   4.251  16.057  0.4988  0.1127  0.1993
   91TMC2     H 1421   4.164   4.188  16.386  0.7751 -1.4114 -0.6586
   91TMC2    H1 1422   3.800   4.146  16.177 -1.3204 -2.2646 -0.0479
   91TMC2    H2 1423   3.883   3.889  16.509 -0.3827  0.2160 -1.0724
   91TMC2    C7 1424   3.702   3.954  16.335  0.5339  0.7413 -0.5267
   91TMC2    C8 1425   4.134   3.994  16.553 -0.1129 -0.5592 -0.1861
   91TMC2    O1 1426   3.648   3.922  16.441 -0.0430 -0.3857 -0.1953
   91TMC2    O2 1427   4.250   4.006  16.514  0.4448 -0.8785  0.4687
   91TMC2    O5 1428   4.084   3.911  16.644 -0.4307  0.0564  0.1375
   91TMC2    H5 1429   3.991   3.918  16.674 -0.3424 -2.5035  1.0313
   92MPD2     C 1430   4.183   4.394  15.931 -0.5593  0.3056  0.0199
   92MPD2    C1 1431   4.220   4.390  16.068  0.1432 -0.2060  0.2153
   92MPD2    C2 1432   4.345   4.436  16.092 -0.2899  0.1866  0.7660
   92MPD2    C3 1433   4.439   4.474  15.995 -0.7404 -0.3263  0.2026
   92MPD2    C4 1434   4.392   4.481  15.863  0.0871 -0.8978 -0.2592
   92MPD2    C5 1435   4.270   4.441  15.831  0.6542  0.2069 -0.2753
   92MPD2     H 1436   4.378   4.435  16.195 -2.3433 -1.3829  1.4209
   92MPD2    H1 1437   4.464   4.513  15.788  1.1502  1.4314  1.7272
   92MPD2    H2 1438   4.094   4.343  15.894 -1.4905  1.0855  1.1855
   92MPD2    H3 1439   4.223   4.431  15.734 -3.5593  2.0419  1.5808
   92MPD2     N 1440   4.574   4.499  16.037 -0.9472  0.2008  0.2797
   92MPD2    H5 1441   4.593   4.499  16.137  1.8946  2.0621 -0.2627
   92MPD2    N1 1442   4.148   4.324  16.173 -0.2938 -0.0923  0.0136
   92MPD2    H7 1443   4.180   4.331  16.269 -1.1524 -1.3063  0.3802
   93TMC2    C1 1444   1.390   4.543  14.109 -0.5401  0.7585 -0.3326
   93TMC2    C2 1445   1.310   4.586  14.213 -0.1487  0.0433 -0.1274
   93TMC2    C3 1446   1.370   4.619  14.335  0.0807 -0.2562 -0.5427
   93TMC2    C4 1447   1.521   4.547  14.116  0.6366 -0.6654  0.4280
   93TMC2    C5 1448   1.575   4.574  14.237  0.5592 -0.1811  0.3250
   93TMC2    C6 1449   1.506   4.627  14.341  0.5483  0.0237  0.1598
   93TMC2     C 1450   1.332   4.544  13.973  0.1750 -0.0525 -0.0150
   93TMC2     O 1451   1.411   4.561  13.883 -0.3433 -0.0479  0.3415
   93TMC2     H 1452   1.204   4.602  14.205 -0.0800  1.1072  1.0566
   93TMC2    H1 1453   1.582   4.511  14.034 -1.2136  0.5722 -1.5171
   93TMC2    H2 1454   1.553   4.657  14.433  1.5085 -1.4336  0.1481
   93TMC2    C7 1455   1.707   4.623  14.222 -0.6961 -0.2164 -0.3670
   93TMC2    C8 1456   1.283   4.710  14.412 -0.4661  0.4203 -0.4598
   93TMC2    O1 1457   1.795   4.571  14.292  0.0494 -0.1410  0.7467
   93TMC2    O2 1458   1.203   0.045  14.355 -0.3127 -0.2468 -0.4963
   93TMC2    O5 1459   1.350   0.009  14.527  0.0005  0.8312  0.4457
   93TMC2    H5 1460   1.387   4.672  14.581  1.1482  1.6083  0.7052
   94MPD2     C 1461   1.157   4.595  13.734  0.0239  0.5382  0.1839
   94MPD2    C1 1462   1.122   4.520  13.847  0.2438 -0.7275 -0.9435
   94MPD2    C2 1463   0.997   4.466  13.856 -0.7315  0.0431  0.2854
   94MPD2    C3 1464   0.919   4.456  13.745  0.1295  0.2459  0.3535
   94MPD2    C4 1465   0.943   4.535  13.640 -0.2072 -0.6249  0.6567
   94MPD2    C5 1466   1.062   4.604  13.638  0.0398 -0.3439 -0.0566
   94MPD2     H 1467   0.954   4.420  13.944 -0.3787 -0.2118  0.3255
   94MPD2    H1 1468   0.863   4.552  13.568 -0.6256  0.0776  1.2887
   94MPD2    H2 1469   1.259   4.633  13.728  1.2910 -3.0171 -0.9110
   94MPD2    H3 1470   1.086   4.662  13.550 -0.2610  0.2644  0.2685
   94MPD2     N 1471   0.803   4.378  13.741  0.0855  0.1931 -0.1912
   94MPD2    H5 1472   0.737   4.395  13.666  1.6366  1.2076 -1.3033
   94MPD2    N1 1473   1.198   4.514  13.968  0.0234 -0.2571 -0.0367
   94MPD2    H7 1474   1.156   4.469  14.049 -0.1934  4.5361  2.5354
   95TMC2    C1 1475   1.075   1.520  16.120 -0.2813 -0.0951 -0.1577
   95TMC2    C2 1476   1.076   1.396  16.182  0.1287 -0.7326 -0.5556
   95TMC2    C3 1477   1.121   1.386  16.306  0.3057 -0.5351  0.2999
   95TMC2    C4 1478   1.111   1.629  16.195 -0.1993 -0.2671 -0.5919
   95TMC2    C5 1479   1.147   1.615  16.326  0.0675  0.3813 -0.1617
   95TMC2    C6 1480   1.146   1.488  16.386 -0.4300 -0.3836  0.1672
   95TMC2     C 1481   1.108   1.530  15.975 -0.4173  0.1552 -0.3416
   95TMC2     O 1482   1.149   1.638  15.937 -0.2416  0.1851 -0.4444
   95TMC2     H 1483   1.064   1.302  16.129 -0.7658 -1.5029  1.0417
   95TMC2    H1 1484   1.128   1.728  16.155 -0.1409 -0.6471 -1.5053
   95TMC2    H2 1485   1.164   1.474  16.492 -1.0078 -0.8130  0.2103
   95TMC2    C7 1486   1.176   1.724  16.421 -0.2701 -0.5426 -0.1253
   95TMC2    C8 1487   1.127   1.254  16.354 -0.2442 -0.0706  0.3804
   95TMC2    O1 1488   1.221   1.683  16.524 -1.3026 -0.1652 -1.0284
   95TMC2    O2 1489   1.061   1.163  16.309  0.1250  0.1373  0.7625
   95TMC2    O5 1490   1.242   1.236  16.424 -0.4623  0.8907 -1.0693
   95TMC2    H5 1491   1.299   1.315  16.413  2.1919 -0.8737 -0.0075
   96MPD2     C 1492   1.268   1.323  15.531 -0.0161 -0.5810 -0.8525
   96MPD2    C1 1493   1.314   1.440  15.592  0.4685 -0.6230  0.1800
   96MPD2    C2 1494   1.255   1.477  15.718  0.0505 -0.7505  0.2525
   96MPD2    C3 1495   1.170   1.385  15.781 -0.0347  0.2113 -0.3520
   96MPD2    C4 1496   1.136   1.262  15.723  1.1388 -0.0062 -0.5198
   96MPD2    C5 1497   1.190   1.233  15.600  0.2679 -0.8531 -0.3391
   96MPD2     H 1498   1.284   1.567  15.770 -1.3854 -0.2486  0.1808
   96MPD2    H1 1499   1.079   1.187  15.775  2.0138 -0.2472  0.0985
   96MPD2    H2 1500   1.297   1.290  15.432  2.1456  2.1334 -1.1243
   96MPD2    H3 1501   1.151   1.141  15.558  0.0581 -1.7222  1.7516
   96MPD2     N 1502   1.118   1.411  15.910 -0.1178 -0.6344 -0.1188
   96MPD2    H5 1503   1.063   1.335  15.949  2.4901 -1.3010  2.2851
   96MPD2    N1 1504   1.414   1.513  15.517 -0.2815 -0.2793 -0.0967
   96MPD2    H7 1505   1.436   1.491  15.421  2.7959  0.1700  0.4812
   97TMC2    C1 1506   3.960   3.962  17.699 -0.1664 -0.2931  0.5405
   97TMC2    C2 1507   3.893   3.914  17.593 -0.2572 -0.6528 -0.2950
   97TMC2    C3 1508   3.872   3.984  17.484  0.1665 -0.5292 -0.7784
   97TMC2    C4 1509   4.012   4.089  17.694 -0.8167  0.6853  0.4572
   97TMC2    C5 1510   3.981   4.161  17.591 -0.1376  0.3635 -0.2495
   97TMC2    C6 1511   3.912   4.117  17.484  0.2272 -0.1788 -0.2034
   97TMC2     C 1512   3.918   3.924   0.093  0.0944 -0.1069  0.7137
   97TMC2     O 1513   3.920   3.802   0.117 -0.6327 -0.6966  0.1722
   97TMC2     H 1514   3.850   3.815  17.603  1.0722 -1.1934  0.0643
   97TMC2    H1 1515   4.062   4.137   0.035  0.3414  0.1056  0.0902
   97TMC2    H2 1516   3.896   4.176  17.394  1.4771  1.3074  0.5618
   97TMC2    C7 1517   4.025   4.301  17.600  0.2290 -0.0409 -0.3280
   97TMC2    C8 1518   3.784   3.926  17.382 -0.8598 -0.1346  0.3663
   97TMC2    O1 1519   4.128   4.309  17.661  0.3550 -0.2303  0.1029
   97TMC2    O2 1520   3.691   3.857  17.420 -0.0832 -0.2617  0.0660
   97TMC2    O5 1521   3.762   4.022  17.290 -0.3515  0.7322  0.7469
   97TMC2    H5 1522   3.846   4.057  17.254  0.1355 -1.2715 -0.0779
   98MPD2     C 1523   3.786   4.043   0.581 -0.2346 -0.5872  0.0875
   98MPD2    C1 1524   3.786   3.919   0.514 -0.4784 -0.3893  0.7514
   98MPD2    C2 1525   3.816   3.913   0.375  0.4034 -0.4344  0.2429
   98MPD2    C3 1526   3.851   4.029   0.308  0.9319  0.1004  0.0375
   98MPD2    C4 1527   3.858   4.146   0.380  0.2061 -0.3596 -0.6325
   98MPD2    C5 1528   3.818   4.157   0.511  0.0534 -0.2075  0.0155
   98MPD2     H 1529   3.812   3.820   0.319 -0.3630 -0.9662  1.1907
   98MPD2    H1 1530   3.903   4.238   0.344  0.5821 -0.0317  0.6763
   98MPD2    H2 1531   3.759   4.054   0.685  0.3349  1.6387 -0.0086
   98MPD2    H3 1532   3.813   4.247   0.571 -0.6179  0.9515 -1.7835
   98MPD2     N 1533   3.899   4.033   0.171 -0.0344  0.1147  0.5724
   98MPD2    H5 1534   3.921   4.122   0.126  0.6900  1.1005  2.9003
   98MPD2    N1 1535   3.764   3.812   0.598 -0.0168  0.4094 -0.4034
   98MPD2    H7 1536   3.712   3.835   0.682  0.5966 -1.0675  0.3633
   99TMC2    C1 1537   2.583   1.159   1.885  0.2935 -0.1106 -0.2341
   99TMC2    C2 1538   2.666   1.194   1.994  0.3975  0.6472 -0.1727
   99TMC2    C3 1539   2.613   1.170   2.114  0.1336  0.4975  0.4080
   99TMC2    C4 1540   2.454   1.104   1.890 -0.3277  0.0756  0.0061
   99TMC2    C5 1541   2.408   1.095   2.017 -0.4125 -0.1301 -0.4742
   99TMC2    C6 1542   2.485   1.133   2.126 -0.1338  0.4654 -0.4109
   99TMC2     C 1543   2.640   1.199   1.756  0.3604  0.4356  0.3676
   99TMC2     O 1544   2.727   1.284   1.762 -0.0946  0.0417  0.1377
   99TMC2     H 1545   2.771   1.216   1.980  0.3699 -1.4743 -3.7553
   99TMC2    H1 1546   2.391   1.103   1.802  3.6513  0.1887 -2.8481
   99TMC2    H2 1547   2.453   1.121   2.229  0.5710 -0.8539 -0.3498
   99TMC2    C7 1548   2.273   1.055   2.046  0.0280 -0.1067 -0.5349
   99TMC2    C8 1549   2.692   1.205   2.234 -0.2746  0.3166  0.1465
   99TMC2    O1 1550   2.224   1.086   2.156 -0.1053 -0.4558  0.1755
   99TMC2    O2 1551   2.675   1.167   2.348 -0.1963 -0.1678  0.4274
   99TMC2    O5 1552   2.753   1.323   2.212 -0.7727 -0.0829 -0.1924
   99TMC2    H5 1553   2.744   1.366   2.124  0.1402 -1.4740 -0.9645
  100MPD2     C 1554   2.763   1.211   1.475 -0.4102  0.1695  0.9902
  100MPD2    C1 1555   2.650   1.136   1.505  0.6750 -0.9615 -0.4744
  100MPD2    C2 1556   2.619   1.051   1.402  0.5271  0.1245  0.9572
  100MPD2    C3 1557   2.690   1.048   1.287 -0.2561 -0.4239 -0.0902
  100MPD2    C4 1558   2.790   1.131   1.260 -0.6711 -0.5068 -0.2344
  100MPD2    C5 1559   2.828   1.216   1.355 -0.3117  0.3716  0.5556
  100MPD2     H 1560   2.545   0.974   1.419 -0.1143  0.1463 -1.8813
  100MPD2    H1 1561   2.843   1.140   1.166  0.0098  1.6781  0.3581
  100MPD2    H2 1562   2.814   1.270   1.550 -1.0475  0.1002  1.4798
  100MPD2    H3 1563   2.913   1.281   1.340  0.5028 -0.6343  0.8011
  100MPD2     N 1564   2.651   0.955   1.185  0.4354 -0.9832 -0.0048
  100MPD2    H5 1565   2.563   0.908   1.201 -0.5502  0.7729 -0.2444
  100MPD2    N1 1566   2.599   1.130   1.639  0.5207 -0.2785 -0.0400
  100MPD2    H7 1567   2.527   1.061   1.659 -1.4786  1.3958 -1.4117
  101TMC2    C1 1568   3.074   2.259  13.551 -0.0274  0.0348 -0.9882
  101TMC2    C2 1569   3.125   2.232  13.678  0.1954  0.3857 -0.2099
  101TMC2    C3 1570   3.254   2.267  13.704 -0.1504 -0.0923  0.0890
  101TMC2    C4 1571   3.147   2.327  13.457 -0.9566  0.0021 -0.4400
  101TMC2    C5 1572   3.272   2.376  13.496  0.8891 -0.5056 -0.0409
  101TMC2    C6 1573   3.327   2.347  13.618 -0.1657  0.0900 -0.0404
  101TMC2     C 1574   2.979   2.158  13.508 -0.2322 -0.6811  0.1209
  101TMC2     O 1575   2.898   2.112  13.584  0.2724 -0.2397  0.1307
  101TMC2     H 1576   3.067   2.162  13.737  1.2366  1.8339  2.5291
  101TMC2    H1 1577   3.098   2.354  13.365  1.4209  3.5556 -0.6745
  101TMC2    H2 1578   3.427   2.385  13.638 -0.1136 -0.5406  0.9111
  101TMC2    C7 1579   3.347   2.443  13.390  0.6064  0.2433 -1.1754
  101TMC2    C8 1580   3.315   2.231  13.835 -0.4362 -0.0914 -0.1912
  101TMC2    O1 1581   3.289   2.459  13.279 -0.3599 -0.0746 -1.0538
  101TMC2    O2 1582   3.435   2.227  13.861  0.2993  0.1038  0.1797
  101TMC2    O5 1583   3.213   2.221  13.920 -0.5425 -0.3804 -0.2091
  101TMC2    H5 1584   3.129   2.240  13.873 -0.0428 -1.0121 -1.3474
  102MPD2     C 1585   3.018   1.992  13.190  0.6075 -0.6062  0.0209
  102MPD2    C1 1586   2.957   2.017  13.312 -0.6262 -0.0701 -0.6431
  102MPD2    C2 1587   2.860   1.931  13.359 -0.0410  0.1233  0.8196
  102MPD2    C3 1588   2.826   1.814  13.286 -0.0097  0.5255 -0.2659
  102MPD2    C4 1589   2.894   1.795  13.165  0.1820  0.0402 -0.9201
  102MPD2    C5 1590   2.989   1.883  13.113  0.2317  0.1840 -0.1990
  102MPD2     H 1591   2.817   1.960  13.454  2.7569  0.0631  2.1277
  102MPD2    H1 1592   2.867   1.704  13.113 -3.0739  1.4713 -1.6885
  102MPD2    H2 1593   3.100   2.051  13.151  1.3566 -2.4219 -1.1607
  102MPD2    H3 1594   3.032   1.871  13.014 -2.6905 -1.5159 -1.2487
  102MPD2     N 1595   2.728   1.722  13.338  0.1036 -0.1783  0.4749
  102MPD2    H5 1596   2.671   1.753  13.417 -0.9635 -1.0911  0.0582
  102MPD2    N1 1597   3.020   2.115  13.388 -1.0868  0.4698  0.0677
  102MPD2    H7 1598   3.102   2.160  13.348  0.2645 -0.5069  1.7170
  103TMC2    C1 1599   0.801   2.101  12.746 -1.2278 -0.1266  0.1667
  103TMC2    C2 1600   0.894   2.182  12.695  0.3083  0.4208  0.0220
  103TMC2    C3 1601   1.017   2.192  12.753 -0.4325  0.1600  0.2399
  103TMC2    C4 1602   0.824   2.041  12.868  0.2245 -0.1241  0.6508
  103TMC2    C5 1603   0.937   2.069  12.937 -0.0543  0.2751 -0.8138
  103TMC2    C6 1604   1.034   2.152  12.888  0.0489  0.5132  0.2284
  103TMC2     C 1605   0.700   2.054  12.657  0.8067  0.5023 -0.4882
  103TMC2     O 1606   0.663   2.135  12.575 -0.0348  0.1851  0.5300
  103TMC2     H 1607   0.879   2.206  12.590  1.6695  2.3440  0.2533
  103TMC2    H1 1608   0.750   1.976  12.916  0.4793 -0.9277 -0.0418
  103TMC2    H2 1609   1.134   2.155  12.928  0.0992 -1.3249  0.2450
  103TMC2    C7 1610   0.973   2.005  13.065  0.0920 -0.1463  0.5634
  103TMC2    C8 1611   1.114   2.277  12.691  0.5114  0.2102 -0.1148
  103TMC2    O1 1612   0.907   1.905  13.094 -0.0387 -0.0575 -0.7501
  103TMC2    O2 1613   1.092   2.340  12.591 -0.1420 -0.5510 -0.6715
  103TMC2    O5 1614   1.244   2.231  12.722  0.7425  0.3543 -0.3373
  103TMC2    H5 1615   1.260   2.154  12.782 -0.4018  0.2879 -0.1205
  104MPD2     C 1616   0.588   1.716  12.598 -0.5230  0.2142 -0.1527
  104MPD2    C1 1617   0.576   1.850  12.584 -0.5634  0.1458 -0.0439
  104MPD2    C2 1618   0.470   1.904  12.516 -0.7942  0.0038 -0.1091
  104MPD2    C3 1619   0.387   1.818  12.438  0.2013 -0.4651 -0.2569
  104MPD2    C4 1620   0.411   1.683  12.437 -0.9472  0.0988 -0.6337
  104MPD2    C5 1621   0.512   1.636  12.520  0.6581  0.7359 -0.5151
  104MPD2     H 1622   0.455   2.012  12.515 -0.5968  0.0047 -1.6217
  104MPD2    H1 1623   0.360   1.611  12.374 -1.1433  0.0615 -0.4302
  104MPD2    H2 1624   0.673   1.672  12.648 -0.0032  2.1791  0.6571
  104MPD2    H3 1625   0.542   1.532  12.526 -0.1010  0.6241  1.4371
  104MPD2     N 1626   0.298   1.876  12.347 -0.8055 -0.3231  0.1735
  104MPD2    H5 1627   0.291   1.977  12.351  0.3908 -0.1747 -1.1883
  104MPD2    N1 1628   0.665   1.923  12.667  0.5151 -0.5440  0.6058
  104MPD2    H7 1629   0.728   1.868  12.725  2.5084  1.4191  0.2991
  105TMC2    C1 1630   2.489   1.360   0.313  0.9960 -0.0102  0.2925
  105TMC2    C2 1631   2.363   1.411   0.275  0.6734 -0.4970 -0.0913
  105TMC2    C3 1632   2.270   1.426   0.374  0.8412 -0.3400 -0.0766
  105TMC2    C4 1633   2.516   1.325   0.445 -0.1346 -0.0319 -0.5366
  105TMC2    C5 1634   2.422   1.343   0.538  0.2582  0.0891 -0.4244
  105TMC2    C6 1635   2.300   1.390   0.508  1.2356 -0.3164  0.2998
  105TMC2     C 1636   2.593   1.336   0.221 -0.4463 -0.4743  0.3727
  105TMC2     O 1637   2.693   1.289   0.268 -0.3833 -0.1110  0.4229
  105TMC2     H 1638   2.336   1.419   0.171 -0.8003 -0.6498  0.2765
  105TMC2    H1 1639   2.605   1.271   0.475 -0.8155 -1.4184 -0.9868
  105TMC2    H2 1640   2.214   1.389   0.574 -0.6598 -1.2822 -2.1961
  105TMC2    C7 1641   2.442   1.287   0.667  0.5817 -0.2175  0.1300
  105TMC2    C8 1642   2.129   1.459   0.330  0.1619 -0.3999 -0.1207
  105TMC2    O1 1643   2.525   1.199   0.683  0.0263 -0.5134 -0.4694
  105TMC2    O2 1644   2.025   1.397   0.351  0.6146  0.8863  0.3283
  105TMC2    O5 1645   2.128   1.576   0.263 -0.2828  0.4272  0.3307
  105TMC2    H5 1646   2.220   1.607   0.263 -0.8305  2.0395  0.1964
  106MPD2     C 1647   2.831   1.330  17.504  0.1425  0.2756 -0.0451
  106MPD2    C1 1648   2.715   1.395  17.487  0.1946  0.4660  0.5579
  106MPD2    C2 1649   2.633   1.404  17.587  1.0522 -0.1050  0.2170
  106MPD2    C3 1650   2.659   1.347  17.716 -0.7654  0.0760 -0.6517
  106MPD2    C4 1651   2.779   1.277  17.725 -0.0167 -0.1779  0.3101
  106MPD2    C5 1652   2.870   1.285  17.628 -0.5624  0.1782  1.3927
  106MPD2     H 1653   2.551   1.475  17.580  1.2073  0.1364  0.8005
  106MPD2    H1 1654   2.819   1.242   0.076  1.5314  0.6108 -0.0468
  106MPD2    H2 1655   2.907   1.330  17.426 -1.0848  1.5198 -1.2258
  106MPD2    H3 1656   2.959   1.227  17.650 -0.1252  0.4041  0.2119
  106MPD2     N 1657   2.567   1.367   0.086  0.3300  0.1590  0.6716
  106MPD2    H5 1658   2.483   1.424   0.074 -1.0830 -2.0916 -0.2647
  106MPD2    N1 1659   2.682   1.467  17.367 -0.2153 -0.2357  0.4804
  106MPD2    H7 1660   2.608   1.537  17.367 -1.1348 -1.2119 -1.6650
  107TMC2    C1 1661   2.727   1.456  11.654 -0.5744  0.8842  0.4095
  107TMC2    C2 1662   2.791   1.557  11.589 -0.2489  0.4614  0.4717
  107TMC2    C3 1663   2.859   1.520  11.479  0.1702  0.2301 -0.9045
  107TMC2    C4 1664   2.752   1.325  11.630 -0.1787 -0.6086  0.8841
  107TMC2    C5 1665   2.839   1.294  11.533 -1.0257 -0.4634  0.0851
  107TMC2    C6 1666   2.890   1.392  11.453 -0.3107  0.2700 -0.7263
  107TMC2     C 1667   2.632   1.488  11.767  0.0815  0.1223  0.0427
  107TMC2     O 1668   2.593   1.401  11.841  0.2609  0.8083  0.1748
  107TMC2     H 1669   2.775   1.658  11.625 -0.9893  1.8463 -3.7169
  107TMC2    H1 1670   2.712   1.246  11.693 -1.3668 -0.7950 -0.1039
  107TMC2    H2 1671   2.956   1.362  11.373  1.2822 -2.4944  1.5836
  107TMC2    C7 1672   2.858   1.156  11.504 -0.3313  0.3504  0.4076
  107TMC2    C8 1673   2.913   1.620  11.383  0.3110 -0.3366  0.4538
  107TMC2    O1 1674   2.762   1.086  11.535  0.4725  0.5786  0.1260
  107TMC2    O2 1675   2.995   1.582  11.299 -0.2814  0.3227 -0.0983
  107TMC2    O5 1676   2.816   1.709  11.371 -0.0498  0.0450  0.6034
  107TMC2    H5 1677   2.743   1.699  11.436 -1.1246 -1.2100 -0.8049
  108MPD2     C 1678   2.481   1.813  11.826  0.5479  0.2446  0.1070
  108MPD2    C1 1679   2.523   1.690  11.863  0.5777  0.0620 -0.7781
  108MPD2    C2 1680   2.492   1.639  11.988 -0.3259 -0.2696 -0.0539
  108MPD2    C3 1681   2.433   1.727  12.082 -0.3307 -0.8326  0.4679
  108MPD2    C4 1682   2.409   1.861  12.048  0.5738 -0.1542 -0.7129
  108MPD2    C5 1683   2.418   1.898  11.912  0.0314 -0.7555 -0.0927
  108MPD2     H 1684   2.514   1.535  12.010  2.7192  0.4150  0.1975
  108MPD2    H1 1685   2.372   1.938  12.115  3.2912  0.9873 -0.5256
  108MPD2    H2 1686   2.497   1.848  11.725 -0.9011  0.4989 -0.0328
  108MPD2    H3 1687   2.404   2.001  11.881 -1.0801 -0.6692  0.7308
  108MPD2     N 1688   2.405   1.692  12.219 -0.1945  1.0612  0.0182
  108MPD2    H5 1689   2.353   1.755  12.279 -1.4577  0.4194 -0.4132
  108MPD2    N1 1690   2.588   1.619  11.759  0.5540  0.6765 -0.1615
  108MPD2    H7 1691   2.627   1.665  11.677  1.4062  0.9802  0.4118
  109TMC2    C1 1692   2.938   2.878   0.106 -0.7174 -0.6580 -0.2824
  109TMC2    C2 1693   3.013   2.837  17.739  0.4031 -0.4843  0.1555
  109TMC2    C3 1694   3.134   2.903  17.720 -0.4042  0.6783  0.4993
  109TMC2    C4 1695   2.963   2.996   0.172 -0.8234 -0.2161 -0.0954
  109TMC2    C5 1696   3.092   3.054   0.149  0.2487  0.1337 -0.4138
  109TMC2    C6 1697   3.181   2.993   0.067  0.5398  0.0788 -0.1487
  109TMC2     C 1698   2.824   2.802   0.133 -0.0115 -0.4495 -0.1216
  109TMC2     O 1699   2.781   2.729   0.040 -0.4906  0.0158 -0.4263
  109TMC2     H 1700   2.996   2.741  17.692  0.6700 -1.8451  2.7954
  109TMC2    H1 1701   2.896   3.048   0.240 -0.3248  0.2636  0.0275
  109TMC2    H2 1702   3.282   3.032   0.067  0.0937  1.2299  0.1500
  109TMC2    C7 1703   3.137   3.156   0.243  0.8734 -0.3608 -0.7902
  109TMC2    C8 1704   3.204   2.905  17.600 -0.4092 -0.1807  0.2419
  109TMC2    O1 1705   3.255   3.145   0.285 -0.1673 -0.1518 -0.4591
  109TMC2    O2 1706   3.326   2.905  17.594 -0.1070 -0.1570  0.2898
  109TMC2    O5 1707   3.116   2.863  17.504 -0.1802 -0.5294 -0.2024
  109TMC2    H5 1708   3.025   2.885  17.534 -0.7495 -0.7273 -1.7862
  110MPD2     C 1709   2.394   2.722   0.411  0.6646  0.2899 -0.0028
  110MPD2    C1 1710   2.488   2.801   0.483 -0.1144 -0.9853 -0.0841
  110MPD2    C2 1711   2.608   2.829   0.433  0.1347 -0.3221  0.3301
  110MPD2    C3 1712   2.643   2.784   0.311 -0.6533 -0.3967 -0.2420
  110MPD2    C4 1713   2.555   2.706   0.240 -0.1565  0.7306 -0.3201
  110MPD2    C5 1714   2.431   2.678   0.292 -0.4636  0.2843 -0.7188
  110MPD2     H 1715   2.683   2.886   0.487 -1.0207  1.3485  0.1555
  110MPD2    H1 1716   2.585   2.659   0.147 -0.9991 -1.9089  0.7347
  110MPD2    H2 1717   2.293   2.697   0.442 -0.1328  1.4511 -1.6597
  110MPD2    H3 1718   2.365   2.618   0.230  0.9806 -0.0421 -1.9626
  110MPD2     N 1719   2.773   2.828   0.255  0.1243 -0.5795 -0.3162
  110MPD2    H5 1720   2.839   2.879   0.314 -2.0992  0.6154  1.1101
  110MPD2    N1 1721   2.446   2.858   0.608  0.3456  0.1452 -0.2342
  110MPD2    H7 1722   2.349   2.844   0.636  0.4044  1.7595  0.7342
  111TMC2    C1 1723   2.512   3.001  12.112 -0.6334 -0.2056  0.6964
  111TMC2    C2 1724   2.415   2.958  12.199  0.0481  0.4065 -0.2991
  111TMC2    C3 1725   2.468   2.892  12.304  1.0826  0.0495 -0.0261
  111TMC2    C4 1726   2.649   2.963  12.126  0.0086  0.4142  0.0956
  111TMC2    C5 1727   2.697   2.895  12.235  0.3510 -0.2095  0.3233
  111TMC2    C6 1728   2.598   2.855  12.320  0.8402  0.5395  0.2178
  111TMC2     C 1729   2.474   3.093  12.006  0.1851  0.2258  0.0818
  111TMC2     O 1730   2.543   3.089  11.904  0.4466 -0.3586  0.8921
  111TMC2     H 1731   2.309   2.979  12.192 -0.0074 -0.0886 -0.9540
  111TMC2    H1 1732   2.718   3.020  12.063  0.6848  0.8148  1.1888
  111TMC2    H2 1733   2.635   2.801  12.407 -1.8898 -0.0599  1.0320
  111TMC2    C7 1734   2.832   2.889  12.280 -0.1825 -0.4511  0.7216
  111TMC2    C8 1735   2.385   2.845  12.411 -0.3981  0.5075  0.3299
  111TMC2    O1 1736   2.861   2.877  12.399  1.2702  0.1800  0.2178
  111TMC2    O2 1737   2.423   2.753  12.482 -0.5956 -0.0494  0.0178
  111TMC2    O5 1738   2.257   2.885  12.390  1.1122 -0.6181  0.1662
  111TMC2    H5 1739   2.256   2.972  12.344  1.0534 -0.5186  0.3527
  112MPD2     C 1740   2.194   3.487  11.831  0.7527  0.0236  0.4280
  112MPD2    C1 1741   2.292   3.407  11.773 -0.3845 -0.1849  0.0093
  112MPD2    C2 1742   2.352   3.304  11.841  0.0357  0.4776  0.3691
  112MPD2    C3 1743   2.322   3.281  11.976 -0.2673  0.0994 -0.2923
  112MPD2    C4 1744   2.230   3.372  12.035 -0.1789 -0.1796  0.7121
  112MPD2    C5 1745   2.169   3.469  11.963 -0.2026 -0.7425 -0.5334
  112MPD2     H 1746   2.427   3.248  11.785  0.0944  0.0686  0.8518
  112MPD2    H1 1747   2.192   3.347  12.133 -0.8680  1.3218  0.8215
  112MPD2    H2 1748   2.140   3.561  11.774  1.9702  0.3172 -0.3411
  112MPD2    H3 1749   2.114   3.546  12.016  1.9404 -0.3666  1.1186
  112MPD2     N 1750   2.385   3.185  12.053 -0.4123  0.2113  0.3926
  112MPD2    H5 1751   2.354   3.187  12.150  0.6740  1.9759  0.7052
  112MPD2    N1 1752   2.326   3.420  11.634  0.3965 -0.1632  0.2490
  112MPD2    H7 1753   2.404   3.363  11.602  0.3215 -0.2698  0.2564
  113TMC2    C1 1754   1.358   0.729   0.770 -0.3133 -0.0060 -0.7317
  113TMC2    C2 1755   1.326   0.822   0.673  0.3688 -1.1111  0.2287
  113TMC2    C3 1756   1.273   0.770   0.555  0.1935  1.3527 -0.1817
  113TMC2    C4 1757   1.336   0.599   0.763 -0.1783  0.2243 -0.3557
  113TMC2    C5 1758   1.266   0.560   0.651 -0.1707 -0.1131 -0.1913
  113TMC2    C6 1759   1.234   0.642   0.550  0.1293 -0.4560  1.0798
  113TMC2     C 1760   1.429   0.780   0.882 -0.4187 -0.5337 -0.1391
  113TMC2     O 1761   1.400   0.892   0.921  0.2102  0.0214 -0.3918
  113TMC2     H 1762   1.357   0.926   0.680 -2.3330 -0.3419  1.1120
  113TMC2    H1 1763   1.353   0.532   0.847 -0.2960  0.0733 -0.4540
  113TMC2    H2 1764   1.176   0.614   0.463  1.2181 -2.1952  0.8979
  113TMC2    C7 1765   1.218   0.419   0.639 -0.3832 -0.0542  0.0191
  113TMC2    C8 1766   1.226   0.862   0.456  0.4840  0.8363  0.0280
  113TMC2    O1 1767   1.177   0.380   0.530  0.2135  0.1369  1.3846
  113TMC2    O2 1768   1.250   0.869   0.336 -0.3884 -0.4222  0.0042
  113TMC2    O5 1769   1.137   0.941   0.515 -0.1217 -0.0171 -0.2044
  113TMC2    H5 1770   1.119   0.896   0.601  0.4514  0.4178  0.1410
  114MPD2     C 1771   1.821   0.770   1.201 -0.5822 -0.5909 -0.1328
  114MPD2    C1 1772   1.711   0.853   1.196  0.0728  0.2418  0.1286
  114MPD2    C2 1773   1.612   0.827   1.105  0.0800 -0.1262 -0.1113
  114MPD2    C3 1774   1.638   0.737   1.005  0.7231  0.8081 -0.7732
  114MPD2    C4 1775   1.743   0.655   1.012 -0.4510  0.1205 -0.0245
  114MPD2    C5 1776   1.831   0.668   1.115 -0.8308  0.2197 -0.3872
  114MPD2     H 1777   1.531   0.898   1.096 -0.7924 -1.0143  0.6551
  114MPD2    H1 1778   1.771   0.582   0.937 -1.8576 -0.6730  0.2200
  114MPD2    H2 1779   1.900   0.789   1.273 -1.1277  0.7235  0.1224
  114MPD2    H3 1780   1.912   0.596   1.117  0.1080  1.2846  0.3677
  114MPD2     N 1781   1.548   0.707   0.901 -0.3663  0.3709  0.3378
  114MPD2    H5 1782   1.559   0.621   0.849 -0.5850  1.1343 -0.9814
  114MPD2    N1 1783   1.689   0.957   1.287 -0.8504 -0.2638  0.4557
  114MPD2    H7 1784   1.610   1.019   1.272 -0.3720 -0.0773 -1.3063
  115TMC2    C1 1785   2.789   3.832   0.013 -0.4966 -0.0959  0.0109
  115TMC2    C2 1786   2.861   3.726   0.059 -0.4324  0.8044  0.4088
  115TMC2    C3 1787   2.997   3.732   0.075 -0.7965  0.0458  0.6003
  115TMC2    C4 1788   2.842   3.951  17.718 -0.1091  0.1490 -0.1715
  115TMC2    C5 1789   2.982   3.953  17.728 -0.5204  0.2267 -0.3893
  115TMC2    C6 1790   3.060   3.845   0.035  0.4671  0.1337 -0.5548
  115TMC2     C 1791   2.649   3.802  17.735 -0.3165  0.4040  0.1912
  115TMC2     O 1792   2.602   3.700   0.042 -0.4789  0.5351  0.0473
  115TMC2     H 1793   2.806   3.639   0.094 -0.1425  0.0663 -0.9787
  115TMC2    H1 1794   2.782   4.041  17.710 -0.6366  0.1610  3.8700
  115TMC2    H2 1795   3.167   3.856   0.025  0.8769 -2.8218  0.5588
  115TMC2    C7 1796   3.050   4.082  17.726 -0.0331 -0.3309 -0.0518
  115TMC2    C8 1797   3.066   3.603   0.077 -0.5677 -0.4073  0.1269
  115TMC2    O1 1798   3.116   4.109   0.082  0.2916  0.5046 -0.4326
  115TMC2    O2 1799   3.187   3.599   0.079  0.2037  0.6469  0.4319
  115TMC2    O5 1800   2.999   3.514   0.001 -0.4503 -0.1434 -0.4169
  115TMC2    H5 1801   2.902   3.532   0.002 -0.0005  2.1308  1.4607
  116MPD2     C 1802   2.222   3.884  17.466 -0.1013  1.0359  0.6054
  116MPD2    C1 1803   2.258   3.774  17.553 -0.6088 -0.0109  0.2071
  116MPD2    C2 1804   2.380   3.785  17.609  0.6306  0.4843 -0.6262
  116MPD2    C3 1805   2.462   3.892  17.589  0.2008  0.6980 -0.8259
  116MPD2    C4 1806   2.421   3.997  17.508  0.1756 -0.0582 -0.7068
  116MPD2    C5 1807   2.300   3.995  17.446  0.3730 -0.2789  0.1477
  116MPD2     H 1808   2.405   3.703  17.676 -1.9358  0.6700  0.5626
  116MPD2    H1 1809   2.485   4.081  17.484  1.5884 -0.5461  1.3512
  116MPD2    H2 1810   2.135   3.885  17.401  0.3396  0.8921  0.0070
  116MPD2    H3 1811   2.258   4.071  17.380 -1.1656 -1.4131 -0.1602
  116MPD2     N 1812   2.592   3.901  17.653  0.1726  0.1109  0.1582
  116MPD2    H5 1813   2.646   3.980  17.621  1.4479 -0.2994  1.3155
  116MPD2    N1 1814   2.170   3.662  17.558 -0.2427  0.3458  0.1085
  116MPD2    H7 1815   2.081   3.675  17.510 -2.4594 -4.6212  2.8848
  117TMC2    C1 1816   0.287   0.287  14.290 -0.1772 -0.3913  0.0367
  117TMC2    C2 1817   0.385   0.193  14.285  0.2859 -0.6075 -0.2134
  117TMC2    C3 1818   0.513   0.238  14.273 -0.1845  0.1088 -0.1270
  117TMC2    C4 1819   0.310   0.423  14.288 -0.0303 -0.2905  0.2787
  117TMC2    C5 1820   0.444   0.465  14.287  0.3200  0.0441  0.4098
  117TMC2    C6 1821   0.541   0.374  14.262 -0.4087  0.1493  0.0549
  117TMC2     C 1822   0.149   0.239  14.288 -0.0178  0.0685  0.0708
  117TMC2     O 1823   0.138   0.120  14.322  0.1718 -0.7074  0.2403
  117TMC2     H 1824   0.362   0.087  14.276 -1.4399 -0.1551 -1.2114
  117TMC2    H1 1825   0.236   0.493  14.324  0.2351 -0.1945  0.6387
  117TMC2    H2 1826   0.643   0.413  14.268 -0.8011  1.2264 -0.2161
  117TMC2    C7 1827   0.483   0.603  14.276  0.0754 -0.2465  0.4915
  117TMC2    C8 1828   0.616   0.145  14.225  0.0115  0.4229  0.3335
  117TMC2    O1 1829   0.601   0.637  14.256 -0.1241 -0.3441  0.0277
  117TMC2    O2 1830   0.697   0.195  14.145 -0.6398  0.1009  0.2937
  117TMC2    O5 1831   0.599   0.021  14.262 -0.1293  0.0774 -0.8988
  117TMC2    H5 1832   0.544   0.010  14.343 -0.0340 -0.3790 -0.9007
  118MPD2     C 1833   0.294   0.921  14.252  0.2548 -0.9127 -0.1494
  118MPD2    C1 1834   0.385   0.826  14.219 -0.0070  0.2669  0.0336
  118MPD2    C2 1835   0.475   0.858  14.117  0.0246  0.4676 -0.1333
  118MPD2    C3 1836   0.483   0.983  14.058  0.1329 -0.0857  0.0609
  118MPD2    C4 1837   0.398   1.082  14.102  0.0443 -0.3308  0.5515
  118MPD2    C5 1838   0.304   1.046  14.193 -0.5876 -0.8283 -0.3538
  118MPD2     H 1839   0.538   0.777  14.080 -0.4002 -0.1325  0.4768
  118MPD2    H1 1840   0.409   1.187  14.080 -0.2266  0.0655  2.3318
  118MPD2    H2 1841   0.214   0.916  14.324 -0.3833 -1.5564 -0.8995
  118MPD2    H3 1842   0.242   1.127  14.229  1.4389  0.8413 -0.6004
  118MPD2     N 1843   0.567   1.016  13.953  0.2682 -0.0320 -0.0442
  118MPD2    H5 1844   0.557   1.102  13.901  1.9285  0.0926 -0.1771
  118MPD2    N1 1845   0.375   0.696  14.272 -1.0048  0.0878 -0.2084
  118MPD2    H7 1846   0.283   0.669  14.304 -1.2916  1.1056 -0.1828
  119TMC2    C1 1847   3.301   1.615  13.335  0.0282  0.0451 -0.6068
  119TMC2    C2 1848   3.306   1.643  13.201 -0.4554  0.0800  0.2461
  119TMC2    C3 1849   3.203   1.592  13.121  0.6121 -0.1945  0.3001
  119TMC2    C4 1850   3.196   1.537  13.381 -0.3968  0.7242 -0.4227
  119TMC2    C5 1851   3.094   1.494  13.301 -0.0734 -0.2427  0.0269
  119TMC2    C6 1852   3.092   1.522  13.168 -0.2363  0.0099  0.2779
  119TMC2     C 1853   3.416   1.626  13.424  0.0947  0.1089 -0.4813
  119TMC2     O 1854   3.390   1.631  13.542  0.4384  0.5940  0.0927
  119TMC2     H 1855   3.375   1.710  13.151  0.0100  0.1967  1.0446
  119TMC2    H1 1856   3.193   1.516  13.487 -0.6919 -1.8222 -0.9327
  119TMC2    H2 1857   3.009   1.504  13.100 -0.5452  3.8329 -0.3549
  119TMC2    C7 1858   2.988   1.402  13.352 -0.2807  0.3190 -0.9889
  119TMC2    C8 1859   3.212   1.624  12.982  0.9566  0.3635 -0.5929
  119TMC2    O1 1860   2.917   1.344  13.272  0.2910  0.5993 -0.0414
  119TMC2    O2 1861   3.288   1.703  12.925  0.0084  0.4127  0.3540
  119TMC2    O5 1862   3.167   1.509  12.916 -0.4755  0.3895  0.1599
  119TMC2    H5 1863   3.097   1.455  12.960  0.6769 -1.1866  0.0481
  120MPD2     C 1864   3.915   1.574  13.530 -0.2028  0.1428  0.1777
  120MPD2    C1 1865   3.810   1.565  13.614  0.0935 -0.6683 -0.4435
  120MPD2    C2 1866   3.686   1.592  13.559  0.1797  0.1627 -0.1316
  120MPD2    C3 1867   3.659   1.624  13.424  0.3804 -0.6332  0.0348
  120MPD2    C4 1868   3.768   1.636  13.349 -0.3111  0.1627 -0.6252
  120MPD2    C5 1869   3.895   1.603  13.392 -0.0545 -0.7613  0.5168
  120MPD2     H 1870   3.595   1.594  13.618  1.0684 -0.8242  1.2636
  120MPD2    H1 1871   3.755   1.658  13.243  2.3866  1.7747 -0.6201
  120MPD2    H2 1872   4.012   1.543  13.568 -0.1686  0.4710  0.3556
  120MPD2    H3 1873   3.982   1.602  13.328  0.3646  2.1332  1.0290
  120MPD2     N 1874   3.535   1.633  13.361 -0.3818 -0.1261 -0.1839
  120MPD2    H5 1875   3.537   1.625  13.260  2.3112  0.5769 -0.1852
  120MPD2    N1 1876   3.838   1.550  13.753  0.0420 -0.3434  0.0939
  120MPD2    H7 1877   3.937   1.555  13.778  0.1669  2.6259 -1.0476
  121TMC2    C1 1878   0.641   2.944  14.360 -0.3500  0.0571  0.0890
  121TMC2    C2 1879   0.608   2.940  14.498 -0.3820  0.3553  0.8877
  121TMC2    C3 1880   0.484   2.889  14.535  1.0421  0.5652  0.3061
  121TMC2    C4 1881   0.567   2.886  14.265  0.3506 -0.3061  0.2387
  121TMC2    C5 1882   0.451   2.834  14.308  0.5109 -0.7383 -0.2058
  121TMC2    C6 1883   0.402   2.835  14.441 -0.4315 -0.6179 -0.4740
  121TMC2     C 1884   0.753   3.028  14.316  0.2272 -0.4109  0.1589
  121TMC2     O 1885   0.843   3.063  14.395 -0.0836 -0.0679 -0.0806
  121TMC2     H 1886   0.666   2.996  14.571  0.3758  0.8035 -0.0591
  121TMC2    H1 1887   0.601   2.889  14.163 -0.0671  0.5187  0.1228
  121TMC2    H2 1888   0.305   2.790  14.462 -0.7379 -1.4273 -3.5481
  121TMC2    C7 1889   0.352   2.814  14.203 -0.2410 -0.2363 -1.2692
  121TMC2    C8 1890   0.419   2.939  14.653 -0.2609 -0.3235  0.2946
  121TMC2    O1 1891   0.396   2.793  14.091  0.5327  0.2556 -0.0557
  121TMC2    O2 1892   0.300   2.927  14.673  0.2745 -1.1906 -0.0688
  121TMC2    O5 1893   0.512   2.925  14.754  0.1497 -1.0518  0.1987
  121TMC2    H5 1894   0.596   2.889  14.717  0.3409  0.1474 -0.5502
  122MPD2     C 1895   0.890   3.283  14.211 -0.0059  0.3975 -0.3688
  122MPD2    C1 1896   0.784   3.217  14.150  0.0888 -0.0753 -0.1426
  122MPD2    C2 1897   0.732   3.275  14.036  0.0262  0.0950 -0.4094
  122MPD2    C3 1898   0.787   3.387  13.979 -0.1007 -0.1689 -0.0365
  122MPD2    C4 1899   0.904   3.436  14.033  0.4502  0.5019  0.3337
  122MPD2    C5 1900   0.941   3.398  14.157 -0.3089  0.6330  0.1325
  122MPD2     H 1901   0.643   3.230  13.992 -0.8901  0.6769  0.8281
  122MPD2    H1 1902   0.956   3.519  13.986  1.8581  0.2217  1.3920
  122MPD2    H2 1903   0.919   3.254  14.311 -2.4136  0.7550  0.4550
  122MPD2    H3 1904   1.019   3.448  14.212  0.1172 -0.5552  0.6197
  122MPD2     N 1905   0.739   3.439  13.858  0.1007  0.5878 -0.7690
  122MPD2    H5 1906   0.677   3.376  13.807  1.0723  0.5010 -1.8526
  122MPD2    N1 1907   0.719   3.104  14.204  0.2609 -0.2747  0.2465
  122MPD2    H7 1908   0.640   3.078  14.145 -0.7356 -0.6099  1.7189
  123TMC2    C1 1909   2.643   1.131  11.073 -0.1579  0.1875 -0.1546
  123TMC2    C2 1910   2.769   1.103  11.117 -1.3727 -0.1735  0.3979
  123TMC2    C3 1911   2.865   1.201  11.100  0.0224 -0.2324  0.4317
  123TMC2    C4 1912   2.607   1.255  11.017  0.1840 -0.0428 -0.0305
  123TMC2    C5 1913   2.713   1.343  11.006 -0.4200  0.6334  0.1493
  123TMC2    C6 1914   2.844   1.322  11.045 -0.6720  0.6781  0.8146
  123TMC2     C 1915   2.546   1.029  11.093 -0.1762 -0.4927  0.0630
  123TMC2     O 1916   2.575   0.945  11.178 -0.0963  0.4225 -0.3711
  123TMC2     H 1917   2.799   1.001  11.136 -1.8444 -0.9484 -2.9612
  123TMC2    H1 1918   2.506   1.280  10.987  0.0094 -0.6647  0.0470
  123TMC2    H2 1919   2.913   1.400  11.074  1.0491 -0.8998  0.9489
  123TMC2    C7 1920   2.687   1.465  10.934 -0.0231  0.1631 -0.3645
  123TMC2    C8 1921   2.999   1.161  11.139  0.0267 -0.1634  0.0926
  123TMC2    O1 1922   2.571   1.487  10.907  0.1453 -0.2896 -0.7453
  123TMC2    O2 1923   3.060   1.254  11.182  0.1898 -0.5836 -0.6100
  123TMC2    O5 1924   3.033   1.052  11.061  0.1620 -0.7180  0.4516
  123TMC2    H5 1925   2.955   0.995  11.041  0.3304 -1.2894  1.4465
  124MPD2     C 1926   2.207   0.721  10.851  0.0815  0.0587 -0.5318
  124MPD2    C1 1927   2.200   0.846  10.795  0.4586  0.4896  0.0552
  124MPD2    C2 1928   2.277   0.949  10.851  0.3356 -0.3705 -0.3181
  124MPD2    C3 1929   2.363   0.927  10.955 -0.2256  0.8812  0.0711
  124MPD2    C4 1930   2.365   0.807  11.008 -0.5729 -0.2576  0.0616
  124MPD2    C5 1931   2.292   0.704  10.953  0.1980 -0.8059 -0.3976
  124MPD2     H 1932   2.272   1.052  10.816 -2.2136 -1.0262 -1.9097
  124MPD2    H1 1933   2.419   0.787  11.101 -0.9080  3.4386  1.0412
  124MPD2    H2 1934   2.147   0.637  10.815  0.2996 -0.1763 -0.3479
  124MPD2    H3 1935   2.315   0.608  10.998 -0.0586 -0.7106 -0.0694
  124MPD2     N 1936   2.446   1.034  10.999  0.3647  0.3476 -0.0354
  124MPD2    H5 1937   2.439   1.120  10.944 -1.6800  0.4596  0.4061
  124MPD2    N1 1938   2.107   0.867  10.689 -0.3189 -0.1749  0.3246
  124MPD2    H7 1939   2.042   0.793  10.666  0.8503 -1.2592  0.5385
  125TMC2    C1 1940   3.293   3.954   9.756  0.7159  0.4596  0.2293
  125TMC2    C2 1941   3.296   3.908   9.633 -0.2470  0.2675  1.2830
  125TMC2    C3 1942   3.416   3.850   9.589  0.3668 -0.8373 -0.3861
  125TMC2    C4 1943   3.404   3.965   9.832 -0.6092 -0.9064 -0.1973
  125TMC2    C5 1944   3.518   3.902   9.789 -1.0174 -1.2702  0.5489
  125TMC2    C6 1945   3.522   3.834   9.675 -0.5735 -0.4163  0.0730
  125TMC2     C 1946   3.163   4.016   9.799  0.5738  0.3190  0.6352
  125TMC2     O 1947   3.082   4.032   9.712 -0.6018  0.0193 -0.3393
  125TMC2     H 1948   3.208   3.907   9.568  1.4925  0.8984 -1.0959
  125TMC2    H1 1949   3.411   4.031   9.918  0.5050 -1.0566 -0.1698
  125TMC2    H2 1950   3.613   3.778   9.657  1.2167  2.1514  1.2117
  125TMC2    C7 1951   3.627   3.903   9.894  0.0637 -0.1971  0.4772
  125TMC2    C8 1952   3.436   3.798   9.463  0.3343  0.7502 -0.7208
  125TMC2    O1 1953   3.612   3.960  10.005 -0.3314 -0.3612  0.2392
  125TMC2    O2 1954   3.344   3.765   9.392  0.2977 -0.6352  0.0072
  125TMC2    O5 1955   3.558   3.830   9.434  0.0482  0.6990 -0.4564
  125TMC2    H5 1956   3.596   3.894   9.498 -0.2532  1.0188 -0.5954
  126MPD1     C 1957   2.841   4.154  10.174  0.5059 -0.1007  0.3956
  126MPD1    C1 1958   2.963   4.118  10.231 -0.3672  0.5386 -0.4198
  126MPD1    C2 1959   3.056   4.064  10.143 -0.0053  0.4445  0.5266
  126MPD1    C3 1960   3.041   4.076  10.005 -0.0971 -0.0110 -0.1786
  126MPD1    C4 1961   2.921   4.116   9.953  0.9553  0.4266 -0.3421
  126MPD1    C5 1962   2.824   4.163  10.038 -0.2334 -0.1742  0.4748
  126MPD1     H 1963   3.153   4.032  10.179 -0.1748 -3.3068 -2.3580
  126MPD1    H1 1964   2.890   4.108   9.849  2.0140  0.7132 -0.6754
  126MPD1    H2 1965   2.765   4.191  10.241  0.6169 -0.2069  0.5812
  126MPD1    H3 1966   2.727   4.189   9.998 -0.2454 -0.5062  0.2827
  126MPD1     N 1967   3.151   4.021   9.933 -0.5071 -0.9403  0.6643
  126MPD1    H5 1968   3.234   3.998   9.987  0.0393 -0.3946  0.0589
  126MPD1    N1 1969   2.979   4.105  10.371 -0.0803  0.4233 -0.1468
  126MPD1    H6 1970   3.071   4.076  10.403 -0.9980  0.7713  2.8570
  126MPD1    H7 1971   2.932   4.187  10.408  1.4914  0.4233  1.8219
  127TMC2    C1 1972   0.370   2.304   9.680  0.2928 -0.2109 -0.7332
  127TMC2    C2 1973   0.467   2.212   9.670  0.3816 -0.2851  0.3838
  127TMC2    C3 1974   0.447   2.084   9.712 -0.2972 -0.7624 -0.9066
  127TMC2    C4 1975   0.246   2.269   9.718  0.4284 -0.1723  0.2429
  127TMC2    C5 1976   0.224   2.135   9.740 -0.2032 -0.5510 -0.2983
  127TMC2    C6 1977   0.327   2.044   9.761 -0.3036  0.1335  0.5245
  127TMC2     C 1978   0.400   2.446   9.665  0.1429  0.4597  0.0914
  127TMC2     O 1979   0.521   2.476   9.675 -0.3495 -0.0720 -0.3119
  127TMC2     H 1980   0.567   2.242   9.641  0.8080 -1.6872  0.4058
  127TMC2    H1 1981   0.164   2.339   9.729 -0.1210 -0.9122  0.8315
  127TMC2    H2 1982   0.306   1.938   9.764  2.9893 -0.5498 -0.5984
  127TMC2    C7 1983   0.085   2.098   9.729  0.0079  0.1937  0.1281
  127TMC2    C8 1984   0.557   1.995   9.712  0.4617 -0.2078  0.4510
  127TMC2    O1 1985   0.015   2.183   9.682  0.2107 -0.2711  0.0045
  127TMC2    O2 1986   0.636   1.988   9.623  0.0909  0.3379  0.0127
  127TMC2    O5 1987   0.552   1.909   9.814 -0.0710  0.2369 -1.1270
  127TMC2    H5 1988   0.495   1.946   9.885  0.3261 -1.7620  0.2510
  128MPD2     C 1989   0.181   2.714   9.552 -0.3932 -0.3399  0.1508
  128MPD2    C1 1990   0.295   2.663   9.612 -0.3961  0.3659  0.3887
  128MPD2    C2 1991   0.396   2.741   9.661 -0.5965 -0.1178  0.0774
  128MPD2    C3 1992   0.400   2.878   9.637 -0.0801  0.0789 -0.3109
  128MPD2    C4 1993   0.289   2.935   9.582 -0.1930 -0.4382  0.6939
  128MPD2    C5 1994   0.186   2.849   9.538  0.2351 -0.0116  0.2021
  128MPD2     H 1995   0.481   2.697   9.712 -1.8371 -0.3671  1.9417
  128MPD2    H1 1996   0.279   3.042   9.568  1.0645 -0.7634 -2.6370
  128MPD2    H2 1997   0.109   2.651   9.500 -0.6049  0.2415 -0.2600
  128MPD2    H3 1998   0.105   2.898   9.486 -0.0487 -0.5603  0.1320
  128MPD2     N 1999   0.511   2.957   9.685 -0.0103  0.0903 -0.7934
  128MPD2    H5 2000   0.586   2.901   9.724 -1.5808 -1.4876 -0.0196
  128MPD2    N1 2001   0.288   2.525   9.642 -0.3440 -0.4704  0.2488
  128MPD2    H7 2002   0.196   2.483   9.641 -0.1219 -0.9805  0.7696
  129TMC2    C1 2003   3.833   3.023   1.699 -0.4460  0.1228 -0.7284
  129TMC2    C2 2004   3.953   3.080   1.660  0.1736  0.4744  0.3654
  129TMC2    C3 2005   4.063   3.000   1.677  0.3177 -0.0719 -0.0448
  129TMC2    C4 2006   3.823   2.888   1.727  0.1806  0.2009  0.2298
  129TMC2    C5 2007   3.933   2.809   1.719 -0.0233 -0.2431 -0.3354
  129TMC2    C6 2008   4.057   2.866   1.702 -0.0443  0.3374  0.8835
  129TMC2     C 2009   3.706   3.092   1.680 -0.6690 -0.0496 -0.4203
  129TMC2     O 2010   3.611   3.068   1.753 -0.0605  0.2622 -0.3229
  129TMC2     H 2011   3.970   3.187   1.657  0.5696  0.3849 -0.4605
  129TMC2    H1 2012   3.721   2.850   1.731  0.3044 -0.2861 -1.2151
  129TMC2    H2 2013   4.151   2.813   1.691 -0.7941 -0.7722 -0.1371
  129TMC2    C7 2014   3.904   2.671   1.758 -0.9147  0.4912 -0.2831
  129TMC2    C8 2015   4.195   3.053   1.662 -0.2548  0.3420  0.5750
  129TMC2    O1 2016   3.789   2.642   1.783 -0.1640  0.0560  0.3131
  129TMC2    O2 2017   4.214   3.151   1.593 -0.4892 -0.3395 -0.4286
  129TMC2    O5 2018   4.276   3.016   1.755 -0.1723 -0.3745 -0.0890
  129TMC2    H5 2019   4.260   2.948   1.823 -3.4408  0.8662  0.3350
  130MPD2     C 2020   3.490   3.245   1.563  0.1732  0.0292 -0.0968
  130MPD2    C1 2021   3.626   3.280   1.545 -0.9637  0.3873  0.3300
  130MPD2    C2 2022   3.674   3.401   1.503  0.1723  0.0012 -0.1926
  130MPD2    C3 2023   3.584   3.499   1.475 -0.6481 -0.5593  0.0899
  130MPD2    C4 2024   3.447   3.475   1.498  0.5426  0.2421  0.2118
  130MPD2    C5 2025   3.400   3.347   1.534 -0.1436  0.5768 -0.3975
  130MPD2     H 2026   3.779   3.422   1.488 -0.1333  2.2213  0.6500
  130MPD2    H1 2027   3.367   3.548   1.492  0.9175  0.6883  0.6023
  130MPD2    H2 2028   3.456   3.153   1.607  1.6402 -0.0924  0.7742
  130MPD2    H3 2029   3.296   3.329   1.558 -0.1839  1.0560 -0.2138
  130MPD2     N 2030   3.628   3.621   1.425 -0.3353  0.0208 -0.6199
  130MPD2    H5 2031   3.728   3.633   1.411 -0.1401  0.1276  0.8156
  130MPD2    N1 2032   3.724   3.188   1.590  0.1705  0.6750 -0.5983
  130MPD2    H7 2033   3.821   3.213   1.572  1.1200 -3.5549 -1.3561
  131TMC2    C1 2034   2.206   1.931  10.332  0.2872 -0.5384  0.2134
  131TMC2    C2 2035   2.154   2.045  10.280  0.3768  0.4950  0.2346
  131TMC2    C3 2036   2.237   2.156  10.295 -0.0079  0.0409  0.6179
  131TMC2    C4 2037   2.324   1.930  10.399  0.2924  0.5820 -0.2137
  131TMC2    C5 2038   2.400   2.042  10.407 -0.8107 -0.0055  0.1301
  131TMC2    C6 2039   2.364   2.159  10.349  0.5550 -0.0158  0.1912
  131TMC2     C 2040   2.135   1.808  10.339 -0.8002 -0.1950 -0.4519
  131TMC2     O 2041   2.169   1.732  10.428  0.4100 -0.0627  0.0777
  131TMC2     H 2042   2.057   2.060  10.233  0.1170  1.6323  1.1592
  131TMC2    H1 2043   2.357   1.834  10.439  0.5233 -0.0357 -1.8994
  131TMC2    H2 2044   2.424   2.249  10.351 -2.2205  1.8242  0.9341
  131TMC2    C7 2045   2.530   2.037  10.472  0.6498 -0.0627  0.0160
  131TMC2    C8 2046   2.177   2.285  10.266  0.5009 -0.1686 -0.4385
  131TMC2    O1 2047   2.548   1.943  10.544  0.5399  0.2439 -0.0365
  131TMC2    O2 2048   2.088   2.294  10.185  0.2943  0.2635  0.4871
  131TMC2    O5 2049   2.166   2.350  10.380 -0.0352  0.4799 -0.2227
  131TMC2    H5 2050   2.225   2.327  10.454 -0.0497  1.6958  0.1695
  132MPD2     C 2051   1.893   1.674  10.087 -0.3366  0.6124 -0.6464
  132MPD2    C1 2052   1.971   1.670  10.202 -0.5492 -0.1688  0.6872
  132MPD2    C2 2053   1.973   1.545  10.266  0.9030 -0.1070  0.0144
  132MPD2    C3 2054   1.904   1.436  10.217  0.3111 -0.1962 -0.6433
  132MPD2    C4 2055   1.822   1.451  10.105 -0.1809 -0.0231  0.1744
  132MPD2    C5 2056   1.811   1.576  10.043  0.4539 -0.4370  0.7007
  132MPD2     H 2057   2.042   1.530  10.348  0.6738 -0.8194  0.0733
  132MPD2    H1 2058   1.744   1.380  10.078 -0.6892  0.4903  0.2833
  132MPD2    H2 2059   1.880   1.769  10.037  0.7942  0.1661 -1.7570
  132MPD2    H3 2060   1.738   1.592   9.965  0.8809 -0.5977  0.2629
  132MPD2     N 2061   1.924   1.311  10.283  0.6697  0.3913 -0.3340
  132MPD2    H5 2062   1.968   1.313  10.374 -1.1834 -2.4788  0.5957
  132MPD2    N1 2063   2.030   1.795  10.241 -0.5675  0.5557 -0.2582
  132MPD2    H7 2064   2.018   1.875  10.179  0.7656  0.3846 -0.7477
  133TMC2    C1 2065   2.256   3.238   9.343 -0.1262  0.6104  0.0986
  133TMC2    C2 2066   2.248   3.347   9.255 -0.7471 -1.3742 -0.3422
  133TMC2    C3 2067   2.327   3.453   9.277  0.0804  0.1539 -0.1902
  133TMC2    C4 2068   2.342   3.247   9.450  0.6054  0.2854 -0.3922
  133TMC2    C5 2069   2.416   3.355   9.469  0.4162  0.1784  0.3531
  133TMC2    C6 2070   2.406   3.473   9.394  0.2325  0.6291 -0.3651
  133TMC2     C 2071   2.187   3.113   9.326  0.1758 -0.8534  0.6043
  133TMC2     O 2072   2.231   3.019   9.395 -0.2881 -0.0156 -0.0586
  133TMC2     H 2073   2.191   3.347   9.162  0.0605 -0.8617 -0.8421
  133TMC2    H1 2074   2.352   3.158   9.511  0.9878 -0.7886 -2.0271
  133TMC2    H2 2075   2.477   3.555   9.405  1.0066  0.3373 -3.4389
  133TMC2    C7 2076   2.470   3.370   9.600  0.3928 -0.0263 -0.3628
  133TMC2    C8 2077   2.318   3.560   9.188  0.7229 -0.0253 -0.1889
  133TMC2    O1 2078   2.436   3.283   9.679 -0.8086  0.2395 -0.3664
  133TMC2    O2 2079   2.368   3.670   9.221  0.1109 -0.3354 -0.1958
  133TMC2    O5 2080   2.324   3.509   9.064 -0.3664 -0.2117 -0.3335
  133TMC2    H5 2081   2.324   3.411   9.051 -2.8211 -0.2601  0.1688
  134MPD2     C 2082   1.886   3.032   9.131 -0.2217  0.0551  0.2605
  134MPD2    C1 2083   1.977   3.012   9.224 -0.5209 -0.2261 -0.1435
  134MPD2    C2 2084   1.977   2.893   9.300  0.5919 -0.4271  0.7171
  134MPD2    C3 2085   1.877   2.801   9.270 -0.0330  0.0165  0.6693
  134MPD2    C4 2086   1.788   2.820   9.177 -0.1076 -0.3686 -0.0292
  134MPD2    C5 2087   1.790   2.942   9.113 -0.1241  1.1988  0.5455
  134MPD2     H 2088   2.043   2.884   9.386  0.7760 -1.3064  0.4905
  134MPD2    H1 2089   1.704   2.752   9.168 -0.2110 -0.3447  0.7502
  134MPD2    H2 2090   1.888   3.129   9.082 -0.0927 -0.6031 -1.0535
  134MPD2    H3 2091   1.727   2.950   9.025 -0.0705 -2.4225  0.1832
  134MPD2     N 2092   1.854   2.684   9.343  0.5577 -0.0414 -0.0191
  134MPD2    H5 2093   1.776   2.628   9.311  1.2101 -1.4493  0.8712
  134MPD2    N1 2094   2.084   3.109   9.236 -0.0207  0.2273 -0.8361
  134MPD2    H7 2095   2.054   3.196   9.193 -0.6042  0.4275 -0.0277
  135TMC2    C1 2096   3.947   4.334  10.925 -0.2625  0.8781  0.5570
  135TMC2    C2 2097   3.909   4.423  11.017  0.4729 -0.1439  0.0195
  135TMC2    C3 2098   3.835   4.384  11.125  0.1226 -0.8934  0.4244
  135TMC2    C4 2099   3.925   4.198  10.947 -0.1145  0.1610 -0.0010
  135TMC2    C5 2100   3.864   4.154  11.066 -0.0232 -0.8706  0.5557
  135TMC2    C6 2101   3.815   4.250  11.156 -0.2374 -0.4898 -0.1750
  135TMC2     C 2102   4.058   4.373  10.840  0.1755  0.4292  0.4092
  135TMC2     O 2103   4.128   4.462  10.893 -0.1089 -0.3038  0.3019
  135TMC2     H 2104   3.926   4.529  11.000  1.4507  0.1261  2.6988
  135TMC2    H1 2105   3.967   4.130  10.873 -3.5046  0.2043 -1.9459
  135TMC2    H2 2106   3.758   4.228  11.245  0.2711 -0.9887  0.0258
  135TMC2    C7 2107   3.819   4.020  11.081  0.4622  0.0130 -0.5166
  135TMC2    C8 2108   3.734   4.469  11.187  0.2034 -0.3222 -0.1078
  135TMC2    O1 2109   3.752   4.005  11.184  0.3669 -0.2956 -0.0690
  135TMC2    O2 2110   3.624   4.415  11.184 -0.2321  0.5638  0.4993
  135TMC2    O5 2111   3.759   4.590  11.144  0.0286 -0.3285 -0.4500
  135TMC2    H5 2112   3.851   4.622  11.163 -0.5257  1.3495 -0.5825
  136MPD2     C 2113   4.212   4.506  10.623 -0.4854 -1.0678  0.4286
  136MPD2    C1 2114   4.140   4.389  10.603  0.0658 -0.4164 -0.4688
  136MPD2    C2 2115   4.132   4.328  10.477 -0.4281  0.0853 -0.4800
  136MPD2    C3 2116   4.202   4.387  10.370  0.1109  0.1804  0.3030
  136MPD2    C4 2117   4.285   4.499  10.400 -0.6329  0.0539 -0.3182
  136MPD2    C5 2118   4.295   4.555  10.525  0.5689 -0.2777  0.6576
  136MPD2     H 2119   4.074   4.238  10.460 -0.9131  0.7109 -2.1039
  136MPD2    H1 2120   4.348   4.544  10.324  0.3541  0.9823  1.0411
  136MPD2    H2 2121   4.210   4.555  10.720  0.5450 -0.2071  0.0110
  136MPD2    H3 2122   4.362   4.633  10.561  0.3791  0.1196  0.1471
  136MPD2     N 2123   4.181   4.361  10.232 -0.3827 -0.2183 -0.1830
  136MPD2    H5 2124   4.238   4.414  10.167 -1.5352  0.5018 -0.6234
  136MPD2    N1 2125   4.062   4.331  10.707  0.1394 -0.3128  0.1228
  136MPD2    H7 2126   4.020   4.242  10.683 -0.4862  0.2183 -0.7331
  137TMC2    C1 2127   4.139   1.913  10.131  0.4418 -0.3447 -0.1092
  137TMC2    C2 2128   4.178   1.797  10.072 -0.3389 -0.6091 -0.3002
  137TMC2    C3 2129   4.090   1.694  10.064  0.7369  0.0218  0.2376
  137TMC2    C4 2130   4.010   1.923  10.187 -0.3843 -0.1914 -0.1045
  137TMC2    C5 2131   3.926   1.811  10.175  0.4375  0.3249 -0.4197
  137TMC2    C6 2132   3.963   1.696  10.115 -0.1098 -0.9095  0.1299
  137TMC2     C 2133   4.224   2.038  10.154  0.0770  0.0403 -0.4496
  137TMC2     O 2134   4.173   2.129  10.215  0.4314  0.2993  0.0814
  137TMC2     H 2135   4.277   1.793  10.029 -0.6828  0.1576 -1.1453
  137TMC2    H1 2136   3.987   2.017  10.236  1.3886  1.6463 -2.7897
  137TMC2    H2 2137   3.896   1.611  10.112  0.3176 -1.1885 -2.4335
  137TMC2    C7 2138   3.805   1.815  10.250  0.2173 -0.3964 -0.3323
  137TMC2    C8 2139   4.138   1.566  10.004 -0.0703  0.0192  0.0193
  137TMC2    O1 2140   3.755   1.708  10.279  0.0996 -0.0496 -0.1057
  137TMC2    O2 2141   4.065   1.505   9.925  0.1031  0.0510  0.3810
  137TMC2    O5 2142   4.257   1.532  10.054  0.0847 -0.4656  0.1552
  137TMC2    H5 2143   4.284   1.587  10.131 -2.5549  2.8510 -1.3099
  138MPD2     C 2144   4.585   2.061  10.106 -0.9648 -0.5856 -0.2157
  138MPD2    C1 2145   4.464   2.088  10.165  0.1148 -0.7157 -0.3448
  138MPD2    C2 2146   4.450   2.195  10.248 -0.1932  0.4888  0.0690
  138MPD2    C3 2147   4.568   2.238  10.308 -0.4847 -0.2547  0.2413
  138MPD2    C4 2148   4.690   2.197  10.267 -0.1411 -0.0075  0.0711
  138MPD2    C5 2149   4.698   2.126  10.151  0.1900 -0.1952  0.3624
  138MPD2     H 2150   4.358   2.227  10.295  1.1684  3.2244  0.8554
  138MPD2    H1 2151   0.047   2.212  10.319 -1.6921  1.2115  2.4620
  138MPD2    H2 2152   4.593   1.987  10.028  1.4017 -1.5350  0.9205
  138MPD2    H3 2153   0.060   2.104  10.110 -0.4513  0.6278 -1.6123
  138MPD2     N 2154   4.554   2.332  10.415  0.4419 -0.1824  0.4843
  138MPD2    H5 2155   4.455   2.355  10.428  0.3553  0.5693 -1.4168
  138MPD2    N1 2156   4.354   2.019  10.117 -0.0787 -0.1041  0.0190
  138MPD2    H7 2157   4.383   1.936  10.066 -0.9778  0.4780 -1.4292
  139TMC2    C1 2158   0.107   1.263  13.747 -0.0893  0.3767 -0.3756
  139TMC2    C2 2159   0.240   1.267  13.784  0.1772 -0.2915 -0.6920
  139TMC2    C3 2160   0.313   1.386  13.779  0.7547 -0.4446 -0.5606
  139TMC2    C4 2161   0.056   1.379  13.685  0.4199 -0.2883 -0.5692
  139TMC2    C5 2162   0.134   1.494  13.671 -0.6093 -0.0390  0.1716
  139TMC2    C6 2163   0.257   1.498  13.727  0.2652  0.7833  0.1127
  139TMC2     C 2164   0.028   1.148  13.768  0.2596  0.0184  0.1208
  139TMC2     O 2165   0.086   1.083  13.857  0.1023  0.5708 -0.0071
  139TMC2     H 2166   0.290   1.185  13.833  1.3544  1.2973  0.7524
  139TMC2    H1 2167   4.696   1.369  13.635 -1.4879  1.8932  2.6626
  139TMC2    H2 2168   0.317   1.588  13.730  1.8550 -0.2839  0.3370
  139TMC2    C7 2169   0.062   1.624  13.648 -0.3050 -0.1332 -0.3098
  139TMC2    C8 2170   0.454   1.377  13.803  0.1616 -0.0356  0.1501
  139TMC2    O1 2171   4.702   1.620  13.567 -0.1251  0.0877  0.1811
  139TMC2    O2 2172   0.515   1.268  13.816 -0.0187  0.8579 -0.4642
  139TMC2    O5 2173   0.477   1.496  13.863  0.3690 -0.2858 -0.3996
  139TMC2    H5 2174   0.398   1.552  13.867  1.3845  1.0438  0.9245
  140MPD2     C 2175   4.456   1.004  13.634 -0.2447  0.3384  0.1655
  140MPD2    C1 2176   4.573   1.008  13.704 -0.3659  0.7303 -0.3855
  140MPD2    C2 2177   4.627   0.893  13.761 -0.7047  0.4876 -0.6155
  140MPD2    C3 2178   4.558   0.770  13.746  0.2140  0.2993 -0.3248
  140MPD2    C4 2179   4.446   0.761  13.669  0.2527 -0.0215  0.2641
  140MPD2    C5 2180   4.400   0.882  13.613 -0.5149  0.3229  0.3417
  140MPD2     H 2181   4.705   0.900  13.836 -0.8841 -0.3850 -0.3440
  140MPD2    H1 2182   4.389   0.670  13.660 -0.1850  0.3430 -0.6212
  140MPD2    H2 2183   4.405   1.085  13.583  0.1909  0.1644 -0.5457
  140MPD2    H3 2184   4.309   0.867  13.556 -0.7432  1.3298  0.4462
  140MPD2     N 2185   4.625   0.657  13.808 -0.6775 -0.1088 -0.1102
  140MPD2    H5 2186   4.723   0.673  13.832 -0.5803 -2.7993  1.1993
  140MPD2    N1 2187   4.638   1.136  13.710  0.7111 -0.2139  0.4218
  140MPD2    H7 2188   4.600   1.211  13.654  0.6296 -0.8618 -0.3857
  141TMC2    C1 2189   0.871   2.172  14.576 -0.0303 -0.1768  0.1666
  141TMC2    C2 2190   0.826   2.143  14.707  0.0703 -0.2943  0.0523
  141TMC2    C3 2191   0.801   2.246  14.790  0.8326  0.0412 -0.6555
  141TMC2    C4 2192   0.877   2.300  14.529  0.1731 -0.2439  0.0649
  141TMC2    C5 2193   0.862   2.402  14.625 -0.1354  0.3152 -0.3994
  141TMC2    C6 2194   0.827   2.377  14.756  0.0899 -0.4987 -0.0800
  141TMC2     C 2195   0.887   2.065  14.480 -1.1510 -0.2296 -0.3398
  141TMC2     O 2196   0.864   2.082  14.360  0.5882 -0.0116  0.4507
  141TMC2     H 2197   0.795   2.046  14.743  1.1762 -0.9097 -0.6554
  141TMC2    H1 2198   0.890   2.329  14.426 -1.1469  0.1274  0.0091
  141TMC2    H2 2199   0.811   2.454  14.831  0.4628 -1.1526  0.6753
  141TMC2    C7 2200   0.922   2.529  14.594  0.1054 -0.3863 -0.1175
  141TMC2    C8 2201   0.778   2.227  14.935 -0.7618  0.1871 -0.1220
  141TMC2    O1 2202   0.880   2.628  14.645 -0.2655  0.1901  0.2746
  141TMC2    O2 2203   0.827   2.305  15.018  0.1446 -0.7290  0.4485
  141TMC2    O5 2204   0.740   2.100  14.966 -0.0862 -0.1085  0.0385
  141TMC2    H5 2205   0.679   2.073  14.894  0.9487  5.4586 -2.9504
  142TMC2    C1 2206   2.283   1.393  10.214 -0.7129  0.0064  0.1251
  142TMC2    C2 2207   2.337   1.438  10.097  0.0568 -0.5314 -0.3814
  142TMC2    C3 2208   2.419   1.546  10.104  0.0985  0.1269 -0.5898
  142TMC2    C4 2209   2.330   1.448  10.330 -1.1120  0.3290  0.5082
  142TMC2    C5 2210   2.420   1.556  10.337 -0.3391 -0.2150  0.0871
  142TMC2    C6 2211   2.464   1.612  10.215  0.1959 -0.1163 -0.3506
  142TMC2     C 2212   2.285   1.245  10.211  0.1923  0.3811  0.8320
  142TMC2     O 2213   2.230   1.194  10.115 -0.0115  0.9026 -0.4231
  142TMC2     H 2214   2.318   1.384  10.005 -0.9743 -0.8754  0.0351
  142TMC2    H1 2215   2.284   1.406  10.418 -1.7103  0.6856  0.3679
  142TMC2    H2 2216   2.527   1.700  10.216 -0.1414  0.1310 -1.5009
  142TMC2    C7 2217   2.503   1.544  10.452  0.0027  0.3253  0.4801
  142TMC2    C8 2218   2.425   1.618   9.976 -0.4802 -0.1440 -0.2478
  142TMC2    O1 2219   2.493   1.438  10.517 -0.2945 -0.4049  0.8918
  142TMC2    O2 2220   2.341   1.629   9.891 -0.4669  0.1912  0.2459
  142TMC2    O5 2221   2.530   1.706   9.982 -0.2052 -0.0996  0.5632
  142TMC2    H5 2222   2.599   1.669  10.042  1.8056  2.3435 -0.2631
  143MPD2     C 2223   2.379   0.829  10.494  0.3558  0.6242  0.2871
  143MPD2    C1 2224   2.298   0.848  10.386  0.3852 -0.4731  0.4231
  143MPD2    C2 2225   2.290   0.975  10.329 -0.1250 -0.3191  0.2986
  143MPD2    C3 2226   2.351   1.081  10.384  0.0486 -0.3282  0.2708
  143MPD2    C4 2227   2.416   1.062  10.508  0.1602 -0.3767 -0.7495
  143MPD2    C5 2228   2.444   0.928  10.551  0.1654  0.9316 -1.0985
  143MPD2     H 2229   2.236   0.985  10.235  0.7480 -1.4009 -0.3235
  143MPD2    H1 2230   2.451   1.143  10.571 -1.0445 -0.2388 -0.2435
  143MPD2    H2 2231   2.386   0.727  10.529 -3.9908 -0.9647 -3.4575
  143MPD2    H3 2232   2.511   0.909  10.634 -2.2868  0.1088  0.7165
  143MPD2     N 2233   2.348   1.206  10.329 -0.2177 -0.3256 -0.6025
  143MPD2    H5 2234   2.398   1.276  10.383  1.7995 -1.8443 -0.4939
  143MPD2    N1 2235   2.233   0.734  10.340  0.2977 -0.1283 -0.3693
  143MPD2    H7 2236   2.223   0.655  10.402 -1.0990 -0.4476 -0.9861
  144TMC2    C1 2237   1.865   4.514   0.647 -0.4486  0.1656  0.6602
  144TMC2    C2 2238   1.950   4.489   0.540 -0.1672 -0.2054  0.2619
  144TMC2    C3 2239   2.082   4.482   0.561 -0.0040 -0.8516 -0.0209
  144TMC2    C4 2240   1.924   4.533   0.769  0.1265 -0.0282  0.0197
  144TMC2    C5 2241   2.059   4.538   0.771  0.9340 -0.2148 -0.0467
  144TMC2    C6 2242   2.146   4.504   0.676 -0.1112  0.0979  0.0514
  144TMC2     C 2243   1.725   4.491   0.630  0.5356 -1.1091  0.7402
  144TMC2     O 2244   1.680   4.499   0.512  0.0984 -0.6319 -0.0901
  144TMC2     H 2245   1.903   4.467   0.444  0.3043  0.7828 -0.2036
  144TMC2    H1 2246   1.868   4.558   0.858 -1.2493 -3.5470  0.1215
  144TMC2    H2 2247   2.254   4.512   0.686 -0.0607  0.5818 -0.8506
  144TMC2    C7 2248   2.126   4.596   0.893  0.6538 -0.3898 -0.1021
  144TMC2    C8 2249   2.173   4.509   0.451 -0.1801 -0.2692  0.0177
  144TMC2    O1 2250   2.247   4.574   0.890 -0.1668  0.2283  0.9834
  144TMC2    O2 2251   2.274   4.580   0.456 -0.0279  0.2292  0.2366
  144TMC2    O5 2252   2.131   4.450   0.343  0.2891  0.1282 -0.3264
  144TMC2    H5 2253   2.067   4.377   0.356 -0.9297  1.2851  0.1226
  145MPD2     C 2254   1.242   4.533   0.804 -0.1821 -0.5210  0.8172
  145MPD2    C1 2255   1.289   4.515   0.678 -0.5172  0.1659 -0.8660
  145MPD2    C2 2256   1.424   4.512   0.659 -0.6294  0.6536 -0.9902
  145MPD2    C3 2257   1.516   4.511   0.764  0.2936 -0.1179 -0.0241
  145MPD2    C4 2258   1.464   4.527   0.887 -0.1175  1.2834  0.5885
  145MPD2    C5 2259   1.329   4.545   0.907 -0.1883  0.1090 -0.1846
  145MPD2     H 2260   1.452   4.507   0.555  0.6571  0.1598 -0.6140
  145MPD2    H1 2261   1.527   4.526   0.975  1.8356 -3.6291 -0.8513
  145MPD2    H2 2262   1.137   4.544   0.829 -0.6291  0.0100 -1.2908
  145MPD2    H3 2263   1.289   4.567   1.006 -0.3877 -0.5105 -0.1305
  145MPD2     N 2264   1.654   4.512   0.746  0.3847  0.6966  0.6732
  145MPD2    H5 2265   1.707   4.498   0.832  1.6881  1.8642  0.0534
  145MPD2    N1 2266   1.204   4.510   0.564 -0.0756 -0.2028  0.3191
  145MPD2    H7 2267   1.257   4.505   0.477  0.2879 -0.4813  0.5552
  146TMC2    C1 2268   2.919   3.346  12.543  0.0119 -0.4533 -0.4405
  146TMC2    C2 2269   2.844   3.348  12.429  0.6641 -0.0642 -0.3222
  146TMC2    C3 2270   2.902   3.307  12.317 -0.0325 -0.0821  0.1746
  146TMC2    C4 2271   3.050   3.320  12.547 -0.5993 -0.6811 -0.1502
  146TMC2    C5 2272   3.106   3.267  12.435  0.5914 -0.5911 -0.5513
  146TMC2    C6 2273   3.036   3.265  12.315 -1.6559 -0.7837  0.4019
  146TMC2     C 2274   2.852   3.398  12.663  0.0744  0.3497 -0.1608
  146TMC2     O 2275   2.762   3.478  12.646  0.5097 -1.2429 -0.1418
  146TMC2     H 2276   2.741   3.381  12.429  0.8573  0.5347  1.7798
  146TMC2    H1 2277   3.107   3.344  12.636  0.0775 -2.0612 -0.2027
  146TMC2    H2 2278   3.091   3.232  12.228 -1.4838 -0.6804  0.4708
  146TMC2    C7 2279   3.246   3.226  12.429 -0.9749 -0.0840  0.3228
  146TMC2    C8 2280   2.823   3.278  12.201  0.0816 -0.2254  0.1361
  146TMC2    O1 2281   3.301   3.191  12.329 -0.1573  0.3430  0.0392
  146TMC2    O2 2282   2.705   3.241  12.214 -0.7992  0.4756 -0.3836
  146TMC2    O5 2283   2.906   3.228  12.113  0.4596  0.2026  0.4680
  146TMC2    H5 2284   2.991   3.277  12.122  2.0598 -2.9973  2.6333
  147MPD2     C 2285   3.670   3.129  12.729 -0.2443  0.1175 -0.0573
  147MPD2    C1 2286   3.555   3.127  12.803  0.0016  0.3859 -0.2043
  147MPD2    C2 2287   3.433   3.160  12.737 -0.3473 -0.9744 -0.2050
  147MPD2    C3 2288   3.422   3.191  12.604  0.3871 -0.7158 -0.4790
  147MPD2    C4 2289   3.537   3.189  12.536 -0.4909  0.2221 -0.7471
  147MPD2    C5 2290   3.654   3.157  12.595 -0.5720  0.0013 -0.4917
  147MPD2     H 2291   3.339   3.157  12.790  0.3595  1.9151  1.2179
  147MPD2    H1 2292   3.547   3.203  12.429  0.0007 -0.5942 -0.8076
  147MPD2    H2 2293   3.766   3.102  12.769  1.3088  2.2393 -2.3574
  147MPD2    H3 2294   3.735   3.149  12.524  2.0357  0.6404  2.4064
  147MPD2     N 2295   3.297   3.226  12.557  0.1590  0.2838 -0.1206
  147MPD2    H5 2296   3.228   3.237  12.631 -0.3698  3.5893 -1.1267
  147MPD2    N1 2297   3.559   3.092  12.934  0.0926  0.0029  0.1267
  147MPD2    H7 2298   3.652   3.071  12.968 -0.3085 -1.7941  0.1266
  148TMC2    C1 2299   2.971   2.666  10.699  0.0695 -0.4299  0.0036
  148TMC2    C2 2300   3.099   2.656  10.658 -0.1804  0.3702 -0.5042
  148TMC2    C3 2301   3.167   2.541  10.705 -0.3862 -0.4996 -0.2132
  148TMC2    C4 2302   2.911   2.578  10.794 -0.2852 -0.1698  0.8884
  148TMC2    C5 2303   2.987   2.469  10.836  0.0523  0.3265  0.3564
  148TMC2    C6 2304   3.113   2.448  10.790 -0.0092 -0.3848  0.4734
  148TMC2     C 2305   2.872   2.730  10.607  0.7616 -0.5136  0.1226
  148TMC2     O 2306   2.919   2.786  10.508  0.4281 -0.9474  0.2258
  148TMC2     H 2307   3.133   2.714  10.573 -0.0864  0.6507 -0.2757
  148TMC2    H1 2308   2.826   2.611  10.853 -1.6049  1.4640 -1.8912
  148TMC2    H2 2309   3.170   2.358  10.810  1.6761  1.2970  3.2100
  148TMC2    C7 2310   2.907   2.356  10.888  0.4451 -0.5186 -0.0384
  148TMC2    C8 2311   3.274   2.487  10.636  0.0179  0.0291 -0.2285
  148TMC2    O1 2312   2.786   2.382  10.890  0.6953  0.4505 -0.1506
  148TMC2    O2 2313   3.269   2.373  10.596  0.7325 -0.3602  0.1832
  148TMC2    O5 2314   3.347   2.592  10.590 -0.2202 -0.2592  0.0773
  148TMC2    H5 2315   3.330   2.672  10.645 -1.7336 -1.6221  1.6112
  149MPD2     C 2316   2.620   2.806  10.458 -0.1534  0.1164 -0.0921
  149MPD2    C1 2317   2.625   2.732  10.567 -0.8057 -0.0841  0.1916
  149MPD2    C2 2318   2.509   2.687  10.626 -0.0781  0.0906 -0.2973
  149MPD2    C3 2319   2.387   2.706  10.565  0.2925 -0.3931  0.7556
  149MPD2    C4 2320   2.389   2.772  10.447  0.3776  1.1500  0.2978
  149MPD2    C5 2321   2.500   2.835  10.399  0.7049 -0.0516 -0.2399
  149MPD2     H 2322   2.522   2.630  10.717 -1.0232 -0.5662 -0.5753
  149MPD2    H1 2323   2.296   2.780  10.394 -0.2817 -1.2703  1.0780
  149MPD2    H2 2324   2.711   2.836  10.408 -0.5610  0.1210 -0.8383
  149MPD2    H3 2325   2.492   2.900  10.312  0.1787  2.4064  1.6453
  149MPD2     N 2326   2.264   2.651  10.618 -0.8229 -0.9559  0.1916
  149MPD2    H5 2327   2.189   2.646  10.549  0.2342  1.7992 -1.1618
  149MPD2    N1 2328   2.740   2.701  10.641 -0.1168  0.7467  0.1630
  149MPD2    H7 2329   2.738   2.644  10.725  2.1716  0.5634  0.1021
  150TMC2    C1 2330   4.333   1.564  12.301 -0.3492 -0.0223 -0.1507
  150TMC2    C2 2331   4.337   1.434  12.250  0.6387 -0.0554  0.2860
  150TMC2    C3 2332   4.454   1.365  12.272 -0.0662 -0.2867  0.1948
  150TMC2    C4 2333   4.425   1.612  12.393  0.5843  0.2454  0.4510
  150TMC2    C5 2334   4.527   1.529  12.420  0.3878 -0.0463 -1.0838
  150TMC2    C6 2335   4.549   1.406  12.355 -0.0594 -0.1476 -0.1016
  150TMC2     C 2336   4.222   1.653  12.267 -0.0803 -0.2339 -0.3489
  150TMC2     O 2337   4.198   1.745  12.342 -0.1307 -0.1665  0.2721
  150TMC2     H 2338   4.278   1.397  12.167 -1.6828  1.0140  1.4567
  150TMC2    H1 2339   4.413   1.708  12.442 -2.2088 -0.1362  0.5196
  150TMC2    H2 2340   4.642   1.352  12.364 -1.1145 -1.6418  1.6356
  150TMC2    C7 2341   4.626   1.594  12.499  0.4586  0.0902  0.5417
  150TMC2    C8 2342   4.483   1.263  12.174 -0.2229  0.4851 -0.3126
  150TMC2    O1 2343   4.621   1.714  12.517  0.5751 -0.5848 -0.4160
  150TMC2    O2 2344   4.399   1.217  12.096  0.0448 -0.1440  0.0366
  150TMC2    O5 2345   4.611   1.301  12.140  0.6255  0.4742 -0.6038
  150TMC2    H5 2346   4.667   1.359  12.195 -0.5734  1.7671 -0.7393
  151MPD2     C 2347   3.808   1.794  12.017 -0.0023  0.2060  0.5588
  151MPD2    C1 2348   3.853   1.678  11.961  0.2036  1.0443  0.2989
  151MPD2    C2 2349   3.970   1.616  12.001 -0.0435 -0.0622  0.4703
  151MPD2    C3 2350   4.038   1.677  12.106  0.2035 -0.1313 -0.3702
  151MPD2    C4 2351   3.997   1.794  12.157  0.2025  0.2953 -0.3152
  151MPD2    C5 2352   3.884   1.853  12.113  0.0243  0.0830 -1.0621
  151MPD2     H 2353   4.006   1.519  11.970  1.3035  0.4564  0.4125
  151MPD2    H1 2354   4.022   1.851  12.246 -1.9268 -1.4495  1.4133
  151MPD2    H2 2355   3.716   1.838  11.980 -0.3668 -0.3662  0.7808
  151MPD2    H3 2356   3.863   1.947  12.163 -0.8327  0.0402 -1.3403
  151MPD2     N 2357   4.144   1.606  12.163 -0.7191  0.2096 -0.3888
  151MPD2    H5 2358   4.169   1.522  12.111  2.9969  0.8850  0.3093
  151MPD2    N1 2359   3.772   1.627  11.860 -0.2661 -0.4887 -0.3624
  151MPD2    H7 2360   3.680   1.668  11.850  0.7185  0.9231 -3.7031
  152TMC2    C1 2361   4.454   1.306  12.822  0.2810 -0.9333  0.6995
  152TMC2    C2 2362   4.483   1.174  12.825 -0.5491  0.3293 -0.0304
  152TMC2    C3 2363   4.594   1.125  12.887 -0.3592  0.0114  0.8998
  152TMC2    C4 2364   4.538   1.398  12.878 -0.4721 -0.4518 -0.4013
  152TMC2    C5 2365   4.654   1.351  12.925 -0.0050  0.9085 -0.1805
  152TMC2    C6 2366   4.679   1.218  12.942  0.0541 -0.4465 -0.4090
  152TMC2     C 2367   4.340   1.355  12.746 -0.2750 -1.0378 -0.1185
  152TMC2     O 2368   4.304   1.470  12.773  0.4554  0.0604 -0.4466
  152TMC2     H 2369   4.429   1.103  12.764  5.2015 -2.1419 -2.2358
  152TMC2    H1 2370   4.525   1.505  12.862 -0.9973 -0.4717 -0.0963
  152TMC2    H2 2371   0.035   1.189  12.991  0.6786  1.2662 -0.5649
  152TMC2    C7 2372   4.708   1.441  13.029 -0.3137 -0.7844 -0.6352
  152TMC2    C8 2373   4.626   0.981  12.857  0.6495 -0.6306  0.2495
  152TMC2    O1 2374   4.631   1.523  13.079 -0.0398  0.4013  0.3079
  152TMC2    O2 2375   4.551   0.912  12.789 -0.1865 -0.2196 -0.4823
  152TMC2    O5 2376   4.722   0.932  12.930  0.2939 -0.1015  0.5222
  152TMC2    H5 2377   0.041   0.996  12.980 -2.1795  0.7499  2.1540
  153MPD2     C 2378   4.170   1.203  12.451  0.2177  0.2488 -0.0173
  153MPD2    C1 2379   4.191   1.303  12.552 -0.3115 -0.0288  0.9320
  153MPD2    C2 2380   4.116   1.413  12.557  0.8630 -0.5707  0.0182
  153MPD2    C3 2381   4.015   1.435  12.468 -0.6296  0.4988 -0.2531
  153MPD2    C4 2382   4.001   1.336  12.365 -0.1637  0.4112  0.0071
  153MPD2    C5 2383   4.070   1.218  12.365 -0.8583  0.1523 -0.3476
  153MPD2     H 2384   4.144   1.487  12.632  0.5649 -0.2696 -0.1712
  153MPD2    H1 2385   3.933   1.351  12.282 -0.8328 -0.3387  0.4252
  153MPD2    H2 2386   4.227   1.112  12.441  1.8999  1.1416  1.4507
  153MPD2    H3 2387   4.044   1.155  12.280  0.3342  0.3864 -0.8852
  153MPD2     N 2388   3.953   1.563  12.464 -0.2042  0.2565  0.0477
  153MPD2    H5 2389   3.989   1.634  12.526 -0.1516 -0.0869  0.4089
  153MPD2    N1 2390   4.294   1.275  12.647  0.4114  0.0067 -0.0008
  153MPD2    H7 2391   4.349   1.196  12.616 -0.5872 -0.7489  0.1689
  154TMC2    C1 2392   1.867   0.978   0.772 -0.6090  0.1969  0.4085
  154TMC2    C2 2393   1.897   0.987   0.907 -0.1353 -0.9359 -0.3088
  154TMC2    C3 2394   2.026   0.987   0.944 -0.1320  0.0123 -0.3601
  154TMC2    C4 2395   1.962   0.969   0.675 -0.0581  0.0649  0.0500
  154TMC2    C5 2396   2.090   0.974   0.717  0.1406 -1.1595  0.1179
  154TMC2    C6 2397   2.122   0.985   0.850  0.4838  0.2335 -0.4448
  154TMC2     C 2398   1.734   1.023   0.726  0.6046 -0.3637  0.8336
  154TMC2     O 2399   1.668   1.089   0.802 -0.4377  0.0709  0.4323
  154TMC2     H 2400   1.816   0.994   0.979  0.5832  0.2964  0.3833
  154TMC2    H1 2401   1.934   0.958   0.571  1.1061  0.1903 -0.2709
  154TMC2    H2 2402   2.227   0.988   0.877  0.1831  1.1261  0.6194
  154TMC2    C7 2403   2.203   0.978   0.621  0.0654  0.5492 -0.9450
  154TMC2    C8 2404   2.073   1.017   1.072  0.5581 -0.1407 -0.0466
  154TMC2    O1 2405   2.308   0.934   0.661  0.7762  0.5105  0.3871
  154TMC2    O2 2406   2.013   1.097   1.143  0.0663  0.0837 -0.6953
  154TMC2    O5 2407   2.162   0.917   1.109 -1.0751 -0.5763 -0.1503
  154TMC2    H5 2408   2.202   0.855   1.044  1.3323  0.9093 -0.0900
  155MPD2     C 2409   1.549   1.013   0.400  0.4303 -0.6712  0.5821
  155MPD2    C1 2410   1.593   1.059   0.519  0.2573  0.0382  0.1277
  155MPD2    C2 2411   1.526   1.173   0.572 -1.2431 -0.5637 -0.8112
  155MPD2    C3 2412   1.426   1.229   0.502 -0.0213 -0.6621  0.3261
  155MPD2    C4 2413   1.391   1.182   0.380  0.0113 -0.0343  0.3190
  155MPD2    C5 2414   1.457   1.072   0.328 -0.3187  0.0398  1.0823
  155MPD2     H 2415   1.559   1.228   0.659 -2.3213 -0.5352 -0.4262
  155MPD2    H1 2416   1.315   1.233   0.321  1.1214  2.2640  0.8599
  155MPD2    H2 2417   1.601   0.941   0.338  2.5550  2.0269 -0.7643
  155MPD2    H3 2418   1.432   1.041   0.227 -1.4204  1.2592  0.9826
  155MPD2     N 2419   1.375   1.346   0.559  0.4795  0.0750 -0.4187
  155MPD2    H5 2420   1.417   1.377   0.646 -0.2577 -1.2429  0.4124
  155MPD2    N1 2421   1.699   0.993   0.597  0.4120 -0.2751 -0.0586
  155MPD2    H7 2422   1.753   0.921   0.549 -0.2724 -1.4267  0.8886
  156TMC2    C1 2423   4.234   3.985  12.080 -0.7620  0.2440 -0.8875
  156TMC2    C2 2424   4.121   3.926  12.035 -0.2913  0.6724 -0.8142
  156TMC2    C3 2425   4.025   4.012  11.988 -0.4519  1.1262  0.4838
  156TMC2    C4 2426   4.257   4.125  12.061 -0.5478 -0.4406 -0.3086
  156TMC2    C5 2427   4.166   4.199  11.994  0.0769  0.0645 -0.0119
  156TMC2    C6 2428   4.038   4.149  11.975 -0.2148  0.7981 -0.1293
  156TMC2     C 2429   4.299   3.916  12.195  0.4151 -0.3890  0.5843
  156TMC2     O 2430   4.419   3.937  12.218 -0.1557 -0.3395  0.4635
  156TMC2     H 2431   4.105   3.819  12.031  0.9497  0.4663 -0.4322
  156TMC2    H1 2432   4.350   4.174  12.087 -0.8802  1.5374 -2.8484
  156TMC2    H2 2433   3.956   4.199  11.924 -0.9977 -0.4997 -0.1440
  156TMC2    C7 2434   4.190   4.335  11.980 -0.0698 -0.2248 -0.8901
  156TMC2    C8 2435   3.904   3.950  11.929 -0.5633 -0.1120 -0.5510
  156TMC2    O1 2436   4.302   4.374  11.953 -0.1334 -0.3309  0.3684
  156TMC2    O2 2437   3.788   3.993  11.931 -0.5397  0.4379  0.6234
  156TMC2    O5 2438   3.948   3.878  11.829 -0.1637  1.0159 -0.0279
  156TMC2    H5 2439   4.043   3.895  11.812 -0.0487 -0.2776 -0.7091
  157MPD2     C 2440   4.146   3.659  12.407 -0.0365  0.2273  0.2329
  157MPD2    C1 2441   4.251   3.732  12.351  0.1380 -0.4560 -0.4326
  157MPD2    C2 2442   4.380   3.706  12.391 -1.1480  0.3251  0.8598
  157MPD2    C3 2443   4.405   3.598  12.467  0.5455  0.2643 -0.3163
  157MPD2    C4 2444   4.305   3.517  12.525  0.0680 -0.5430 -0.0005
  157MPD2    C5 2445   4.180   3.558  12.490 -0.2108 -0.7421  0.1101
  157MPD2     H 2446   4.466   3.762  12.354  0.8148 -1.4118  2.7785
  157MPD2    H1 2447   4.322   3.431  12.588 -0.6458 -1.7225 -1.4125
  157MPD2    H2 2448   4.039   3.677  12.407 -0.1541 -0.4637 -1.9422
  157MPD2    H3 2449   4.099   3.501  12.534 -0.6469  0.4610  0.8544
  157MPD2     N 2450   4.539   3.570  12.480 -0.2868 -0.2682 -0.1920
  157MPD2    H5 2451   4.609   3.638  12.452 -0.8808  1.1148  1.6956
  157MPD2    N1 2452   4.210   3.830  12.259 -0.9099 -0.8050 -0.1021
  157MPD2    H7 2453   4.113   3.835  12.232 -0.8012 -1.8709 -0.6885
  158TMC2    C1 2454   0.247   2.797  13.194 -0.4201  0.4778  1.0249
  158TMC2    C2 2455   0.283   2.841  13.069  0.3395  0.3808 -0.6453
  158TMC2    C3 2456   0.187   2.880  12.982 -0.9769  0.1959 -0.4242
  158TMC2    C4 2457   0.119   2.761  13.216  0.0468 -0.5249 -0.3628
  158TMC2    C5 2458   0.019   2.797  13.125 -0.3653 -0.5949 -0.7990
  158TMC2    C6 2459   0.055   2.861  13.011 -1.1377 -0.3524 -0.5444
  158TMC2     C 2460   0.355   2.773  13.289 -0.4529 -0.1705 -0.3920
  158TMC2     O 2461   0.467   2.804  13.246  0.0911  0.0648  0.1294
  158TMC2     H 2462   0.386   2.864  13.047 -0.4220  4.0690 -0.3050
  158TMC2    H1 2463   0.076   2.732  13.311 -0.4258  1.6658  0.0720
  158TMC2    H2 2464   4.714   2.908  12.952  0.7462  1.0827 -1.8172
  158TMC2    C7 2465   4.622   2.775  13.160  0.2413 -0.1401 -0.3065
  158TMC2    C8 2466   0.225   2.940  12.853  0.5885 -0.2135 -0.0037
  158TMC2    O1 2467   4.546   2.863  13.115 -0.1820  0.4401  0.8140
  158TMC2    O2 2468   0.327   3.003  12.833  0.4235  0.2934  0.2511
  158TMC2    O5 2469   0.152   2.883  12.751  0.0042  0.3723 -0.0844
  158TMC2    H5 2470   0.094   2.806  12.772 -0.9465  1.4023  1.0611
  159MPD2     C 2471   0.558   2.655  13.738  0.2737 -0.2740 -0.0276
  159MPD2    C1 2472   0.430   2.611  13.741 -0.6040 -0.4541 -0.2001
  159MPD2    C2 2473   0.361   2.606  13.623  0.2312  0.5626 -0.1541
  159MPD2    C3 2474   0.408   2.678  13.512 -0.3023  0.2629  0.1934
  159MPD2    C4 2475   0.539   2.711  13.508 -0.5052 -0.2343  0.4368
  159MPD2    C5 2476   0.614   2.704  13.620  0.6880  0.0823  0.3776
  159MPD2     H 2477   0.263   2.562  13.613  0.1316  0.5654  0.7968
  159MPD2    H1 2478   0.582   2.762  13.421 -0.6331  0.4298  0.7600
  159MPD2    H2 2479   0.620   2.635  13.824  0.4149 -2.1831 -0.5548
  159MPD2    H3 2480   0.717   2.738  13.613  0.1363  2.0688  2.2679
  159MPD2     N 2481   0.319   2.714  13.409 -0.2926  0.0891 -0.1961
  159MPD2    H5 2482   0.222   2.697  13.432  0.0999 -1.5761  0.2230
  159MPD2    N1 2483   0.385   2.575  13.869  0.7364 -0.1630 -0.1298
  159MPD2    H7 2484   0.415   2.625  13.953  1.1025  0.0462 -0.3860
  160TMC2    C1 2485   0.308   0.457   1.417  0.0869  0.3042 -0.5532
  160TMC2    C2 2486   0.315   0.561   1.507 -0.8549 -0.1282  0.3840
  160TMC2    C3 2487   0.439   0.619   1.520  0.2813  0.2300  0.3734
  160TMC2    C4 2488   0.415   0.412   1.351  0.8904  0.2263 -0.3227
  160TMC2    C5 2489   0.534   0.474   1.374  0.4128  0.0354 -0.4597
  160TMC2    C6 2490   0.552   0.573   1.459 -0.4670  0.2192  0.2086
  160TMC2     C 2491   0.184   0.436   1.342 -0.0161 -0.4758  0.0756
  160TMC2     O 2492   0.164   0.325   1.293  0.4234 -0.7008 -0.1271
  160TMC2     H 2493   0.221   0.605   1.537 -1.6350 -2.1205  0.8749
  160TMC2    H1 2494   0.409   0.326   1.287  0.2548  0.0253 -0.0018
  160TMC2    H2 2495   0.653   0.602   1.488 -0.5301  0.0843  0.5624
  160TMC2    C7 2496   0.649   0.437   1.282  0.0923 -0.3023 -0.5554
  160TMC2    C8 2497   0.446   0.717   1.624  0.0131  1.0694 -0.2044
  160TMC2    O1 2498   0.646   0.323   1.235  0.3764 -0.6995  0.7939
  160TMC2    O2 2499   0.370   0.723   1.719 -0.2506 -0.1180 -0.6377
  160TMC2    O5 2500   0.545   0.804   1.600  0.1768 -0.3591 -0.3784
  160TMC2    H5 2501   0.592   0.778   1.518  0.3150  0.3616 -0.5333
  161MPD2     C 2502   4.640   0.466   1.234  0.1141 -0.3663 -0.3915
  161MPD2    C1 2503   4.728   0.568   1.247  0.1998  0.0391  0.6090
  161MPD2    C2 2504   4.708   0.700   1.210 -0.6186 -0.5837  0.7812
  161MPD2    C3 2505   4.583   0.723   1.157 -0.2575 -0.6959 -0.1432
  161MPD2    C4 2506   4.490   0.623   1.133  0.1828 -0.2806  0.4539
  161MPD2    C5 2507   4.527   0.492   1.167 -0.5628 -0.2025  0.4359
  161MPD2     H 2508   0.044   0.779   1.220  1.0244 -2.1711  1.4500
  161MPD2    H1 2509   4.391   0.639   1.092  1.7049 -0.1447 -3.1771
  161MPD2    H2 2510   4.649   0.365   1.272  1.0000 -0.2888 -0.4048
  161MPD2    H3 2511   4.455   0.411   1.156 -0.8269  0.0537  0.2491
  161MPD2     N 2512   4.545   0.856   1.116  0.2321  0.5622 -0.2467
  161MPD2    H5 2513   4.450   0.866   1.081  0.1134 -0.2825 -0.1678
  161MPD2    N1 2514   0.109   0.553   1.318 -0.0378 -0.6358 -0.2251
  161MPD2    H7 2515   0.157   0.642   1.326 -1.3896  0.2086 -1.5059
  162TMC2    C1 2516   2.789   2.784   1.238  0.2190 -0.1475  0.3003
  162TMC2    C2 2517   2.746   2.813   1.363 -0.0597 -0.1774 -0.4621
  162TMC2    C3 2518   2.840   2.814   1.465 -0.7533  0.0216 -0.3771
  162TMC2    C4 2519   2.923   2.746   1.216 -0.5623 -0.4462  0.2860
  162TMC2    C5 2520   3.003   2.738   1.329 -0.4225  0.2228  0.1821
  162TMC2    C6 2521   2.969   2.777   1.452  0.2468  0.1401  0.1896
  162TMC2     C 2522   2.686   2.727   1.157  1.3743 -0.0167  0.3374
  162TMC2     O 2523   2.597   2.671   1.224 -0.0298 -0.7808 -0.4530
  162TMC2     H 2524   2.644   2.846   1.378  0.6193  0.4339  2.6549
  162TMC2    H1 2525   2.955   2.694   1.127  1.7588 -0.0132  0.8857
  162TMC2    H2 2526   3.038   2.787   1.536  1.4979 -0.2709 -0.7872
  162TMC2    C7 2527   3.141   2.706   1.307 -1.2057  1.2342  0.0908
  162TMC2    C8 2528   2.777   2.814   1.595 -0.6402  0.8948  0.6514
  162TMC2    O1 2529   3.198   2.732   1.200 -0.2694  0.1893 -0.4804
  162TMC2    O2 2530   2.660   2.772   1.599  0.4989  0.2803  0.4214
  162TMC2    O5 2531   2.869   2.781   1.689  0.2916  0.1400  0.0261
  162TMC2    H5 2532   2.941   2.848   1.692 -0.9498  1.5424 -1.7099
  163MPD2     C 2533   2.555   2.534   0.715 -0.7850  0.2545 -0.3388
  163MPD2    C1 2534   2.689   2.576   0.703  0.4115 -0.3661 -0.8050
  163MPD2    C2 2535   2.742   2.633   0.817  0.4479  0.0738 -0.4878
  163MPD2    C3 2536   2.670   2.640   0.931  0.2958 -0.8260  1.2652
  163MPD2    C4 2537   2.547   2.589   0.947 -0.0491  0.0841 -0.2549
  163MPD2    C5 2538   2.487   2.541   0.834 -0.6832 -0.3057 -0.0951
  163MPD2     H 2539   2.840   2.678   0.818  0.9004 -0.9458  2.3532
  163MPD2    H1 2540   2.490   2.593   1.039  2.0636 -1.5561  1.1166
  163MPD2    H2 2541   2.509   2.484   0.631 -1.4062 -1.2096  0.8650
  163MPD2    H3 2542   2.382   2.514   0.835 -0.8559  0.5468  2.8357
  163MPD2     N 2543   2.730   2.708   1.037 -0.0596 -0.1157  1.2882
  163MPD2    H5 2544   2.814   2.758   1.010 -0.6123  0.2564  0.2697
  163MPD2    N1 2545   2.767   2.545   0.590 -0.0294  0.0402  0.1685
  163MPD2    H7 2546   2.715   2.496   0.517 -0.0517 -2.9625  2.1908
  164TMC2    C1 2547   3.163   2.954  11.098  0.0876  0.3032  0.4212
  164TMC2    C2 2548   3.180   2.988  11.230  0.2459  0.0984  0.0572
  164TMC2    C3 2549   3.079   3.053  11.303 -1.2158 -0.0548  0.3465
  164TMC2    C4 2550   3.039   2.978  11.039  0.2196  0.2053  0.0579
  164TMC2    C5 2551   2.940   3.043  11.116 -0.0938  0.0779 -0.0006
  164TMC2    C6 2552   2.957   3.075  11.248 -0.0069 -0.5009  0.1683
  164TMC2     C 2553   3.243   2.851  11.034  0.1708  0.2961  0.4172
  164TMC2     O 2554   3.190   2.791  10.937  0.3776  0.4399  0.1990
  164TMC2     H 2555   3.266   2.951  11.285 -0.7089 -1.2865  0.6177
  164TMC2    H1 2556   3.017   2.933  10.943 -1.1409 -0.1450  0.5457
  164TMC2    H2 2557   2.900   3.157  11.291  0.0659  0.4991 -1.6185
  164TMC2    C7 2558   2.806   3.058  11.057  0.0281  1.1588 -0.6903
  164TMC2    C8 2559   3.119   3.123  11.421  0.1089 -0.9172 -1.1641
  164TMC2    O1 2560   2.713   3.043  11.143  0.4045  0.1685  0.1343
  164TMC2    O2 2561   3.238   3.149  11.441  0.3431  0.1878 -0.3718
  164TMC2    O5 2562   3.023   3.110  11.519 -0.2078 -0.4824 -0.6841
  164TMC2    H5 2563   2.945   3.067  11.478  0.2858 -2.9685  0.9577
  165TMC2    C1 2564   0.009   4.428   0.980 -0.2789 -0.0298 -0.1820
  165TMC2    C2 2565   0.034   4.302   0.934 -0.0319 -0.1877 -0.4278
  165TMC2    C3 2566   0.154   4.249   0.965 -0.3330  1.1044 -0.1772
  165TMC2    C4 2567   0.089   4.493   1.065  0.7302 -0.2774  0.3754
  165TMC2    C5 2568   0.218   4.439   1.078 -0.3127  0.5029  0.1360
  165TMC2    C6 2569   0.253   4.308   1.043  0.8038 -0.6027  1.0288
  165TMC2     C 2570   4.607   4.471   0.976 -0.0650  0.6600  0.1867
  165TMC2     O 2571   4.560   4.516   1.076  0.0759  0.1896 -0.0280
  165TMC2     H 2572   4.710   4.246   0.862  0.1172 -0.8210 -0.0573
  165TMC2    H1 2573   0.069   4.599   1.068 -0.9295 -0.5167 -1.6543
  165TMC2    H2 2574   0.355   4.279   1.068  0.8684 -0.3993  1.0014
  165TMC2    C7 2575   0.317   4.503   1.159 -0.0738  0.3346 -0.5731
  165TMC2    C8 2576   0.170   4.114   0.928 -0.9804 -0.5264 -1.1392
  165TMC2    O1 2577   0.435   4.472   1.148  0.3947  0.4093  0.2316
  165TMC2    O2 2578   0.074   4.036   0.915 -0.7468 -0.8412 -0.1084
  165TMC2    O5 2579   0.298   4.091   0.900  0.4706 -0.3661  0.3365
  165TMC2    H5 2580   0.348   4.172   0.877 -1.5862  0.3722 -1.4969
  166MPD2     C 2581   4.226   4.622   0.672 -0.0435 -0.2096 -0.5277
  166MPD2    C1 2582   4.262   4.667   0.794  0.3172  0.1871 -0.5053
  166MPD2    C2 2583   4.364   4.598   0.857 -0.0212 -0.3857  0.5670
  166MPD2    C3 2584   4.426   4.491   0.797 -0.2773  0.4847  0.3899
  166MPD2    C4 2585   4.376   4.432   0.685 -0.3162 -0.0887 -0.8576
  166MPD2    C5 2586   4.281   4.507   0.620  0.5206  0.3218 -0.9997
  166MPD2     H 2587   4.403   4.647   0.945 -0.6386  1.4688 -0.2073
  166MPD2    H1 2588   4.408   4.333   0.655 -1.9628 -0.7675 -0.3568
  166MPD2    H2 2589   4.142   4.665   0.618 -1.2267 -3.6438 -1.4364
  166MPD2    H3 2590   4.242   4.471   0.525 -0.3787 -2.1738  0.3423
  166MPD2     N 2591   4.540   4.435   0.857 -0.4205  0.7893  0.1072
  166MPD2    H5 2592   4.592   4.378   0.791  0.6485 -0.4400  2.0346
  166MPD2    N1 2593   4.194   0.033   0.861 -0.2701  0.3037 -0.2801
  166MPD2    H7 2594   4.214   0.044   0.960  1.4635 -1.3004 -0.4662
  167TMC2    C1 2595   2.829   2.446  13.076 -0.3502 -0.3600  0.0410
  167TMC2    C2 2596   2.807   2.515  13.192  0.7806 -0.1381 -0.5245
  167TMC2    C3 2597   2.714   2.465  13.277 -0.2949  0.0764 -0.2111
  167TMC2    C4 2598   2.771   2.322  13.044  0.2681  0.3408 -0.0509
  167TMC2    C5 2599   2.670   2.285  13.135 -0.6730  0.1296  0.0026
  167TMC2    C6 2600   2.637   2.361  13.245  0.3886  0.2576  0.3290
  167TMC2     C 2601   2.903   2.521  12.971  0.7144 -0.0715  0.5737
  167TMC2     O 2602   2.964   2.624  12.999 -0.3070 -0.3936 -0.2928
  167TMC2     H 2603   2.850   2.614  13.196 -0.3233  0.5128 -4.8237
  167TMC2    H1 2604   2.816   2.264  12.964 -1.2870  0.0024 -0.6897
  167TMC2    H2 2605   2.552   2.335  13.307 -1.1108 -0.4440 -2.0263
  167TMC2    C7 2606   2.592   2.164  13.104 -0.4453  0.4016 -0.2548
  167TMC2    C8 2607   2.694   2.535  13.400  0.0504  0.0449 -0.4015
  167TMC2    O1 2608   2.557   2.097  13.201 -0.4311  0.1750 -0.0585
  167TMC2    O2 2609   2.587   2.513  13.464 -0.4541 -0.0524  0.0681
  167TMC2    O5 2610   2.821   2.534  13.450 -0.2794 -0.0795 -0.4106
  167TMC2    H5 2611   2.888   2.566  13.387 -1.0063  0.0215 -1.1329
  168MPD2     C 2612   3.023   2.558  12.699 -0.1211  0.3170  0.0819
  168MPD2    C1 2613   2.890   2.515  12.719  0.0137  0.2332  0.9446
  168MPD2    C2 2614   2.816   2.473  12.608 -0.1828  0.0448  0.1115
  168MPD2    C3 2615   2.873   2.482  12.482 -0.7705 -0.5629  0.2711
  168MPD2    C4 2616   2.999   2.531  12.462  0.4643  0.6877 -0.0173
  168MPD2    C5 2617   3.074   2.577  12.570 -0.1635  0.0183  0.1667
  168MPD2     H 2618   2.724   2.417  12.625  0.2512 -0.8218 -0.3453
  168MPD2    H1 2619   3.052   2.536  12.368 -0.0562 -1.9844 -0.4745
  168MPD2    H2 2620   3.087   2.571  12.786 -0.7338 -0.6521  0.6738
  168MPD2    H3 2621   3.176   2.611  12.555 -0.4591  0.4151 -0.9413
  168MPD2     N 2622   2.793   2.465  12.363 -0.8300 -0.4992  0.1863
  168MPD2    H5 2623   2.839   2.508  12.283 -0.4623 -2.0394 -0.4276
  168MPD2    N1 2624   2.844   2.484  12.846 -0.4673  0.7249 -0.1808
  168MPD2    H7 2625   2.759   2.428  12.852  0.8572 -1.6673 -3.7780
  169MPD1     C 2626   0.366   2.287   9.288 -0.6922 -0.2185  0.4051
  169MPD1    C1 2627   0.477   2.204   9.319 -0.3094 -0.1911 -0.3903
  169MPD1    C2 2628   0.454   2.076   9.361 -0.5497  0.0911 -0.8371
  169MPD1    C3 2629   0.322   2.027   9.392 -0.3345  0.8276  0.2623
  169MPD1    C4 2630   0.224   2.121   9.388 -0.4451 -0.4139 -0.1820
  169MPD1    C5 2631   0.239   2.242   9.326 -0.2060 -0.1692 -0.3788
  169MPD1     H 2632   0.539   2.009   9.363 -0.0603  0.7595  0.4946
  169MPD1    H1 2633   0.129   2.099   9.436  0.7521  0.1372  2.4114
  169MPD1    H2 2634   0.371   2.390   9.256 -2.3385  0.1495  1.2893
  169MPD1    H3 2635   0.163   2.318   9.340  1.0165  0.8042  1.0310
  169MPD1     N 2636   0.302   1.899   9.440 -0.3747 -0.1744  0.4950
  169MPD1    H5 2637   0.393   1.853   9.450  1.0570  2.5394 -0.0456
  169MPD1    N1 2638   0.605   2.248   9.293 -0.5692 -0.1131 -0.7738
  169MPD1    H6 2639   0.675   2.201   9.351 -0.6009  2.5530  1.4571
  169MPD1    H7 2640   0.619   2.343   9.328 -2.0479  0.2195 -1.0884
  170MPD1     C 2641   4.561   4.136  13.470  0.7376  0.3688 -0.2414
  170MPD1    C1 2642   4.527   4.025  13.548  0.3117 -1.4094 -0.4662
  170MPD1    C2 2643   4.397   4.016  13.599  0.0103  0.7154 -0.1808
  170MPD1    C3 2644   4.298   4.089  13.545  0.0692 -0.5067  0.1111
  170MPD1    C4 2645   4.329   4.191  13.455 -0.1720  0.5583  0.5185
  170MPD1    C5 2646   4.461   4.209  13.418 -0.6863  0.1096  0.3747
  170MPD1     H 2647   4.374   3.948  13.680 -0.4861  1.2131  0.0922
  170MPD1    H1 2648   4.251   4.255  13.417  0.2207  1.4209  1.1558
  170MPD1    H2 2649   4.661   4.156  13.432 -0.3523  0.9276 -2.8353
  170MPD1    H3 2650   4.492   4.278  13.340  0.5606 -0.7242  0.1284
  170MPD1     N 2651   4.172   4.076  13.608  0.0603 -0.3092 -0.0431
  170MPD1    H5 2652   4.169   4.000  13.675  1.8610  1.8290  2.4562
  170MPD1    N1 2653   4.635   3.944  13.597  0.1493  0.0307  0.0900
  170MPD1    H6 2654   4.703   3.907  13.531  0.7844  0.3657  0.5602
  170MPD1    H7 2655   4.602   3.852  13.627 -0.9502  0.1167 -0.8156
  171MPD1     C 2656   1.857   0.321  15.059  0.3213 -0.2764  0.2757
  171MPD1    C1 2657   1.968   0.402  15.056  0.4215  0.2085  0.6997
  171MPD1    C2 2658   2.070   0.374  15.147  0.2101 -0.0322 -0.4875
  171MPD1    C3 2659   2.072   0.256  15.221 -0.2819  0.2996 -0.5250
  171MPD1    C4 2660   1.957   0.184  15.229 -0.0084  0.1052  0.2429
  171MPD1    C5 2661   1.855   0.217  15.142  0.2949  0.9925  0.7604
  171MPD1     H 2662   2.166   0.425  15.144  0.5579 -0.6440  0.0334
  171MPD1    H1 2663   1.946   0.093  15.287 -0.1691 -0.2790 -0.3874
  171MPD1    H2 2664   1.773   0.347  14.995  0.0229 -3.3425 -0.5349
  171MPD1    H3 2665   1.765   0.157  15.149  0.8637  0.0471  0.0373
  171MPD1     N 2666   2.178   0.205  15.299 -0.3119 -0.8846  0.3309
  171MPD1    H5 2667   2.163   0.114  15.342 -1.3135 -1.7996 -1.9607
  171MPD1    N1 2668   1.951   0.525  14.994  0.2131 -0.5951  0.3169
  171MPD1    H6 2669   1.884   0.520  14.917  0.5081 -0.7071  0.0721
  171MPD1    H7 2670   2.034   0.573  14.960  0.2023 -1.1633 -0.5169
  172MPD1     C 2671   1.883   4.073  17.643 -0.5582  0.1132  0.5185
  172MPD1    C1 2672   1.776   4.110  17.729 -0.0600  0.1021  0.5586
  172MPD1    C2 2673   1.784   4.243   0.036  0.0956  0.6109  0.1457
  172MPD1    C3 2674   1.904   4.315   0.027 -0.2783 -0.6357 -0.4158
  172MPD1    C4 2675   2.013   4.268  17.695 -0.2723 -0.3335  0.3417
  172MPD1    C5 2676   1.996   4.145  17.639 -0.4319  0.5065  0.1155
  172MPD1     H 2677   1.690   4.277   0.079 -0.6238 -0.1970 -0.7512
  172MPD1    H1 2678   2.103   4.323  17.672 -1.7448  0.8733 -2.4963
  172MPD1    H2 2679   1.888   3.976  17.594  1.7529  0.9333 -0.8491
  172MPD1    H3 2680   2.068   4.105  17.568 -1.0291  0.3669 -0.4147
  172MPD1     N 2681   1.926   4.444   0.073 -0.1670 -0.3495 -0.2421
  172MPD1    H5 2682   2.020   4.479   0.060  0.2518 -0.7026  1.9789
  172MPD1    N1 2683   1.659   4.035  17.730  0.3625  0.1257 -0.6107
  172MPD1    H6 2684   1.685   3.940  17.704  2.2937 -0.0313  1.9852
  172MPD1    H7 2685   1.632   4.029   0.085 -1.2998 -3.4888 -1.2945
  173MPD1     C 2686   2.776   0.265  14.119 -0.2550 -0.1090 -0.0407
  173MPD1    C1 2687   2.895   0.196  14.100  0.8458  0.0737 -0.5312
  173MPD1    C2 2688   2.889   0.055  14.121  0.1219  0.3015  0.4411
  173MPD1    C3 2689   2.777   4.736  14.172  0.4352  0.1565  0.0264
  173MPD1    C4 2690   2.665   0.071  14.212 -0.2829  0.3474 -0.1717
  173MPD1    C5 2691   2.666   0.201  14.179 -0.1991  0.2084 -0.4697
  173MPD1     H 2692   2.973   4.728  14.097 -0.5975  0.2582 -1.8925
  173MPD1    H1 2693   2.581   0.036  14.271  1.0770 -0.3649  1.3432
  173MPD1    H2 2694   2.765   0.371  14.100  2.9022  0.1237 -0.5078
  173MPD1    H3 2695   2.583   0.266  14.207  0.2140  0.0243  1.1286
  173MPD1     N 2696   2.784   4.598  14.205  0.1483 -0.1789  0.4796
  173MPD1    H5 2697   2.872   4.550  14.187  2.1776  3.5553  0.5161
  173MPD1    N1 2698   3.007   0.250  14.041 -0.2089 -0.7572  0.5485
  173MPD1    H6 2699   3.089   0.200  14.074  0.0605 -0.3218  0.5429
  173MPD1    H7 2700   3.015   0.347  14.071  2.1255 -0.4893 -0.9298
  174MPD1     C 2701   3.558   4.253  14.319 -0.2229 -0.3990  0.0131
  174MPD1    C1 2702   3.484   4.223  14.430 -0.0883 -0.8413 -0.3156
  174MPD1    C2 2703   3.342   4.233  14.424  0.4255  0.0168  0.7145
  174MPD1    C3 2704   3.275   4.264  14.309  0.6159  0.6173 -0.1820
  174MPD1    C4 2705   3.354   4.299  14.203  0.4313 -0.2510 -0.4101
  174MPD1    C5 2706   3.486   4.285  14.204 -0.6161 -0.1374 -0.5266
  174MPD1     H 2707   3.289   4.219  14.517 -0.1462 -0.4887  0.3063
  174MPD1    H1 2708   3.307   4.322  14.108  2.0444 -2.2965 -1.7120
  174MPD1    H2 2709   3.666   4.248  14.320 -0.2244 -0.8376 -1.4593
  174MPD1    H3 2710   3.541   4.311  14.114 -0.6766  1.0044 -0.2313
  174MPD1     N 2711   3.133   4.260  14.303 -0.1328 -0.7453  0.2415
  174MPD1    H5 2712   3.094   4.275  14.210  0.1594 -0.7263  0.1228
  174MPD1    N1 2713   3.558   4.201  14.547  0.7451 -0.2978 -0.3230
  174MPD1    H6 2714   3.496   4.170  14.622 -0.1847 -1.0014 -1.3847
  174MPD1    H7 2715   3.624   4.127  14.525 -1.4314 -2.5383  0.6502
  175MPD1     C 2716   1.488   0.460  15.194 -0.2198 -0.3526 -0.3245
  175MPD1    C1 2717   1.359   0.469  15.236  0.3347  0.1837 -0.2304
  175MPD1    C2 2718   1.324   0.435  15.367  0.3809 -0.1380 -0.0076
  175MPD1    C3 2719   1.416   0.380  15.452  0.1158  0.5007 -1.1617
  175MPD1    C4 2720   1.540   0.349  15.400 -0.5940 -0.2236 -0.2104
  175MPD1    C5 2721   1.579   0.397  15.275  0.7298  0.1035 -0.4908
  175MPD1     H 2722   1.220   0.453  15.392  0.0778 -1.5506 -0.2869
  175MPD1    H1 2723   1.615   0.294  15.455  0.4180  1.9882  0.5929
  175MPD1    H2 2724   1.525   0.496  15.099 -1.8999 -1.0994 -1.2601
  175MPD1    H3 2725   1.681   0.384  15.244  0.0857 -1.1908 -2.0401
  175MPD1     N 2726   1.386   0.340  15.585 -0.2777 -0.0703  0.0110
  175MPD1    H5 2727   1.454   0.276  15.624  2.5372  1.8524 -1.7172
  175MPD1    N1 2728   1.262   0.539  15.154 -0.1036  0.3791  0.4408
  175MPD1    H6 2729   1.289   0.526  15.057 -1.5045  0.9550 -0.0399
  175MPD1    H7 2730   1.167   0.505  15.167 -0.6470  0.5518 -2.8664
  176MPD1     C 2731   4.028   3.720  17.061  0.0952 -0.1045 -0.2607
  176MPD1    C1 2732   3.907   3.655  17.025  0.1431  0.5545 -0.1789
  176MPD1    C2 2733   3.858   3.583  17.137 -0.1529  0.7767  1.0037
  176MPD1    C3 2734   3.908   3.575  17.263 -0.2149 -0.1584  0.0156
  176MPD1    C4 2735   4.018   3.654  17.291  0.6060 -0.1222 -0.4427
  176MPD1    C5 2736   4.075   3.718  17.189 -0.0945  0.4232 -0.3255
  176MPD1     H 2737   3.759   3.539  17.129  0.8295 -1.2200 -0.1156
  176MPD1    H1 2738   4.058   3.668  17.390 -3.1536  3.1128  0.6261
  176MPD1    H2 2739   4.091   3.763  16.985 -1.1401 -0.1815 -1.3262
  176MPD1    H3 2740   4.172   3.763  17.201  0.0668  0.1691 -0.6833
  176MPD1     N 2741   3.823   3.510  17.366  0.4028 -0.4970  0.2167
  176MPD1    H5 2742   3.737   3.464  17.337 -0.5837  2.8602 -2.3258
  176MPD1    N1 2743   3.850   3.648  16.895 -0.2324 -0.0551  0.0857
  176MPD1    H6 2744   3.749   3.653  16.890 -0.1502  2.3601  0.9953
  176MPD1    H7 2745   3.882   3.733  16.848  0.2558 -0.5780 -0.5242
  177MPD1     C 2746   1.146   2.819  10.308  0.1996  0.2526 -0.0436
  177MPD1    C1 2747   1.087   2.754  10.197 -0.0544 -0.8503 -0.3732
  177MPD1    C2 2748   0.994   2.816  10.121 -0.3170 -0.8474  0.2659
  177MPD1    C3 2749   0.970   2.955  10.134  0.3695  0.0028 -0.3959
  177MPD1    C4 2750   1.043   3.020  10.236 -0.2446 -0.6750  0.2318
  177MPD1    C5 2751   1.130   2.950  10.317 -0.0406 -0.0982  0.0782
  177MPD1     H 2752   0.936   2.771  10.041 -0.3626  1.6735 -1.1236
  177MPD1    H1 2753   1.033   3.124  10.265 -2.2415 -1.1375  1.2086
  177MPD1    H2 2754   1.218   2.774  10.376  0.2701  0.5983  0.1102
  177MPD1    H3 2755   1.182   3.010  10.391  1.4733  1.1464 -1.9683
  177MPD1     N 2756   0.883   3.010  10.038 -0.6056  0.0327  0.0468
  177MPD1    H5 2757   0.847   2.957   9.959 -0.1703 -1.1031  0.6137
  177MPD1    N1 2758   1.100   2.613  10.197 -0.3707  0.2269  0.4834
  177MPD1    H6 2759   1.186   2.581  10.241 -1.9183 -2.5990  1.4443
  177MPD1    H7 2760   1.098   2.568  10.105 -3.7198  0.2973  0.5074
  178MPD1     C 2761   4.631   3.055   0.525  0.1214  0.9169  0.0129
  178MPD1    C1 2762   4.664   3.015   0.396  0.4778 -0.5636 -0.5146
  178MPD1    C2 2763   4.635   3.092   0.286  0.2366  0.3696  0.3650
  178MPD1    C3 2764   4.552   3.198   0.309  0.6781 -0.5234 -0.3075
  178MPD1    C4 2765   4.508   3.233   0.432 -0.2001 -0.0995  1.1978
  178MPD1    C5 2766   4.546   3.164   0.539 -0.1256 -0.2487  0.0341
  178MPD1     H 2767   4.677   3.075   0.187 -1.3208 -1.3286 -0.0232
  178MPD1    H1 2768   4.434   3.310   0.446 -2.8174 -2.3551 -0.1706
  178MPD1    H2 2769   4.667   3.010   0.617 -0.3640  1.2157  0.3504
  178MPD1    H3 2770   4.529   3.198   0.640 -2.5386 -1.1962 -0.0560
  178MPD1     N 2771   4.493   3.272   0.196 -0.1402  0.1930 -1.0717
  178MPD1    H5 2772   4.420   3.340   0.214  0.3633  0.6372 -0.7202
  178MPD1    N1 2773   0.032   2.918   0.384  0.1149 -0.1813 -0.2356
  178MPD1    H6 2774   0.031   2.878   0.290  1.5327  2.0312 -1.1769
  178MPD1    H7 2775   0.014   2.847   0.454 -2.6600  0.7283 -0.0238
  179MPD1     C 2776   3.289   1.089  15.272 -0.0918  0.0219  0.1822
  179MPD1    C1 2777   3.277   1.223  15.267  1.0997 -1.1686  0.2381
  179MPD1    C2 2778   3.264   1.292  15.383 -0.3091 -0.1698  0.6466
  179MPD1    C3 2779   3.275   1.227  15.506 -0.6097  0.7104 -0.1493
  179MPD1    C4 2780   3.298   1.093  15.506 -0.5568  0.5741  0.1515
  179MPD1    C5 2781   3.310   1.025  15.389 -0.2375 -0.0660  0.4414
  179MPD1     H 2782   3.238   1.398  15.382  0.7745  0.1003  1.2176
  179MPD1    H1 2783   3.303   1.031  15.594  4.1029 -1.2046 -1.4022
  179MPD1    H2 2784   3.288   1.036  15.177  0.0107  0.7225 -0.2127
  179MPD1    H3 2785   3.309   0.917  15.381 -0.2028 -0.1075  0.9926
  179MPD1     N 2786   3.238   1.283  15.632 -0.5685 -0.0437 -0.5159
  179MPD1    H5 2787   3.212   1.229  15.714 -1.3359  0.7599 -0.2318
  179MPD1    N1 2788   3.260   1.286  15.143  0.3946 -0.6326 -0.0689
  179MPD1    H6 2789   3.332   1.245  15.084  1.1289  0.9047 -0.2386
  179MPD1    H7 2790   3.267   1.388  15.145 -0.3255 -0.6197  1.7077
  180MPD1     C 2791   2.694   2.240  15.612  0.7248  0.1205 -0.1444
  180MPD1    C1 2792   2.776   2.309  15.536 -0.6179 -0.1978 -0.1711
  180MPD1    C2 2793   2.739   2.344  15.408  0.0984 -0.5417 -0.3816
  180MPD1    C3 2794   2.614   2.314  15.353 -0.2352 -0.0522 -0.3733
  180MPD1    C4 2795   2.532   2.238  15.435  0.7692 -0.1172  0.1043
  180MPD1    C5 2796   2.568   2.201  15.565  0.0635 -0.0616 -0.6035
  180MPD1     H 2797   2.795   2.414  15.347  0.3959  0.4756  1.0754
  180MPD1    H1 2798   2.443   2.188  15.399  1.8545 -0.5150 -2.0194
  180MPD1    H2 2799   2.729   2.204  15.708 -2.6668 -1.7544  0.3778
  180MPD1    H3 2800   2.500   2.144  15.626 -0.9964  1.3887 -0.4261
  180MPD1     N 2801   2.585   2.337  15.219 -0.0547 -0.1858 -0.0430
  180MPD1    H5 2802   2.659   2.380  15.165  2.7338 -2.1760  2.1699
  180MPD1    N1 2803   2.909   2.333  15.579 -0.2966  0.5222  0.9199
  180MPD1    H6 2804   2.921   2.329  15.680  0.3014  0.9064  0.8653
  180MPD1    H7 2805   2.967   2.403  15.532  1.3518 -0.8903  0.8672
  181MPD1     C 2806   4.581   0.091  10.324 -0.8901  0.6970 -0.6139
  181MPD1    C1 2807   4.603   0.172  10.432  0.6926  0.1578 -0.1312
  181MPD1    C2 2808   4.683   0.282  10.421 -0.1188  0.0245  0.4406
  181MPD1    C3 2809   0.017   0.313  10.302  0.5913  0.2263 -1.1821
  181MPD1    C4 2810   0.003   0.229  10.199 -0.1853 -1.1076  0.0122
  181MPD1    C5 2811   4.659   0.119  10.215  0.4123 -0.2999  0.3931
  181MPD1     H 2812   4.698   0.350  10.504  0.6839 -0.1693  0.4519
  181MPD1    H1 2813   0.054   0.255  10.107 -3.8767 -0.6567 -1.9129
  181MPD1    H2 2814   4.526   4.734  10.333 -0.8313  0.8600  1.5407
  181MPD1    H3 2815   4.626   0.064  10.127 -1.0618 -1.2493  1.5442
  181MPD1     N 2816   0.116   0.418  10.285 -0.7231 -1.5696 -0.9194
  181MPD1    H5 2817   0.146   0.431  10.189  1.9092 -1.3348 -0.0762
  181MPD1    N1 2818   4.535   0.148  10.555  0.4847  0.7618 -0.4933
  181MPD1    H6 2819   4.587   0.184  10.636  0.5943  1.6398 -0.9470
  181MPD1    H7 2820   4.494   0.055  10.561  2.0892 -0.0248 -1.6737
  182MPD1     C 2821   2.187   3.982   1.861  0.2505 -0.5634  0.3620
  182MPD1    C1 2822   2.145   4.091   1.934 -0.1494  0.1067  0.3333
  182MPD1    C2 2823   2.007   4.110   1.957  0.3278 -0.3710  0.4577
  182MPD1    C3 2824   1.916   4.037   1.874 -0.2183  0.3672  0.6795
  182MPD1    C4 2825   1.963   3.948   1.784 -1.1569  0.5626  0.9238
  182MPD1    C5 2826   2.096   3.920   1.786 -0.3974 -0.7650  0.0090
  182MPD1     H 2827   1.983   4.187   2.030  1.2142 -0.9791  1.3946
  182MPD1    H1 2828   1.898   3.892   1.718 -2.2411  1.1919  1.4479
  182MPD1    H2 2829   2.290   3.947   1.861 -0.5586 -2.9267 -1.6330
  182MPD1    H3 2830   2.136   3.839   1.726 -2.9546 -0.8460 -1.5535
  182MPD1     N 2831   1.776   4.059   1.868  0.0263 -0.4053 -0.0414
  182MPD1    H5 2832   1.718   4.006   1.804 -1.0294 -1.0320  1.4237
  182MPD1    N1 2833   2.241   4.157   2.003  0.5227 -0.0328  0.1708
  182MPD1    H6 2834   2.230   4.258   2.016 -0.4599 -0.1281  0.0889
  182MPD1    H7 2835   2.336   4.161   1.966  0.6644  1.2752  0.6760
  183MPD1     C 2836   0.415   0.091   8.533  0.1562 -0.5356 -0.5751
  183MPD1    C1 2837   0.358   0.171   8.629 -0.1860  0.1645  0.4751
  183MPD1    C2 2838   0.427   0.195   8.745  0.1604  0.0971  0.8183
  183MPD1    C3 2839   0.557   0.145   8.765  0.5490 -0.4662  0.0892
  183MPD1    C4 2840   0.614   0.076   8.661 -0.4597 -0.5969 -0.2142
  183MPD1    C5 2841   0.544   0.054   8.546  0.3283 -0.2492 -0.0374
  183MPD1     H 2842   0.383   0.243   8.831  0.7220  1.1513  0.5091
  183MPD1    H1 2843   0.719   0.047   8.657 -0.2312  0.1272  0.6744
  183MPD1    H2 2844   0.350   0.062   8.451 -0.4002  1.1588 -0.7223
  183MPD1    H3 2845   0.599   4.733   8.472 -0.7108 -1.4156  0.0927
  183MPD1     N 2846   0.629   0.183   8.883  0.1440 -0.7024 -0.4197
  183MPD1    H5 2847   0.578   0.237   8.952 -0.6250 -1.9753  0.0027
  183MPD1    N1 2848   0.224   0.204   8.633  0.5546  0.2535  0.2094
  183MPD1    H6 2849   0.212   0.296   8.677  1.7024  1.2319 -1.5138
  183MPD1    H7 2850   0.177   0.199   8.544 -0.8252 -0.9199  1.0101
  184MPD1     C 2851   0.619   2.198  10.085  0.0782  0.0808 -0.6156
  184MPD1    C1 2852   0.491   2.156  10.061 -0.4520  0.0819 -0.0207
  184MPD1    C2 2853   0.393   2.255  10.038 -0.6608 -0.2816  0.5545
  184MPD1    C3 2854   0.425   2.393  10.049  0.5919  0.9921  0.2774
  184MPD1    C4 2855   0.554   2.433  10.090  0.3240 -0.1045  0.8044
  184MPD1    C5 2856   0.648   2.329  10.099  0.3127  0.5556  0.4563
  184MPD1     H 2857   0.289   2.226  10.024 -0.0261 -3.0393  1.5401
  184MPD1    H1 2858   0.586   2.536  10.099  1.6942 -0.4184 -0.7129
  184MPD1    H2 2859   0.701   2.128  10.087  0.0778  0.0537 -1.3858
  184MPD1    H3 2860   0.751   2.360  10.115  0.2450  0.4783  1.0342
  184MPD1     N 2861   0.334   2.496  10.031 -0.2155 -0.6079 -0.0103
  184MPD1    H5 2862   0.383   2.584  10.027  0.4014 -0.9324  0.4570
  184MPD1    N1 2863   0.462   2.016  10.062  0.1716  0.0107 -0.1818
  184MPD1    H6 2864   0.369   2.003  10.101  0.6812 -1.4425  0.5531
  184MPD1    H7 2865   0.524   1.956  10.116  0.6426  1.5014  0.9464
  185MPD1     C 2866   4.202   2.357   9.538  0.1728  0.7599 -0.4744
  185MPD1    C1 2867   4.254   2.482   9.504 -0.1652  0.2148  0.2214
  185MPD1    C2 2868   4.347   2.544   9.581 -0.0043 -0.3185  0.1903
  185MPD1    C3 2869   4.403   2.475   9.688  0.0364  0.2621 -0.1470
  185MPD1    C4 2870   4.350   2.357   9.725  0.0795 -0.3247  0.4520
  185MPD1    C5 2871   4.256   2.294   9.650 -0.5721  0.3032 -0.4643
  185MPD1     H 2872   4.361   2.647   9.551 -0.1663 -0.6347 -0.9838
  185MPD1    H1 2873   4.382   2.295   9.808  1.2722  0.6268  0.7189
  185MPD1    H2 2874   4.119   2.316   9.481 -0.3468  1.5466 -0.2925
  185MPD1    H3 2875   4.209   2.200   9.677  0.1733 -0.4914 -1.9426
  185MPD1     N 2876   4.501   2.526   9.771  0.4834 -0.1435  0.7744
  185MPD1    H5 2877   4.533   2.463   9.844 -0.0612 -0.4153  0.7745
  185MPD1    N1 2878   4.203   2.531   9.386  0.2556 -0.8113  0.3354
  185MPD1    H6 2879   4.217   2.631   9.379 -0.7656 -0.6107  1.1024
  185MPD1    H7 2880   4.101   2.521   9.386  0.2613 -0.8631  0.1689
  186MPD1     C 2881   3.369   1.808  15.723 -0.3264 -0.7325 -0.0299
  186MPD1    C1 2882   3.506   1.817  15.723  0.7954  0.0754  0.0008
  186MPD1    C2 2883   3.568   1.885  15.832  0.0172  0.8426 -0.6761
  186MPD1    C3 2884   3.487   1.931  15.933  0.5101 -0.6662 -0.8912
  186MPD1    C4 2885   3.356   1.909  15.930 -0.1755 -0.3484  0.6992
  186MPD1    C5 2886   3.296   1.851  15.824  0.7812  0.4431  0.3307
  186MPD1     H 2887   3.676   1.892  15.826  0.2130  1.4780  3.5208
  186MPD1    H1 2888   3.290   1.946  16.007  0.6614  0.6456  0.9337
  186MPD1    H2 2889   3.322   1.750  15.644 -1.0514 -3.4667  2.3910
  186MPD1    H3 2890   3.188   1.846  15.813  0.8010 -2.6008  1.6026
  186MPD1     N 2891   3.536   2.009  16.036 -0.6331  0.1093  0.5606
  186MPD1    H5 2892   3.473   2.041  16.110 -1.1060  2.2515 -0.7774
  186MPD1    N1 2893   3.584   1.741  15.637  0.3404 -0.4020  0.3882
  186MPD1    H6 2894   3.540   1.739  15.545  0.5835  0.4719  0.2506
  186MPD1    H7 2895   3.674   1.787  15.635  0.2725 -0.3774 -2.0042
  187MPD1     C 2896   3.646   4.313   0.182  0.1290 -0.7636 -0.4833
  187MPD1    C1 2897   3.577   4.199   0.201  0.6760  0.1132 -1.1057
  187MPD1    C2 2898   3.520   4.142   0.090 -0.1114  0.6978 -0.1481
  187MPD1    C3 2899   3.562   4.180  17.708 -0.3234  0.8309  0.0754
  187MPD1    C4 2900   3.647   4.286  17.686 -0.3409 -0.3859 -0.1998
  187MPD1    C5 2901   3.692   4.355   0.054  0.0517 -0.3790  0.0085
  187MPD1     H 2902   3.457   4.054   0.098  0.4922  0.5060  2.4616
  187MPD1    H1 2903   3.685   4.322  17.591 -0.5575 -0.1707 -0.2063
  187MPD1    H2 2904   3.681   4.371   0.266 -0.8355 -2.7267  1.2707
  187MPD1    H3 2905   3.761   4.438   0.045  1.7202 -2.0089 -2.2556
  187MPD1     N 2906   3.518   4.118  17.591  0.7453  0.5971  0.5484
  187MPD1    H5 2907   3.559   4.159  17.508 -0.2232  1.3134  0.4356
  187MPD1    N1 2908   3.531   4.170   0.332  0.1280 -0.0528  0.1987
  187MPD1    H6 2909   3.509   4.071   0.330  1.4954 -0.3515  0.4748
  187MPD1    H7 2910   3.610   4.195   0.391  1.4313 -1.5353 -0.9420
  188MPD1     C 2911   2.689   3.939   9.661  0.6346 -0.7640  0.0125
  188MPD1    C1 2912   2.593   3.903   9.572 -0.2725 -0.1970  0.1519
  188MPD1    C2 2913   2.505   3.807   9.604  0.2700  0.4871  0.4595
  188MPD1    C3 2914   2.501   3.764   9.729  0.5498 -0.5400 -0.0540
  188MPD1    C4 2915   2.593   3.804   9.816 -0.4176  0.1310  0.3169
  188MPD1    C5 2916   2.699   3.875   9.779  0.6625 -0.0724  0.3049
  188MPD1     H 2917   2.432   3.778   9.529  2.1376 -1.3568 -0.6163
  188MPD1    H1 2918   2.601   3.749   9.909  0.2869 -1.5632 -0.7308
  188MPD1    H2 2919   2.779   3.996   9.643 -1.4612  1.1193 -4.4153
  188MPD1    H3 2920   2.778   3.891   9.850  0.4436  2.4033 -0.0043
  188MPD1     N 2921   2.405   3.673   9.772  0.7607  0.3508 -0.2178
  188MPD1    H5 2922   2.413   3.636   9.866  0.1605 -0.0723 -0.3391
  188MPD1    N1 2923   2.592   3.951   9.441 -0.3833 -0.2553 -0.5329
  188MPD1    H6 2924   2.502   3.939   9.395 -0.9660 -0.6636  0.7049
  188MPD1    H7 2925   2.614   4.051   9.443 -0.9813 -0.1557  1.8925
  189MPD1     C 2926   0.087   4.534   0.648 -0.4410  0.0965 -0.2156
  189MPD1    C1 2927   4.728   4.463   0.583 -0.6046  0.2917  0.2960
  189MPD1    C2 2928   4.642   4.540   0.505 -0.0159 -0.0701 -0.1990
  189MPD1    C3 2929   4.676   4.670   0.467  0.0714 -0.6030  0.3240
  189MPD1    C4 2930   0.042   4.732   0.523  0.7708  0.2934  0.1483
  189MPD1    C5 2931   0.110   4.665   0.627  0.5064  0.1997 -0.7653
  189MPD1     H 2932   4.549   4.496   0.470 -0.2498  1.0985 -1.0459
  189MPD1    H1 2933   0.068   0.099   0.501 -0.3292  0.3386 -0.9228
  189MPD1    H2 2934   0.149   4.485   0.721  0.6674  0.8469 -0.6558
  189MPD1    H3 2935   0.192   4.712   0.679  0.5520  0.4753 -1.0894
  189MPD1     N 2936   4.594   0.008   0.376  0.2483  0.4996  0.0969
  189MPD1    H5 2937   4.527   4.686   0.326 -0.0994  2.0199 -1.1779
  189MPD1    N1 2938   4.701   4.328   0.609 -0.5345  0.0666  0.1219
  189MPD1    H6 2939   4.645   4.288   0.534  1.2119  0.9672 -1.6729
  189MPD1    H7 2940   0.047   4.271   0.631  0.3393  1.4308  0.4297
  190MPD1     C 2941   2.995   3.137  15.549 -0.1970 -0.0135 -0.6484
  190MPD1    C1 2942   3.027   3.100  15.680  0.6802  0.6166 -0.7271
  190MPD1    C2 2943   3.161   3.096  15.716 -0.0611  0.2961 -0.0716
  190MPD1    C3 2944   3.259   3.143  15.629 -0.0648 -0.1839 -0.0823
  190MPD1    C4 2945   3.226   3.194  15.503  0.1944  0.5991  0.1064
  190MPD1    C5 2946   3.090   3.182  15.461  0.6184  0.4017  0.3622
  190MPD1     H 2947   3.187   3.062  15.815  0.7382 -0.2426 -0.4607
  190MPD1    H1 2948   3.299   3.227  15.430  1.0618 -1.9279 -0.1703
  190MPD1    H2 2949   2.895   3.143  15.509  0.6188 -0.4791 -2.7620
  190MPD1    H3 2950   3.057   3.230  15.370 -0.9088 -2.6342 -0.6571
  190MPD1     N 2951   3.395   3.141  15.675  0.4201 -0.3296 -0.1458
  190MPD1    H5 2952   3.423   3.091  15.759 -2.5667 -0.2026  0.9420
  190MPD1    N1 2953   2.928   3.032  15.751  0.2870  0.3236 -0.0970
  190MPD1    H6 2954   2.945   3.055  15.849 -1.9107 -1.2829  0.6735
  190MPD1    H7 2955   2.836   3.061  15.721  0.0556 -0.1355  0.1576
  191MPD1     C 2956   3.194   4.093  13.546  0.0660  0.4607  0.9218
  191MPD1    C1 2957   3.192   4.160  13.426 -0.1965 -0.3451 -0.8884
  191MPD1    C2 2958   3.060   4.191  13.371 -0.1189 -0.3527  0.9523
  191MPD1    C3 2959   2.949   4.177  13.443 -0.3395 -0.2122  0.3787
  191MPD1    C4 2960   2.961   4.118  13.568 -0.0168  0.4367 -0.4579
  191MPD1    C5 2961   3.084   4.072  13.622  0.2217  0.5573  0.9866
  191MPD1     H 2962   3.047   4.228  13.270 -0.3902  0.3541  1.2450
  191MPD1    H1 2963   2.866   4.111  13.620 -0.9338 -2.2027 -2.4705
  191MPD1    H2 2964   3.291   4.060  13.584 -0.8717 -2.8347  0.4119
  191MPD1    H3 2965   3.085   4.038  13.725 -0.3443  0.8334  1.0843
  191MPD1     N 2966   2.830   4.227  13.386 -0.2109 -0.4950 -0.5790
  191MPD1    H5 2967   2.830   4.262  13.291  1.7012 -1.8092 -1.0527
  191MPD1    N1 2968   3.315   4.172  13.351 -0.3822 -0.0242  0.0525
  191MPD1    H6 2969   3.317   4.257  13.294  0.3023  1.1539  1.8648
  191MPD1    H7 2970   3.400   4.173  13.406 -1.2001 -2.7096  1.3745
  192MPD1     C 2971   2.048   0.126  13.590  0.0002 -0.4378 -0.3976
  192MPD1    C1 2972   2.051   4.732  13.648 -0.1467  0.1120 -0.1477
  192MPD1    C2 2973   2.110   4.629  13.578 -0.5481 -0.2175  0.5641
  192MPD1    C3 2974   2.187   4.660  13.462  0.6314  0.4328 -0.5991
  192MPD1    C4 2975   2.165   0.045  13.401 -0.1832 -0.3025  0.1832
  192MPD1    C5 2976   2.108   0.141  13.465 -0.4557 -1.0671 -0.5068
  192MPD1     H 2977   2.116   4.531  13.625  0.4187  1.3139  3.6270
  192MPD1    H1 2978   2.204   0.076  13.305 -0.2875  0.1047  0.2722
  192MPD1    H2 2979   1.985   0.205  13.629  3.5872  0.8801  2.7651
  192MPD1    H3 2980   2.088   0.232  13.411  2.1632 -0.6650 -0.8069
  192MPD1     N 2981   2.268   4.564  13.398 -0.5710  0.1582 -0.2250
  192MPD1    H5 2982   2.324   4.596  13.319 -1.3038 -2.5864 -1.8702
  192MPD1    N1 2983   1.969   4.701  13.755 -0.4047  0.3011 -0.3850
  192MPD1    H6 2984   1.959   0.045  13.817 -0.1038  1.1725 -1.4548
  192MPD1    H7 2985   2.005   4.624  13.811 -2.0861 -0.1655  0.0435
  193MPD1     C 2986   2.042   0.191  15.611  0.2930  0.1385 -0.1488
  193MPD1    C1 2987   2.023   0.328  15.606 -0.1293  0.9874 -0.0281
  193MPD1    C2 2988   2.065   0.407  15.708 -0.4646 -0.4324 -0.1518
  193MPD1    C3 2989   2.135   0.360  15.816  0.3208 -0.4898  0.0716
  193MPD1    C4 2990   2.156   0.224  15.816  0.0928  0.6791 -0.3191
  193MPD1    C5 2991   2.108   0.139  15.718 -0.3469 -0.7532  0.4269
  193MPD1     H 2992   2.033   0.511  15.710 -0.2219 -0.3854  1.5166
  193MPD1    H1 2993   2.214   0.177  15.895 -0.9757  0.6806  0.4574
  193MPD1    H2 2994   2.009   0.119  15.537  0.3982 -3.3909  3.2130
  193MPD1    H3 2995   2.133   0.036  15.740 -1.4959 -0.9995  0.5680
  193MPD1     N 2996   2.195   0.441  15.920  0.2342 -0.1384  0.3737
  193MPD1    H5 2997   2.232   0.391  16.000 -0.7355  0.7590  1.3855
  193MPD1    N1 2998   1.927   0.367  15.513  0.4611 -0.4182  0.1726
  193MPD1    H6 2999   1.928   0.307  15.431  1.3449  0.8857 -0.7859
  193MPD1    H7 3000   1.934   0.465  15.483 -2.4227 -0.9811 -2.4330
  194MPD1     C 3001   0.163   2.584  16.742 -0.6322  0.5902 -0.3220
  194MPD1    C1 3002   0.171   2.497  16.633  0.5437 -0.2304 -0.2716
  194MPD1    C2 3003   0.271   2.399  16.645 -0.0057  0.4839 -0.8834
  194MPD1    C3 3004   0.359   2.392  16.748 -0.7548 -0.4091  0.0368
  194MPD1    C4 3005   0.349   2.482  16.852  0.2442  0.1483  0.0744
  194MPD1    C5 3006   0.245   2.573  16.850 -0.6722 -0.4318  0.7162
  194MPD1     H 3007   0.301   2.341  16.559 -0.0573 -1.1073  0.1809
  194MPD1    H1 3008   0.397   2.479  16.950  2.4364 -1.3165 -1.0503
  194MPD1    H2 3009   0.088   2.663  16.732 -0.4641  0.6710 -0.9272
  194MPD1    H3 3010   0.242   2.635  16.939  1.3432  0.2026  0.3416
  194MPD1     N 3011   0.466   2.293  16.762  0.3258  0.3630 -0.0249
  194MPD1    H5 3012   0.515   2.301  16.851  0.0076 -0.4497  0.2267
  194MPD1    N1 3013   0.097   2.506  16.519  0.3433 -1.5520 -0.2525
  194MPD1    H6 3014   4.733   2.522  16.531  0.1252 -3.5084  0.5591
  194MPD1    H7 3015   0.105   2.413  16.478  2.5611 -1.6577  0.4142
  195MPD1     C 3016   3.102   0.012  17.723 -0.9313  0.1206  0.6261
  195MPD1    C1 3017   3.019   4.672  17.653  0.1693 -0.2511  0.4303
  195MPD1    C2 3018   2.960   4.559  17.710 -0.9017 -0.1011  0.7434
  195MPD1    C3 3019   2.979   4.527   0.104 -0.4319  0.0925  0.1300
  195MPD1    C4 3020   3.066   4.609   0.176 -0.0224  0.3364 -0.7599
  195MPD1    C5 3021   3.128   4.715   0.105 -0.4933 -0.3474  0.1392
  195MPD1     H 3022   2.896   4.489  17.659  0.0789 -0.4837  0.0459
  195MPD1    H1 3023   3.091   4.586   0.279  0.3042  0.1800 -0.8731
  195MPD1    H2 3024   3.145   0.109  17.700  0.0859 -0.9237 -1.9419
  195MPD1    H3 3025   3.185   0.045   0.170  0.1448  0.5322 -1.3293
  195MPD1     N 3026   2.937   4.414   0.181 -0.1249  0.3696 -0.0835
  195MPD1    H5 3027   2.963   4.416   0.279 -0.1449 -0.8426 -0.0533
  195MPD1    N1 3028   2.972   4.708  17.520 -0.3648 -0.5605  0.4807
  195MPD1    H6 3029   2.981   4.626  17.461  0.8074  0.7174 -1.1023
  195MPD1    H7 3030   3.024   0.042  17.469  1.0204 -2.6807 -0.9997
  196MPD1     C 3031   1.651   3.192   0.274  0.6193  0.5506 -0.2177
  196MPD1    C1 3032   1.756   3.278   0.276 -0.6116 -0.1211  0.1333
  196MPD1    C2 3033   1.808   3.307   0.404 -0.0324 -0.9913  0.2999
  196MPD1    C3 3034   1.757   3.267   0.525  0.4892  0.0623  0.1021
  196MPD1    C4 3035   1.657   3.178   0.519 -0.2810  1.2195 -0.2938
  196MPD1    C5 3036   1.605   3.144   0.397 -0.5916  0.2482 -0.1269
  196MPD1     H 3037   1.882   3.387   0.400  1.6241 -2.4815  0.8745
  196MPD1    H1 3038   1.610   3.131   0.605 -0.7360 -1.0051 -1.7825
  196MPD1    H2 3039   1.600   3.162   0.184  0.0532 -2.2076  1.0053
  196MPD1    H3 3040   1.523   3.073   0.394 -0.7275  0.2940  2.9724
  196MPD1     N 3041   1.811   3.307   0.651 -0.4429 -0.2979  0.3601
  196MPD1    H5 3042   1.765   3.269   0.734 -3.7752  1.1530 -0.8169
  196MPD1    N1 3043   1.803   3.345   0.158  0.3032 -0.3458  0.7967
  196MPD1    H6 3044   1.857   3.429   0.177  1.8243 -1.7000  2.4128
  196MPD1    H7 3045   1.720   3.371   0.104  0.9468 -0.6562 -0.3463
  197MPD1     C 3046   1.203   0.318  17.571  0.0665  0.7688  0.0009
  197MPD1    C1 3047   1.329   0.368  17.568  0.1052 -0.1521 -0.7193
  197MPD1    C2 3048   1.364   0.468  17.475  0.1879  0.0143 -0.5881
  197MPD1    C3 3049   1.265   0.508  17.384  0.0311  0.1145  0.1077
  197MPD1    C4 3050   1.141   0.453  17.381  0.7484 -0.1409  0.6896
  197MPD1    C5 3051   1.112   0.364  17.480  0.3613  0.3195 -0.2402
  197MPD1     H 3052   1.468   0.497  17.467  0.7509 -1.2986  2.0255
  197MPD1    H1 3053   1.067   0.475  17.304 -0.0420 -1.0332  1.1956
  197MPD1    H2 3054   1.181   0.248  17.650 -0.5445  1.6875  0.6458
  197MPD1    H3 3055   1.018   0.309  17.480 -0.5417  1.8445 -0.3621
  197MPD1     N 3056   1.292   0.601  17.274  0.4207 -0.6379 -0.0048
  197MPD1    H5 3057   1.231   0.605  17.193 -1.0325 -2.3640  1.0019
  197MPD1    N1 3058   1.413   0.353  17.678 -0.5924  0.2918  0.3716
  197MPD1    H6 3059   1.421   0.257  17.708  0.8630 -0.4815 -2.4291
  197MPD1    H7 3060   1.514   0.367  17.673 -0.2812 -1.9532  0.6392
  198MPD1     C 3061   2.869   3.475  15.065  0.4491 -1.0580 -0.5202
  198MPD1    C1 3062   2.842   3.432  15.190  0.0518  0.0220  0.1102
  198MPD1    C2 3063   2.882   3.517  15.295  0.4594 -0.1019 -0.2450
  198MPD1    C3 3064   2.912   3.655  15.272  0.1586 -0.1932  0.1243
  198MPD1    C4 3065   2.914   3.699  15.141 -0.1251 -0.2976  0.2839
  198MPD1    C5 3066   2.897   3.603  15.042 -0.0336  0.8456 -0.5215
  198MPD1     H 3067   2.888   3.479  15.397  1.2534 -1.1013 -0.6664
  198MPD1    H1 3068   2.948   3.800  15.120  1.1440 -0.6606  0.6094
  198MPD1    H2 3069   2.872   3.400  14.986 -0.8801 -2.6894  0.9656
  198MPD1    H3 3070   2.902   3.643  14.942 -0.9254  2.6155  0.1266
  198MPD1     N 3071   2.958   3.735  15.375 -0.0192  0.1296  0.1518
  198MPD1    H5 3072   2.979   3.687  15.462  0.6767  1.2204  0.5825
  198MPD1    N1 3073   2.822   3.293  15.206  0.0160  0.1091  0.4404
  198MPD1    H6 3074   2.770   3.281  15.293 -1.9145  1.1242 -0.5812
  198MPD1    H7 3075   2.764   3.256  15.131 -1.3763 -1.9996  2.5388
  199MPD1     C 3076   0.068   0.817  10.813  0.2902  0.3674  0.6128
  199MPD1    C1 3077   4.723   0.712  10.806  0.7382 -0.2367 -0.5740
  199MPD1    C2 3078   4.676   0.681  10.681 -0.3312 -0.0710 -0.3568
  199MPD1    C3 3079   4.709   0.756  10.571 -1.0665  0.8004  0.3555
  199MPD1    C4 3080   0.064   0.860  10.584 -0.4597 -0.2191  0.3899
  199MPD1    C5 3081   0.112   0.893  10.710  0.4563  0.4034 -0.5899
  199MPD1     H 3082   4.609   0.597  10.669  0.0438 -0.3975 -0.1647
  199MPD1    H1 3083   0.101   0.926  10.506  4.6124 -0.5864  2.4928
  199MPD1    H2 3084   0.100   0.847  10.912  3.3581 -1.7215  0.2771
  199MPD1    H3 3085   0.194   0.961  10.731 -1.5652  3.0328 -1.3148
  199MPD1     N 3086   4.667   0.731  10.440 -0.5173  0.2500  0.8546
  199MPD1    H5 3087   4.719   0.791  10.377  0.4170 -1.5311 -0.0961
  199MPD1    N1 3088   4.715   0.617  10.912  0.0947 -0.3174 -0.3656
  199MPD1    H6 3089   4.627   0.566  10.904  0.8522 -1.9662  1.8234
  199MPD1    H7 3090   4.710   0.658  11.005  3.0051  1.6351 -1.0631
  200MPD1     C 3091   3.826   0.495  15.289  0.0951 -0.2128 -0.3439
  200MPD1    C1 3092   3.843   0.478  15.155  0.2877 -0.3048 -0.0816
  200MPD1    C2 3093   3.962   0.428  15.100  0.2416 -0.1409 -0.2727
  200MPD1    C3 3094   4.077   0.442  15.176 -0.2368  0.4187 -0.2827
  200MPD1    C4 3095   4.063   0.472  15.312  0.0940  0.5493 -0.3804
  200MPD1    C5 3096   3.939   0.489  15.367  0.2738  0.9474  0.2700
  200MPD1     H 3097   3.970   0.407  14.993  1.9444  0.6586 -0.3128
  200MPD1    H1 3098   4.146   0.454  15.380  0.7138  0.3149 -1.2061
  200MPD1    H2 3099   3.740   0.535  15.342 -0.5982 -2.9676  0.6505
  200MPD1    H3 3100   3.942   0.522  15.471  0.4185  1.3518  0.1377
  200MPD1     N 3101   4.198   0.427  15.114  0.7443 -0.0574  0.3135
  200MPD1    H5 3102   4.204   0.378  15.025  0.0507  0.6016 -0.0948
  200MPD1    N1 3103   3.730   0.491  15.070  0.4705 -0.5914  0.6314
  200MPD1    H6 3104   3.764   0.509  14.976  2.5294 -0.9946  1.2891
  200MPD1    H7 3105   3.667   0.568  15.094 -0.2037 -1.4076  1.4597
  201MPD1     C 3106   1.580   4.378  13.662  0.2982  0.4044  1.1990
  201MPD1    C1 3107   1.562   4.268  13.740 -0.6051  0.0587 -0.2531
  201MPD1    C2 3108   1.615   4.150  13.706 -0.9504  0.0107 -0.1923
  201MPD1    C3 3109   1.669   4.140  13.580 -0.5280 -0.3197 -0.6669
  201MPD1    C4 3110   1.692   4.253  13.503 -0.6341 -0.9321  0.0525
  201MPD1    C5 3111   1.646   4.376  13.541 -0.1200 -0.3785 -1.0721
  201MPD1     H 3112   1.605   4.069  13.778  0.8123 -0.2021 -0.1922
  201MPD1    H1 3113   1.740   4.257  13.406  0.0103 -0.7040  0.3780
  201MPD1    H2 3114   1.538   4.475  13.687  1.1465  1.3020 -0.8538
  201MPD1    H3 3115   1.663   4.461  13.475 -0.5013 -0.3054 -1.0795
  201MPD1     N 3116   1.718   4.016  13.545 -0.0588 -0.9826 -0.1235
  201MPD1    H5 3117   1.706   3.944  13.616  1.3894 -0.9551  0.1606
  201MPD1    N1 3118   1.518   4.291  13.871 -0.3111  0.1464 -0.1786
  201MPD1    H6 3119   1.458   4.215  13.902 -1.9018  0.9590 -1.2625
  201MPD1    H7 3120   1.469   4.381  13.873  0.3547  0.5109 -0.1757
  202MPD1     C 3121   0.425   4.120   9.049  0.2057 -0.3261  0.7508
  202MPD1    C1 3122   0.438   3.998   9.102  0.0765 -0.0451 -0.3091
  202MPD1    C2 3123   0.548   3.987   9.185  0.4384  0.3564 -0.2263
  202MPD1    C3 3124   0.606   4.094   9.251 -0.7997 -0.3998  0.5067
  202MPD1    C4 3125   0.576   4.219   9.202 -0.2736 -0.2018  0.8598
  202MPD1    C5 3126   0.487   4.227   9.097  0.2378 -0.7641 -0.2382
  202MPD1     H 3127   0.572   3.887   9.221 -0.2270  0.3470  0.2002
  202MPD1    H1 3128   0.634   4.299   9.246 -1.4257  0.4598  1.1772
  202MPD1    H2 3129   0.350   4.141   8.973  1.0038  1.6133  0.5002
  202MPD1    H3 3130   0.472   4.322   9.048 -0.7281 -0.2769  1.0081
  202MPD1     N 3131   0.714   4.086   9.340 -0.3790  0.0017  0.3772
  202MPD1    H5 3132   0.760   4.174   9.360  0.1826 -0.3283  0.5211
  202MPD1    N1 3133   0.382   3.880   9.047  0.1606 -0.4125 -0.0346
  202MPD1    H6 3134   0.295   3.898   8.996  0.0598 -0.4999  0.1088
  202MPD1    H7 3135   0.388   3.793   9.099 -1.0409  0.7311  2.0000
  203MPD1     C 3136   0.027   4.639  12.263  0.7648 -0.3703  0.3888
  203MPD1    C1 3137   0.036   4.499  12.256  0.8149  0.8048  0.2186
  203MPD1    C2 3138   0.138   4.431  12.322 -0.0529 -0.0883  0.1828
  203MPD1    C3 3139   0.217   4.498  12.406 -0.3276  0.6410 -0.2303
  203MPD1    C4 3140   0.195   4.630  12.430  0.0104 -0.2545 -0.1930
  203MPD1    C5 3141   0.108   4.707  12.353  0.8772  0.3932 -0.2387
  203MPD1     H 3142   0.132   4.323  12.311  0.5716 -0.0457 -0.5981
  203MPD1    H1 3143   0.253   4.691  12.500 -1.5601 -2.6440  3.1805
  203MPD1    H2 3144   4.681   4.688  12.210  0.6813  2.0742  2.7585
  203MPD1    H3 3145   0.096   0.077  12.373  1.6305  0.6673 -1.2051
  203MPD1     N 3146   0.307   4.423  12.479 -0.7314  0.2028 -0.0411
  203MPD1    H5 3147   0.333   4.332  12.442 -0.5985 -0.3259  1.3534
  203MPD1    N1 3148   4.678   4.438  12.176  0.3873  0.4794 -0.4567
  203MPD1    H6 3149   4.652   4.346  12.211  0.3436  1.3824  1.9415
  203MPD1    H7 3150   4.599   4.501  12.160  0.7537  1.0773  0.0915
  204MPD1     C 3151   4.646   1.614  17.277  0.3270  0.1633  0.6183
  204MPD1    C1 3152   4.697   1.574  17.157  0.4676  0.0754 -0.5390
  204MPD1    C2 3153   0.030   1.458  17.151 -0.0157 -0.3647  0.0449
  204MPD1    C3 3154   0.035   1.371  17.252  0.2097  0.0621 -0.6750
  204MPD1    C4 3155   4.711   1.405  17.373  0.0057 -0.0850  0.4254
  204MPD1    C5 3156   4.656   1.533  17.386 -0.8431  0.1564 -0.5194
  204MPD1     H 3157   0.072   1.434  17.054 -1.0620  2.1484 -1.0156
  204MPD1    H1 3158   4.721   1.340  17.460  0.7630 -1.7963 -0.9457
  204MPD1    H2 3159   4.603   1.712  17.291  0.4767  0.2458  0.5118
  204MPD1    H3 3160   4.611   1.556  17.482  1.7640  2.4704  0.1424
  204MPD1     N 3161   0.106   1.248  17.234  0.0995  0.2242  0.3572
  204MPD1    H5 3162   0.161   1.244  17.149 -2.0507 -1.0844 -0.9720
  204MPD1    N1 3163   4.685   1.668  17.054  0.2044 -0.3601  0.5669
  204MPD1    H6 3164   4.693   1.618  16.965  1.7658 -0.3507  0.6973
  204MPD1    H7 3165   4.610   1.736  17.064 -0.8771 -1.3908 -0.4598
  205MPD1     C 3166   0.660   4.246  17.701 -0.0935 -0.0141  0.0383
  205MPD1    C1 3167   0.679   4.361  17.631 -0.4427  0.4951  0.5337
  205MPD1    C2 3168   0.627   4.481  17.681  0.5187 -0.0538 -0.5563
  205MPD1    C3 3169   0.540   4.475   0.050  0.0951 -0.0527 -0.0328
  205MPD1    C4 3170   0.517   4.365   0.120  0.4101  0.6580  0.1989
  205MPD1    C5 3171   0.581   4.254   0.075  0.5583  0.1090 -0.1662
  205MPD1     H 3172   0.647   4.575  17.630 -1.2665  0.7290  0.1514
  205MPD1    H1 3173   0.451   4.366   0.206 -0.4244 -1.0700 -0.4169
  205MPD1    H2 3174   0.711   4.152  17.686  0.7856 -0.0053  3.0191
  205MPD1    H3 3175   0.559   4.164   0.131 -0.1841 -1.6594 -3.3184
  205MPD1     N 3176   0.472   4.588   0.096 -0.1177  0.3401  0.5332
  205MPD1    H5 3177   0.432   4.574   0.189 -2.8890  2.3821 -0.3672
  205MPD1    N1 3178   0.761   4.363  17.516 -0.0431 -0.8578 -0.4994
  205MPD1    H6 3179   0.755   4.271  17.472 -1.4990  0.3407 -2.7526
  205MPD1    H7 3180   0.733   4.435  17.450  2.2561 -1.1845 -1.8255
  206MPD1     C 3181   1.267   2.475  17.175 -0.4723  0.6282 -0.6187
  206MPD1    C1 3182   1.142   2.511  17.230 -0.1442  0.8074  0.1447
  206MPD1    C2 3183   1.035   2.544  17.146 -0.2653 -0.8719  0.4766
  206MPD1    C3 3184   1.051   2.545  17.011 -0.2404  0.8826 -0.2657
  206MPD1    C4 3185   1.177   2.513  16.961 -0.2960 -0.1587  0.1520
  206MPD1    C5 3186   1.284   2.478  17.038 -0.3567  0.0870 -0.2401
  206MPD1     H 3187   0.937   2.562  17.190 -0.9635  0.2054 -1.5194
  206MPD1    H1 3188   1.194   2.527  16.854  0.8692 -0.8638  0.2462
  206MPD1    H2 3189   1.353   2.447  17.236 -1.3921 -1.3050 -0.2166
  206MPD1    H3 3190   1.383   2.479  16.994  0.1207  0.9842  0.8476
  206MPD1     N 3191   0.951   2.572  16.919 -0.2709  0.7490  0.0028
  206MPD1    H5 3192   0.992   2.552  16.828  1.2669 -0.2410  0.9116
  206MPD1    N1 3193   1.121   2.527  17.374  0.1273 -0.0954  0.2219
  206MPD1    H6 3194   1.183   2.479  17.439 -1.4850 -0.8478  1.1850
  206MPD1    H7 3195   1.025   2.501  17.393  0.9649 -1.8252  2.0881
  207MPD1     C 3196   1.544   0.222   9.651  0.4986 -0.7193 -0.0782
  207MPD1    C1 3197   1.520   0.339   9.708 -0.2837  0.1384 -0.5893
  207MPD1    C2 3198   1.616   0.387   9.800 -0.3242 -0.4869  0.1874
  207MPD1    C3 3199   1.734   0.314   9.825 -0.0520  0.1880 -1.3852
  207MPD1    C4 3200   1.758   0.195   9.757  0.7285  1.2190 -0.1815
  207MPD1    C5 3201   1.663   0.150   9.668 -0.7067 -0.6519  0.4564
  207MPD1     H 3202   1.609   0.481   9.854  0.6886  0.0639 -0.6513
  207MPD1    H1 3203   1.851   0.140   9.752 -0.2229 -0.3555 -0.6702
  207MPD1    H2 3204   1.477   0.191   9.572 -1.9986  1.0953  1.2984
  207MPD1    H3 3205   1.687   0.064   9.606 -0.9176  0.5617 -1.3204
  207MPD1     N 3206   1.829   0.350   9.923 -0.1591 -0.0069  0.2885
  207MPD1    H5 3207   1.908   0.288   9.938 -1.4911 -1.9170 -0.5807
  207MPD1    N1 3208   1.405   0.415   9.668 -0.5091  0.3099 -0.3855
  207MPD1    H6 3209   1.323   0.359   9.646  0.8574 -1.6216 -0.5553
  207MPD1    H7 3210   1.385   0.493   9.731 -2.9533 -0.3851 -0.2928
  208MPD1     C 3211   1.374   4.213   0.217 -0.6026  0.0438  0.0590
  208MPD1    C1 3212   1.430   4.259   0.324 -0.2648 -0.5561  0.1235
  208MPD1    C2 3213   1.380   4.227   0.450 -0.1256 -0.2029 -0.3567
  208MPD1    C3 3214   1.256   4.170   0.464  0.4821  0.8146  0.0124
  208MPD1    C4 3215   1.188   4.133   0.350  0.1531 -0.9636  1.0393
  208MPD1    C5 3216   1.258   4.139   0.232  0.0943  1.3221 -0.6518
  208MPD1     H 3217   1.440   4.246   0.539 -2.5348  0.8895  1.0334
  208MPD1    H1 3218   1.100   4.069   0.345 -0.3285 -0.2541  0.3333
  208MPD1    H2 3219   1.413   4.213   0.116 -0.3406 -2.5139  0.1708
  208MPD1    H3 3220   1.217   4.093   0.142  1.0417  3.6306 -2.2759
  208MPD1     N 3221   1.192   4.164   0.594  0.1802 -0.8633  0.2133
  208MPD1    H5 3222   1.250   4.184   0.675 -1.0900  2.4686  0.2813
  208MPD1    N1 3223   1.559   4.314   0.313 -0.2553 -0.3300 -0.2944
  208MPD1    H6 3224   1.558   4.372   0.229 -1.2910 -1.6521 -1.1936
  208MPD1    H7 3225   1.583   4.384   0.383  0.9424  0.3438 -1.3687
  209MPD1     C 3226   2.503   0.192  11.264  0.2576  0.0000  0.4137
  209MPD1    C1 3227   2.466   0.230  11.134 -0.3901 -0.6792  0.4802
  209MPD1    C2 3228   2.528   0.175  11.021 -0.2487 -0.3894 -0.2878
  209MPD1    C3 3229   2.611   0.064  11.035 -0.4894  0.0965  0.0418
  209MPD1    C4 3230   2.636   0.021  11.167 -0.1854  0.2114 -0.0202
  209MPD1    C5 3231   2.598   0.099  11.270  0.0814  0.2993  0.3067
  209MPD1     H 3232   2.505   0.207  10.920 -0.4950 -2.0039 -0.7453
  209MPD1    H1 3233   2.696   4.669  11.184 -0.8371 -0.1063  0.5964
  209MPD1    H2 3234   2.470   0.246  11.352  2.3469 -0.1060  1.2655
  209MPD1    H3 3235   2.632   0.061  11.365 -0.6473 -1.0074  0.0500
  209MPD1     N 3236   2.632   4.720  10.920 -0.7265 -0.1420  0.4089
  209MPD1    H5 3237   2.592   0.016  10.833  0.2412  2.0438  0.7543
  209MPD1    N1 3238   2.383   0.345  11.117 -0.3835  0.0137  0.2269
  209MPD1    H6 3239   2.304   0.346  11.180 -0.3877  1.8058  0.1924
  209MPD1    H7 3240   2.342   0.342  11.024 -0.8556 -0.0971  0.4419
  210MPD1     C 3241   3.450   4.562  10.464  0.3585  0.4922  0.0652
  210MPD1    C1 3242   3.365   4.520  10.368 -0.0795 -0.8136  0.3028
  210MPD1    C2 3243   3.241   4.479  10.412  0.1355  0.7564  0.6441
  210MPD1    C3 3244   3.202   4.497  10.546  0.6301  1.1816 -0.1867
  210MPD1    C4 3245   3.291   4.532  10.643  0.2180 -0.0581 -0.1047
  210MPD1    C5 3246   3.415   4.573  10.599 -0.3625  0.1130 -0.0798
  210MPD1     H 3247   3.175   4.426  10.345  0.2121  0.3295  0.9042
  210MPD1    H1 3248   3.269   4.521  10.748  1.3156 -0.8397  0.0381
  210MPD1    H2 3249   3.555   4.586  10.446  0.6624  0.9049  2.3098
  210MPD1    H3 3250   3.490   4.597  10.674  1.2896 -3.5983 -0.5610
  210MPD1     N 3251   3.069   4.471  10.593  0.4771  0.4281 -0.6002
  210MPD1    H5 3252   3.050   4.494  10.690 -1.2188 -1.8513 -0.3743
  210MPD1    N1 3253   3.396   4.511  10.232  0.2304 -0.3037  0.3297
  210MPD1    H6 3254   3.447   4.590  10.193  0.5694 -1.0914 -0.8130
  210MPD1    H7 3255   3.320   4.487  10.168  0.3799  0.5876 -0.1752
  211MPD1     C 3256   0.553   3.834  15.889  0.0517 -0.8678 -0.1787
  211MPD1    C1 3257   0.409   3.835  15.897 -0.2175  0.2153 -0.4444
  211MPD1    C2 3258   0.338   3.946  15.945 -0.4616  0.0584 -0.1809
  211MPD1    C3 3259   0.410   4.066  15.955  0.1198  0.2051  0.2377
  211MPD1    C4 3260   0.552   4.060  15.940 -0.7638 -0.5094  0.2922
  211MPD1    C5 3261   0.625   3.946  15.914  0.0769 -0.1106  0.3317
  211MPD1     H 3262   0.231   3.949  15.956 -0.1649 -0.2230  2.6332
  211MPD1    H1 3263   0.610   4.148  15.964 -1.1916  0.4146 -2.1156
  211MPD1    H2 3264   0.610   3.744  15.871  1.8641  0.8267 -2.8618
  211MPD1    H3 3265   0.733   3.951  15.929 -0.1979  0.0521  2.3188
  211MPD1     N 3266   0.337   4.181  15.989  0.4521 -0.5886  0.1575
  211MPD1    H5 3267   0.238   4.162  15.999  0.3381 -0.2855 -0.4248
  211MPD1    N1 3268   0.345   3.713  15.878 -0.2376  0.1377  0.2543
  211MPD1    H6 3269   0.267   3.723  15.813 -0.6000  1.5325  0.9223
  211MPD1    H7 3270   0.404   3.662  15.812  0.4587  1.6176 -0.2704
  212MPD1     C 3271   4.568   2.990  16.761 -0.1694  0.2541 -1.0961
  212MPD1    C1 3272   4.521   2.898  16.670 -0.0624 -0.0561  0.7522
  212MPD1    C2 3273   4.432   2.800  16.721 -0.5375 -0.1804  0.6457
  212MPD1    C3 3274   4.417   2.778  16.864 -0.7148 -0.3070  0.4629
  212MPD1    C4 3275   4.471   2.876  16.946  0.4891 -0.2591  0.5080
  212MPD1    C5 3276   4.546   2.977  16.896  0.0817 -0.1556  0.7166
  212MPD1     H 3277   4.389   2.726  16.654 -2.0732  1.0602  0.2666
  212MPD1    H1 3278   4.483   2.857  17.052  0.4167 -1.8192  0.2333
  212MPD1    H2 3279   4.629   3.070  16.721  0.3162 -0.1583 -1.1748
  212MPD1    H3 3280   4.600   3.045  16.960 -2.4554  1.6710  0.9168
  212MPD1     N 3281   4.348   2.669  16.926 -0.0742 -0.4595 -0.0224
  212MPD1    H5 3282   4.357   2.652  17.025 -1.3504 -1.5281 -0.0984
  212MPD1    N1 3283   4.545   2.905  16.531 -0.6993  0.0656 -0.3799
  212MPD1    H6 3284   4.629   2.958  16.508 -0.9271  0.4939 -0.2248
  212MPD1    H7 3285   4.557   2.816  16.483  2.1001  0.0771  0.2730
  213MPD1     C 3286   2.722   2.709  15.587  0.8024  0.1195 -0.0211
  213MPD1    C1 3287   2.584   2.684  15.602 -0.7399 -0.0729 -0.1287
  213MPD1    C2 3288   2.511   2.795  15.571 -0.6081  0.1291  0.2274
  213MPD1    C3 3289   2.563   2.906  15.500 -0.2463  0.0762  0.3251
  213MPD1    C4 3290   2.699   2.904  15.471  0.4140  0.1915 -0.0762
  213MPD1    C5 3291   2.776   2.801  15.515 -0.1167  0.2816 -0.7148
  213MPD1     H 3292   2.405   2.793  15.590 -0.1855  1.7658  2.7212
  213MPD1    H1 3293   2.745   2.973  15.402  0.0196 -0.0349 -0.5744
  213MPD1    H2 3294   2.798   2.641  15.623 -1.4427 -2.1121  0.5020
  213MPD1    H3 3295   2.883   2.810  15.499 -0.1304  1.5721 -0.1071
  213MPD1     N 3296   2.475   3.010  15.448 -0.0986  0.5968 -0.0828
  213MPD1    H5 3297   2.378   2.984  15.461 -0.2339  1.4868  0.6955
  213MPD1    N1 3298   2.540   2.589  15.693  0.1693  0.6347 -0.1798
  213MPD1    H6 3299   2.438   2.581  15.688  0.3566 -0.8259 -1.7898
  213MPD1    H7 3300   2.584   2.498  15.681 -1.7895  0.0189 -2.7229
  214MPD1     C 3301   1.989   2.822  14.726 -0.4610 -0.1877  0.2766
  214MPD1    C1 3302   1.946   2.802  14.852  0.1298  0.5667 -0.4464
  214MPD1    C2 3303   2.004   2.880  14.951  0.5340 -0.2558  0.1850
  214MPD1    C3 3304   2.097   2.972  14.918 -0.1763  0.2668 -1.0450
  214MPD1    C4 3305   2.144   2.976  14.791  0.4692 -0.5931 -0.4203
  214MPD1    C5 3306   2.091   2.901  14.694 -0.0592 -0.2948  0.5595
  214MPD1     H 3307   1.967   2.870  15.053  0.3629  0.1242  0.1600
  214MPD1    H1 3308   2.228   3.037  14.760 -0.1542  1.7516  2.5042
  214MPD1    H2 3309   1.951   2.767  14.641 -1.9116 -0.7920  1.3238
  214MPD1    H3 3310   2.126   2.909  14.592  2.4571  2.1150  1.6340
  214MPD1     N 3311   2.156   3.065  15.014 -0.0147 -0.1023 -0.1084
  214MPD1    H5 3312   2.210   3.141  14.976  1.4394 -0.9808  0.2110
  214MPD1    N1 3313   1.852   2.705  14.880 -0.0009 -0.1479 -0.2389
  214MPD1    H6 3314   1.774   2.715  14.815  0.8958  2.4493 -0.9135
  214MPD1    H7 3315   1.810   2.719  14.972 -0.8957  0.2078 -0.7003
  215MPD1     C 3316   2.638   4.114  10.466  0.0667 -0.8583 -0.1436
  215MPD1    C1 3317   2.520   4.172  10.430 -0.7109 -0.8271  0.6173
  215MPD1    C2 3318   2.455   4.242  10.529  0.2952  0.3131  0.1415
  215MPD1    C3 3319   2.502   4.249  10.664 -0.2696  0.5681 -0.0276
  215MPD1    C4 3320   2.620   4.175  10.694  0.7670 -0.1488 -1.1368
  215MPD1    C5 3321   2.686   4.112  10.593  0.2753 -0.2951  0.9100
  215MPD1     H 3322   2.361   4.291  10.507  1.5512  2.7062  0.0677
  215MPD1    H1 3323   2.650   4.158  10.797  0.2657 -0.4561 -1.0434
  215MPD1    H2 3324   2.698   4.067  10.388 -0.0688 -0.8771 -0.2364
  215MPD1    H3 3325   2.778   4.064  10.625  0.1583 -1.3237 -0.2866
  215MPD1     N 3326   2.417   4.307  10.763  0.7205  0.1491  0.2324
  215MPD1    H5 3327   2.319   4.321  10.741  0.7121  1.5493  1.2029
  215MPD1    N1 3328   2.498   4.194  10.293 -0.1759 -0.1390  0.0626
  215MPD1    H6 3329   2.398   4.199  10.274 -0.1510  0.2089  0.0338
  215MPD1    H7 3330   2.539   4.120  10.236 -2.4510 -2.1416  1.0134
  216MPD1     C 3331   0.636   0.966  16.120 -0.4321  0.5467 -0.5705
  216MPD1    C1 3332   0.547   1.071  16.138  0.3289 -0.7026  0.1480
  216MPD1    C2 3333   0.500   1.089  16.266 -0.3211  0.0806  0.0261
  216MPD1    C3 3334   0.532   1.003  16.368  0.6372 -0.4737 -0.7561
  216MPD1    C4 3335   0.607   0.892  16.344  0.8091  0.2365 -0.5244
  216MPD1    C5 3336   0.665   0.875  16.217 -0.5187  0.6058  0.4759
  216MPD1     H 3337   0.444   1.178  16.293  0.1618  0.1086  0.9127
  216MPD1    H1 3338   0.647   0.832  16.424 -1.1096 -0.7449 -0.3006
  216MPD1    H2 3339   0.692   0.959  16.027 -0.2683 -0.1422 -0.4249
  216MPD1    H3 3340   0.740   0.799  16.196 -0.4329  0.8583 -0.1396
  216MPD1     N 3341   0.492   1.038  16.496 -0.5242 -0.7132 -0.3241
  216MPD1    H5 3342   0.426   1.115  16.488  0.4173 -0.0214 -1.4659
  216MPD1    N1 3343   0.533   1.170  16.034 -0.4797 -0.2887 -0.3242
  216MPD1    H6 3344   0.551   1.132  15.942  0.2352 -0.0809 -0.2703
  216MPD1    H7 3345   0.446   1.224  16.035  0.1754  0.7729 -0.5609
  217MPD1     C 3346   3.300   4.337   9.731 -0.1736  0.2047  0.6820
  217MPD1    C1 3347   3.396   4.308   9.628  0.5491  0.0108 -0.3222
  217MPD1    C2 3348   3.521   4.278   9.668  0.0567 -0.0589  0.9234
  217MPD1    C3 3349   3.554   4.276   9.805 -0.0445 -0.2303 -0.8012
  217MPD1    C4 3350   3.456   4.302   9.904 -0.4582 -0.5537  0.5021
  217MPD1    C5 3351   3.330   4.333   9.866 -0.4975  0.6225  0.0674
  217MPD1     H 3352   3.600   4.246   9.601 -2.6246 -0.7537 -1.8627
  217MPD1    H1 3353   3.493   4.306  10.006  2.1907  1.1571 -0.5431
  217MPD1    H2 3354   3.197   4.362   9.705 -0.1138 -2.1999 -1.9368
  217MPD1    H3 3355   3.263   4.386   9.932  0.4360  2.8933 -0.7739
  217MPD1     N 3356   3.686   4.244   9.854  0.8052 -0.3075 -0.6371
  217MPD1    H5 3357   3.695   4.249   9.955 -0.9898 -0.7823 -0.4538
  217MPD1    N1 3358   3.368   4.313   9.494 -0.4476  0.0698  0.2441
  217MPD1    H6 3359   3.270   4.319   9.468  0.0626  1.2727 -1.3352
  217MPD1    H7 3360   3.419   4.246   9.436  0.7274  1.3868 -0.2424
  218MPD1     C 3361   1.858   0.039  13.270  0.6249 -0.4979  0.3156
  218MPD1    C1 3362   1.942   0.087  13.167  0.1779  0.4434  0.0549
  218MPD1    C2 3363   1.991   0.002  13.070 -0.5857  0.3246 -0.1694
  218MPD1    C3 3364   1.981   4.606  13.086  0.2192 -0.1023  0.5811
  218MPD1    C4 3365   1.916   4.554  13.193 -0.3715  0.5452 -0.3602
  218MPD1    C5 3366   1.859   4.639  13.286 -0.0685  0.3719 -0.7652
  218MPD1     H 3367   2.054   0.030  12.987  1.0824 -0.9099  0.6787
  218MPD1    H1 3368   1.915   4.447  13.211 -2.4526  0.6530  0.1613
  218MPD1    H2 3369   1.803   0.106  13.335  0.7593 -0.1031  0.0268
  218MPD1    H3 3370   1.798   4.605  13.369  1.1117 -1.0981 -0.5068
  218MPD1     N 3371   2.040   4.526  12.982  0.2939 -0.1071  0.2958
  218MPD1    H5 3372   2.103   4.574  12.919  0.6577 -1.2204 -0.1961
  218MPD1    N1 3373   1.973   0.223  13.146 -0.0551  0.8246 -0.9073
  218MPD1    H6 3374   1.963   0.288  13.224 -3.1288 -0.5048 -0.1749
  218MPD1    H7 3375   2.048   0.242  13.080 -1.2172  0.4121 -2.3358
  219MPD1     C 3376   2.754   4.573  12.313 -0.0461 -0.3039 -0.0514
  219MPD1    C1 3377   2.740   4.435  12.321  0.5208 -0.0300  0.2361
  219MPD1    C2 3378   2.645   4.373  12.402 -0.4112 -0.6209 -0.0633
  219MPD1    C3 3379   2.558   4.451  12.476  0.7367 -0.6979 -0.3713
  219MPD1    C4 3380   2.582   4.591  12.483  0.5735 -0.5003 -0.0744
  219MPD1    C5 3381   2.667   4.649  12.393  0.1050  0.0440 -0.0019
  219MPD1     H 3382   2.621   4.268  12.394 -2.4462 -0.2294  0.9936
  219MPD1    H1 3383   2.537   4.654  12.558 -1.2603 -0.0102 -1.5616
  219MPD1    H2 3384   2.819   4.617  12.239  1.4191  0.6344  1.8000
  219MPD1    H3 3385   2.669   0.021  12.386  0.6264 -0.1336 -2.6340
  219MPD1     N 3386   2.464   4.385  12.560  0.4405 -0.7383 -0.0267
  219MPD1    H5 3387   2.480   4.286  12.578 -2.0660 -1.1488 -0.0766
  219MPD1    N1 3388   2.810   4.363  12.221 -0.0280  0.8281  0.0364
  219MPD1    H6 3389   2.803   4.262  12.234 -0.2177  0.6600 -1.3884
  219MPD1    H7 3390   2.905   4.396  12.209  0.5485  0.1922  2.7414
  220MPD1     C 3391   2.174   4.060   9.663 -0.9892 -0.7240 -0.0829
  220MPD1    C1 3392   2.083   4.132   9.596  0.0885  0.3712 -0.3304
  220MPD1    C2 3393   2.010   4.232   9.656 -0.1081 -0.2717 -0.2531
  220MPD1    C3 3394   2.025   4.264   9.787  0.3705 -0.1809  0.4123
  220MPD1    C4 3395   2.113   4.184   9.857 -0.3316 -0.0209  0.2026
  220MPD1    C5 3396   2.184   4.088   9.793 -0.3906 -0.0901  0.0528
  220MPD1     H 3397   1.933   4.294   9.611  0.2652  1.1930  1.1058
  220MPD1    H1 3398   2.141   4.196   9.961  0.5066 -1.6385  0.1693
  220MPD1    H2 3399   2.221   3.973   9.619  1.0348 -0.2069  1.0548
  220MPD1    H3 3400   2.255   4.031   9.852 -1.3052  0.1271  1.3604
  220MPD1     N 3401   1.948   4.364   9.839  0.1345 -0.3148  0.0796
  220MPD1    H5 3402   1.900   4.423   9.772  1.4007  0.1376 -0.4353
  220MPD1    N1 3403   2.075   4.110   9.459 -0.3244  0.2782 -0.6900
  220MPD1    H6 3404   2.093   4.013   9.432 -0.5581  0.1284 -0.3115
  220MPD1    H7 3405   1.985   4.141   9.423 -1.4682 -2.3520 -0.1027
  221MPD1     C 3406   4.534   4.089  16.646 -1.6088 -0.4900  0.2303
  221MPD1    C1 3407   4.561   3.955  16.611  0.1541 -0.6117 -0.5167
  221MPD1    C2 3408   4.698   3.924  16.595 -0.3450  0.2294 -0.1020
  221MPD1    C3 3409   0.058   4.021  16.593  0.4925  0.1290 -0.8096
  221MPD1    C4 3410   0.026   4.156  16.626 -0.0392  0.4672 -0.3935
  221MPD1    C5 3411   4.634   4.193  16.648 -0.5826 -0.2434 -0.0286
  221MPD1     H 3412   4.716   3.821  16.567  1.0109  0.3956  0.1710
  221MPD1    H1 3413   0.104   4.231  16.629 -0.0630  0.4753 -0.0007
  221MPD1    H2 3414   4.430   4.116  16.652 -1.4175  0.1679  0.6571
  221MPD1    H3 3415   4.624   4.297  16.677  1.5622  0.4581 -1.8019
  221MPD1     N 3416   0.190   4.002  16.545 -0.0254  0.3244  1.0405
  221MPD1    H5 3417   0.241   4.082  16.511 -1.2613  0.4524 -0.4864
  221MPD1    N1 3418   4.458   3.856  16.621  0.1899  0.1650 -0.1280
  221MPD1    H6 3419   4.472   3.788  16.547 -2.4794 -1.4743  0.8454
  221MPD1    H7 3420   4.366   3.896  16.601  1.3437  2.4040 -0.9802
  222MPD1     C 3421   4.716   2.926  17.243 -0.5428 -0.1300  0.5443
  222MPD1    C1 3422   0.004   2.800  17.290 -0.1461 -1.0131 -0.3939
  222MPD1    C2 3423   4.724   2.789  17.427  0.1630  0.1190  0.2524
  222MPD1    C3 3424   4.664   2.884  17.507  0.3559  0.3496 -0.8402
  222MPD1    C4 3425   4.626   3.003  17.447  0.5610 -0.1630  0.0666
  222MPD1    C5 3426   4.662   3.024  17.324 -0.7007 -0.3243 -0.0691
  222MPD1     H 3427   4.731   2.685  17.455  2.1384  0.5292  1.2875
  222MPD1    H1 3428   4.556   3.067  17.500  0.4442 -0.8992  0.8060
  222MPD1    H2 3429   4.716   2.943  17.136 -1.2066 -1.4820  0.3289
  222MPD1    H3 3430   4.628   3.118  17.281  0.2923 -0.5991 -1.4786
  222MPD1     N 3431   4.631   2.865  17.649 -0.1343 -0.2271 -0.3413
  222MPD1    H5 3432   4.580   2.942  17.692  0.2497 -0.2699  0.1960
  222MPD1    N1 3433   0.037   2.699  17.201 -0.1843  0.0083 -0.0805
  222MPD1    H6 3434   0.055   2.744  17.112 -0.9603  2.4233  0.9829
  222MPD1    H7 3435   0.113   2.643  17.237  0.4763  1.8358  1.3612
  223MPD1     C 3436   4.133   2.047   0.012  0.4467  0.2229  0.0338
  223MPD1    C1 3437   4.195   2.125  17.654 -0.2223  0.7248  0.9193
  223MPD1    C2 3438   4.261   2.239  17.690 -1.0115 -0.1589 -0.1767
  223MPD1    C3 3439   4.259   2.281   0.080 -0.5859  0.7224 -0.2457
  223MPD1    C4 3440   4.187   2.223   0.178  0.3174  0.4657  0.4163
  223MPD1    C5 3441   4.127   2.105   0.138 -0.1418 -0.4338 -0.7006
  223MPD1     H 3442   4.323   2.294  17.621 -0.8243 -0.3723 -0.1779
  223MPD1    H1 3443   4.176   2.264   0.278 -1.5029  0.9777  0.0029
  223MPD1    H2 3444   4.084   1.956  17.724 -2.0337  1.6702 -0.2963
  223MPD1    H3 3445   4.060   2.053   0.206 -0.1453  0.6966  0.1663
  223MPD1     N 3446   4.327   2.401   0.103 -0.4641 -0.1330  0.2538
  223MPD1    H5 3447   4.383   2.431   0.024  0.3881 -1.3085  0.4084
  223MPD1    N1 3448   4.210   2.067  17.522 -0.2402  0.2107 -0.3601
  223MPD1    H6 3449   4.191   2.140  17.453 -0.7100 -1.5187 -2.0655
  223MPD1    H7 3450   4.135   1.999  17.508 -0.7723  0.7556 -0.1446
  224MPD1     C 3451   0.133   0.640   8.836  0.1253  0.6196  0.1002
  224MPD1    C1 3452   0.218   0.541   8.813  0.4487 -0.1816 -0.2991
  224MPD1    C2 3453   0.286   0.481   8.917 -0.6194  0.0984 -0.7282
  224MPD1    C3 3454   0.242   0.497   9.052 -0.8086  0.6800  0.2887
  224MPD1    C4 3455   0.134   0.578   9.070  1.1221  0.4300  0.5042
  224MPD1    C5 3456   0.094   0.658   8.965 -0.5110  0.3159 -0.3971
  224MPD1     H 3457   0.383   0.434   8.902 -1.8099 -1.9344 -2.1047
  224MPD1    H1 3458   0.082   0.584   9.165  1.1394  1.7285  0.4348
  224MPD1    H2 3459   0.085   0.709   8.769  0.6344  1.9173  1.0763
  224MPD1    H3 3460   0.012   0.728   8.979  0.0588  0.9446 -0.1592
  224MPD1     N 3461   0.310   0.448   9.163  0.0893 -0.4161  0.2675
  224MPD1    H5 3462   0.286   0.492   9.251  2.5495 -0.9210  1.1808
  224MPD1    N1 3463   0.258   0.509   8.686 -0.0738 -0.0170  0.9217
  224MPD1    H6 3464   0.339   0.568   8.666 -1.1235  0.4447 -1.9679
  224MPD1    H7 3465   0.188   0.542   8.620 -1.0342 -0.0260  1.9388
  225MPD1     C 3466   2.217   0.732  12.393 -0.1247  0.3080  0.4659
  225MPD1    C1 3467   2.149   0.621  12.337  0.2991  0.7310  0.3356
  225MPD1    C2 3468   2.014   0.634  12.302 -0.5645 -0.1832  0.2608
  225MPD1    C3 3469   1.942   0.743  12.349 -0.0416  0.3677 -0.9516
  225MPD1    C4 3470   2.013   0.845  12.408  0.4254  0.3636  0.2823
  225MPD1    C5 3471   2.145   0.841  12.435 -0.8945  0.4478  0.2205
  225MPD1     H 3472   1.970   0.547  12.256 -1.2896  0.0815  0.4543
  225MPD1    H1 3473   1.955   0.932  12.435 -3.2674 -3.3906  4.3083
  225MPD1    H2 3474   2.319   0.716  12.426 -1.1813 -2.6326  2.2313
  225MPD1    H3 3475   2.198   0.923  12.481 -0.9904  1.6319 -1.8164
  225MPD1     N 3476   1.802   0.752  12.344 -0.1441  0.9413 -0.2394
  225MPD1    H5 3477   1.764   0.820  12.409  0.8276  2.4037 -1.2148
  225MPD1    N1 3478   2.229   0.519  12.290  0.3861  0.7759  0.0881
  225MPD1    H6 3479   2.316   0.510  12.342  0.2486  0.5122  0.2709
  225MPD1    H7 3480   2.185   0.429  12.310  1.0422  0.5115  0.3576
  226MPD1     C 3481   0.184   1.224  10.392  0.3514 -0.2531 -0.1883
  226MPD1    C1 3482   0.318   1.172  10.382  0.3656  1.2010 -0.3031
  226MPD1    C2 3483   0.375   1.148  10.267  0.1910 -0.5910  0.5129
  226MPD1    C3 3484   0.308   1.174  10.143  0.2223 -0.4194  0.0540
  226MPD1    C4 3485   0.175   1.214  10.151  0.5470  0.0288 -0.0328
  226MPD1    C5 3486   0.118   1.235  10.272  0.7330  0.6936 -0.3442
  226MPD1     H 3487   0.479   1.120  10.268 -0.2145 -2.1318 -0.3226
  226MPD1    H1 3488   0.108   1.221  10.066 -0.9123 -2.7766  0.9117
  226MPD1    H2 3489   0.134   1.235  10.488 -0.4405 -0.3731 -0.5872
  226MPD1    H3 3490   0.011   1.253  10.268  0.9504  1.8961 -0.5848
  226MPD1     N 3491   0.371   1.148  10.019 -0.0569  0.3182 -0.2827
  226MPD1    H5 3492   0.467   1.118  10.031 -0.0554  0.4596  0.0557
  226MPD1    N1 3493   0.379   1.113  10.492  0.0290 -0.2089 -0.6753
  226MPD1    H6 3494   0.359   1.158  10.581  1.4162  0.5851 -0.7586
  226MPD1    H7 3495   0.478   1.089  10.479  0.6044  0.5655  2.1853
  227MPD1     C 3496   1.217   1.208   9.985  0.2781  0.1473  0.0612
  227MPD1    C1 3497   1.120   1.142  10.063 -0.1847  0.0029 -0.8467
  227MPD1    C2 3498   0.988   1.153  10.025 -0.4605  0.2038  0.2809
  227MPD1    C3 3499   0.950   1.208   9.904  0.6257 -0.1153 -0.6632
  227MPD1    C4 3500   1.047   1.256   9.817 -0.0541 -0.5732  0.8655
  227MPD1    C5 3501   1.177   1.259   9.861 -0.4421 -0.0539 -0.1015
  227MPD1     H 3502   0.914   1.109  10.092 -0.3233 -0.6570 -0.1246
  227MPD1    H1 3503   1.026   1.303   9.722 -1.9567 -0.1307  1.4983
  227MPD1    H2 3504   1.320   1.229  10.010 -0.1246  2.9295 -0.5886
  227MPD1    H3 3505   1.251   1.293   9.789 -0.5034  1.2236  0.4328
  227MPD1     N 3506   0.816   1.186   9.857  0.7010  0.2723 -0.3430
  227MPD1    H5 3507   0.753   1.154   9.931  1.3915 -4.0640 -1.6385
  227MPD1    N1 3508   1.156   1.087  10.191 -0.0072  0.0596  0.0145
  227MPD1    H6 3509   1.256   1.071  10.200 -0.0510 -1.0608 -1.4306
  227MPD1    H7 3510   1.100   1.006  10.218 -0.3805 -0.0107 -0.9315
  228MPD1     C 3511   4.255   3.003  13.333  0.3837 -0.3733 -0.0895
  228MPD1    C1 3512   4.209   3.036  13.208 -0.2045  0.2677 -0.0754
  228MPD1    C2 3513   4.078   3.062  13.203  0.3958 -0.3696 -0.2472
  228MPD1    C3 3514   3.991   3.031  13.310 -0.0044 -0.3253  0.2734
  228MPD1    C4 3515   4.037   2.976  13.428 -0.0100 -0.2671  0.8775
  228MPD1    C5 3516   4.177   2.971  13.441 -0.4139  0.0284 -0.7275
  228MPD1     H 3517   4.033   3.111  13.118  1.2738 -0.3678 -0.7088
  228MPD1    H1 3518   3.982   2.941  13.514 -0.3555  1.5266  1.3719
  228MPD1    H2 3519   4.358   2.974  13.347  0.5073  1.7910  3.3667
  228MPD1    H3 3520   4.219   2.920  13.527  1.3515  0.1913 -1.4841
  228MPD1     N 3521   3.850   3.058  13.287 -0.5228  0.4432 -0.3070
  228MPD1    H5 3522   3.828   3.083  13.191  1.0756 -0.9587 -1.0204
  228MPD1    N1 3523   4.299   3.075  13.107  0.0776 -1.1495  0.3523
  228MPD1    H6 3524   4.382   3.017  13.120  1.1999  0.8066  1.9049
  228MPD1    H7 3525   4.267   3.060  13.012 -0.5748  0.8021  0.2638
  229MPD1     C 3526   3.323   1.737  14.872  0.2465  0.0197  0.0417
  229MPD1    C1 3527   3.332   1.783  14.995  0.2781  0.2870 -0.2411
  229MPD1    C2 3528   3.398   1.711  15.089 -0.7973  0.4477 -0.5098
  229MPD1    C3 3529   3.458   1.592  15.067 -0.0727 -0.5285  0.2272
  229MPD1    C4 3530   3.460   1.550  14.942  0.0059  0.8595 -0.7123
  229MPD1    C5 3531   3.377   1.611  14.844  0.3042  0.1272 -0.5006
  229MPD1     H 3532   3.398   1.750  15.190  0.4307  0.0255 -0.3464
  229MPD1    H1 3533   3.512   1.458  14.916  0.6745  1.3019 -0.9414
  229MPD1    H2 3534   3.268   1.785  14.791  0.6075 -0.8528 -0.7216
  229MPD1    H3 3535   3.374   1.572  14.744  2.1354  0.8677 -0.8465
  229MPD1     N 3536   3.515   1.513  15.165  0.1028 -0.4507 -0.1227
  229MPD1    H5 3537   3.539   1.419  15.136  0.2327 -0.2746 -0.5921
  229MPD1    N1 3538   3.264   1.902  15.039 -0.5493 -0.0269  0.3124
  229MPD1    H6 3539   3.304   1.941  15.123 -0.7059  0.9969 -0.0903
  229MPD1    H7 3540   3.255   1.972  14.965 -0.1969 -0.7468 -0.4172
  230MPD1     C 3541   3.412   1.433  16.152  0.3499 -0.8892 -0.1883
  230MPD1    C1 3542   3.429   1.550  16.089  0.6093 -0.4599  0.3635
  230MPD1    C2 3543   3.477   1.534  15.958  0.4343  0.6077  0.4762
  230MPD1    C3 3544   3.519   1.420  15.897  0.8321 -0.7737 -0.6586
  230MPD1    C4 3545   3.515   1.306  15.974 -0.6600 -0.3571 -0.1066
  230MPD1    C5 3546   3.468   1.313  16.103  0.4631 -0.1152 -0.3632
  230MPD1     H 3547   3.486   1.629  15.906  4.0779  0.2302  0.3988
  230MPD1    H1 3548   3.565   1.214  15.945 -1.9717 -1.4646  1.1424
  230MPD1    H2 3549   3.367   1.426  16.251 -2.1636  1.2953 -1.1697
  230MPD1    H3 3550   3.458   1.225  16.166  2.6043  0.7121  1.1661
  230MPD1     N 3551   3.571   1.420  15.772  0.5167 -0.4466  0.1171
  230MPD1    H5 3552   3.567   1.511  15.726  2.7477 -2.4057 -3.9366
  230MPD1    N1 3553   3.358   1.666  16.135  0.6725  0.1270  1.1273
  230MPD1    H6 3554   3.362   1.681  16.236  2.1175  1.2122  0.9162
  230MPD1    H7 3555   3.397   1.748  16.090 -2.2115  1.5085  1.1690
  231MPD1     C 3556   1.606   2.929  15.134 -0.7413 -1.0520 -0.0690
  231MPD1    C1 3557   1.601   2.924  14.998 -0.2697 -0.3493 -0.0180
  231MPD1    C2 3558   1.671   3.021  14.920 -0.5018 -0.5761  0.8851
  231MPD1    C3 3559   1.740   3.125  14.989 -0.5648  0.2744  0.3796
  231MPD1    C4 3560   1.727   3.137  15.127 -0.0838 -0.1626 -0.1552
  231MPD1    C5 3561   1.661   3.036  15.202  0.0524 -0.3168  0.8789
  231MPD1     H 3562   1.684   3.006  14.814  1.0778 -1.2221  1.1792
  231MPD1    H1 3563   1.780   3.202  15.195  1.5196 -1.1689 -0.4373
  231MPD1    H2 3564   1.566   2.846  15.191 -1.6839 -0.8378 -0.4156
  231MPD1    H3 3565   1.673   3.043  15.309 -1.2396 -0.3348  1.0230
  231MPD1     N 3566   1.822   3.208  14.914  0.0874  0.7449 -0.1490
  231MPD1    H5 3567   1.830   3.180  14.817  0.6994  3.1745 -0.7926
  231MPD1    N1 3568   1.556   2.810  14.932  0.0593 -0.1256  0.7048
  231MPD1    H6 3569   1.519   2.818  14.838  0.3694  2.2947  0.7845
  231MPD1    H7 3570   1.496   2.743  14.979  1.6363 -0.9523  1.5347
  232MPD1     C 3571   4.054   1.574   0.135 -0.6140 -0.3020  0.5769
  232MPD1    C1 3572   4.084   1.436   0.152  0.0072  0.2237  0.3132
  232MPD1    C2 3573   3.982   1.340   0.144  0.3869  0.7607 -0.1073
  232MPD1    C3 3574   3.862   1.377   0.097  0.3071 -0.2898  0.2902
  232MPD1    C4 3575   3.837   1.507   0.063 -1.0748 -0.1877  0.0427
  232MPD1    C5 3576   3.931   1.602   0.082 -1.0811  0.7403  0.2476
  232MPD1     H 3577   4.014   1.241   0.175 -0.1257  0.4839 -0.4585
  232MPD1    H1 3578   3.745   1.547   0.024  0.2999  0.8741 -2.1023
  232MPD1    H2 3579   4.118   1.658   0.160 -5.5555  3.3040  1.1370
  232MPD1    H3 3580   3.922   1.708   0.058 -0.0502  0.8665  0.4197
  232MPD1     N 3581   3.753   1.288   0.089 -0.0455 -0.6036 -0.2898
  232MPD1    H5 3582   3.662   1.331   0.070  1.0564  0.3881 -3.3860
  232MPD1    N1 3583   4.208   1.411   0.215 -0.3339 -0.4120 -0.2212
  232MPD1    H6 3584   4.277   1.481   0.189  0.9715 -1.2325  1.0162
  232MPD1    H7 3585   4.245   1.316   0.219 -0.8676 -0.6160 -0.1464
  233MPD1     C 3586   0.992   0.714   1.505  0.6682  0.6775  0.1815
  233MPD1    C1 3587   0.938   0.756   1.625  0.6426 -0.0337  0.4105
  233MPD1    C2 3588   0.888   0.661   1.712 -0.3152 -0.1095  0.4711
  233MPD1    C3 3589   0.873   0.528   1.675 -0.1427  0.0697  0.1494
  233MPD1    C4 3590   0.918   0.493   1.548 -0.0176 -0.1302 -0.8691
  233MPD1    C5 3591   0.972   0.588   1.462  0.2780  0.0758 -0.2303
  233MPD1     H 3592   0.857   0.689   1.813 -0.0515 -1.6113  0.9658
  233MPD1    H1 3593   0.898   0.392   1.516 -1.1140  0.0749 -0.8538
  233MPD1    H2 3594   1.045   0.776   1.433 -0.3623  1.3231 -0.0295
  233MPD1    H3 3595   1.020   0.556   1.370 -0.4925  0.9773 -0.9507
  233MPD1     N 3596   0.828   0.426   1.761 -0.2580  0.1943  0.1518
  233MPD1    H5 3597   0.803   0.338   1.717  0.3872  0.3638 -0.5490
  233MPD1    N1 3598   0.964   0.884   1.673  0.2783 -0.0924 -0.4365
  233MPD1    H6 3599   0.889   0.923   1.729  1.2908 -0.4752  1.1956
  233MPD1    H7 3600   0.962   0.944   1.590  2.3908  1.2535  0.4708
  234MPD1     C 3601   0.594   3.320   9.328  0.6961  1.0870  0.8424
  234MPD1    C1 3602   0.685   3.394   9.401  0.1137  0.8214 -0.2630
  234MPD1    C2 3603   0.644   3.523   9.429 -0.5387 -0.5596  0.4926
  234MPD1    C3 3604   0.516   3.568   9.391  0.5356 -0.1897 -0.4237
  234MPD1    C4 3605   0.427   3.483   9.328 -0.3162 -0.1442  0.1341
  234MPD1    C5 3606   0.473   3.361   9.301  0.2926  0.0724 -0.1838
  234MPD1     H 3607   0.714   3.594   9.471  0.9405 -0.7654 -1.6185
  234MPD1    H1 3608   0.328   3.513   9.296 -1.1757 -3.0141  0.0785
  234MPD1    H2 3609   0.615   3.220   9.290 -0.8364  0.9055  0.4670
  234MPD1    H3 3610   0.410   3.298   9.239  0.4971  2.3564 -2.7115
  234MPD1     N 3611   0.488   3.699   9.421 -0.4645 -1.0929  0.4093
  234MPD1    H5 3612   0.564   3.753   9.462 -2.0294  0.0510  1.8135
  234MPD1    N1 3613   0.823   3.359   9.402 -0.2416 -0.0596 -0.3205
  234MPD1    H6 3614   0.885   3.390   9.477  1.1178 -0.4090 -1.2963
  234MPD1    H7 3615   0.839   3.261   9.381  0.9821  0.2812 -1.0107
  235MPD1     C 3616   1.399   0.398  10.195 -0.0295  1.0114  0.0493
  235MPD1    C1 3617   1.358   0.527  10.186  0.3409  0.1527  0.0521
  235MPD1    C2 3618   1.446   0.634  10.207  0.1323  0.1502  1.0358
  235MPD1    C3 3619   1.580   0.614  10.237 -0.2050  0.1199  0.3628
  235MPD1    C4 3620   1.617   0.483  10.253  0.0637  0.1051  0.2749
  235MPD1    C5 3621   1.529   0.377  10.226  0.2821  0.4181 -0.0765
  235MPD1     H 3622   1.411   0.733  10.181  1.0875  0.2606  0.1849
  235MPD1    H1 3623   1.721   0.457  10.270  0.4036  1.2992  0.0463
  235MPD1    H2 3624   1.331   0.316  10.178 -0.5269  0.6238  4.0719
  235MPD1    H3 3625   1.570   0.277  10.215 -2.2193 -0.7873  1.5775
  235MPD1     N 3626   1.667   0.728  10.262  0.0343  0.0921  0.3522
  235MPD1    H5 3627   1.637   0.823  10.241 -2.1104 -0.8158 -0.6815
  235MPD1    N1 3628   1.230   0.556  10.127  0.2434  0.3883  0.1834
  235MPD1    H6 3629   1.161   0.487  10.155  0.3586 -0.5707 -1.8971
  235MPD1    H7 3630   1.172   0.631  10.163 -0.6445 -1.6375  2.9512
  236MPD1     C 3631   1.499   2.665  10.299 -0.0838 -0.3530  0.4444
  236MPD1    C1 3632   1.482   2.545  10.356  0.2597  0.3061 -0.1886
  236MPD1    C2 3633   1.563   2.521  10.463  0.7066  0.0505  0.6600
  236MPD1    C3 3634   1.666   2.602  10.501  0.6351 -0.4035  0.8289
  236MPD1    C4 3635   1.677   2.720  10.442  0.2546 -0.1823  0.3356
  236MPD1    C5 3636   1.591   2.755  10.347 -0.4860 -0.1875 -0.1369
  236MPD1     H 3637   1.554   2.424  10.511 -0.9331 -0.2560 -0.2512
  236MPD1    H1 3638   1.752   2.788  10.479 -1.2689  1.3149  0.6718
  236MPD1    H2 3639   1.433   2.683  10.214  1.5744 -1.8681 -1.1561
  236MPD1    H3 3640   1.596   2.852  10.300  0.0798 -0.1455  0.0119
  236MPD1     N 3641   1.770   2.568  10.586 -0.1659  0.0319  0.1508
  236MPD1    H5 3642   1.833   2.645  10.606  0.1226 -0.3256  0.6304
  236MPD1    N1 3643   1.378   2.463  10.310 -0.4353 -0.0872  0.0781
  236MPD1    H6 3644   1.404   2.365  10.319  0.5457  0.0835 -0.8412
  236MPD1    H7 3645   1.307   2.475  10.382  1.4264  2.3036  1.5481
  237MPD1     C 3646   2.844   4.584  14.615 -0.4158 -0.4567 -0.8638
  237MPD1    C1 3647   2.790   4.712  14.605 -0.9218 -0.3638  0.2731
  237MPD1    C2 3648   2.665   0.001  14.661  0.0908  0.9973 -0.1202
  237MPD1    C3 3649   2.588   4.637  14.723 -0.4766  0.2466  0.5297
  237MPD1    C4 3650   2.646   4.509  14.732  0.1307  0.2415 -0.5743
  237MPD1    C5 3651   2.766   4.484  14.673 -0.0516  0.1813  0.3235
  237MPD1     H 3652   2.613   0.095  14.645 -2.1286 -0.2255 -0.1256
  237MPD1    H1 3653   2.598   4.431  14.790  0.2544 -0.5535 -1.5455
  237MPD1    H2 3654   2.946   4.555  14.596  0.2394  0.6512  0.9803
  237MPD1    H3 3655   2.806   4.384  14.676  1.1685  0.6802  0.7196
  237MPD1     N 3656   2.466   4.656  14.776  0.1580 -0.4660  0.0875
  237MPD1    H5 3657   2.425   4.576  14.822  1.6887  0.3853  2.9643
  237MPD1    N1 3658   2.871   0.080  14.567 -0.2597  0.0678  0.3692
  237MPD1    H6 3659   2.942   0.050  14.502 -1.7479  0.7352 -1.5608
  237MPD1    H7 3660   2.823   0.156  14.520 -0.2975  1.6591  2.9627
  238MPD1     C 3661   3.653   2.769  15.706 -0.0427 -0.4195  0.2570
  238MPD1    C1 3662   3.518   2.745  15.706 -0.5551 -0.0406  0.3751
  238MPD1    C2 3663   3.445   2.816  15.611  0.1697  0.6756  0.3491
  238MPD1    C3 3664   3.506   2.875  15.503  0.3331 -0.3838  0.4569
  238MPD1    C4 3665   3.645   2.873  15.494 -0.1088  0.2998 -0.4721
  238MPD1    C5 3666   3.718   2.825  15.601 -0.0208 -0.8859 -0.9160
  238MPD1     H 3667   3.339   2.814  15.631 -0.0308  1.4862 -0.6463
  238MPD1    H1 3668   3.689   2.913  15.404 -0.3567  1.1010 -0.2351
  238MPD1    H2 3669   3.695   2.732  15.799 -2.6854 -2.4283  0.6501
  238MPD1    H3 3670   3.826   2.826  15.605 -0.0961  1.6997  0.8994
  238MPD1     N 3671   3.434   2.926  15.395  0.2627 -0.5423 -0.0268
  238MPD1    H5 3672   3.492   2.987  15.337  0.5960  0.6684  1.5694
  238MPD1    N1 3673   3.453   2.684  15.816 -0.2572  0.5639  0.0763
  238MPD1    H6 3674   3.359   2.667  15.781 -0.3774 -0.4134  0.8557
  238MPD1    H7 3675   3.495   2.595  15.844  1.0275  1.1064 -0.1266
  239MPD1     C 3676   3.824   4.193  15.223  0.6500  0.5317  0.3066
  239MPD1    C1 3677   3.890   4.107  15.130  0.7056 -0.2551  0.4797
  239MPD1    C2 3678   3.921   4.162  15.009 -0.3044  0.6559 -0.0756
  239MPD1    C3 3679   3.919   4.296  14.987  0.1327 -0.2373 -0.3247
  239MPD1    C4 3680   3.871   4.381  15.084  0.2015 -0.6302  0.0188
  239MPD1    C5 3681   3.827   4.327  15.198 -0.4387 -0.0961  0.2238
  239MPD1     H 3682   3.969   4.109  14.928 -0.1198  0.2979  0.2710
  239MPD1    H1 3683   3.876   4.488  15.066 -0.2289 -0.6079  0.0478
  239MPD1    H2 3684   3.781   4.165  15.318  3.0520 -0.7932  1.0156
  239MPD1    H3 3685   3.773   4.388  15.270 -0.6386  1.3710 -1.1711
  239MPD1     N 3686   3.948   4.357  14.864  0.4641  0.2474 -0.2511
  239MPD1    H5 3687   3.913   4.452  14.865 -1.3535 -0.4369  0.1927
  239MPD1    N1 3688   3.883   3.971  15.150  0.5458  0.3096  0.3564
  239MPD1    H6 3689   3.893   3.941  15.247 -0.9662  0.8026  0.6662
  239MPD1    H7 3690   3.951   3.928  15.088  1.2653 -0.4196  1.6460
  240MPD1     C 3691   3.178   4.161  13.928  0.1139 -0.1246 -0.4255
  240MPD1    C1 3692   3.050   4.151  13.971  0.5950  0.2073  0.2900
  240MPD1    C2 3693   3.014   4.060  14.070 -0.4135 -0.0216 -0.1620
  240MPD1    C3 3694   3.112   3.980  14.128  0.0908 -0.4363  0.5255
  240MPD1    C4 3695   3.241   3.984  14.078  0.0554  0.9156  0.3978
  240MPD1    C5 3696   3.276   4.073  13.973 -0.4179 -0.8576 -0.2029
  240MPD1     H 3697   2.916   4.053  14.117  0.1858  2.0348  1.3711
  240MPD1    H1 3698   3.316   3.926  14.130 -1.8906 -1.1655  0.8650
  240MPD1    H2 3699   3.215   4.252  13.881 -0.4221 -0.0548 -0.7136
  240MPD1    H3 3700   3.382   4.083  13.956 -0.7916  0.5032 -1.7173
  240MPD1     N 3701   3.066   3.906  14.236 -0.1887  0.3681 -0.0248
  240MPD1    H5 3702   2.965   3.909  14.239 -0.3328 -2.1690 -2.0178
  240MPD1    N1 3703   2.960   4.254  13.929 -0.2199  0.3095 -0.0847
  240MPD1    H6 3704   2.968   4.280  13.831 -2.8220 -0.5992 -0.5421
  240MPD1    H7 3705   2.861   4.237  13.942 -0.4037  2.3957  1.1822
  241MPD1     C 3706   3.277   3.776  15.182  0.0160  0.6739 -0.1833
  241MPD1    C1 3707   3.279   3.648  15.134  0.4067 -0.0471 -0.2682
  241MPD1    C2 3708   3.237   3.632  15.002  0.1942 -0.0100 -0.2061
  241MPD1    C3 3709   3.201   3.731  14.921 -0.6944 -0.2558 -0.5093
  241MPD1    C4 3710   3.217   3.857  14.970  0.4449 -0.3741 -0.1821
  241MPD1    C5 3711   3.254   3.879  15.100 -0.1770 -0.9796 -0.3275
  241MPD1     H 3712   3.224   3.530  14.967  0.8628  0.2749 -1.3090
  241MPD1    H1 3713   3.204   3.943  14.905 -1.6815 -0.0532  0.6612
  241MPD1    H2 3714   3.296   3.800  15.286 -1.2455  2.2129 -0.3046
  241MPD1    H3 3715   3.265   3.980  15.139 -0.3455 -1.2305  0.3639
  241MPD1     N 3716   3.162   3.715  14.791 -0.3480 -0.1369  0.0041
  241MPD1    H5 3717   3.165   3.792  14.725 -0.7152 -2.1399 -2.3665
  241MPD1    N1 3718   3.301   3.531  15.208 -0.8890  0.3321  0.6176
  241MPD1    H6 3719   3.340   3.464  15.143  0.2175  0.7995  0.8010
  241MPD1    H7 3720   3.365   3.532  15.287  1.7224 -0.8739 -1.5012
  242MPD1     C 3721   2.512   1.910  15.951  0.6822  0.4695 -0.3220
  242MPD1    C1 3722   2.630   1.980  15.971 -0.4021  0.7715 -0.0309
  242MPD1    C2 3723   2.722   1.990  15.865 -0.4044 -0.5876 -0.0886
  242MPD1    C3 3724   2.704   1.914  15.747 -0.2576 -0.2092 -0.1701
  242MPD1    C4 3725   2.592   1.824  15.748 -0.3246 -0.1967  0.1068
  242MPD1    C5 3726   2.494   1.834  15.846  0.1574  0.9921 -0.0380
  242MPD1     H 3727   2.808   2.056  15.869  0.4709 -1.5745 -2.3166
  242MPD1    H1 3728   2.583   1.751  15.669  1.2063 -1.2368  0.8964
  242MPD1    H2 3729   2.445   1.897  16.035  1.4371 -2.2292 -0.1389
  242MPD1    H3 3730   2.414   1.762  15.831  0.5674  0.4979  0.1415
  242MPD1     N 3731   2.807   1.900  15.645 -0.2626  0.2767  0.4092
  242MPD1    H5 3732   2.784   1.845  15.563  2.5890 -2.0690  1.1834
  242MPD1    N1 3733   2.640   2.058  16.085 -0.7574 -0.4053 -0.6825
  242MPD1    H6 3734   2.606   2.009  16.168  0.5646  2.1483  1.3822
  242MPD1    H7 3735   2.739   2.079  16.098 -0.4929 -2.7371  1.1858
  243MPD1     C 3736   3.895   1.128  17.490  0.3869 -0.1332  0.0445
  243MPD1    C1 3737   4.006   1.058  17.543 -0.0059 -0.1132 -0.3842
  243MPD1    C2 3738   4.099   1.020  17.448  0.5902 -0.8637 -0.1314
  243MPD1    C3 3739   4.078   1.038  17.311  0.6872  0.9785 -0.0229
  243MPD1    C4 3740   3.970   1.116  17.263 -0.6222 -0.6676 -0.0249
  243MPD1    C5 3741   3.879   1.154  17.355  0.6011 -0.0830 -0.0115
  243MPD1     H 3742   4.191   0.966  17.471  1.8930  0.7824 -1.4728
  243MPD1    H1 3743   3.944   1.137  17.160 -2.0387  2.8634  1.0581
  243MPD1    H2 3744   3.817   1.168  17.554 -1.0475 -2.0435 -0.5430
  243MPD1    H3 3745   3.793   1.207  17.316 -1.0536 -1.2978  2.0003
  243MPD1     N 3746   4.179   0.986  17.221  0.7089 -0.1246  0.0857
  243MPD1    H5 3747   4.267   0.959  17.264  0.7525 -0.5166 -0.2429
  243MPD1    N1 3748   4.022   1.046  17.682 -0.6452 -0.0219  0.0991
  243MPD1    H6 3749   4.061   0.958  17.717 -1.3993 -0.8950 -1.2763
  243MPD1    H7 3750   3.944   1.072  17.741  0.4032  1.0226  1.0337
  244MPD1     C 3751   0.203   0.599  17.409 -0.0578  0.1923 -0.6200
  244MPD1    C1 3752   0.101   0.658  17.483  0.2510  0.3411 -0.2045
  244MPD1    C2 3753   0.000   0.718  17.414  0.8304  0.6383  0.5764
  244MPD1    C3 3754   0.004   0.744  17.283  0.7230  0.0114 -0.3505
  244MPD1    C4 3755   0.107   0.688  17.216 -0.1478  0.3698 -0.3381
  244MPD1    C5 3756   0.202   0.611  17.275 -0.5453  0.7230  0.3354
  244MPD1     H 3757   4.649   0.750  17.470  1.0314  1.7405  0.2654
  244MPD1    H1 3758   0.107   0.690  17.108  3.1461  1.2172 -0.3113
  244MPD1    H2 3759   0.294   0.558  17.451 -0.2768  1.7906  1.3879
  244MPD1    H3 3760   0.285   0.579  17.213  0.4996  2.1895  0.9697
  244MPD1     N 3761   4.643   0.820  17.217 -0.6077  0.2158  0.0002
  244MPD1    H5 3762   4.573   0.852  17.283  0.4662  0.3209  1.0923
  244MPD1    N1 3763   0.092   0.644  17.618 -0.0859 -0.0989  0.2817
  244MPD1    H6 3764   0.182   0.625  17.663  0.4327 -1.1990 -1.2008
  244MPD1    H7 3765   0.040   0.710  17.675  2.2985  1.6220  0.4969
  245MPD1     C 3766   1.613   1.025  12.787  0.1321 -0.1682 -0.2486
  245MPD1    C1 3767   1.737   1.034  12.842  0.8020  0.4913  0.7278
  245MPD1    C2 3768   1.774   1.150  12.902  0.4476  0.1002 -0.3795
  245MPD1    C3 3769   1.688   1.260  12.916  0.0084 -0.1313  0.0119
  245MPD1    C4 3770   1.567   1.253  12.862  0.2001  0.4534 -0.6419
  245MPD1    C5 3771   1.526   1.134  12.797  0.0802  0.0479  0.4454
  245MPD1     H 3772   1.871   1.157  12.950  0.3646  0.5171 -0.2720
  245MPD1    H1 3773   1.493   1.332  12.864  2.3299  2.3503  1.4066
  245MPD1    H2 3774   1.579   0.930  12.748 -0.7207 -0.7249  1.8893
  245MPD1    H3 3775   1.428   1.123  12.753  1.0328 -2.3479 -1.0762
  245MPD1     N 3776   1.723   1.377  12.990 -0.3461 -0.1324  0.4390
  245MPD1    H5 3777   1.815   1.379  13.032  0.1022 -0.0114 -0.5660
  245MPD1    N1 3778   1.825   0.918  12.840 -0.3624 -0.1478  0.5941
  245MPD1    H6 3779   1.924   0.941  12.835 -0.2114 -0.7465  0.8165
  245MPD1    H7 3780   1.793   0.841  12.782 -0.8416  0.7597 -0.3444
  246MPD1     C 3781   2.876   3.517   9.892 -0.1637 -0.3665  0.2627
  246MPD1    C1 3782   2.898   3.558   9.760  0.2716  0.0267 -0.4946
  246MPD1    C2 3783   2.811   3.522   9.657 -0.0656  0.3702 -0.3258
  246MPD1    C3 3784   2.686   3.463   9.693  0.0164  0.5039  0.0883
  246MPD1    C4 3785   2.653   3.434   9.823 -0.3312 -0.2969 -1.0908
  246MPD1    C5 3786   2.748   3.459   9.920 -0.3086 -0.7202  0.0828
  246MPD1     H 3787   2.824   3.555   9.554  1.4602  1.7442  0.3093
  246MPD1    H1 3788   2.551   3.414   9.855 -0.3991 -1.1107 -1.8221
  246MPD1    H2 3789   2.948   3.543   9.969  0.9816  1.9756 -1.6045
  246MPD1    H3 3790   2.712   3.476  10.021  0.8908 -2.1262  0.7390
  246MPD1     N 3791   2.587   3.446   9.594 -0.2284  0.1412  0.5938
  246MPD1    H5 3792   2.619   3.465   9.500  0.0409  2.8898  1.2494
  246MPD1    N1 3793   3.012   3.629   9.721  0.1766  0.6306 -0.1451
  246MPD1    H6 3794   3.057   3.685   9.794  1.2702  2.4109 -2.1614
  246MPD1    H7 3795   2.992   3.689   9.641 -0.2201  1.2037  0.3825
  247MPD1     C 3796   1.102   2.177  16.645 -0.3254 -0.5861  0.8281
  247MPD1    C1 3797   1.204   2.079  16.664  0.7100  1.3879 -0.1772
  247MPD1    C2 3798   1.217   1.976  16.577  0.0966  0.1255  1.3360
  247MPD1    C3 3799   1.133   1.962  16.470 -0.3034 -0.1584  0.1215
  247MPD1    C4 3800   1.032   2.057  16.456 -0.5968  0.2512 -0.2197
  247MPD1    C5 3801   1.015   2.158  16.545  0.0108  0.2533 -0.0926
  247MPD1     H 3802   1.305   1.913  16.575 -1.0514 -1.4295 -0.7905
  247MPD1    H1 3803   0.956   2.041  16.379 -0.9454  1.7555 -0.1895
  247MPD1    H2 3804   1.075   2.259  16.710 -0.6161 -1.5203  1.8889
  247MPD1    H3 3805   0.935   2.230  16.527 -0.4023 -0.3574 -0.7168
  247MPD1     N 3806   1.130   1.849  16.390  0.1952  0.2881 -0.2899
  247MPD1    H5 3807   1.056   1.836  16.323 -0.4631  2.2888  0.0725
  247MPD1    N1 3808   1.305   2.103  16.757 -0.5380  0.0525 -0.3213
  247MPD1    H6 3809   1.265   2.160  16.832  1.6453 -0.2092  1.0274
  247MPD1    H7 3810   1.360   2.023  16.786 -0.0870  0.0830 -1.1047
  248MPD1     C 3811   2.408   1.072   0.155  0.5706 -0.2969  0.3686
  248MPD1    C1 3812   2.275   1.099   0.151  0.2240  0.3360 -0.5280
  248MPD1    C2 3813   2.205   1.081   0.264 -0.1683 -0.2976 -0.1052
  248MPD1    C3 3814   2.258   1.040   0.381  0.4740 -0.1120 -0.0441
  248MPD1    C4 3815   2.392   1.007   0.387 -0.3643 -0.8419  0.4127
  248MPD1    C5 3816   2.467   1.021   0.272  0.1127  0.4690 -0.6159
  248MPD1     H 3817   2.102   1.108   0.281 -0.1211 -1.8503  2.7783
  248MPD1    H1 3818   2.438   0.958   0.472 -1.3840 -1.7878  0.4214
  248MPD1    H2 3819   2.471   1.101   0.071 -1.2156 -0.7934 -1.1289
  248MPD1    H3 3820   2.575   1.006   0.277  0.1215  0.6183 -0.3403
  248MPD1     N 3821   2.171   1.026   0.492  0.2883  0.1466 -0.4791
  248MPD1    H5 3822   2.076   1.057   0.476  0.0293 -0.9640 -1.0611
  248MPD1    N1 3823   2.214   1.131   0.028 -0.0235  0.3066 -0.3499
  248MPD1    H6 3824   2.270   1.191  17.711  1.1222  0.3318  0.7635
  248MPD1    H7 3825   2.117   1.162   0.037  0.0802  0.0121  1.8100
  249MPD1     C 3826   2.934   0.462  10.860 -0.6013 -0.3216 -0.0550
  249MPD1    C1 3827   3.050   0.531  10.873 -0.0287 -0.5506  0.0829
  249MPD1    C2 3828   3.137   0.536  10.765  0.1428  0.5961 -0.2055
  249MPD1    C3 3829   3.104   0.481  10.641 -0.1797  0.4964 -0.3311
  249MPD1    C4 3830   2.980   0.425  10.633 -0.5947  0.0739  0.3508
  249MPD1    C5 3831   2.892   0.415  10.743  0.1521 -0.2791  0.3507
  249MPD1     H 3832   3.230   0.591  10.771  1.5434 -1.6572 -1.0897
  249MPD1    H1 3833   2.950   0.380  10.539 -0.0562  2.6709 -1.0523
  249MPD1    H2 3834   2.862   0.452  10.940  1.6238  0.1810  2.0001
  249MPD1    H3 3835   2.799   0.359  10.739 -0.8987  1.6087 -1.6622
  249MPD1     N 3836   3.195   0.484  10.537  0.3296  0.2654  0.5734
  249MPD1    H5 3837   3.283   0.532  10.557 -0.2749  1.8109 -0.4742
  249MPD1    N1 3838   3.081   0.601  10.993 -0.6609  0.6931  0.0398
  249MPD1    H6 3839   3.015   0.596  11.070 -0.6230  0.5291  0.0621
  249MPD1    H7 3840   3.180   0.603  11.016 -1.0446  0.4771  1.7347
  250MPD2     C 3841   4.290   0.026  13.519 -0.2501  0.3819 -0.4867
  250MPD2    C1 3842   4.293   0.101  13.399 -0.8086 -0.2108  1.1298
  250MPD2    C2 3843   4.258   0.039  13.282  0.0913  0.4838 -0.0695
  250MPD2    C3 3844   4.212   4.644  13.292  0.4306  0.6592  0.3602
  250MPD2    C4 3845   4.198   4.577  13.408 -0.0503  0.8285 -0.1728
  250MPD2    C5 3846   4.254   4.631  13.518 -0.2627  0.0358 -0.0698
  250MPD2     H 3847   4.273   0.082  13.184  0.0456 -0.1422 -0.3526
  250MPD2    H1 3848   4.165   4.474  13.402  1.3077  0.2479  2.2304
  250MPD2    H2 3849   4.318   0.070  13.614  0.4433 -0.3583 -0.3502
  250MPD2    H3 3850   4.254   4.568  13.606 -0.2040 -2.0115 -1.5511
  250MPD2     N 3851   4.178   4.570  13.175 -0.6674 -0.1319 -0.0114
  250MPD2    H5 3852   4.131   4.482  13.195 -0.2802 -0.6679 -1.4881
  250MPD2    N1 3853   4.336   0.238  13.401  0.1374  0.6148  0.2587
  250MPD2    H7 3854   4.384   0.264  13.487  0.8745 -1.2929  0.4094
  251TMC3    C1 3855   4.412   0.444  13.314  0.3257  0.6742  0.6321
  251TMC3    C2 3856   4.377   0.556  13.251 -0.3104 -0.2132 -0.1495
  251TMC3    C3 3857   4.447   0.676  13.274 -0.2277 -0.0520 -0.4364
  251TMC3    C4 3858   4.517   0.438  13.397  0.2450  0.0461 -0.6162
  251TMC3    C5 3859   4.589   0.549  13.412  0.2601 -0.0309 -0.5225
  251TMC3    C6 3860   4.562   0.673  13.354 -0.2034  0.4083  0.2091
  251TMC3     C 3861   4.330   0.325  13.297  0.8914  0.0991  0.6913
  251TMC3     O 3862   4.243   0.329  13.211 -0.0728  0.0484  0.1525
  251TMC3     H 3863   4.291   0.557  13.186 -0.9866 -0.0117  0.7581
  251TMC3    H1 3864   4.547   0.343  13.440  3.1794  0.3951 -1.9388
  251TMC3    H2 3865   4.631   0.756  13.360 -0.5335  0.7175 -0.2308
  251TMC3    C7 3866   4.701   0.539  13.505  0.2059 -0.3009  0.4345
  251TMC3    C8 3867   4.386   0.802  13.233  0.1211  0.4257  0.1728
  251TMC3    O1 3868   4.729   0.431  13.550  0.5497 -0.2525  0.6147
  251TMC3    O2 3869   4.284   0.792  13.169 -0.4205  0.3752  0.0219
  252TMC3    C1 3870   0.199   1.700   9.531  0.1363  1.1895  0.0864
  252TMC3    C2 3871   0.312   1.679   9.607  0.1860 -0.0416 -0.5378
  252TMC3    C3 3872   0.303   1.584   9.708  0.5222  0.5573 -0.0927
  252TMC3    C4 3873   0.088   1.621   9.543 -0.1914 -0.1412 -0.2991
  252TMC3    C5 3874   0.090   1.516   9.627 -0.2650  0.1980  0.4224
  252TMC3    C6 3875   0.197   1.497   9.723 -0.3218 -0.5109 -0.1020
  252TMC3     C 3876   0.187   1.833   9.459  0.0012  0.3473  0.9043
  252TMC3     O 3877   0.069   1.868   9.437  0.0824 -0.1768 -0.4634
  252TMC3     H 3878   0.400   1.741   9.593  0.7575 -0.7237  0.0173
  252TMC3    H1 3879   0.009   1.644   9.472  1.0052  0.9376 -1.2830
  252TMC3    H2 3880   0.190   1.413   9.791  0.5899 -0.1905  0.3753
  252TMC3    C7 3881   4.717   1.412   9.594  0.0299 -0.4808 -0.0572
  252TMC3    C8 3882   0.424   1.540   9.767 -0.0205  0.1349 -0.4750
  252TMC3    O1 3883   4.628   1.445   9.518  0.0392  0.2448 -0.2571
  252TMC3    O2 3884   0.529   1.536   9.698  0.1357  0.3239  0.9274
  253MPD2     C 3885   1.166   4.612  14.755 -0.3220  0.4568  0.6316
  253MPD2    C1 3886   1.086   4.723  14.776  0.3963 -0.6517  0.3988
  253MPD2    C2 3887   1.104   0.060  14.896  0.3057  0.7388 -0.2511
  253MPD2    C3 3888   1.185   0.010  14.994  0.2841  0.7101  0.0773
  253MPD2    C4 3889   1.243   4.618  14.985 -0.0941 -0.0938 -0.1616
  253MPD2    C5 3890   1.235   4.558  14.867  0.8811 -0.4899  0.3490
  253MPD2     H 3891   1.043   0.148  14.906 -0.3793  0.3245 -0.7906
  253MPD2    H1 3892   1.304   4.576  15.064 -1.7951  1.9107  2.2457
  253MPD2    H2 3893   1.167   4.552  14.665  0.0335 -0.4901  1.2682
  253MPD2    H3 3894   1.293   4.469  14.844  0.3256 -0.4294 -1.3358
  253MPD2     N 3895   1.191   0.076  15.128 -0.1341  0.0096 -0.1666
  253MPD2    H5 3896   1.249   0.024  15.193  1.8734  1.8379 -0.5050
  253MPD2    N1 3897   1.007   0.032  14.675 -0.3815  0.2707  0.4244
  253MPD2    H7 3898   0.946   0.111  14.695  0.1943  0.7046  0.4796
  254TMC3    C1 3899   1.127   0.201  15.307  0.3473  0.2974  0.7971
  254TMC3    C2 3900   1.014   0.254  15.369 -0.3010  0.5499 -0.5472
  254TMC3    C3 3901   0.964   0.188  15.477 -0.1523 -0.1001 -0.1092
  254TMC3    C4 3902   1.197   0.100  15.365 -0.1901 -0.8199 -0.1074
  254TMC3    C5 3903   1.148   0.045  15.484  0.2890  0.1865 -0.0491
  254TMC3    C6 3904   1.024   0.082  15.529 -0.1203 -0.2900 -0.0298
  254TMC3     C 3905   1.119   0.189  15.166 -0.1332  0.4698  0.3274
  254TMC3     O 3906   1.039   0.255  15.103 -0.1401  0.0915  0.6921
  254TMC3     H 3907   0.965   0.339  15.323  0.1862  1.2179  0.1733
  254TMC3    H1 3908   1.291   0.068  15.322 -0.5061 -1.1183 -0.5740
  254TMC3    H2 3909   0.985   0.044  15.623  1.5066  0.8694  1.1142
  254TMC3    C7 3910   1.236   0.014  15.588  0.3268 -0.0439 -0.6309
  254TMC3    C8 3911   0.863   0.247  15.564 -0.1509 -0.7101  0.1684
  254TMC3    O1 3912   1.186   4.717  15.693 -0.1472  0.2799 -0.8826
  254TMC3    O2 3913   0.804   0.173  15.644  0.0565  0.6243  0.1460
  255MPD2     C 3914   3.897   2.843  10.384  0.9210 -0.3720 -0.7875
  255MPD2    C1 3915   3.993   2.929  10.411 -0.0670 -0.4783  0.1927
  255MPD2    C2 3916   4.120   2.891  10.437  0.1732 -0.5270  0.6399
  255MPD2    C3 3917   4.148   2.756  10.462 -0.4491  0.6363 -0.3951
  255MPD2    C4 3918   4.038   2.664  10.456  0.0650 -0.5128 -0.2994
  255MPD2    C5 3919   3.912   2.707  10.408 -0.1414  0.3826 -0.0558
  255MPD2     H 3920   4.201   2.960  10.456 -1.3836  1.7616 -1.0836
  255MPD2    H1 3921   4.048   2.558  10.476 -0.9066 -0.7902 -1.3055
  255MPD2    H2 3922   3.797   2.873  10.353  0.5507  1.8129  2.5300
  255MPD2    H3 3923   3.824   2.643  10.404 -0.1108  0.1553  2.8306
  255MPD2     N 3924   4.277   2.709  10.502  0.3066 -0.1581 -0.7817
  255MPD2    H5 3925   4.286   2.615  10.539  0.5970  0.4057  0.6122
  255MPD2    N1 3926   3.949   3.057  10.386 -0.0845 -0.3362  0.1873
  255MPD2    H7 3927   3.853   3.071  10.358  0.1692  1.6030  0.2903
  256TMC3    C1 3928   3.932   3.281  10.388 -0.6218  0.3332  0.8575
  256TMC3    C2 3929   3.912   3.377  10.485  0.4286  0.0557  0.0570
  256TMC3    C3 3930   3.791   3.433  10.495 -0.2177 -0.0134  0.0091
  256TMC3    C4 3931   3.838   3.267  10.291 -0.7169  0.8075 -0.1092
  256TMC3    C5 3932   3.716   3.328  10.307  0.6199  0.5021  0.3994
  256TMC3    C6 3933   3.688   3.415  10.411  0.0527 -0.1804 -0.3544
  256TMC3     C 3934   4.020   3.172  10.404 -0.1561 -0.6084  0.5018
  256TMC3     O 3935   4.124   3.188  10.468  0.1147 -0.8527 -0.1849
  256TMC3     H 3936   3.983   3.369  10.567  0.6326 -1.0268 -0.2288
  256TMC3    H1 3937   3.845   3.190  10.215 -1.5373  1.0454 -0.4133
  256TMC3    H2 3938   3.583   3.438  10.425 -0.0746 -1.2971  0.6005
  256TMC3    C7 3939   3.602   3.235  10.275  0.2838  0.1128  0.1424
  256TMC3    C8 3940   3.749   3.460  10.633  0.5300  0.1035  0.2408
  256TMC3    O1 3941   3.636   3.118  10.278 -0.5579 -0.1210 -0.3515
  256TMC3    O2 3942   3.637   3.412  10.659  0.2374  0.5888 -0.3298
  257MPD2     C 3943   3.242   4.562  13.568 -0.7455 -0.1039 -0.1604
  257MPD2    C1 3944   3.360   4.608  13.507  0.4013  0.6388  0.5600
  257MPD2    C2 3945   3.484   4.543  13.531  0.2359  0.4732  0.2792
  257MPD2    C3 3946   3.489   4.431  13.614  0.1195 -0.7542 -0.0587
  257MPD2    C4 3947   3.370   4.378  13.662  0.0311 -0.3195  0.0253
  257MPD2    C5 3948   3.251   4.442  13.638 -0.4178 -0.3391 -0.6616
  257MPD2     H 3949   3.575   4.591  13.497  1.2382  0.2251  2.5732
  257MPD2    H1 3950   3.370   4.285  13.717  0.1989 -0.6900 -0.6108
  257MPD2    H2 3951   3.148   4.614  13.556  0.3431  2.2340  1.3778
  257MPD2    H3 3952   3.162   4.389  13.672 -0.1050 -0.9419 -0.7831
  257MPD2     N 3953   3.612   4.378  13.666  1.0216  0.1718 -0.0496
  257MPD2    H5 3954   3.696   4.394  13.612  0.5086  1.4782 -0.4503
  257MPD2    N1 3955   3.348   4.730  13.436  0.6711 -0.5629 -0.3216
  257MPD2    H7 3956   3.265   0.046  13.463  0.3468 -0.9599 -0.5574
  258TMC3    C1 3957   3.757   4.220  13.771  0.3560 -0.3369  0.1308
  258TMC3    C2 3958   3.830   4.200  13.652 -0.0147 -0.5758  0.4193
  258TMC3    C3 3959   3.947   4.123  13.661  0.2375  0.5791 -0.4866
  258TMC3    C4 3960   3.794   4.159  13.886  0.2898 -0.2553  0.2555
  258TMC3    C5 3961   3.903   4.075  13.891 -0.8648 -0.1613  0.2363
  258TMC3    C6 3962   3.978   4.052  13.780 -0.0109 -0.3775 -0.5043
  258TMC3     C 3963   3.632   4.298  13.776 -0.1345 -0.8784 -0.3934
  258TMC3     O 3964   3.560   4.278  13.873  0.5025  0.2232 -0.0136
  258TMC3     H 3965   3.813   4.250  13.557 -1.4002  0.6350  1.3126
  258TMC3    H1 3966   3.748   4.182  13.981  0.8154  1.9847 -0.0370
  258TMC3    H2 3967   4.060   3.982  13.788 -0.3896 -0.7254  0.3514
  258TMC3    C7 3968   3.967   4.044  14.014  0.1054  0.2602  0.2479
  258TMC3    C8 3969   4.057   4.139  13.567 -0.2843 -1.0967  0.0714
  258TMC3    O1 3970   4.092   4.042  14.007 -0.2390  0.3233 -0.3521
  258TMC3    O2 3971   4.046   4.221  13.477 -0.4548  0.0379  0.2705
  259MPD2     C 3972   2.388   1.707   0.889  0.0755 -0.2872 -0.2074
  259MPD2    C1 3973   2.503   1.653   0.937  0.3746  0.1539  0.0928
  259MPD2    C2 3974   2.603   1.614   0.847  0.6414 -0.2712  0.1907
  259MPD2    C3 3975   2.588   1.631   0.709  0.4222 -0.3682 -0.4134
  259MPD2    C4 3976   2.464   1.675   0.665 -0.9646  0.2805  0.9038
  259MPD2    C5 3977   2.368   1.718   0.757 -0.1559  0.1323  0.7757
  259MPD2     H 3978   2.700   1.577   0.878  1.1355 -0.3166 -1.3830
  259MPD2    H1 3979   2.446   1.690   0.559 -0.9149 -0.1579  0.8328
  259MPD2    H2 3980   2.315   1.751   0.955  2.7729  2.2797  1.1147
  259MPD2    H3 3981   2.272   1.754   0.721  0.3972 -0.9044 -1.6714
  259MPD2     N 3982   2.697   1.602   0.630 -0.4445 -0.1216  0.7187
  259MPD2    H5 3983   2.770   1.547   0.674  0.8506  0.7609 -0.3328
  259MPD2    N1 3984   2.525   1.638   1.084 -0.3977  0.1515 -0.2864
  259MPD2    H7 3985   2.449   1.672   1.143  1.3621  0.5251  1.7358
  260TMC3    C1 3986   2.815   1.561   0.427  0.2463 -0.2906  0.4154
  260TMC3    C2 3987   2.855   1.616   0.305  0.1407  0.2388 -0.4970
  260TMC3    C3 3988   2.980   1.581   0.258 -0.1247 -0.1988 -0.8547
  260TMC3    C4 3989   2.887   1.463   0.489  0.2526  0.1381  0.1130
  260TMC3    C5 3990   3.009   1.430   0.438 -0.0167 -0.1334 -0.2986
  260TMC3    C6 3991   3.063   1.508   0.339  0.2657  0.2698  0.1575
  260TMC3     C 3992   2.702   1.623   0.490 -0.4299 -0.3367  0.6328
  260TMC3     O 3993   2.623   1.685   0.422  0.1657  0.7185 -0.5699
  260TMC3     H 3994   2.785   1.680   0.253 -0.2182  0.4269  0.2120
  260TMC3    H1 3995   2.836   1.399   0.559 -0.0764 -0.3302 -0.5590
  260TMC3    H2 3996   3.166   1.499   0.307  0.6819 -1.3196  1.9814
  260TMC3    C7 3997   3.012   1.289   0.389 -0.4949 -0.3786  0.4683
  260TMC3    C8 3998   2.993   1.559   0.116 -0.0216 -0.0987  0.4005
  260TMC3    O1 3999   3.077   1.275   0.288  0.5077  0.3747  0.3711
  260TMC3    O2 4000   2.922   1.611   0.029  0.2066  0.0913 -0.1813
  261MPD2     C 4001   3.840   4.570  12.397  0.4336  0.1520  0.5739
  261MPD2    C1 4002   3.931   4.650  12.467  0.2321 -0.2468  0.3201
  261MPD2    C2 4003   3.943   0.051  12.437 -0.3754 -0.6751 -0.4115
  261MPD2    C3 4004   3.861   0.105  12.341  0.3352 -0.3280 -0.3126
  261MPD2    C4 4005   3.768   0.021  12.285 -1.0315 -0.5455 -0.8971
  261MPD2    C5 4006   3.762   4.626  12.307 -0.3425  0.9822 -0.3737
  261MPD2     H 4007   4.028   0.101  12.481 -2.8001  1.0476  2.2685
  261MPD2    H1 4008   3.710   0.056  12.201  2.3835  1.4432 -2.4432
  261MPD2    H2 4009   3.823   4.464  12.415 -0.7526  0.2749  0.1948
  261MPD2    H3 4010   3.681   4.564  12.270  1.0449  0.2341 -2.1472
  261MPD2     N 4011   3.886   0.236  12.288  0.2957 -0.4238 -0.1145
  261MPD2    H5 4012   3.965   0.287  12.327  0.9095 -0.3379 -1.4890
  261MPD2    N1 4013   4.022   4.595  12.565 -0.2977 -0.0518  0.6300
  261MPD2    H7 4014   4.093   4.650  12.612  0.0689  1.3109 -1.5333
  262TMC3    C1 4015   3.864   0.428  12.157 -0.2885 -0.8414  0.1309
  262TMC3    C2 4016   3.775   0.520  12.105 -0.0613  0.2173 -0.1664
  262TMC3    C3 4017   3.826   0.620  12.027  0.5806  0.7307 -0.8145
  262TMC3    C4 4018   3.992   0.420  12.115 -0.1861 -0.0125  0.1894
  262TMC3    C5 4019   4.038   0.528  12.054 -0.2720 -0.1494  0.4926
  262TMC3    C6 4020   3.960   0.625  12.002  0.9192  0.5282 -0.4491
  262TMC3     C 4021   3.797   0.304  12.207 -0.3802 -0.0332 -0.0914
  262TMC3     O 4022   3.673   0.293  12.190 -0.3153 -0.0252 -0.6577
  262TMC3     H 4023   3.670   0.528  12.133  0.1989  1.9471  0.3210
  262TMC3    H1 4024   4.063   0.347  12.150  1.3383  1.9944  1.2024
  262TMC3    H2 4025   3.998   0.707  11.942  1.2631  1.0739  0.5148
  262TMC3    C7 4026   4.174   0.520  12.015  0.0377 -0.8675 -0.2087
  262TMC3    C8 4027   3.743   0.722  11.965  0.0112  0.8075  0.4496
  262TMC3    O1 4028   4.262   0.467  12.086 -0.6700 -0.1164  0.1324
  262TMC3    O2 4029   3.796   0.799  11.889  0.4010  0.3238  0.3302
  263MPD2     C 4030   0.233   4.140  11.686  0.3410  0.5138  0.1946
  263MPD2    C1 4031   0.349   4.153  11.612 -0.2002  0.6123  0.0108
  263MPD2    C2 4032   0.336   4.217  11.494 -0.0648  1.1737  0.0962
  263MPD2    C3 4033   0.214   4.285  11.471  0.5461  0.0341 -0.1877
  263MPD2    C4 4034   0.112   4.291  11.554  0.2189  0.0338  0.1602
  263MPD2    C5 4035   0.121   4.215  11.666 -0.1154  0.3334  0.7278
  263MPD2     H 4036   0.420   4.227  11.427 -1.3369  3.3753 -1.1993
  263MPD2    H1 4037   0.039   4.367  11.527 -1.2366 -1.0945  0.9748
  263MPD2    H2 4038   0.232   4.077  11.774 -1.4995  0.9799  0.4959
  263MPD2    H3 4039   0.039   4.206  11.737 -1.7398  0.3220 -1.1669
  263MPD2     N 4040   0.201   4.348  11.345  0.7273 -0.3469  0.3720
  263MPD2    H5 4041   0.132   4.421  11.334  1.1704  0.1953  1.1825
  263MPD2    N1 4042   0.471   4.100  11.657  0.3610  0.1342  0.4701
  263MPD2    H7 4043   0.472   4.049  11.745 -1.0135  0.1749  0.5135
  264TMC3    C1 4044   0.261   4.425  11.129  0.2967 -0.5680  0.0096
  264TMC3    C2 4045   0.223   4.554  11.170 -0.0633 -0.5466 -0.0325
  264TMC3    C3 4046   0.223   4.657  11.082  0.4265  0.1193  0.2424
  264TMC3    C4 4047   0.292   4.404  11.001  0.0898 -0.6771 -0.5500
  264TMC3    C5 4048   0.295   4.510  10.915 -0.1530  0.2895 -0.3183
  264TMC3    C6 4049   0.251   4.630  10.952  0.5480 -0.2045 -0.1512
  264TMC3     C 4050   0.278   4.323  11.231 -0.3609 -0.3026 -0.1519
  264TMC3     O 4051   0.330   4.218  11.200 -0.0030 -0.4470 -0.1180
  264TMC3     H 4052   0.242   4.565  11.276  2.8725 -0.0092 -0.6133
  264TMC3    H1 4053   0.331   4.308  10.969 -0.7570 -1.2729  0.2005
  264TMC3    H2 4054   0.265   4.711  10.882  0.7833  0.0453  0.1823
  264TMC3    C7 4055   0.334   4.486  10.778 -0.0277  0.7209 -0.0011
  264TMC3    C8 4056   0.266   0.054  11.132  0.3480  0.3089 -0.5588
  264TMC3    O1 4057   0.392   4.381  10.765  0.1475 -0.6877  0.6374
  264TMC3    O2 4058   0.292   0.146  11.055  0.0689  0.5393 -0.4922
  265MPD2     C 4059   2.434   4.308  15.511  0.0356 -0.0611  0.5035
  265MPD2    C1 4060   2.468   4.410  15.422  0.7482  0.1077 -0.0987
  265MPD2    C2 4061   2.523   4.369  15.302 -0.0322 -0.7028  0.2663
  265MPD2    C3 4062   2.563   4.235  15.282  0.0527 -0.3291 -0.3470
  265MPD2    C4 4063   2.514   4.139  15.365 -0.0553 -0.1967 -0.4199
  265MPD2    C5 4064   2.454   4.176  15.480  0.0896  0.4653 -0.3455
  265MPD2     H 4065   2.544   4.443  15.226  0.0527  0.0492  1.0172
  265MPD2    H1 4066   2.524   4.032  15.350 -1.9083 -0.3207 -0.7370
  265MPD2    H2 4067   2.399   4.331  15.611 -1.7586 -0.4443 -0.0420
  265MPD2    H3 4068   2.430   4.098  15.551 -0.9246  0.6422 -0.5012
  265MPD2     N 4069   2.641   4.197  15.166 -0.0502 -0.3184 -0.1516
  265MPD2    H5 4070   2.674   4.102  15.154 -0.5086 -0.6022  0.8285
  265MPD2    N1 4071   2.447   4.548  15.451 -0.1929 -0.0918  0.2338
  265MPD2    H7 4072   2.481   4.615  15.382  0.8388 -1.4037 -0.5077
  266TMC3    C1 4073   2.399   0.002  15.557 -0.3104  0.2968 -0.3029
  266TMC3    C2 4074   2.445   0.077  15.670 -0.0166  0.2055  0.6897
  266TMC3    C3 4075   2.437   0.215  15.663 -0.7647 -0.0732  0.1470
  266TMC3    C4 4076   2.362   0.067  15.444  0.4978  0.1794  0.2698
  266TMC3    C5 4077   2.376   0.205  15.437 -0.2827 -0.0419 -0.3132
  266TMC3    C6 4078   2.399   0.283  15.549  0.5507 -0.7278  1.2751
  266TMC3     C 4079   2.403   4.599  15.572  0.2293  0.0016 -0.0218
  266TMC3     O 4080   2.363   4.549  15.676  0.3490 -0.2254  0.0098
  266TMC3     H 4081   2.479   0.023  15.757 -0.7730  1.8372  1.9837
  266TMC3    H1 4082   2.342   0.002  15.360 -0.6405  0.0984  0.6067
  266TMC3    H2 4083   2.394   0.391  15.542 -0.8035 -1.0285 -2.3806
  266TMC3    C7 4084   2.295   0.275  15.338  0.3665 -0.3514 -0.6361
  266TMC3    C8 4085   2.520   0.279  15.764 -0.0531 -0.2130  1.1375
  266TMC3    O1 4086   2.330   0.390  15.318 -0.3846 -0.2890 -0.4293
  266TMC3    O2 4087   2.588   0.210  15.837 -0.2982  0.9882 -0.4139
  267MPD2     C 4088   0.869   0.992  17.446 -0.4131  0.8801 -0.4152
  267MPD2    C1 4089   0.865   1.121  17.390  0.2354  0.1656  0.3591
  267MPD2    C2 4090   0.799   1.139  17.270 -0.2164  0.8863 -0.0506
  267MPD2    C3 4091   0.751   1.037  17.193  0.3384  0.1285  0.2812
  267MPD2    C4 4092   0.778   0.910  17.232  0.2585  0.9020 -0.2354
  267MPD2    C5 4093   0.828   0.886  17.360  0.2850 -0.0161 -0.4886
  267MPD2     H 4094   0.778   1.239  17.233 -0.4185  1.5173  1.7440
  267MPD2    H1 4095   0.738   0.825  17.179 -0.7457  1.1959  0.0407
  267MPD2    H2 4096   0.901   0.968  17.547 -1.4609  1.5643  0.0839
  267MPD2    H3 4097   0.830   0.783  17.392 -1.2350 -0.1861 -0.9797
  267MPD2     N 4098   0.683   1.055  17.069 -0.1077 -0.8060 -0.2057
  267MPD2    H5 4099   0.663   0.971  17.015 -0.0104 -1.0436  0.1231
  267MPD2    N1 4100   0.914   1.230  17.469  0.0292  0.2907 -0.3488
  267MPD2    H7 4101   0.944   1.204  17.562 -0.6125 -0.1277 -0.2575
  268TMC3    C1 4102   0.951   1.441  17.552 -0.1767 -0.2888 -0.0278
  268TMC3    C2 4103   0.988   1.560  17.509 -0.1276 -0.2371  0.7293
  268TMC3    C3 4104   1.000   1.658  17.607 -0.4990  0.5738  0.0857
  268TMC3    C4 4105   0.906   1.422  17.683  0.3832 -0.2569  0.2345
  268TMC3    C5 4106   0.919   1.522   0.032 -0.6137  0.2024 -0.3084
  268TMC3    C6 4107   0.967   1.643  17.736  0.0475 -0.1035 -0.1078
  268TMC3     C 4108   0.916   1.355  17.437  0.3523  0.1148  0.0586
  268TMC3     O 4109   0.895   1.403  17.325 -0.3142  0.3167 -0.4155
  268TMC3     H 4110   1.017   1.575  17.405 -0.1204  0.0174  0.7692
  268TMC3    H1 4111   0.879   1.323  17.716 -0.3759  1.0184  3.4671
  268TMC3    H2 4112   0.986   1.724   0.063 -0.2495 -0.7392  0.7100
  268TMC3    C7 4113   0.895   1.489   0.167  0.8130  0.0149  0.2481
  268TMC3    C8 4114   1.026   1.791  17.557  0.2640 -0.7546 -0.2767
  268TMC3    O1 4115   0.887   1.370   0.197  0.2377 -0.1556  0.1177
  268TMC3    O2 4116   1.071   1.869  17.635  0.4971 -0.4769  0.2179
  269MPD2     C 4117   0.520   0.385  15.474  0.5603 -0.6202 -0.2500
  269MPD2    C1 4118   0.487   0.419  15.605 -0.3190 -0.4647  0.0697
  269MPD2    C2 4119   0.453   0.549  15.640 -0.3349  0.5217 -0.3121
  269MPD2    C3 4120   0.457   0.655  15.547 -0.2334  0.3922 -0.3427
  269MPD2    C4 4121   0.482   0.614  15.417  0.0682  0.5461 -0.8496
  269MPD2    C5 4122   0.512   0.483  15.384 -0.5438 -0.4493  0.1242
  269MPD2     H 4123   0.444   0.577  15.744  1.6401  0.5256 -0.1252
  269MPD2    H1 4124   0.473   0.676  15.329  0.4171 -1.3979 -2.2493
  269MPD2    H2 4125   0.549   0.284  15.449  0.0409 -0.4480 -1.5944
  269MPD2    H3 4126   0.533   0.455  15.281  1.8470  0.0089  0.4973
  269MPD2     N 4127   0.423   0.785  15.587 -0.0821  0.1761 -0.1862
  269MPD2    H5 4128   0.393   0.795  15.683  0.9801 -2.5851  0.4290
  269MPD2    N1 4129   0.470   0.298  15.682  0.0574  0.0804 -0.1816
  269MPD2    H7 4130   0.506   0.211  15.646 -0.3260  0.4949 -1.5473
  270TMC3    C1 4131   0.388   0.147  15.831  0.3446 -0.6190 -0.0154
  270TMC3    C2 4132   0.268   0.089  15.787 -0.4368  0.0862 -0.3893
  270TMC3    C3 4133   0.264   4.693  15.755  0.2105 -0.1665  0.0908
  270TMC3    C4 4134   0.492   0.065  15.850 -0.1540  0.0641  0.1289
  270TMC3    C5 4135   0.484   4.668  15.823  0.0060  0.7436 -0.2300
  270TMC3    C6 4136   0.372   4.612  15.770  0.3000  0.1100  0.0202
  270TMC3     C 4137   0.407   0.285  15.801  0.0715  0.5256 -0.0342
  270TMC3     O 4138   0.354   0.362  15.878  0.5780  0.0669 -0.3219
  270TMC3     H 4139   0.191   0.162  15.768 -2.0279 -1.4943 -0.0361
  270TMC3    H1 4140   0.582   0.109  15.891  1.4469 -0.9528 -2.3100
  270TMC3    H2 4141   0.382   4.510  15.734  1.0033  0.0732  0.3129
  270TMC3    C7 4142   0.608   4.617  15.771 -0.8792 -0.1609  0.4326
  270TMC3    C8 4143   0.197   4.668  15.631 -0.0291  0.3581  0.5730
  270TMC3    O1 4144   0.710   4.616  15.833 -0.2682  0.3618  0.3045
  270TMC3    O2 4145   0.251   4.581  15.563  0.1737  0.2211 -0.0790
  271MPD2     C 4146   4.288   4.670  14.013 -0.1983 -0.4139  0.5713
  271MPD2    C1 4147   4.217   4.716  14.124  0.7232  0.1271 -0.4270
  271MPD2    C2 4148   4.111   0.066  14.106  0.3942  0.1829  0.6407
  271MPD2    C3 4149   4.087   0.120  13.979  0.4382 -0.2865  0.0988
  271MPD2    C4 4150   4.165   0.082  13.872  1.0868  0.3496 -0.1000
  271MPD2    C5 4151   4.267   4.725  13.888  0.7236 -0.4081  1.0189
  271MPD2     H 4152   4.055   0.100  14.192  2.8277  1.1510  1.8286
  271MPD2    H1 4153   4.164   0.128  13.774  1.2057 -1.7722 -1.1056
  271MPD2    H2 4154   4.373   4.602  14.014  1.1896  1.2883 -1.7636
  271MPD2    H3 4155   4.327   4.687  13.805 -0.5625 -1.4753  0.5782
  271MPD2     N 4156   3.979   0.208  13.950  0.6602 -0.0778  0.0946
  271MPD2    H5 4157   3.978   0.247  13.856  0.3896 -0.3093  0.0005
  271MPD2    N1 4158   4.229   4.644  14.246 -0.0286 -0.7120 -0.7194
  271MPD2    H7 4159   4.169   4.685  14.317  1.0624  0.1533 -0.2990
  272TMC3    C1 4160   4.344   4.519  14.419 -0.1906 -0.3223  0.0538
  272TMC3    C2 4161   4.441   4.425  14.452  0.1107 -0.0886  0.1940
  272TMC3    C3 4162   4.472   4.403  14.584  0.0071  0.6853  0.7116
  272TMC3    C4 4163   4.265   4.578  14.514  0.8914 -0.0118  0.6108
  272TMC3    C5 4164   4.299   4.550  14.645 -0.8708  0.2700 -0.2467
  272TMC3    C6 4165   4.391   4.456  14.684 -0.0615  0.1539 -0.3298
  272TMC3     C 4166   4.324   4.553  14.279  0.0835 -0.1878 -0.7005
  272TMC3     O 4167   4.401   4.492  14.207  0.3611 -0.0803  0.2894
  272TMC3     H 4168   4.487   4.370  14.371 -0.0143 -1.6055  1.1503
  272TMC3    H1 4169   4.174   4.630  14.486  0.9553 -0.2198  0.0048
  272TMC3    H2 4170   4.402   4.428  14.788 -0.7069 -0.1151 -0.3276
  272TMC3    C7 4171   4.227   4.618  14.752  0.2419  0.2132 -0.5644
  272TMC3    C8 4172   4.596   4.347  14.627  0.7572  0.2437  1.0132
  272TMC3    O1 4173   4.112   4.658  14.742  0.9334  0.4713 -0.0699
  272TMC3    O2 4174   4.613   4.341  14.744 -0.0694 -0.6181  0.0325
  273MPD2     C 4175   0.747   3.426  12.019  0.7737  0.7052 -0.2007
  273MPD2    C1 4176   0.851   3.449  11.937 -0.3302  1.1466  0.0437
  273MPD2    C2 4177   0.843   3.407  11.806 -0.2126  0.1638 -0.6048
  273MPD2    C3 4178   0.731   3.327  11.768  0.4886 -0.3284 -0.4637
  273MPD2    C4 4179   0.633   3.296  11.854 -0.5189 -0.2952 -0.7963
  273MPD2    C5 4180   0.639   3.346  11.979 -0.4071  0.1488 -1.0395
  273MPD2     H 4181   0.916   3.444  11.735  1.1919 -0.8211  0.3344
  273MPD2    H1 4182   0.550   3.238  11.816 -1.0073  0.2547 -0.5798
  273MPD2    H2 4183   0.750   3.460  12.122  0.6948 -2.7307  0.9144
  273MPD2    H3 4184   0.554   3.327  12.043 -0.9023  0.0021 -1.7451
  273MPD2     N 4185   0.702   3.276  11.634  0.1015  0.3670  0.0097
  273MPD2    H5 4186   0.622   3.215  11.622  0.6399 -0.1906 -0.7686
  273MPD2    N1 4187   0.963   3.514  11.988  0.2708 -0.2599  0.0168
  273MPD2    H7 4188   0.952   3.571  12.071  2.2189 -0.4640  0.4217
  274TMC3    C1 4189   0.747   3.227  11.413 -0.5847 -0.0584  0.3459
  274TMC3    C2 4190   0.605   3.224  11.390  0.1976 -0.0629 -0.2153
  274TMC3    C3 4191   0.564   3.245  11.264  0.4986  0.4975 -0.0974
  274TMC3    C4 4192   0.832   3.266  11.311  0.4700 -0.0075  0.8450
  274TMC3    C5 4193   0.793   3.288  11.185 -0.8286 -0.5462 -0.1885
  274TMC3    C6 4194   0.653   3.275  11.163 -0.4588 -0.7220  0.5339
  274TMC3     C 4195   0.792   3.281  11.532  0.5807 -0.3398  0.1849
  274TMC3     O 4196   0.905   3.329  11.541  0.3251 -0.2693  0.2020
  274TMC3     H 4197   0.540   3.194  11.472  0.3162 -0.0681 -0.1232
  274TMC3    H1 4198   0.939   3.259  11.327  0.4925 -1.8898 -0.1892
  274TMC3    H2 4199   0.612   3.321  11.074  1.4904 -0.4668 -0.2278
  274TMC3    C7 4200   0.864   3.396  11.119 -0.7740 -0.5827 -0.5787
  274TMC3    C8 4201   0.422   3.261  11.251  0.2236 -0.0355  0.6345
  274TMC3    O1 4202   0.841   3.417  10.998  0.3262  0.2432 -0.1096
  274TMC3    O2 4203   0.356   3.280  11.349 -0.4046  0.1313  0.6782
  275MPD2     C 4204   0.762   1.225  14.419  0.6504  0.0874 -0.0515
  275MPD2    C1 4205   0.796   1.128  14.517  0.0586  0.7111 -0.0165
  275MPD2    C2 4206   0.706   1.046  14.575  0.5328  0.2338  0.1224
  275MPD2    C3 4207   0.571   1.052  14.539  0.2875 -0.3899 -0.7281
  275MPD2    C4 4208   0.536   1.150  14.450 -0.1866 -0.5885  0.9268
  275MPD2    C5 4209   0.628   1.230  14.388 -0.1129  0.2914 -0.1641
  275MPD2     H 4210   0.736   0.974  14.650  0.8315  0.2101 -0.0190
  275MPD2    H1 4211   0.430   1.165  14.436  0.0856  0.5207  0.1417
  275MPD2    H2 4212   0.831   1.289  14.366  0.7786 -0.2045 -0.2368
  275MPD2    H3 4213   0.591   1.309  14.324 -0.6803 -0.6414 -0.9829
  275MPD2     N 4214   0.471   0.975  14.596  0.1567 -0.1715  0.1173
  275MPD2    H5 4215   0.383   0.970  14.545  0.4587 -0.1917 -0.4060
  275MPD2    N1 4216   0.933   1.121  14.556 -0.3850  0.4397 -0.5359
  275MPD2    H7 4217   0.966   1.066  14.635  1.7752  0.6403 -1.3277
  276TMC3    C1 4218   1.160   1.163  14.568  0.3570  0.4383 -0.2510
  276TMC3    C2 4219   1.201   1.034  14.544  0.0344 -0.6191  0.5079
  276TMC3    C3 4220   1.316   0.994  14.607  0.5257 -0.2636 -0.3212
  276TMC3    C4 4221   1.226   1.258  14.637  0.1624  0.2499  0.4403
  276TMC3    C5 4222   1.346   1.212  14.701 -0.7275  0.2230 -0.3739
  276TMC3    C6 4223   1.389   1.079  14.689 -0.2026  1.1174  0.2745
  276TMC3     C 4224   1.032   1.202  14.512 -0.0727 -0.6918  0.3308
  276TMC3     O 4225   1.021   1.314  14.464  0.8421 -0.3353 -0.3821
  276TMC3     H 4226   1.154   0.979  14.463  0.2318 -0.0976  0.0398
  276TMC3    H1 4227   1.195   1.361  14.641  0.5822  0.3820  0.2341
  276TMC3    H2 4228   1.485   1.046  14.728 -0.0767  0.8274 -0.2888
  276TMC3    C7 4229   1.427   1.306  14.775 -0.4406  0.5531  0.6721
  276TMC3    C8 4230   1.374   0.865  14.591 -0.0699 -0.3659  0.6451
  276TMC3    O1 4231   1.493   1.259  14.869  0.2461 -0.6478  0.1882
  276TMC3    O2 4232   1.492   0.855  14.619  0.6533 -0.3768  0.1602
  277MPD2     C 4233   2.686   0.317  13.232 -0.2128  0.3544  0.2527
  277MPD2    C1 4234   2.560   0.340  13.281 -0.4906  0.0156  1.0078
  277MPD2    C2 4235   2.527   0.279  13.402  1.0828 -0.6883 -0.4416
  277MPD2    C3 4236   2.613   0.196  13.472  0.0048  0.5974 -0.6072
  277MPD2    C4 4237   2.734   0.165  13.413 -0.0406  0.3311  0.4001
  277MPD2    C5 4238   2.767   0.225  13.293  0.0410  0.8175  0.3765
  277MPD2     H 4239   2.436   0.300  13.457 -0.2486  0.5426 -3.0897
  277MPD2    H1 4240   2.812   0.100  13.453 -0.8773 -0.4657  0.7411
  277MPD2    H2 4241   2.714   0.371  13.142 -0.4001 -1.7910 -1.0976
  277MPD2    H3 4242   2.859   0.194  13.243  0.2861  1.5964  0.3422
  277MPD2     N 4243   2.568   0.148  13.597  0.1260 -0.1747 -0.2338
  277MPD2    H5 4244   2.479   0.188  13.626  1.5869  2.4555  0.5713
  277MPD2    N1 4245   2.472   0.432  13.216  0.3098 -0.0414  0.4640
  277MPD2    H7 4246   2.504   0.475  13.130 -0.0532  1.0280  0.8622
  278TMC3    C1 4247   2.594   0.008  13.799 -0.7279 -0.1262 -0.0747
  278TMC3    C2 4248   2.607   4.620  13.845  0.7256 -0.6087  0.8532
  278TMC3    C3 4249   2.503   4.561  13.916  0.1017  0.1180  0.0415
  278TMC3    C4 4250   2.482   0.087  13.829 -0.6361  0.1170 -0.0853
  278TMC3    C5 4251   2.395   0.026  13.920  0.3818 -0.5637  0.0087
  278TMC3    C6 4252   2.390   4.629  13.948  0.3605 -0.2979 -0.7752
  278TMC3     C 4253   2.640   0.053  13.668  0.5557  0.9620 -0.1318
  278TMC3     O 4254   2.746   4.735  13.643  0.2791 -0.3466 -0.3664
  278TMC3     H 4255   2.697   4.566  13.816  0.4631 -0.2960 -0.5142
  278TMC3    H1 4256   2.485   0.195  13.824 -0.9633  0.0322 -2.3548
  278TMC3    H2 4257   2.317   4.573  14.004 -0.4285  3.6401  2.1588
  278TMC3    C7 4258   2.274   0.105  13.936  0.0912 -0.2770  0.0140
  278TMC3    C8 4259   2.509   4.421  13.941  0.6658 -0.3536 -0.2229
  278TMC3    O1 4260   2.270   0.201  13.860  0.0710  0.5204 -0.3162
  278TMC3    O2 4261   2.624   4.370  13.940  0.4404 -0.2667  0.0509
  279MPD2     C 4262   2.367   0.318  17.732  0.0738  0.2419 -0.0575
  279MPD2    C1 4263   2.261   0.245  17.684 -0.0345 -0.8632  0.0331
  279MPD2    C2 4264   2.210   0.270  17.554  0.0728  0.5765 -0.2516
  279MPD2    C3 4265   2.255   0.375  17.480 -0.2516  0.5597 -0.3445
  279MPD2    C4 4266   2.364   0.449  17.533  0.0160  0.5207  0.1513
  279MPD2    C5 4267   2.412   0.425  17.659  0.3573 -0.1509  0.2401
  279MPD2     H 4268   2.132   0.205  17.518  0.7841 -0.4324  0.0457
  279MPD2    H1 4269   2.401   0.543  17.494  3.2066 -1.2311 -1.0138
  279MPD2    H2 4270   2.414   0.300   0.085  1.2182 -0.7553 -0.8003
  279MPD2    H3 4271   2.494   0.490  17.687  1.5128 -1.2588 -0.5248
  279MPD2     N 4272   2.212   0.419  17.354  0.1475  0.0275  0.0424
  279MPD2    H5 4273   2.260   0.498  17.311 -1.3036  1.2955  0.7048
  279MPD2    N1 4274   2.195   0.143   0.009 -0.0368  0.2316 -0.0926
  279MPD2    H7 4275   2.126   0.086  17.704 -1.0845  2.1010 -0.7700
  280TMC3    C1 4276   2.094   0.057   0.211  0.3932 -0.4985 -0.2672
  280TMC3    C2 4277   2.030   4.694   0.148  0.6295 -0.5915  0.2192
  280TMC3    C3 4278   1.903   4.649   0.196  0.0823 -0.3231  0.0534
  280TMC3    C4 4279   2.030   0.127   0.314  0.5139  0.0206  0.2882
  280TMC3    C5 4280   1.904   0.091   0.352  0.2232 -0.2592  0.2758
  280TMC3    C6 4281   1.839   4.719   0.294 -0.8660 -0.4933  0.9513
  280TMC3     C 4282   2.202   0.130   0.147 -0.7466  0.8024 -0.1355
  280TMC3     O 4283   2.270   0.198   0.221  0.2619 -0.1183  0.5081
  280TMC3     H 4284   2.078   4.632   0.073 -0.3007  1.4507 -2.1117
  280TMC3    H1 4285   2.070   0.224   0.342  0.3450 -0.3932  1.9269
  280TMC3    H2 4286   1.744   4.689   0.335 -0.2602  1.5715  3.8350
  280TMC3    C7 4287   1.829   0.208   0.409 -0.4134  0.4539 -0.3440
  280TMC3    C8 4288   1.842   4.523   0.144  0.3755  0.3316  0.1079
  280TMC3    O1 4289   1.886   0.272   0.495  0.3175 -0.0416 -0.3076
  280TMC3    O2 4290   1.728   4.494   0.184  0.0437  0.3091 -0.0714
  281TMC3    C1 4291   4.649   0.441  13.884  0.1910 -0.6761  0.0603
  281TMC3    C2 4292   0.047   0.474  13.914  0.0823 -0.0611 -0.4182
  281TMC3    C3 4293   0.137   0.372  13.892 -0.5215  0.3894 -0.4809
  281TMC3    C4 4294   4.611   0.312  13.838  0.6770  0.7814 -0.2338
  281TMC3    C5 4295   4.707   0.218  13.825  0.3380  0.2488 -0.1305
  281TMC3    C6 4296   0.101   0.246  13.849  0.2919 -0.6138 -0.3619
  281TMC3     C 4297   4.559   0.538  13.834  0.0810 -0.1777 -0.1323
  281TMC3     O 4298   4.440   0.501  13.823  0.1015  0.4038 -0.2045
  281TMC3     H 4299   0.083   0.569  13.951  1.1773 -1.1235  1.2571
  281TMC3    H1 4300   4.506   0.288  13.833  1.0015 -0.0767 -2.9722
  281TMC3    H2 4301   0.174   0.168  13.831  0.5815 -0.8285  1.7040
  281TMC3    C7 4302   4.668   0.087  13.781  0.6995 -0.2118 -0.2187
  281TMC3    C8 4303   0.275   0.385  13.926  0.6418 -0.7133  0.0925
  281TMC3    O1 4304   4.557   0.078  13.739  0.1171  0.3639 -0.0475
  281TMC3    O2 4305   0.317   0.298  13.995 -0.0974 -0.2251  0.1501
  282MPD2     C 4306   2.553   1.578  15.004  0.1959  0.0868 -0.4804
  282MPD2    C1 4307   2.419   1.605  15.022  0.2223  0.0287  0.4248
  282MPD2    C2 4308   2.337   1.597  14.913 -1.1903 -0.1721  0.1537
  282MPD2    C3 4309   2.378   1.561  14.791  0.0421  0.6467  0.2236
  282MPD2    C4 4310   2.513   1.550  14.767 -0.4928 -0.2391  0.2115
  282MPD2    C5 4311   2.597   1.542  14.879 -0.0396  0.4181 -0.6127
  282MPD2     H 4312   2.232   1.617  14.928 -1.2582 -1.0159  0.8717
  282MPD2    H1 4313   2.558   1.510  14.677  0.0559 -0.0212  0.3871
  282MPD2    H2 4314   2.628   1.572  15.082  1.0667 -0.2033 -1.3319
  282MPD2    H3 4315   2.699   1.508  14.861 -0.5855 -1.5818  0.1137
  282MPD2     N 4316   2.281   1.539  14.692 -0.3816 -0.4979 -0.0271
  282MPD2    H5 4317   2.185   1.553  14.722  0.2121  1.7675  0.8574
  282MPD2    N1 4318   2.361   1.628  15.147 -0.1397  0.4614 -0.3218
  282MPD2    H7 4319   2.260   1.625  15.146 -0.0273 -2.3496 -2.8271
  283TMC3    C1 4320   2.348   1.661  15.374  0.7324  0.5877 -0.6637
  283TMC3    C2 4321   2.384   1.750  15.463  0.4060 -0.6488  0.4756
  283TMC3    C3 4322   2.295   1.792  15.557  0.4877  0.3431 -0.1313
  283TMC3    C4 4323   2.229   1.592  15.372  0.3033  0.0106 -0.5407
  283TMC3    C5 4324   2.146   1.627  15.480  1.0092  0.4313 -0.2161
  283TMC3    C6 4325   2.171   1.727  15.568  0.4811 -0.4202 -0.3669
  283TMC3     C 4326   2.431   1.654  15.261 -0.0899  0.3366  0.0028
  283TMC3     O 4327   2.552   1.661  15.275 -0.0572  0.1096 -0.4963
  283TMC3     H 4328   2.472   1.807  15.438  0.4143 -0.9460 -0.1627
  283TMC3    H1 4329   2.205   1.511  15.304  2.1970 -1.4638  0.5652
  283TMC3    H2 4330   2.096   1.772  15.633  0.7662  0.2398 -0.4927
  283TMC3    C7 4331   2.054   1.534  15.527 -0.5909  0.6763  0.5132
  283TMC3    C8 4332   2.282   1.935  15.538 -0.0799 -0.0531  0.7175
  283TMC3    O1 4333   1.990   1.568  15.624 -0.6195  0.0385  0.2810
  283TMC3    O2 4334   2.295   1.967  15.422  0.5220 -0.1278 -0.7187
  284MPD2     C 4335   0.450   1.095  12.442  0.1230  0.4368  0.3748
  284MPD2    C1 4336   0.495   1.091  12.309  0.8222  0.1665 -0.4194
  284MPD2    C2 4337   0.545   0.967  12.262  0.1236  0.8938 -0.4444
  284MPD2    C3 4338   0.554   0.849  12.335  0.2297  0.1481 -0.3979
  284MPD2    C4 4339   0.515   0.859  12.468 -0.0492 -1.0005  0.3222
  284MPD2    C5 4340   0.461   0.975  12.513  0.1288  0.2268  0.3596
  284MPD2     H 4341   0.575   0.969  12.157  0.3113  0.3175 -0.4051
  284MPD2    H1 4342   0.536   0.781  12.540  1.8922  0.2211  1.0787
  284MPD2    H2 4343   0.400   1.185  12.478  0.7894 -0.1061  2.6729
  284MPD2    H3 4344   0.418   0.979  12.612 -0.5332  0.2390  0.0686
  284MPD2     N 4345   0.588   0.726  12.273  0.5952 -0.0475  0.3616
  284MPD2    H5 4346   0.605   0.655  12.343 -1.1194 -0.8584 -0.0475
  284MPD2    N1 4347   0.498   1.192  12.215 -0.0732  0.4496 -0.1746
  284MPD2    H7 4348   0.558   1.179  12.134 -1.0316  2.7190 -1.2740
  285TMC3    C1 4349   0.452   1.380  12.087  0.3408 -0.9648  0.1789
  285TMC3    C2 4350   0.491   1.303  11.987  0.2428  0.1334 -0.4341
  285TMC3    C3 4351   0.537   1.376  11.876 -0.0088 -0.1479 -0.2555
  285TMC3    C4 4352   0.465   1.520  12.096  0.3588  0.3538 -0.4887
  285TMC3    C5 4353   0.508   1.583  11.984 -0.2261 -0.0710  0.0309
  285TMC3    C6 4354   0.554   1.514  11.874  0.4763 -0.6928 -1.0499
  285TMC3     C 4355   0.430   1.309  12.212 -0.6902  0.1935 -0.1891
  285TMC3     O 4356   0.331   1.339  12.281 -0.5683 -0.2854 -0.9722
  285TMC3     H 4357   0.464   1.199  11.978 -1.2157  0.7280 -3.2421
  285TMC3    H1 4358   0.418   1.570  12.179 -0.0292 -0.2322 -0.3588
  285TMC3    H2 4359   0.586   1.572  11.789 -1.6958 -1.0809 -2.1181
  285TMC3    C7 4360   0.509   1.729  11.975  0.2541  0.2364 -0.5050
  285TMC3    C8 4361   0.608   1.295  11.786  0.5168 -0.6295  0.1492
  285TMC3    O1 4362   0.510   1.782  11.866  0.0233 -0.0678 -0.0901
  285TMC3    O2 4363   0.564   1.186  11.753  0.0947  0.2889 -0.2559
  286MPD2     C 4364   1.464   0.004   1.836  0.6605  0.3939  0.1600
  286MPD2    C1 4365   1.425   4.679   1.720  0.6062  0.1140 -0.2371
  286MPD2    C2 4366   1.493   4.571   1.673  0.1424  0.0723 -0.2055
  286MPD2    C3 4367   1.610   4.532   1.728 -0.0961  0.2992 -0.3031
  286MPD2    C4 4368   1.657   4.598   1.844 -0.1931  0.1472  0.2524
  286MPD2    C5 4369   1.577   4.694   1.898  0.4533 -0.5960 -0.0829
  286MPD2     H 4370   1.460   4.538   1.576  1.1311 -0.5047 -0.3533
  286MPD2    H1 4371   1.743   4.553   1.891  0.5996 -0.2292 -1.5350
  286MPD2    H2 4372   1.411   0.087   1.882 -2.4196 -2.3527  1.5057
  286MPD2    H3 4373   1.609   0.010   1.988 -1.0459  0.1383  0.0279
  286MPD2     N 4374   1.689   4.428   1.675 -0.3083  0.7824  0.5922
  286MPD2    H5 4375   1.777   4.417   1.725  1.0031 -0.9904 -2.0867
  286MPD2    N1 4376   1.313   4.727   1.645  0.3048  0.1588  0.0377
  286MPD2    H7 4377   1.307   4.685   1.553  2.3649  0.5492 -0.2822
  287TMC3    C1 4378   1.753   4.248   1.527 -0.1193 -0.0910  0.4408
  287TMC3    C2 4379   1.709   4.173   1.419 -0.5744 -0.9720 -0.2034
  287TMC3    C3 4380   1.804   4.104   1.349 -0.0484 -0.1435 -0.1856
  287TMC3    C4 4381   1.884   4.251   1.563  0.3200 -0.2616 -0.4639
  287TMC3    C5 4382   1.968   4.161   1.500 -0.1596  0.1632 -0.3412
  287TMC3    C6 4383   1.928   4.084   1.393 -0.5151  0.0752 -0.4960
  287TMC3     C 4384   1.665   4.358   1.556 -0.1848  0.2010  0.4254
  287TMC3     O 4385   1.558   4.363   1.490 -0.6515  0.8683  0.3059
  287TMC3     H 4386   1.608   4.179   1.380 -0.8244  1.0148  0.7501
  287TMC3    H1 4387   1.898   4.271   1.669 -0.0476 -0.3146 -0.4070
  287TMC3    H2 4388   1.994   4.027   1.328 -0.5785  0.3937 -0.8410
  287TMC3    C7 4389   2.109   4.175   1.515 -0.1068 -0.8484  0.1889
  287TMC3    C8 4390   1.761   4.052   1.218 -0.3814 -0.3432 -0.0880
  287TMC3    O1 4391   2.146   4.286   1.551 -0.4598 -0.0367 -0.5123
  287TMC3    O2 4392   1.643   4.058   1.195 -0.2489  0.4604 -0.8864
  288TMC3    C1 4393   2.908   4.230  14.358 -0.3764 -0.1749  0.1531
  288TMC3    C2 4394   2.812   4.151  14.427 -0.3472  0.5544 -0.2869
  288TMC3    C3 4395   2.682   4.189  14.413 -0.5791 -0.2106 -0.1517
  288TMC3    C4 4396   2.873   4.358  14.302  0.3017 -0.8769 -0.3848
  288TMC3    C5 4397   2.738   4.375  14.277 -0.1387 -0.2725  0.1610
  288TMC3    C6 4398   2.643   4.296  14.337 -0.4307 -0.0860 -0.4540
  288TMC3     C 4399   3.048   4.204  14.398  0.8924  0.8310  0.2757
  288TMC3     O 4400   3.066   4.153  14.511 -0.4351 -0.2091  0.2386
  288TMC3     H 4401   2.836   4.062  14.485  0.0909  0.3248 -0.8187
  288TMC3    H1 4402   2.955   4.420  14.266  0.1991 -0.1897  0.5695
  288TMC3    H2 4403   2.536   4.311  14.329 -0.2236  1.1430 -0.8352
  288TMC3    C7 4404   2.686   4.514  14.252  0.2476  0.0833  0.6868
  288TMC3    C8 4405   2.599   4.178  14.529  0.1243 -0.8420 -0.0634
  288TMC3    O1 4406   2.575   4.547  14.294 -0.4694 -0.3659 -0.6249
  288TMC3    O2 4407   2.552   4.277  14.577  0.1434  0.5588 -0.6326
  289MPD2     C 4408   2.772   3.114  14.375 -0.5195  0.0208  0.6492
  289MPD2    C1 4409   2.747   3.251  14.351  0.8606  0.8212 -0.0311
  289MPD2    C2 4410   2.641   3.279  14.265 -0.3644  0.1232 -0.2810
  289MPD2    C3 4411   2.573   3.180  14.197  0.0073 -0.3961  0.3079
  289MPD2    C4 4412   2.609   3.046  14.212  1.1508 -0.2643 -0.4657
  289MPD2    C5 4413   2.700   3.017  14.315 -0.0405  0.2195  0.9560
  289MPD2     H 4414   2.613   3.382  14.245  2.1449  0.4165 -2.2636
  289MPD2    H1 4415   2.558   2.972  14.152 -1.5114  0.7750  0.5238
  289MPD2    H2 4416   2.853   3.082  14.440 -0.5390 -0.1167  0.6059
  289MPD2    H3 4417   2.734   2.916  14.336 -0.4353  0.2055  1.4975
  289MPD2     N 4418   2.469   3.205  14.104 -0.2482  0.6264  0.1837
  289MPD2    H5 4419   2.438   3.130  14.043 -1.3073  1.0295  0.2395
  289MPD2    N1 4420   2.830   3.353  14.401 -0.0316 -0.1689  0.7981
  289MPD2    H7 4421   2.895   3.336  14.477 -1.0716  2.1802  2.1980
  290TMC3    C1 4422   2.287   3.329  14.003 -0.0579 -1.2969  0.2656
  290TMC3    C2 4423   2.247   3.453  13.972  1.3902  0.4285  0.4667
  290TMC3    C3 4424   2.130   3.460  13.901 -0.1665 -0.2244 -0.3917
  290TMC3    C4 4425   2.221   3.210  13.965  0.1233 -0.0287 -0.3961
  290TMC3    C5 4426   2.117   3.228  13.876 -0.0353 -0.1508  0.3519
  290TMC3    C6 4427   2.067   3.351  13.842 -0.4630 -0.3648 -0.2359
  290TMC3     C 4428   2.397   3.323  14.098  0.0783  0.3878 -0.2886
  290TMC3     O 4429   2.400   3.419  14.183 -0.4829  0.1389 -0.1623
  290TMC3     H 4430   2.308   3.534  14.009 -0.7211  2.2293 -0.0077
  290TMC3    H1 4431   2.245   3.116  14.014  0.9464  0.9867  1.1711
  290TMC3    H2 4432   1.983   3.364  13.775  0.0039  0.5403 -0.6520
  290TMC3    C7 4433   2.040   3.111  13.818 -0.4032 -0.0172  0.2488
  290TMC3    C8 4434   2.048   3.582  13.892 -0.0146 -0.2256 -0.0810
  290TMC3    O1 4435   1.979   3.136  13.714  0.0426  0.2343  0.3334
  290TMC3    O2 4436   1.958   3.578  13.811 -0.1934  0.0276  0.2908
  291MPD2     C 4437   2.132   3.802   0.183 -0.2223  0.4595 -0.4602
  291MPD2    C1 4438   2.234   3.730   0.234 -0.0812 -0.1296  0.2142
  291MPD2    C2 4439   2.350   3.797   0.265  0.1511 -0.2532  0.0338
  291MPD2    C3 4440   2.366   3.933   0.237 -0.5925  0.1561  0.2043
  291MPD2    C4 4441   2.265   4.000   0.178  0.3700 -0.3513 -0.4848
  291MPD2    C5 4442   2.143   3.937   0.155  0.3009  0.6129  0.0585
  291MPD2     H 4443   2.427   3.733   0.307 -0.3587  0.1782  1.6493
  291MPD2    H1 4444   2.271   4.106   0.156  2.9932 -0.4735 -0.3691
  291MPD2    H2 4445   2.033   3.762   0.168 -0.1782  0.3400 -0.4313
  291MPD2    H3 4446   2.060   3.999   0.124  1.1270  1.7721  0.1451
  291MPD2     N 4447   2.478   4.010   0.268 -0.6599  0.2039 -0.5653
  291MPD2    H5 4448   2.474   4.104   0.231  0.2895  0.3849 -0.2208
  291MPD2    N1 4449   2.236   3.592   0.277 -0.6096  0.0103 -0.3220
  291MPD2    H7 4450   2.321   3.560   0.321  0.3754  0.3974 -1.9276
  292TMC3    C1 4451   2.172   3.362   0.278  0.8704  0.0671  0.4187
  292TMC3    C2 4452   2.196   3.341   0.407  0.2421  0.5548  0.8789
  292TMC3    C3 4453   2.180   3.220   0.466  0.1149  0.5318  0.2587
  292TMC3    C4 4454   2.112   3.263   0.198 -0.4403  0.0349  0.2282
  292TMC3    C5 4455   2.104   3.142   0.260 -1.0381  0.7130  0.3302
  292TMC3    C6 4456   2.147   3.113   0.390  0.0589 -0.9494  0.3500
  292TMC3     C 4457   2.146   3.497   0.231  0.1370 -0.5146  0.0027
  292TMC3     O 4458   2.042   3.507   0.165  0.1310  0.1524  0.5517
  292TMC3     H 4459   2.227   3.419   0.475  2.7444  1.1039 -0.8937
  292TMC3    H1 4460   2.079   3.286   0.097 -1.1436 -0.5765  0.3162
  292TMC3    H2 4461   2.136   3.014   0.433 -0.9719 -0.1862  1.8306
  292TMC3    C7 4462   2.039   3.037   0.181  0.5618  0.5761 -0.6660
  292TMC3    C8 4463   2.190   3.215   0.607 -0.2575 -0.1661 -0.0666
  292TMC3    O1 4464   2.061   2.921   0.208  0.1397  0.1173 -0.3153
  292TMC3    O2 4465   2.253   3.300   0.669 -0.5530 -0.5569 -0.2031
  293MPD2     C 4466   3.646   4.728  12.722  0.1019  0.1244  0.3514
  293MPD2    C1 4467   3.550   4.694  12.811  0.3139 -0.4359  0.0462
  293MPD2    C2 4468   3.594   4.699  12.948  0.7403 -0.6977 -0.3594
  293MPD2    C3 4469   3.722   0.013  12.977 -0.1597  0.1559 -0.4610
  293MPD2    C4 4470   3.813   0.044  12.877  1.2086 -0.3807  0.5201
  293MPD2    C5 4471   3.771   0.040  12.747 -0.4353 -0.9114  0.3154
  293MPD2     H 4472   3.544   4.661  13.037 -0.7014 -1.1007 -1.3375
  293MPD2    H1 4473   3.915   0.076  12.894  0.8658  1.3620 -0.7333
  293MPD2    H2 4474   3.615   4.733  12.619  2.3818  1.2030 -0.2742
  293MPD2    H3 4475   3.818   0.093  12.665 -0.9458 -0.0042  0.6067
  293MPD2     N 4476   3.757   0.021  13.115  0.1417  0.1650  0.2758
  293MPD2    H5 4477   3.683   4.730  13.179  2.0378 -3.5477  0.9037
  293MPD2    N1 4478   3.418   4.658  12.768 -1.0285  0.3820  0.5728
  293MPD2    H7 4479   3.408   4.650  12.668  2.7942  1.8466  0.0922
  294TMC3    C1 4480   3.189   4.587  12.770  0.4282  0.6834  0.9314
  294TMC3    C2 4481   3.105   4.503  12.841  0.1078  1.0377  0.9021
  294TMC3    C3 4482   2.994   4.477  12.773  0.9095  0.2746  0.5645
  294TMC3    C4 4483   3.175   4.627  12.644  0.3597  0.0428  0.5815
  294TMC3    C5 4484   3.060   4.593  12.581 -0.1020  0.5997 -0.0293
  294TMC3    C6 4485   2.968   4.524  12.650  0.1150  0.4894  1.2324
  294TMC3     C 4486   3.307   4.626  12.850 -0.1041 -0.0437 -0.0026
  294TMC3     O 4487   3.292   4.627  12.971 -0.4817 -0.3331 -0.0530
  294TMC3     H 4488   3.114   4.469  12.943 -1.5425  0.7299  0.9472
  294TMC3    H1 4489   3.253   4.684  12.594 -0.9922  1.1731 -0.2218
  294TMC3    H2 4490   2.872   4.506  12.603  1.5296 -1.2227 -0.9725
  294TMC3    C7 4491   3.080   4.542  12.449 -0.1696  0.0952  0.3304
  294TMC3    C8 4492   2.927   4.347  12.799  0.1698 -0.3687 -0.4190
  294TMC3    O1 4493   3.043   4.426  12.437  0.2599  0.2939  0.1839
  294TMC3    O2 4494   2.950   4.296  12.910 -0.4652  0.3993 -0.0757
  295MPD2     C 4495   4.127   4.204   0.766  0.7628 -1.4967  0.3430
  295MPD2    C1 4496   4.094   4.071   0.776  0.3873  0.8509 -0.0521
  295MPD2    C2 4497   4.040   4.031   0.891  1.0997  0.7565  0.5366
  295MPD2    C3 4498   4.000   4.129   0.987  0.6146  0.1523  0.0880
  295MPD2    C4 4499   4.029   4.257   0.970 -0.1127  0.2274 -0.2194
  295MPD2    C5 4500   4.110   4.299   0.869  0.0005  0.0733  0.7708
  295MPD2     H 4501   4.009   3.927   0.896  2.3558  0.3400 -0.2870
  295MPD2    H1 4502   3.995   4.329   1.044  1.1356  1.2154 -0.6137
  295MPD2    H2 4503   4.183   4.229   0.677 -0.9494  0.8660 -0.0730
  295MPD2    H3 4504   4.157   4.396   0.861  0.5838 -0.4225 -1.9388
  295MPD2     N 4505   3.919   4.098   1.099  0.3713 -0.1331  0.0905
  295MPD2    H5 4506   3.891   4.176   1.158 -0.1101  0.8765 -1.4789
  295MPD2    N1 4507   4.121   3.998   0.662 -0.4807 -0.0872  0.4079
  295MPD2    H7 4508   4.168   4.056   0.592  3.0631 -2.8694  0.4835
  296TMC3    C1 4509   3.743   3.974   1.221  0.0742  0.0481 -0.6375
  296TMC3    C2 4510   3.673   4.088   1.244  0.4716 -0.0428  0.0023
  296TMC3    C3 4511   3.581   4.085   1.352  0.1715  0.2150 -0.2886
  296TMC3    C4 4512   3.719   3.856   1.289 -0.1389  0.3676 -0.4477
  296TMC3    C5 4513   3.620   3.858   1.389  0.1655  0.0089  0.0794
  296TMC3    C6 4514   3.545   3.972   1.411  0.0848 -0.5189  0.9216
  296TMC3     C 4515   3.860   3.975   1.126 -0.5857  0.2260  0.3407
  296TMC3     O 4516   3.915   3.867   1.100 -0.1526  0.2581 -0.4215
  296TMC3     H 4517   3.681   4.169   1.173 -0.6907  0.9829  1.0533
  296TMC3    H1 4518   3.775   3.767   1.263 -2.8150 -1.4856  0.2014
  296TMC3    H2 4519   3.468   3.978   1.487 -0.9033  2.2791 -0.2910
  296TMC3    C7 4520   3.554   3.739   1.440  0.6065 -0.5451 -0.2271
  296TMC3    C8 4521   3.533   4.208   1.406 -0.0160 -0.8546 -0.2636
  296TMC3    O1 4522   3.450   3.763   1.501 -0.1435  0.5301 -0.0366
  296TMC3    O2 4523   3.448   4.206   1.495  0.0474 -0.3028 -0.3507
  297MPD2     C 4524   1.675   0.536  16.266  0.0349 -0.6574  0.8438
  297MPD2    C1 4525   1.638   0.554  16.136  0.1096 -0.7190 -0.5681
  297MPD2    C2 4526   1.695   0.666  16.075 -0.3397  0.2888  0.7867
  297MPD2    C3 4527   1.774   0.762  16.144  0.9534 -0.6058  0.0681
  297MPD2    C4 4528   1.815   0.735  16.273 -0.4499  0.0480  0.4867
  297MPD2    C5 4529   1.756   0.622  16.328 -0.1766  0.1746 -0.0199
  297MPD2     H 4530   1.664   0.677  15.972 -0.8488 -1.8529  0.6974
  297MPD2    H1 4531   1.883   0.793  16.335 -0.7988  0.2750  0.6575
  297MPD2    H2 4532   1.641   0.447  16.318  2.9702 -1.4381  1.4654
  297MPD2    H3 4533   1.777   0.597  16.432 -0.6633 -0.6163 -0.1162
  297MPD2     N 4534   1.829   0.861  16.069 -0.3536  0.2630 -0.6841
  297MPD2    H5 4535   1.829   0.841  15.969 -0.0135 -2.2283 -0.2041
  297MPD2    N1 4536   1.550   0.469  16.070  0.2254 -0.7450  0.0176
  297MPD2    H7 4537   1.515   0.510  15.984  0.2764  0.9218  0.7871
  298TMC3    C1 4538   1.399   0.308  16.022  0.2842 -0.0344 -0.3684
  298TMC3    C2 4539   1.411   0.330  15.887 -0.7751 -0.1524  0.1299
  298TMC3    C3 4540   1.292   0.333  15.815  0.5159  0.2688  0.2662
  298TMC3    C4 4541   1.284   0.289  16.088 -0.2879 -0.3590 -0.4976
  298TMC3    C5 4542   1.171   0.307  16.013  0.2404  0.2484 -0.7101
  298TMC3    C6 4543   1.174   0.327  15.878  0.4108  0.2097 -0.3395
  298TMC3     C 4544   1.506   0.349  16.109 -0.9753  0.5102 -1.1873
  298TMC3     O 4545   1.530   0.276  16.205 -0.1765  0.4039 -0.0023
  298TMC3     H 4546   1.503   0.349  15.834 -1.2636  1.9304  0.0260
  298TMC3    H1 4547   1.294   0.297  16.195 -0.4451 -1.7612 -0.3799
  298TMC3    H2 4548   1.083   0.341  15.821  0.0717 -1.5618 -0.2374
  298TMC3    C7 4549   1.079   0.404  16.079 -0.1318 -0.0344 -0.8018
  298TMC3    C8 4550   1.286   0.384  15.671  0.2654  0.0175 -0.4419
  298TMC3    O1 4551   1.078   0.392  16.202  0.6655 -0.2200  0.3770
  298TMC3    O2 4552   1.183   0.447  15.640 -0.0644  0.1005 -0.9446
  299MPD2     C 4553   1.730   0.522  10.925 -0.3902 -0.4805 -0.4001
  299MPD2    C1 4554   1.789   0.645  10.915  0.0186 -0.2862 -0.9274
  299MPD2    C2 4555   1.744   0.738  10.816  0.4284 -0.0868 -0.2910
  299MPD2    C3 4556   1.647   0.697  10.727  0.5975  0.5406  0.1973
  299MPD2    C4 4557   1.594   0.569  10.733 -0.1243  0.1757 -1.0857
  299MPD2    C5 4558   1.627   0.485  10.840 -0.0850  0.0493 -0.3353
  299MPD2     H 4559   1.789   0.837  10.811  0.1344 -0.0139 -1.4053
  299MPD2    H1 4560   1.523   0.516  10.671  0.3655 -0.3870 -1.1648
  299MPD2    H2 4561   1.758   0.448  10.999 -2.7250 -0.3762  0.5948
  299MPD2    H3 4562   1.586   0.385  10.850  0.2399 -0.1476 -1.0037
  299MPD2     N 4563   1.596   0.781  10.630  1.0351  0.4437 -0.0679
  299MPD2    H5 4564   1.527   0.732  10.573  0.2425  2.2311 -0.6315
  299MPD2    N1 4565   1.881   0.674  11.016 -0.0027  0.3397  0.1007
  299MPD2    H7 4566   1.908   0.603  11.083  0.9725 -0.2558 -0.9205
  300TMC3    C1 4567   1.530   0.990  10.537 -0.1748 -0.0827  0.4131
  300TMC3    C2 4568   1.496   1.119  10.582  0.5254 -0.2190 -0.4454
  300TMC3    C3 4569   1.374   1.178  10.557  0.2274 -0.4656  0.6581
  300TMC3    C4 4570   1.427   0.920  10.475 -0.1271 -0.6067 -0.1299
  300TMC3    C5 4571   1.304   0.971  10.459  0.0028  0.1449 -0.1795
  300TMC3    C6 4572   1.276   1.099  10.502 -0.3825  0.2663  0.4879
  300TMC3     C 4573   1.609   0.917  10.631  0.1238  0.5584 -0.2966
  300TMC3     O 4574   1.686   0.989  10.697  0.7512 -0.3124  0.5761
  300TMC3     H 4575   1.566   1.175  10.644  0.1197 -1.0264  0.7328
  300TMC3    H1 4576   1.445   0.820  10.439  2.8715  0.2397 -0.9449
  300TMC3    H2 4577   1.176   1.138  10.492  0.4469  1.8736 -1.6444
  300TMC3    C7 4578   1.201   0.872  10.456  0.7490 -0.1411  0.7209
  300TMC3    C8 4579   1.345   1.299  10.633  0.1689 -0.1190  0.0770
  300TMC3    O1 4580   1.192   0.791  10.361  0.2442  0.2123  0.4765
  300TMC3    O2 4581   1.434   1.330  10.715  0.5242 -0.7425  0.3248
  301MPD2     C 4582   4.416   1.739   1.553 -0.4330  0.1637 -0.0242
  301MPD2    C1 4583   4.321   1.719   1.457 -0.1898 -1.1829 -0.2806
  301MPD2    C2 4584   4.347   1.621   1.355  0.0124 -0.2430  0.2783
  301MPD2    C3 4585   4.468   1.553   1.360 -0.0145 -0.2226 -0.0578
  301MPD2    C4 4586   4.545   1.566   1.470  0.2456  0.2084  0.0148
  301MPD2    C5 4587   4.521   1.660   1.562  0.3462 -0.1636 -0.4635
  301MPD2     H 4588   4.271   1.596   1.283  0.2287  0.1193 -0.0784
  301MPD2    H1 4589   4.626   1.496   1.487  0.0384  0.4342  1.9438
  301MPD2    H2 4590   4.408   1.828   1.616  2.1395  0.5213 -0.2066
  301MPD2    H3 4591   4.589   1.667   1.646  1.9055 -1.2287 -1.6159
  301MPD2     N 4592   4.502   1.448   1.266  0.1230  0.1514  0.3100
  301MPD2    H5 4593   4.591   1.399   1.267  0.4714  0.7939  1.4201
  301MPD2    N1 4594   4.208   1.800   1.440  0.4241 -0.0337  0.0451
  301MPD2    H7 4595   4.161   1.788   1.351  1.2409  1.5232 -0.6080
  302TMC3    C1 4596   4.474   1.313   1.076  0.1094  0.5243 -0.1901
  302TMC3    C2 4597   4.537   1.210   1.140 -0.2428 -0.4028  0.8974
  302TMC3    C3 4598   4.529   1.090   1.080 -0.0314  0.3652  0.0402
  302TMC3    C4 4599   4.421   1.301   0.950 -0.4412  0.4066 -0.2054
  302TMC3    C5 4600   4.418   1.176   0.895  0.1744 -0.3499  0.0195
  302TMC3    C6 4601   4.461   1.066   0.960 -0.2571  0.2482 -0.5725
  302TMC3     C 4602   4.434   1.431   1.147 -0.0733 -0.1822 -0.0982
  302TMC3     O 4603   4.351   1.506   1.097 -0.5106  0.1861  0.1664
  302TMC3     H 4604   4.582   1.227   1.237  1.4745  0.1883  0.0017
  302TMC3    H1 4605   4.384   1.389   0.899 -1.9015  0.2236  0.5542
  302TMC3    H2 4606   4.466   0.969   0.912 -2.9774 -1.7336  3.1297
  302TMC3    C7 4607   4.324   1.142   0.792  0.4470 -0.5735  0.1099
  302TMC3    C8 4608   4.600   0.982   1.148  0.0397  0.3093 -0.9780
  302TMC3    O1 4609   4.333   1.028   0.750 -0.1750  0.7594 -0.0000
  302TMC3    O2 4610   4.688   1.005   1.227  0.4842 -0.9180 -0.0210
  303MPD2     C 4611   4.338   0.181  11.024 -0.0521 -0.6040 -0.3825
  303MPD2    C1 4612   4.235   0.092  11.056  0.5982 -0.1959  0.5415
  303MPD2    C2 4613   4.152   0.052  10.957 -0.2714  0.9377  0.5448
  303MPD2    C3 4614   4.174   0.086  10.828  0.4022 -0.6406  0.3499
  303MPD2    C4 4615   4.287   0.154  10.800  0.6369 -0.3461 -0.9142
  303MPD2    C5 4616   4.365   0.207  10.896 -0.2576 -0.2305  0.2587
  303MPD2     H 4617   4.065   4.726  10.977 -0.9485  1.9907  0.8736
  303MPD2    H1 4618   4.319   0.177  10.699 -0.7704  1.1146 -1.0209
  303MPD2    H2 4619   4.408   0.227  11.093 -0.2695 -0.8936  0.0311
  303MPD2    H3 4620   4.448   0.274  10.878 -1.3646  0.1504 -3.4086
  303MPD2     N 4621   4.088   0.053  10.724 -0.1137  1.0800 -0.6809
  303MPD2    H5 4622   4.133   0.051  10.633 -0.4394 -0.2339 -0.8106
  303MPD2    N1 4623   4.209   0.070  11.190 -0.0594 -0.1610  0.2078
  303MPD2    H7 4624   4.270   0.114  11.257 -0.8270  0.0163  0.7906
  304TMC3    C1 4625   4.087   0.038  11.387 -0.1291  0.0825  0.4432
  304TMC3    C2 4626   4.029   0.162  11.398 -0.1809 -0.0184 -0.4256
  304TMC3    C3 4627   3.939   0.185  11.496  0.1773  0.7439 -0.2443
  304TMC3    C4 4628   4.041   4.675  11.470 -0.0594  0.6377 -0.4079
  304TMC3    C5 4629   3.967   4.704  11.573  0.5551 -0.3061 -0.0820
  304TMC3    C6 4630   3.917   0.094  11.598 -0.7959  0.9864  0.5256
  304TMC3     C 4631   4.101   0.001  11.246  0.5369 -0.5381 -0.2378
  304TMC3     O 4632   4.005   4.675  11.197 -0.0917 -0.5322 -0.3638
  304TMC3     H 4633   4.031   0.225  11.309  0.0154  1.0653  0.3388
  304TMC3    H1 4634   4.069   4.572  11.451 -0.6884  0.1789  1.1748
  304TMC3    H2 4635   3.850   0.119  11.680 -2.8705 -1.9920 -0.2606
  304TMC3    C7 4636   3.866   4.608  11.621  0.0772  0.1162  0.3428
  304TMC3    C8 4637   3.811   0.229  11.435  0.2817 -0.5081 -0.6597
  304TMC3    O1 4638   3.750   4.652  11.635 -0.4572 -0.6302 -0.2977
  304TMC3    O2 4639   3.818   0.313  11.343  0.0933 -0.0438  0.2370
  305MPD2     C 4640   2.191   1.647  14.136 -0.1598  0.2273 -0.4586
  305MPD2    C1 4641   2.324   1.673  14.102 -0.5114 -0.6644  0.4074
  305MPD2    C2 4642   2.356   1.646  13.967 -0.5429 -0.3787 -0.3898
  305MPD2    C3 4643   2.261   1.587  13.882 -0.1311  0.6393 -0.1613
  305MPD2    C4 4644   2.133   1.565  13.929  0.7966 -0.1253 -0.0618
  305MPD2    C5 4645   2.097   1.598  14.056 -0.2826 -0.5437  0.8777
  305MPD2     H 4646   2.456   1.668  13.931 -0.8871 -0.0378 -1.1137
  305MPD2    H1 4647   2.052   1.531  13.866 -0.5636 -1.7115  2.5043
  305MPD2    H2 4648   2.157   1.674  14.235  0.7068  1.0577 -0.3903
  305MPD2    H3 4649   1.997   1.589  14.098 -1.2634  1.0335 -1.1296
  305MPD2     N 4650   2.283   1.571  13.737  0.1820 -0.3851 -0.1394
  305MPD2    H5 4651   2.207   1.546  13.675 -0.3807 -2.6504  1.4838
  305MPD2    N1 4652   2.415   1.716  14.209 -0.6508  0.2428 -0.4152
  305MPD2    H7 4653   2.371   1.731  14.299 -1.7100 -3.4255 -0.3048
  306TMC3    C1 4654   2.609   1.778  14.317 -0.3179  0.3798 -0.2899
  306TMC3    C2 4655   2.744   1.749  14.327 -0.5104 -0.7103 -0.2177
  306TMC3    C3 4656   2.796   1.753  14.454  0.2536  0.7626 -0.0502
  306TMC3    C4 4657   2.538   1.834  14.419 -0.5849  0.1158  0.6323
  306TMC3    C5 4658   2.602   1.854  14.537  0.0907  0.1946  0.6963
  306TMC3    C6 4659   2.726   1.807  14.559 -0.7061  0.5396 -0.4536
  306TMC3     C 4660   2.550   1.735  14.192 -0.1642 -0.4262 -0.5517
  306TMC3     O 4661   2.625   1.737  14.096 -0.2548  0.2747  0.1769
  306TMC3     H 4662   2.795   1.719  14.236 -1.1183 -1.5654 -0.2802
  306TMC3    H1 4663   2.434   1.860  14.402  0.0781  1.1664 -1.7040
  306TMC3    H2 4664   2.771   1.802  14.657 -3.0096 -1.5499  0.4902
  306TMC3    C7 4665   2.519   1.889  14.648  0.0898  0.1930  0.1467
  306TMC3    C8 4666   2.907   1.665  14.477  0.0095 -0.6360 -0.0277
  306TMC3    O1 4667   2.399   1.865  14.643  0.0681  0.5673  0.3172
  306TMC3    O2 4668   2.926   1.593  14.378  0.2522  0.1286  0.2471
  307MPD2     C 4669   0.872   0.411   0.473  0.2385  0.3268  0.7326
  307MPD2    C1 4670   0.816   0.531   0.517 -0.5719 -0.7764  0.8944
  307MPD2    C2 4671   0.736   0.532   0.627 -0.2596  0.8637  0.1136
  307MPD2    C3 4672   0.696   0.417   0.692  0.9635 -0.0843 -0.3281
  307MPD2    C4 4673   0.743   0.295   0.643 -0.0979 -1.2868 -0.3151
  307MPD2    C5 4674   0.830   0.293   0.538  0.5377  0.0757 -0.0742
  307MPD2     H 4675   0.686   0.626   0.650  1.1246  1.6489 -0.0898
  307MPD2    H1 4676   0.714   0.196   0.676 -0.7021 -0.9565  0.1283
  307MPD2    H2 4677   0.940   0.402   0.389  1.3027  1.1617  1.5135
  307MPD2    H3 4678   0.867   0.194   0.515  0.4875 -0.3779  1.8563
  307MPD2     N 4679   0.598   0.430   0.797  0.2440 -0.2163  0.0165
  307MPD2    H5 4680   0.545   0.516   0.805 -1.1358 -0.9983 -0.5748
  307MPD2    N1 4681   0.839   0.653   0.454  0.9758  0.1982 -0.0016
  307MPD2    H7 4682   0.785   0.733   0.486  1.9691  0.1547  1.7954
  308TMC3    C1 4683   0.248   0.363   0.968  0.1676 -1.0996 -0.1900
  308TMC3    C2 4684   0.232   0.493   1.008 -0.3478 -0.1279 -0.6384
  308TMC3    C3 4685   0.343   0.564   1.028 -0.1345  0.6194  0.1317
  308TMC3    C4 4686   0.367   0.298   0.960  0.3257 -0.3626  0.5647
  308TMC3    C5 4687   0.475   0.378   0.969  1.0715 -1.0090 -0.4470
  308TMC3    C6 4688   0.466   0.514   0.995 -0.1325 -0.8334 -0.9429
  308TMC3     C 4689   0.142   0.291   0.899  0.4914 -0.4040 -1.0473
  308TMC3     O 4690   0.147   0.172   0.899 -0.1898 -0.1440  0.3949
  308TMC3     H 4691   0.135   0.541   1.016  0.0392  0.0835  2.7785
  308TMC3    H1 4692   0.383   0.200   0.918 -0.8344 -1.0052  1.6286
  308TMC3    H2 4693   0.551   0.582   0.998 -0.6969 -0.1616 -0.1845
  308TMC3    C7 4694   0.572   0.329   0.882  0.3602  0.0206  0.3127
  308TMC3    C8 4695   0.340   0.695   1.067 -0.1178  0.5624  0.8535
  308TMC3    O1 4696   0.621   0.219   0.884 -0.8130  0.0509 -0.4774
  308TMC3    O2 4697   0.407   0.731   1.166 -0.6498 -0.5341  0.0360
  309MPD2     C 4698   4.435   0.544  17.168 -0.6167  0.0232 -0.1874
  309MPD2    C1 4699   4.332   0.568  17.073 -0.4762 -0.1409 -0.5574
  309MPD2    C2 4700   4.201   0.601  17.112  0.0361  0.3853  0.0098
  309MPD2    C3 4701   4.183   0.623  17.248 -0.0172 -0.2953  0.2912
  309MPD2    C4 4702   4.285   0.610  17.339 -0.3779 -0.3939  0.1134
  309MPD2    C5 4703   4.409   0.561  17.299 -0.1865  0.8275  0.6027
  309MPD2     H 4704   4.118   0.616  17.044  1.4795  0.2659 -1.7758
  309MPD2    H1 4705   4.276   0.625  17.446  0.3379  0.9531 -0.0104
  309MPD2    H2 4706   4.535   0.516  17.138 -0.5685  0.6952 -0.6606
  309MPD2    H3 4707   4.492   0.533  17.363 -2.0683 -0.0751  2.6535
  309MPD2     N 4708   4.054   0.665  17.303  0.2603 -0.2448  0.0395
  309MPD2    H5 4709   4.050   0.676  17.404  0.6113  0.4474 -0.0213
  309MPD2    N1 4710   4.353   0.573  16.934 -0.4892 -0.7806 -0.3585
  309MPD2    H7 4711   4.270   0.577  16.875 -0.5512  4.0610 -0.0095
  310TMC3    C1 4712   4.473   0.561  16.733  0.8300 -0.0185 -0.0736
  310TMC3    C2 4713   4.378   0.641  16.664  0.9464  0.2181 -0.6963
  310TMC3    C3 4714   4.403   0.669  16.535  0.3458 -0.5725 -0.5874
  310TMC3    C4 4715   4.587   0.520  16.676 -0.2491 -0.0245  0.4255
  310TMC3    C5 4716   4.600   0.539  16.545 -0.8407  0.4645  0.1674
  310TMC3    C6 4717   4.513   0.615  16.468 -0.8716 -0.4673 -0.0079
  310TMC3     C 4718   4.478   0.564  16.875 -0.2930 -0.0183 -0.5012
  310TMC3     O 4719   4.591   0.551  16.920 -0.5795  0.1863  0.3459
  310TMC3     H 4720   4.292   0.690  16.708 -0.0438  0.2392 -2.6798
  310TMC3    H1 4721   4.651   0.453  16.732  0.6696 -1.4242 -2.3052
  310TMC3    H2 4722   4.532   0.619  16.361 -2.3628  0.9420 -0.2202
  310TMC3    C7 4723   4.685   0.449  16.475 -0.0770 -0.1503  0.7906
  310TMC3    C8 4724   4.296   0.718  16.460 -0.0980 -0.0428 -0.1542
  310TMC3    O1 4725   4.660   0.424  16.355 -0.0512 -0.4326  0.6332
  310TMC3    O2 4726   4.185   0.706  16.515  0.3006  0.7130 -0.1221
  311MPD2     C 4727   1.172   1.925  12.528  0.3317  0.0535  0.2790
  311MPD2    C1 4728   1.268   1.897  12.621  0.0051 -0.0021  0.1941
  311MPD2    C2 4729   1.232   1.815  12.726  0.7198 -0.4421  0.3781
  311MPD2    C3 4730   1.106   1.772  12.749 -0.1364 -1.3075  0.5347
  311MPD2    C4 4731   1.016   1.797  12.650  0.1130 -0.1473 -0.0697
  311MPD2    C5 4732   1.049   1.861  12.540  0.1795 -0.3395 -0.6042
  311MPD2     H 4733   1.304   1.801  12.806  0.9428 -0.7823  0.1214
  311MPD2    H1 4734   0.922   1.744  12.634 -0.1348 -0.1585  1.3716
  311MPD2    H2 4735   1.183   1.978  12.434 -1.3177  0.7893  0.5127
  311MPD2    H3 4736   0.975   1.883  12.463 -0.6426 -2.9961 -0.5705
  311MPD2     N 4737   1.070   1.694  12.862 -0.3173 -0.2805  0.0086
  311MPD2    H5 4738   1.141   1.636  12.906 -0.5986 -1.1249 -0.6481
  311MPD2    N1 4739   1.400   1.945  12.611 -0.2676  0.0092 -0.2224
  311MPD2    H7 4740   1.475   1.911  12.670  0.1057 -0.7411 -1.1436
  312TMC3    C1 4741   0.921   1.551  12.991  0.2418  0.4605 -0.0645
  312TMC3    C2 4742   0.794   1.559  13.047 -1.0039  0.1741 -0.1340
  312TMC3    C3 4743   0.746   1.437  13.089  0.8568  0.4938  0.7982
  312TMC3    C4 4744   0.987   1.432  12.981  0.2115 -0.0848 -0.6627
  312TMC3    C5 4745   0.930   1.314  13.020 -0.4705  0.6097 -0.7932
  312TMC3    C6 4746   0.804   1.318  13.064  0.3485 -0.4598  0.5943
  312TMC3     C 4747   0.941   1.663  12.895 -0.7535 -0.2940 -0.6244
  312TMC3     O 4748   0.831   1.710  12.854  0.7584 -0.2185  0.3831
  312TMC3     H 4749   0.756   1.659  13.066 -0.7017  0.1569  0.5581
  312TMC3    H1 4750   1.076   1.428  12.918  1.0851  1.5099  0.4612
  312TMC3    H2 4751   0.763   1.230  13.111  1.7639 -2.0856 -1.2232
  312TMC3    C7 4752   1.003   1.189  13.012  0.0720 -0.1408 -0.1936
  312TMC3    C8 4753   0.606   1.430  13.100 -0.4827 -0.0944 -0.2584
  312TMC3    O1 4754   0.938   1.087  13.017 -0.3140 -0.0089 -0.3076
  312TMC3    O2 4755   0.552   1.342  13.032 -0.2478 -0.0698 -0.1434
  313MPD2     C 4756   0.126   1.457  11.870 -0.1720 -0.6969 -0.2185
  313MPD2    C1 4757   0.163   1.484  11.739 -0.3536  0.1648 -0.4767
  313MPD2    C2 4758   0.178   1.372  11.652  0.0341  0.4306  0.1563
  313MPD2    C3 4759   0.178   1.237  11.695  0.4393  0.8919 -0.1552
  313MPD2    C4 4760   0.156   1.222  11.830 -0.4559 -0.1483  0.0348
  313MPD2    C5 4761   0.131   1.326  11.912  0.5441  0.4447 -0.1984
  313MPD2     H 4762   0.210   1.402  11.553 -1.7635  0.1177 -0.5332
  313MPD2    H1 4763   0.166   1.122  11.872 -1.3532 -0.6080 -0.8589
  313MPD2    H2 4764   0.107   1.525  11.952 -2.4254 -1.6134  0.0130
  313MPD2    H3 4765   0.113   1.293  12.014 -0.5178 -0.2775 -0.6103
  313MPD2     N 4766   0.191   1.129  11.595 -0.2527 -0.0496 -0.0274
  313MPD2    H5 4767   0.209   1.158  11.500  0.1304  1.5279  0.5267
  313MPD2    N1 4768   0.161   1.615  11.687  0.3238  0.0202 -0.1777
  313MPD2    H7 4769   0.194   1.626  11.592 -0.3846 -1.3539 -0.5846
  314TMC3    C1 4770   0.153   1.835  11.672 -0.2068 -0.3878 -0.1126
  314TMC3    C2 4771   0.277   1.894  11.669  0.2852  0.0770  0.1039
  314TMC3    C3 4772   0.321   1.951  11.555  0.4609  0.8033  0.4976
  314TMC3    C4 4773   0.064   1.853  11.569 -0.4374  0.3376 -0.2708
  314TMC3    C5 4774   0.111   1.915  11.455  0.1539  0.6071  0.3164
  314TMC3    C6 4775   0.240   1.966  11.450  0.8146  0.3752 -0.0091
  314TMC3     C 4776   0.139   1.727  11.758 -0.5049 -0.4950  0.2572
  314TMC3     O 4777   0.062   1.749  11.849  0.4764  0.3843 -0.2573
  314TMC3     H 4778   0.334   1.884  11.761  0.5878 -0.4221 -0.1395
  314TMC3    H1 4779   4.705   1.800  11.572  1.0148 -2.4595 -3.3079
  314TMC3    H2 4780   0.271   2.033  11.371 -2.7634  1.7735 -0.2324
  314TMC3    C7 4781   0.040   1.859  11.342 -0.2430 -0.4458 -0.0784
  314TMC3    C8 4782   0.446   2.032  11.551  0.0855 -0.1377  0.0559
  314TMC3    O1 4783   4.657   1.862  11.352  0.2198 -0.2138 -0.7089
  314TMC3    O2 4784   0.447   2.136  11.484 -0.3689  0.2376  0.0671
  315MPD2     C 4785   0.712   0.263   0.185  0.7969  0.3067 -0.1564
  315MPD2    C1 4786   0.828   0.200   0.128  0.0017  0.2231 -0.5313
  315MPD2    C2 4787   0.931   0.280   0.070 -0.2067 -0.2894  0.2755
  315MPD2    C3 4788   0.908   0.409   0.052  0.1430 -0.5888 -0.3916
  315MPD2    C4 4789   0.787   0.460   0.093  0.2557  0.5983  0.3272
  315MPD2    C5 4790   0.695   0.390   0.165 -0.0607 -0.5133  0.0876
  315MPD2     H 4791   1.024   0.235   0.038  0.3054 -0.4701  2.0105
  315MPD2    H1 4792   0.779   0.569   0.092  0.4464  0.5763 -2.1012
  315MPD2    H2 4793   0.643   0.212   0.251  0.8502  0.4068 -0.0224
  315MPD2    H3 4794   0.610   0.436   0.214  1.2642  2.5139 -0.4906
  315MPD2     N 4795   1.014   0.487  17.736  0.4682 -0.1575  0.5251
  315MPD2    H5 4796   1.108   0.451  17.729  2.0316  4.1462 -0.4569
  315MPD2    N1 4797   0.857   0.059   0.148  0.1376  0.7275 -0.1367
  315MPD2    H7 4798   0.930   0.019   0.090 -0.5260  2.6885 -2.3173
  316TMC3    C1 4799   1.128   0.673  17.664  0.1485  0.9746  0.4254
  316TMC3    C2 4800   1.225   0.645   0.015 -0.7708  0.6750 -0.7817
  316TMC3    C3 4801   1.339   0.721   0.013  0.1953  0.1489  0.2548
  316TMC3    C4 4802   1.140   0.776  17.574  0.2316  0.2804  0.7025
  316TMC3    C5 4803   1.251   0.849  17.583 -0.0135 -0.3017 -0.4386
  316TMC3    C6 4804   1.351   0.824  17.674  0.3000  0.5066  0.0811
  316TMC3     C 4805   1.002   0.615  17.684 -0.0694 -0.4833 -0.1896
  316TMC3     O 4806   0.906   0.687  17.658 -0.7436 -0.0685 -0.3134
  316TMC3     H 4807   1.203   0.581   0.100 -0.3097  0.6982 -0.6459
  316TMC3    H1 4808   1.059   0.787  17.502 -1.8671 -2.4367  2.6688
  316TMC3    H2 4809   1.442   0.882  17.685  0.3144  0.7060 -1.0710
  316TMC3    C7 4810   1.272   0.964  17.491 -0.1676 -0.6632 -0.3817
  316TMC3    C8 4811   1.433   0.698   0.125  0.8472  0.6615  0.0561
  316TMC3    O1 4812   1.375   1.031  17.511  0.3236  0.4188 -1.0221
  316TMC3    O2 4813   1.518   0.780   0.155  0.0502  0.6308 -0.9634
  317MPD2     C 4814   2.782   3.514  12.920 -0.2917 -0.4528  0.1534
  317MPD2    C1 4815   2.887   3.429  12.903  0.7483 -0.0855 -0.5487
  317MPD2    C2 4816   2.954   3.389  13.014  0.1240  0.2945  0.9604
  317MPD2    C3 4817   2.921   3.434  13.137 -0.4454 -0.3931  0.6016
  317MPD2    C4 4818   2.827   3.534  13.159 -0.1882 -0.8247  0.1607
  317MPD2    C5 4819   2.755   3.574  13.048 -0.4685 -0.1581  0.2251
  317MPD2     H 4820   3.024   3.306  13.011 -1.6988 -1.2345  1.0141
  317MPD2    H1 4821   2.804   3.578  13.255 -1.9532  0.1048 -0.6957
  317MPD2    H2 4822   2.723   3.553  12.838 -2.0608 -0.4079  1.4478
  317MPD2    H3 4823   2.675   3.647  13.050 -0.7748 -0.4784 -0.2703
  317MPD2     N 4824   2.981   3.371  13.250  0.1414  0.1132 -0.0944
  317MPD2    H5 4825   3.035   3.286  13.235 -0.9099 -0.4509 -0.7780
  317MPD2    N1 4826   2.915   3.364  12.781  1.0115  0.0097 -0.8496
  317MPD2    H7 4827   2.985   3.292  12.774 -2.2512 -3.2937  0.2809
  318TMC3    C1 4828   3.003   3.296  13.472  0.2402  0.6611 -0.0525
  318TMC3    C2 4829   2.991   3.164  13.431  0.3861 -0.0748 -0.1203
  318TMC3    C3 4830   3.017   3.063  13.518  0.1327 -0.0692 -0.7787
  318TMC3    C4 4831   3.060   3.320  13.594  0.0529 -0.5707  0.4561
  318TMC3    C5 4832   3.099   3.216  13.668  0.4265  0.7067 -0.9952
  318TMC3    C6 4833   3.075   3.085  13.636 -0.0760  0.2449  0.3023
  318TMC3     C 4834   2.971   3.411  13.382 -0.9146  0.5664  0.0593
  318TMC3     O 4835   2.927   3.514  13.433  0.1288 -0.1379  0.1408
  318TMC3     H 4836   2.929   3.159  13.342  1.6262  1.1611 -1.0437
  318TMC3    H1 4837   3.073   3.423  13.625  0.6950 -1.0363  1.7676
  318TMC3    H2 4838   3.102   3.002  13.699  1.2472 -0.1710 -0.8140
  318TMC3    C7 4839   3.189   3.247  13.783 -0.2981 -0.0716  0.0552
  318TMC3    C8 4840   2.940   2.946  13.505  0.5876 -0.5598 -1.0079
  318TMC3    O1 4841   3.204   3.370  13.796  0.0570  0.9353  0.5558
  318TMC3    O2 4842   2.909   2.888  13.610 -0.4542  0.0241 -0.1264
  319MPD2     C 4843   4.048   4.658  15.970 -0.1516  0.6884  0.1952
  319MPD2    C1 4844   3.965   4.660  16.081 -0.4849 -0.4176 -0.2053
  319MPD2    C2 4845   3.827   4.641  16.065  0.0716 -0.8381  0.0937
  319MPD2    C3 4846   3.779   4.595  15.947  0.2058 -0.5684 -0.2229
  319MPD2    C4 4847   3.863   4.587  15.836  0.1871 -0.1545  0.6252
  319MPD2    C5 4848   3.994   4.614  15.854  0.2369 -0.8537  0.5169
  319MPD2     H 4849   3.765   4.650  16.153  0.4802  0.4766  0.2571
  319MPD2    H1 4850   3.833   4.556  15.736  1.1099  0.3843  0.1768
  319MPD2    H2 4851   4.151   4.691  15.962 -0.7721  1.3562 -4.6307
  319MPD2    H3 4852   4.053   4.601  15.764 -2.1958 -1.1396 -1.0247
  319MPD2     N 4853   3.639   4.579  15.926  0.0898 -0.2756 -0.4701
  319MPD2    H5 4854   3.605   4.562  15.832 -0.2630 -1.4285 -0.1236
  319MPD2    N1 4855   4.001   4.695  16.211  0.3294 -0.0098 -0.0285
  319MPD2    H7 4856   3.929   4.703  16.282  1.1383  0.4586  0.7472
  320TMC3    C1 4857   3.409   4.523  15.968 -0.5728 -0.5464  1.3229
  320TMC3    C2 4858   3.366   4.590  15.850  0.5974  0.2772  0.1317
  320TMC3    C3 4859   3.260   4.534  15.777 -0.0830 -0.0708 -0.8586
  320TMC3    C4 4860   3.345   4.421  16.019  0.5133  0.5240 -0.3817
  320TMC3    C5 4861   3.236   4.376  15.945  0.7366  0.3944  0.0644
  320TMC3    C6 4862   3.186   4.432  15.827  0.1193  0.4169 -0.6272
  320TMC3     C 4863   3.543   4.568  16.024 -0.0773  0.6551 -0.8414
  320TMC3     O 4864   3.560   4.548  16.142 -0.1158 -0.2177  0.1083
  320TMC3     H 4865   3.418   4.671  15.800 -2.2019  1.5404 -0.7169
  320TMC3    H1 4866   3.386   4.374  16.108 -1.4648 -0.0651  0.2103
  320TMC3    H2 4867   3.093   4.391  15.788 -1.2591  0.9002  2.1302
  320TMC3    C7 4868   3.176   4.250  15.982  0.4383 -0.3969  0.3506
  320TMC3    C8 4869   3.192   4.628  15.698 -0.4587 -0.1011  0.5018
  320TMC3    O1 4870   3.106   4.197  15.900  0.0434 -0.6418 -0.4888
  320TMC3    O2 4871   3.203   0.009  15.726 -0.0723 -0.0182 -0.5156
  321TMC3    C1 4872   4.130   0.037  16.386 -0.6434  0.7219 -0.6630
  321TMC3    C2 4873   4.019   0.056  16.463 -0.3111 -0.2506  0.5936
  321TMC3    C3 4874   4.020   0.149  16.565  0.6699  0.0120 -0.5304
  321TMC3    C4 4875   4.247   0.099  16.419  0.2837 -0.0730  0.2631
  321TMC3    C5 4876   4.243   0.197  16.516  0.2611  0.3562 -0.0505
  321TMC3    C6 4877   4.131   0.225  16.587 -0.1815  0.2513 -0.1974
  321TMC3     C 4878   4.127   4.724  16.250 -0.7649 -0.9623 -0.1562
  321TMC3     O 4879   4.233   0.009  16.192  0.2414 -0.0094  0.1305
  321TMC3     H 4880   3.920   0.028  16.430  0.1431 -0.1875 -0.8202
  321TMC3    H1 4881   4.337   0.076  16.362  0.6821 -0.9044  1.2129
  321TMC3    H2 4882   4.128   0.314  16.648 -0.7656 -0.8826  1.4118
  321TMC3    C7 4883   4.367   0.220  16.577  0.4076  0.2086  0.3901
  321TMC3    C8 4884   3.991   0.108  16.699 -0.0398  0.2542 -0.0908
  321TMC3    O1 4885   4.464   0.198  16.510 -0.0205 -0.3390  0.5360
  321TMC3    O2 4886   4.059   0.150  16.790 -0.2461 -0.6337 -0.4138
  322MPD2     C 4887   2.327   1.212  13.519 -0.6811 -0.1308 -0.8413
  322MPD2    C1 4888   2.350   1.146  13.639 -0.9721  0.3998  0.0506
  322MPD2    C2 4889   2.382   1.014  13.639  0.4457  0.5870  0.6531
  322MPD2    C3 4890   2.405   0.951  13.513 -0.8895 -0.5852  0.2073
  322MPD2    C4 4891   2.384   1.012  13.394 -0.0044 -0.9315  0.2910
  322MPD2    C5 4892   2.347   1.145  13.398 -0.3410  0.3130 -0.1451
  322MPD2     H 4893   2.411   0.966  13.732  0.8121  0.3411  0.4102
  322MPD2    H1 4894   2.393   0.967  13.296  2.5699  1.4269 -0.5584
  322MPD2    H2 4895   2.287   1.312  13.509  1.3438  0.6131 -1.5131
  322MPD2    H3 4896   2.312   1.189  13.305  0.9804 -0.7388 -1.1306
  322MPD2     N 4897   2.455   0.822  13.526  0.5466  0.1939  0.6182
  322MPD2    H5 4898   2.500   0.793  13.612 -0.1927  0.9166  1.2467
  322MPD2    N1 4899   2.361   1.225  13.762  0.3125  0.4051  0.4082
  322MPD2    H7 4900   2.348   1.326  13.758  1.2476  0.5226  0.2310
  323TMC3    C1 4901   2.448   1.264  13.989 -0.0676 -0.0620 -0.2364
  323TMC3    C2 4902   2.554   1.333  13.944 -0.6685  0.4643 -0.1821
  323TMC3    C3 4903   2.633   1.393  14.036  0.0022  0.1505 -0.2192
  323TMC3    C4 4904   2.438   1.241  14.125  0.5434  0.3768  0.1105
  323TMC3    C5 4905   2.521   1.305  14.218  1.1039 -0.0539 -0.6271
  323TMC3    C6 4906   2.628   1.377  14.174  0.5810 -0.0272  0.4814
  323TMC3     C 4907   2.384   1.176  13.887  0.1266  0.4579  0.4395
  323TMC3     O 4908   2.354   1.066  13.926  0.2911  0.2456 -0.1447
  323TMC3     H 4909   2.578   1.336  13.838 -1.1900  3.6018 -0.2104
  323TMC3    H1 4910   2.364   1.172  14.164  0.5221  0.3309 -0.0101
  323TMC3    H2 4911   2.702   1.415  14.244  0.6852 -0.6987  0.7318
  323TMC3    C7 4912   2.541   1.228  14.339 -0.0997 -0.0288  0.0966
  323TMC3    C8 4913   2.763   1.423  13.980 -0.2267  0.1388 -0.1895
  323TMC3    O1 4914   2.514   1.107  14.331 -0.7335  0.3739 -0.5455
  323TMC3    O2 4915   2.853   1.391  14.059  0.0246  0.2389 -0.4417
  324MPD2     C 4916   4.256   2.191  14.587  0.5837 -0.0367 -0.4815
  324MPD2    C1 4917   4.213   2.269  14.696 -0.0355  0.7687 -0.7652
  324MPD2    C2 4918   4.079   2.291  14.721 -0.3310  0.3692  0.2661
  324MPD2    C3 4919   3.981   2.226  14.644 -0.4790  0.2857  0.1607
  324MPD2    C4 4920   4.023   2.144  14.542 -0.0739 -0.1444  0.1147
  324MPD2    C5 4921   4.158   2.131  14.510 -0.4347 -0.5293  0.2417
  324MPD2     H 4922   4.062   2.354  14.808  0.3891 -0.2381  0.8426
  324MPD2    H1 4923   3.954   2.097  14.473 -0.0075 -0.0979  0.0162
  324MPD2    H2 4924   4.362   2.179  14.569  0.7919 -0.6129  1.1431
  324MPD2    H3 4925   4.184   2.071  14.424 -0.7351 -0.1069 -0.1455
  324MPD2     N 4926   3.849   2.242  14.664 -0.1457  0.3770  0.0171
  324MPD2    H5 4927   3.796   2.172  14.613 -1.2785  0.8771  0.5108
  324MPD2    N1 4928   4.303   2.357  14.757  0.0381 -0.3837 -0.3275
  324MPD2    H7 4929   4.260   2.427  14.816  0.2740  0.8496 -1.6058
  325TMC3    C1 4930   3.643   2.301  14.742 -0.0152  0.6232 -0.4664
  325TMC3    C2 4931   3.586   2.190  14.684 -0.3018 -0.3295  0.5249
  325TMC3    C3 4932   3.452   2.179  14.671  0.3346 -0.1101  0.0314
  325TMC3    C4 4933   3.576   2.411  14.769 -0.7819 -0.1662 -0.2639
  325TMC3    C5 4934   3.440   2.406  14.748 -0.9025  0.2601  0.1143
  325TMC3    C6 4935   3.378   2.291  14.710 -0.6380 -0.0129  0.0124
  325TMC3     C 4936   3.786   2.325  14.751 -0.2041  0.1826  0.1139
  325TMC3     O 4937   3.831   2.431  14.794  0.5993 -0.0999  0.0255
  325TMC3     H 4938   3.639   2.101  14.651  0.4500  0.2703  0.1236
  325TMC3    H1 4939   3.622   2.500  14.810 -1.0485  0.7832 -2.0219
  325TMC3    H2 4940   3.275   2.291  14.677 -0.0694 -0.3156 -1.7745
  325TMC3    C7 4941   3.361   2.519  14.756  0.0463 -0.4493 -0.1778
  325TMC3    C8 4942   3.397   2.079  14.592 -0.4261 -0.0246  0.2081
  325TMC3    O1 4943   3.415   2.618  14.712  0.3659  0.7165 -0.1252
  325TMC3    O2 4944   3.483   2.009  14.544 -0.2420 -0.5024  0.1357
  326MPD2     C 4945   0.185   3.445  11.624  0.5501  0.3969 -0.1992
  326MPD2    C1 4946   0.142   3.524  11.519  0.3791  0.2735  0.2110
  326MPD2    C2 4947   0.237   3.577  11.431  0.0319  0.2787  0.1895
  326MPD2    C3 4948   0.372   3.552  11.452  0.1163  0.1307 -0.0117
  326MPD2    C4 4949   0.417   3.494  11.565 -0.0224 -0.3229 -0.0424
  326MPD2    C5 4950   0.321   3.437  11.649  0.3302  0.3844  0.0391
  326MPD2     H 4951   0.200   3.625  11.341 -0.7650  1.4208  1.1213
  326MPD2    H1 4952   0.522   3.482  11.590 -0.7537 -1.6748  2.3561
  326MPD2    H2 4953   0.117   3.402  11.697 -0.3011  0.5186 -0.9207
  326MPD2    H3 4954   0.360   3.387  11.737 -0.9828 -1.5973 -0.5013
  326MPD2     N 4955   0.467   3.599  11.364 -0.1263  0.4057  0.1431
  326MPD2    H5 4956   0.563   3.604  11.395 -0.8586  0.7145  2.3614
  326MPD2    N1 4957   0.008   3.560  11.497  0.0977 -1.2571 -0.1076
  326MPD2    H7 4958   4.723   3.625  11.422  0.5738 -0.1595  0.7144
  327TMC3    C1 4959   4.518   3.526  11.499 -0.0855  0.5173 -0.5154
  327TMC3    C2 4960   4.445   3.641  11.504 -0.2438  0.0800  0.1283
  327TMC3    C3 4961   4.398   3.688  11.386  0.0503  0.3098  0.5817
  327TMC3    C4 4962   4.532   3.461  11.381 -0.2325 -0.1293 -0.4779
  327TMC3    C5 4963   4.474   3.504  11.269  0.4010 -0.1638 -0.4608
  327TMC3    C6 4964   4.402   3.621  11.268  0.5009 -0.3711 -0.0414
  327TMC3     C 4965   4.644   3.517  11.574 -0.3643  0.4616  0.5882
  327TMC3     O 4966   4.641   3.463  11.686 -0.3314  0.6283  0.2260
  327TMC3     H 4967   4.459   3.708  11.588  0.9642 -1.6499  1.2993
  327TMC3    H1 4968   4.581   3.364  11.377 -0.5851 -0.3083 -0.3950
  327TMC3    H2 4969   4.354   3.661  11.179  1.8594  2.1812  0.3684
  327TMC3    C7 4970   4.553   3.486  11.148 -0.5441 -0.4260  0.4997
  327TMC3    C8 4971   4.319   3.806  11.395 -0.5617 -0.1554 -0.3201
  327TMC3    O1 4972   4.503   3.504  11.038  0.0584  0.1385 -0.1291
  327TMC3    O2 4973   4.290   3.850  11.507 -0.2655  0.2096 -0.0157
  328MPD2     C 4974   3.524   3.798  17.114  0.3746 -0.8952  0.1204
  328MPD2    C1 4975   3.431   3.732  17.188  0.2516 -0.5893  0.1128
  328MPD2    C2 4976   3.308   3.702  17.134 -0.0092  0.7202 -0.2491
  328MPD2    C3 4977   3.279   3.747  17.006 -0.3806 -0.0486  0.1479
  328MPD2    C4 4978   3.361   3.833  16.942  0.4277 -0.4808  0.1043
  328MPD2    C5 4979   3.487   3.852  16.991 -0.2628 -0.5202 -0.4959
  328MPD2     H 4980   3.245   3.629  17.185  0.9889 -1.0186 -1.4767
  328MPD2    H1 4981   3.335   3.869  16.844  4.7155  1.7370 -0.2088
  328MPD2    H2 4982   3.625   3.810  17.151 -0.5240  0.8024  2.0159
  328MPD2    H3 4983   3.562   3.899  16.929  0.7868 -1.5388  0.0024
  328MPD2     N 4984   3.163   3.722  16.938  0.0983 -0.1457  0.6070
  328MPD2    H5 4985   3.151   3.764  16.846 -1.5254 -0.2931  0.7656
  328MPD2    N1 4986   3.476   3.684  17.315 -0.6403 -0.4490  0.1941
  328MPD2    H7 4987   3.574   3.697  17.338 -0.8054 -0.4441  0.8991
  329TMC3    C1 4988   3.476   3.586  17.521  0.1040  0.5168  0.7530
  329TMC3    C2 4989   3.457   3.652  17.638 -0.3059 -0.4811  0.0848
  329TMC3    C3 4990   3.570   3.650  17.724  0.7980 -0.5395  0.0505
  329TMC3    C4 4991   3.594   3.530  17.484 -0.8819  0.3498 -0.0111
  329TMC3    C5 4992   3.703   3.536  17.565 -0.4842  0.4055  0.4578
  329TMC3    C6 4993   3.694   3.587  17.690  0.1260 -0.7357  0.6808
  329TMC3     C 4994   3.395   3.629  17.408 -0.3053  0.1957  0.0146
  329TMC3     O 4995   3.274   3.632  17.418  0.0665 -0.1755 -0.0200
  329TMC3     H 4996   3.356   3.671  17.672 -0.1972  1.5216 -0.6937
  329TMC3    H1 4997   3.584   3.469  17.396  1.0203  0.6761 -0.4548
  329TMC3    H2 4998   3.778   3.581   0.016  1.5516 -0.5471 -1.0484
  329TMC3    C7 4999   3.836   3.530  17.499 -0.1017 -0.7170 -0.6909
  329TMC3    C8 5000   3.565   3.697   0.119  0.1070  0.1863  0.4871
  329TMC3    O1 5001   3.928   3.578  17.562  0.3349  0.0126  0.2506
  329TMC3    O2 5002   3.661   3.661   0.191  0.1334 -0.0648  0.7245
  330TMC3    C1 5003   0.699   3.379   9.808  0.3810  0.4237  0.2750
  330TMC3    C2 5004   0.630   3.296   9.718 -0.4771 -0.3342  0.4644
  330TMC3    C3 5005   0.636   3.157   9.740  0.7486 -0.2190  0.7476
  330TMC3    C4 5006   0.771   3.329   9.910 -0.1744  0.1742  0.0304
  330TMC3    C5 5007   0.768   3.190   9.927 -0.3855 -0.3129 -0.1783
  330TMC3    C6 5008   0.691   3.106   9.850 -0.7783 -0.1935  0.3223
  330TMC3     C 5009   0.658   3.514   9.827 -0.0141 -0.2344  0.6678
  330TMC3     O 5010   0.725   3.588   9.898 -0.6613  0.0593 -0.6633
  330TMC3     H 5011   0.584   3.336   9.629  0.3356 -1.7623 -0.5859
  330TMC3    H1 5012   0.801   3.391   9.994 -2.0973  2.0276 -0.6659
  330TMC3    H2 5013   0.695   3.001   9.876  0.3345  0.1810  1.6424
  330TMC3    C7 5014   0.852   3.145  10.040 -0.1225 -0.4030  0.1144
  330TMC3    C8 5015   0.521   3.094   9.667  0.1923 -0.4366 -0.0331
  330TMC3    O1 5016   0.870   3.229  10.133  0.5437  0.1082  0.2752
  330TMC3    O2 5017   0.447   3.175   9.612  0.7738  0.3914  0.4624
  331MPD2     C 5018   4.299   2.169  12.840  0.5056  0.5759  0.0475
  331MPD2    C1 5019   4.252   2.210  12.717 -0.0959 -0.4709 -0.6355
  331MPD2    C2 5020   4.136   2.162  12.660  0.3690 -0.3939  0.3110
  331MPD2    C3 5021   4.069   2.066  12.739 -0.2148  0.7318 -0.2489
  331MPD2    C4 5022   4.118   2.026  12.861  1.2652 -0.9444 -0.7142
  331MPD2    C5 5023   4.238   2.072  12.912 -0.3356 -0.0512  0.2299
  331MPD2     H 5024   4.113   2.182  12.556  0.7659 -0.7903  0.1488
  331MPD2    H1 5025   4.063   1.964  12.930 -0.6881 -1.8093 -3.0696
  331MPD2    H2 5026   4.391   2.214  12.876  0.6277 -0.0943  0.5617
  331MPD2    H3 5027   4.276   2.048  13.010  0.1277 -1.3673 -0.2668
  331MPD2     N 5028   3.955   2.011  12.684  0.1483 -0.5588 -0.4118
  331MPD2    H5 5029   3.924   1.928  12.733 -0.7912  1.3106  2.1395
  331MPD2    N1 5030   4.340   2.300  12.653 -0.0780 -0.0313  0.3443
  331MPD2    H7 5031   4.434   2.307  12.690  0.4446 -1.8732 -0.6561
  332TMC3    C1 5032   3.812   1.939  12.523  0.1179  0.2085  0.6500
  332TMC3    C2 5033   3.698   1.986  12.462  0.0493  0.2497 -0.3217
  332TMC3    C3 5034   3.629   1.900  12.379  0.9090  0.0810  0.1517
  332TMC3    C4 5035   3.863   1.817  12.500 -0.0730  0.0424 -0.2143
  332TMC3    C5 5036   3.790   1.729  12.421  0.1095 -0.2582 -0.2121
  332TMC3    C6 5037   3.676   1.771  12.358 -0.2495  0.1087 -0.0281
  332TMC3     C 5038   3.898   2.041  12.563  0.2947 -0.0593 -0.4950
  332TMC3     O 5039   3.883   2.151  12.511  0.1208 -0.5806 -0.2212
  332TMC3     H 5040   3.670   2.091  12.455 -1.0020 -0.1059 -1.5687
  332TMC3    H1 5041   3.955   1.789  12.552 -0.6155 -0.4820  0.4641
  332TMC3    H2 5042   3.637   1.709  12.279 -0.3436  0.7927 -0.5223
  332TMC3    C7 5043   3.841   1.595  12.386 -0.2785  0.1434 -0.3851
  332TMC3    C8 5044   3.549   1.963  12.272  0.7295  0.5176  0.5751
  332TMC3    O1 5045   3.765   1.512  12.329 -0.0628  0.6153 -0.1159
  332TMC3    O2 5046   3.554   2.083  12.245 -0.6217  0.3633 -0.1661
  333MPD2     C 5047   4.066   1.917  11.431  0.4201 -0.0582  0.5611
  333MPD2    C1 5048   4.005   1.934  11.304  0.3769  0.1050 -0.1459
  333MPD2    C2 5049   3.876   1.901  11.288 -0.3219  0.2067  0.1111
  333MPD2    C3 5050   3.801   1.849  11.393 -0.4377 -0.1164  0.6875
  333MPD2    C4 5051   3.858   1.839  11.521  0.3672 -0.6172  0.3935
  333MPD2    C5 5052   3.989   1.866  11.535 -0.6704 -0.3318  0.0447
  333MPD2     H 5053   3.837   1.901  11.187  2.2097  0.4673 -0.8636
  333MPD2    H1 5054   3.800   1.809  11.608 -0.0438  0.5604  0.5300
  333MPD2    H2 5055   4.168   1.950  11.446  0.4823 -0.0871  0.2033
  333MPD2    H3 5056   4.034   1.856  11.633 -2.1312 -0.1431  0.7405
  333MPD2     N 5057   3.673   1.797  11.367  0.2627  0.3362 -0.5694
  333MPD2    H5 5058   3.634   1.806  11.274  0.3746 -0.6086 -0.7089
  333MPD2    N1 5059   4.090   1.973  11.196  0.4607 -0.1302 -0.0358
  333MPD2    H7 5060   4.189   1.968  11.215 -0.1461 -2.3661  2.5521
  334TMC3    C1 5061   4.143   2.063  10.982 -0.1328  0.3174 -0.6149
  334TMC3    C2 5062   4.271   2.006  10.965  0.8292  0.7735  0.4553
  334TMC3    C3 5063   4.365   2.088  10.896  0.0453 -0.2016  0.2185
  334TMC3    C4 5064   4.110   2.188  10.919  0.0699 -0.0442 -0.4161
  334TMC3    C5 5065   4.207   2.253  10.842  0.3117 -0.1362  0.1146
  334TMC3    C6 5066   4.336   2.211  10.841  0.0018 -0.5465  0.2551
  334TMC3     C 5067   4.044   2.024  11.082 -0.2060 -0.4002 -0.1800
  334TMC3     O 5068   3.941   2.085  11.070 -0.1791  0.3453  0.2837
  334TMC3     H 5069   4.297   1.909  11.004  2.5413  0.2097 -2.0322
  334TMC3    H1 5070   4.007   2.220  10.933  0.0944 -0.2881  0.3223
  334TMC3    H2 5071   4.399   2.262  10.769  0.4417  0.3160  1.2429
  334TMC3    C7 5072   4.186   2.389  10.800 -0.2734  0.0522 -0.5827
  334TMC3    C8 5073   4.463   2.003  10.841 -0.0084  0.7348  0.1503
  334TMC3    O1 5074   4.281   2.462  10.763  0.0730 -0.6870 -0.4285
  334TMC3    O2 5075   4.429   1.890  10.811  0.5977  0.1529 -0.1480
  335TMC3    C1 5076   4.421   3.325  17.724 -0.4700  0.4135 -0.2621
  335TMC3    C2 5077   4.365   3.260  17.617  0.4401  0.3280 -0.4307
  335TMC3    C3 5078   4.311   3.336  17.513  0.4398 -0.0034 -0.1050
  335TMC3    C4 5079   4.430   3.460  17.735  0.5227  0.1946 -0.6422
  335TMC3    C5 5080   4.375   3.536  17.631  0.0423  0.5779 -0.0950
  335TMC3    C6 5081   4.310   3.471  17.528 -0.5025 -0.4460 -0.4031
  335TMC3     C 5082   4.507   3.245   0.059  0.3684 -0.7474  0.3692
  335TMC3     O 5083   4.572   3.163   0.001 -0.5209 -0.0703 -0.4893
  335TMC3     H 5084   4.363   3.152  17.617 -1.7576  0.3685  0.8746
  335TMC3    H1 5085   4.492   3.499   0.073  3.1927 -1.8015 -1.7518
  335TMC3    H2 5086   4.300   3.525  17.434 -0.2251  0.7656  0.2661
  335TMC3    C7 5087   4.446   3.650  17.580  0.0125  0.4813 -0.7728
  335TMC3    C8 5088   4.254   3.278  17.393  0.1652 -0.3661  0.0306
  335TMC3    O1 5089   4.566   3.636  17.548 -0.9197  0.0112 -0.2327
  335TMC3    O2 5090   4.270   3.339  17.289  0.5730  0.1946 -0.2342
  336MPD2     C 5091   3.199   1.105  16.330  0.5758  0.2203  0.2826
  336MPD2    C1 5092   3.220   1.075  16.197 -0.4263 -0.3614 -0.0192
  336MPD2    C2 5093   3.259   0.951  16.164 -0.2202  0.2847 -0.1454
  336MPD2    C3 5094   3.258   0.851  16.261 -0.4710  0.2725 -0.6343
  336MPD2    C4 5095   3.234   0.880  16.396 -0.0041  0.6248  0.0012
  336MPD2    C5 5096   3.198   1.008  16.425  0.1062 -0.3783  0.7611
  336MPD2     H 5097   3.295   0.936  16.063  0.2863  0.7208 -0.0303
  336MPD2    H1 5098   3.232   0.811  16.479  0.8629  0.5892 -0.0050
  336MPD2    H2 5099   3.159   1.197  16.371  2.0639  0.7373  0.5749
  336MPD2    H3 5100   3.160   1.019  16.526 -0.5511 -0.3934  0.5127
  336MPD2     N 5101   3.270   0.711  16.235  0.2478  0.5403  0.0200
  336MPD2    H5 5102   3.274   0.655  16.319 -3.2333  0.1265 -0.0978
  336MPD2    N1 5103   3.188   1.177  16.094 -0.0399  0.0013 -0.4944
  336MPD2    H7 5104   3.213   1.163  15.996  2.0696 -0.2211  0.0676
  337TMC3    C1 5105   3.111   1.385  15.994 -0.4861  0.0075  0.3189
  337TMC3    C2 5106   2.998   1.460  15.992 -0.0972  0.4641  0.2959
  337TMC3    C3 5107   2.952   1.514  15.879 -0.0694  0.2760 -0.1527
  337TMC3    C4 5108   3.172   1.360  15.878  0.2451  0.4755  1.0465
  337TMC3    C5 5109   3.146   1.435  15.769  0.2548  0.2874  0.0526
  337TMC3    C6 5110   3.031   1.505  15.762  0.6090  0.1189  0.5605
  337TMC3     C 5111   3.125   1.297  16.119 -0.2770 -0.3321 -0.4058
  337TMC3     O 5112   3.081   1.346  16.222 -0.0669 -0.4452  0.0044
  337TMC3     H 5113   2.942   1.484  16.081  0.7739  0.2509  0.8979
  337TMC3    H1 5114   3.267   1.308  15.877  0.2357  0.4607  0.9077
  337TMC3    H2 5115   3.002   1.578  15.687 -1.6676 -0.4580  0.8655
  337TMC3    C7 5116   3.216   1.421  15.647 -0.7459  0.3254  0.2293
  337TMC3    C8 5117   2.804   1.542  15.869 -0.3336 -0.3006 -0.0441
  337TMC3    O1 5118   3.202   1.509  15.567  1.1843 -0.3363  0.3456
  337TMC3    O2 5119   2.740   1.525  15.976 -0.4236 -0.3641 -0.1158
  338MPD2     C 5120   4.189   1.070   1.157 -0.3361  0.2712 -0.1949
  338MPD2    C1 5121   4.094   1.069   1.060  0.8612 -0.2387  0.9216
  338MPD2    C2 5122   4.020   1.185   1.056 -0.2599 -0.8453  0.0361
  338MPD2    C3 5123   4.030   1.292   1.150 -0.2646 -0.0371 -0.3111
  338MPD2    C4 5124   4.120   1.284   1.257 -0.3171  0.0318 -0.4805
  338MPD2    C5 5125   4.204   1.177   1.246 -0.2789  0.4659  0.0089
  338MPD2     H 5126   3.959   1.202   0.968 -0.0278 -1.6493 -0.2757
  338MPD2    H1 5127   4.139   1.369   1.322 -1.3896  1.0888 -1.5552
  338MPD2    H2 5128   4.256   0.985   1.166  1.4001  1.3127 -3.1215
  338MPD2    H3 5129   4.278   1.174   1.325 -1.2218 -0.2078  0.8644
  338MPD2     N 5130   3.946   1.398   1.136  0.5765  0.0851 -0.0615
  338MPD2    H5 5131   3.871   1.387   1.068  0.1647 -0.1726  0.4282
  338MPD2    N1 5132   4.079   0.964   0.963 -0.3140  0.5333 -0.4287
  338MPD2    H7 5133   3.995   0.963   0.905 -0.4052 -0.3244 -0.2750
  339TMC3    C1 5134   3.800   1.567   1.177  0.1710 -0.3710  0.5394
  339TMC3    C2 5135   3.715   1.583   1.286 -0.3539  0.3884  0.0651
  339TMC3    C3 5136   3.596   1.525   1.283 -0.0926 -0.1210 -0.0799
  339TMC3    C4 5137   3.751   1.519   1.060  0.2507  0.0161  0.2311
  339TMC3    C5 5138   3.617   1.486   1.049  0.2393 -0.6536  0.6655
  339TMC3    C6 5139   3.537   1.489   1.161 -0.2205 -0.0741  0.0432
  339TMC3     C 5140   3.928   1.513   1.216  0.3252  0.2660 -0.4349
  339TMC3     O 5141   3.991   1.554   1.311 -0.5215  0.4067  0.3605
  339TMC3     H 5142   3.754   1.611   1.383 -0.2448 -1.2409  0.4851
  339TMC3    H1 5143   3.810   1.519   0.968  1.2879 -0.6492  0.8929
  339TMC3    H2 5144   3.438   1.443   1.157  0.4078 -1.4658  0.6740
  339TMC3    C7 5145   3.574   1.415   0.931  0.0636  0.2034  0.4491
  339TMC3    C8 5146   3.523   1.515   1.406 -0.1259 -0.4284 -0.3478
  339TMC3    O1 5147   3.655   1.411   0.844  0.0310  0.1988 -0.3145
  339TMC3    O2 5148   3.563   1.579   1.503 -0.0926  0.1528 -0.1271
  340MPD2     C 5149   3.141   3.115  10.115 -0.3870  0.6141  0.6163
  340MPD2    C1 5150   3.236   3.039  10.182 -0.1330  0.5799  0.1649
  340MPD2    C2 5151   3.347   3.102  10.241  0.1099 -0.0947  0.7710
  340MPD2    C3 5152   3.362   3.240  10.219 -1.0718  0.0370 -0.3694
  340MPD2    C4 5153   3.256   3.317  10.165 -0.1235 -0.0350  0.1130
  340MPD2    C5 5154   3.151   3.252  10.113  0.2666  0.8410 -0.5407
  340MPD2     H 5155   3.416   3.046  10.304 -1.9499 -0.3141  2.8176
  340MPD2    H1 5156   3.262   3.424  10.149  2.6957 -0.6938 -3.2523
  340MPD2    H2 5157   3.057   3.063  10.070 -0.5538  2.2419 -0.9889
  340MPD2    H3 5158   3.073   3.314  10.070 -0.3543  0.9068  0.6712
  340MPD2     N 5159   3.484   3.301  10.245 -0.9403  0.6160 -0.5676
  340MPD2    H5 5160   3.488   3.401  10.232  0.4657  0.6068 -0.1766
  340MPD2    N1 5161   3.215   2.901  10.188  0.3020  0.3247 -0.5010
  340MPD2    H7 5162   3.128   2.861  10.155  0.9679 -1.3738 -0.1830
  341TMC3    C1 5163   3.269   2.671  10.220  0.3127 -0.0327 -0.2555
  341TMC3    C2 5164   3.148   2.635  10.277 -0.8609  0.3079  0.5222
  341TMC3    C3 5165   3.126   2.501  10.293  0.2633  0.8742  0.4439
  341TMC3    C4 5166   3.364   2.579  10.182  0.2819  0.0458  0.0441
  341TMC3    C5 5167   3.330   2.441  10.208 -0.4103 -0.0805 -0.3331
  341TMC3    C6 5168   3.207   2.400  10.257 -0.5829 -0.8651  0.7299
  341TMC3     C 5169   3.313   2.811  10.213  0.7272 -0.0062  0.0443
  341TMC3     O 5170   3.436   2.826  10.209  0.0485 -0.1632  0.0505
  341TMC3     H 5171   3.079   2.704  10.324 -0.5469 -0.4095  2.0503
  341TMC3    H1 5172   3.458   2.598  10.131 -0.7382 -0.8756 -2.2033
  341TMC3    H2 5173   3.173   2.297  10.265 -0.6145 -0.9619 -0.5630
  341TMC3    C7 5174   3.432   2.345  10.219  0.2816 -0.3046  0.1000
  341TMC3    C8 5175   3.004   2.455  10.356  0.3490 -0.6734 -0.5903
  341TMC3    O1 5176   3.531   2.340  10.143  0.0203  1.0814 -0.1065
  341TMC3    O2 5177   2.898   2.518  10.348  0.8105  0.0160  0.6465
  342MPD2     C 5178   1.824   1.612  17.487 -0.1372 -0.5713  0.0475
  342MPD2    C1 5179   1.899   1.629  17.371  0.3431  0.8065  0.2778
  342MPD2    C2 5180   1.933   1.759  17.331 -0.4712  0.3567 -0.3268
  342MPD2    C3 5181   1.866   1.861  17.403  0.5617  1.2560  0.5423
  342MPD2    C4 5182   1.782   1.835  17.512  0.3454  0.5190  0.1194
  342MPD2    C5 5183   1.768   1.707  17.557  0.1654  0.6547 -0.2984
  342MPD2     H 5184   1.997   1.774  17.244 -0.4773 -2.4258 -0.8280
  342MPD2    H1 5185   1.714   1.902  17.564 -0.5407  0.1586 -0.5826
  342MPD2    H2 5186   1.795   1.514  17.523 -0.7936 -0.3392  0.1532
  342MPD2    H3 5187   1.700   1.686  17.638  2.3449  0.0939  1.3846
  342MPD2     N 5188   1.894   1.999  17.367  0.0949 -0.4834  0.0101
  342MPD2    H5 5189   1.977   2.011  17.311 -0.7420 -2.4826 -1.6317
  342MPD2    N1 5190   1.953   1.522  17.296  0.2520 -0.1073  0.0894
  342MPD2    H7 5191   2.004   1.539  17.210  2.1836 -5.0896  0.2846
  343TMC3    C1 5192   1.965   1.304  17.230  0.2787 -0.3646  0.3933
  343TMC3    C2 5193   1.956   1.349  17.100  0.6551  0.0454 -0.0425
  343TMC3    C3 5194   1.927   1.256  17.001  0.0862  0.2005  0.2896
  343TMC3    C4 5195   1.944   1.167  17.266 -0.6182 -0.5775 -0.0741
  343TMC3    C5 5196   1.918   1.081  17.165  1.2697 -0.9490  0.4191
  343TMC3    C6 5197   1.909   1.119  17.034 -0.7087  0.3920 -0.0577
  343TMC3     C 5198   1.947   1.395  17.335  0.1143  0.3326  0.4906
  343TMC3     O 5199   1.928   1.344  17.444  0.2441  0.1401  0.1794
  343TMC3     H 5200   1.979   1.453  17.079  1.9568 -0.0224  1.0747
  343TMC3    H1 5201   1.962   1.135  17.368  2.5008 -1.1611 -0.8386
  343TMC3    H2 5202   1.886   1.044  16.959  1.2767  0.6085 -0.8757
  343TMC3    C7 5203   1.885   0.940  17.187  0.2898 -0.8943  0.1307
  343TMC3    C8 5204   1.986   1.297  16.872  0.1932  0.5230  0.4648
  343TMC3    O1 5205   1.832   0.881  17.098  0.7575  0.0008 -0.2133
  343TMC3    O2 5206   2.018   1.414  16.851  0.4592 -0.0226 -0.5167
  344MPD2     C 5207   2.397   1.299  11.333 -0.3581 -0.4372 -0.5490
  344MPD2    C1 5208   2.302   1.275  11.232 -0.6148 -0.0235 -0.3456
  344MPD2    C2 5209   2.274   1.376  11.139 -0.1375 -0.6638 -0.5309
  344MPD2    C3 5210   2.342   1.497  11.149 -0.1693 -0.3643 -0.2403
  344MPD2    C4 5211   2.440   1.506  11.244 -1.0701  0.5901  0.0886
  344MPD2    C5 5212   2.467   1.416  11.336  0.5583  0.0753  0.0010
  344MPD2     H 5213   2.197   1.356  11.065  0.6609  1.7866 -1.9913
  344MPD2    H1 5214   2.500   1.597  11.246 -1.2128  0.5992  2.7285
  344MPD2    H2 5215   2.434   1.223  11.400  1.3119  1.3665  0.5803
  344MPD2    H3 5216   2.545   1.432  11.410  1.8990  3.8978 -2.2740
  344MPD2     N 5217   2.327   1.604  11.061 -0.2240  0.3874  0.4427
  344MPD2    H5 5218   2.389   1.682  11.082  0.7638 -1.5182  4.6487
  344MPD2    N1 5219   2.232   1.147  11.222 -0.6681 -0.5602  0.2200
  344MPD2    H7 5220   2.153   1.138  11.159 -1.0424 -1.4986  0.8365
  345TMC3    C1 5221   2.270   1.747  10.881  0.2143 -0.1603 -0.1387
  345TMC3    C2 5222   2.400   1.791  10.867 -0.0277  0.2020  0.2075
  345TMC3    C3 5223   2.415   1.923  10.821 -0.2209  0.0159 -0.6222
  345TMC3    C4 5224   2.162   1.817  10.835  0.4727 -0.1084  0.4841
  345TMC3    C5 5225   2.190   1.942  10.774  0.5951 -0.2321 -0.1872
  345TMC3    C6 5226   2.317   2.004  10.777 -0.0799 -0.2689  0.5633
  345TMC3     C 5227   2.242   1.625  10.956 -0.1537  0.5086 -0.1110
  345TMC3     O 5228   2.149   1.550  10.927 -0.0598 -0.4133 -0.3038
  345TMC3     H 5229   2.480   1.722  10.891 -1.0239 -0.7055  0.8989
  345TMC3    H1 5230   2.068   1.765  10.841 -1.0836  2.6392 -0.0938
  345TMC3    H2 5231   2.332   2.103  10.735 -0.9479  0.7179  2.5796
  345TMC3    C7 5232   2.087   2.018  10.708 -0.1254 -0.2339 -1.1830
  345TMC3    C8 5233   2.527   1.998  10.871 -0.1560  0.5772  0.5908
  345TMC3    O1 5234   2.111   2.132  10.672  0.1693 -0.1090  0.0372
  345TMC3    O2 5235   2.527   2.121  10.853  0.3920 -0.4023 -0.0822
  346MPD2     C 5236   2.399   2.168  14.178 -0.1159  0.5272 -0.2594
  346MPD2    C1 5237   2.427   2.302  14.188  0.4643 -0.7220 -0.1983
  346MPD2    C2 5238   2.412   2.366  14.310  0.3789  1.0686  0.1706
  346MPD2    C3 5239   2.376   2.296  14.423 -0.1168 -0.7111 -0.5237
  346MPD2    C4 5240   2.346   2.157  14.413  0.1637  0.2032  0.6817
  346MPD2    C5 5241   2.348   2.100  14.287  0.2400 -0.3189  0.0339
  346MPD2     H 5242   2.446   2.469  14.315  1.2800  0.7193  1.2331
  346MPD2    H1 5243   2.322   2.092  14.496 -0.3114  0.2204  0.5583
  346MPD2    H2 5244   2.408   2.106  14.089 -1.3235  0.3061 -0.2372
  346MPD2    H3 5245   2.315   2.002  14.253 -1.9589  0.5199 -0.2637
  346MPD2     N 5246   2.390   2.359  14.547 -0.2803  0.0471  0.7604
  346MPD2    H5 5247   2.415   2.457  14.539  0.1490 -0.0466  0.9828
  346MPD2    N1 5248   2.484   2.383  14.085  0.4775 -0.9012 -0.2385
  346MPD2    H7 5249   2.515   2.476  14.113 -1.1948 -0.5160  0.3320
  347TMC3    C1 5250   2.393   2.376  14.790  0.0396 -0.5988 -0.0786
  347TMC3    C2 5251   2.467   2.483  14.766  0.4063 -0.7989  0.4538
  347TMC3    C3 5252   2.541   2.538  14.858 -0.1697  0.8426 -0.1843
  347TMC3    C4 5253   2.397   2.312  14.915 -0.6157 -0.3588 -0.0327
  347TMC3    C5 5254   2.469   2.371  15.012  0.8754  0.4483 -0.0647
  347TMC3    C6 5255   2.543   2.484  14.986 -0.4286  0.4455 -0.4304
  347TMC3     C 5256   2.365   2.297  14.668 -0.1260  0.1590 -0.3947
  347TMC3     O 5257   2.315   2.189  14.686 -0.6099  0.1188  0.1247
  347TMC3     H 5258   2.469   2.536  14.672  0.9505 -1.8970 -0.1541
  347TMC3    H1 5259   2.350   2.216  14.936 -0.5358 -0.0927  1.3684
  347TMC3    H2 5260   2.608   2.532  15.059  0.5571  0.0423 -1.0393
  347TMC3    C7 5261   2.465   2.310  15.147 -0.0461  0.5633  0.2069
  347TMC3    C8 5262   2.644   2.632  14.822 -0.5422  0.3122 -0.3892
  347TMC3    O1 5263   2.357   2.265  15.176 -0.2543  0.0092 -0.1272
  347TMC3    O2 5264   2.608   2.724  14.749  0.3973  0.1347  0.0902
  348MPD2     C 5265   1.836   2.705  11.858 -0.0243  0.4764 -0.1556
  348MPD2    C1 5266   1.702   2.693  11.848  0.1358  1.2288 -0.2264
  348MPD2    C2 5267   1.623   2.778  11.773 -0.2338  0.3327  0.2685
  348MPD2    C3 5268   1.678   2.884  11.705  0.0072  0.6264 -0.2825
  348MPD2    C4 5269   1.815   2.902  11.717 -0.1131  0.0763  0.4785
  348MPD2    C5 5270   1.888   2.815  11.791  0.7476 -0.0591 -0.2388
  348MPD2     H 5271   1.518   2.759  11.759 -0.1561 -0.6069  1.0393
  348MPD2    H1 5272   1.868   2.982  11.667 -2.4332  1.0810 -0.3990
  348MPD2    H2 5273   1.898   2.636  11.913  1.4885  1.5022 -0.5604
  348MPD2    H3 5274   1.996   2.825  11.796  0.8173 -1.0626  0.1570
  348MPD2     N 5275   1.591   2.973  11.633 -0.2871  0.6346 -0.0245
  348MPD2    H5 5276   1.494   2.949  11.648 -0.5413 -0.1769 -2.9698
  348MPD2    N1 5277   1.630   2.587  11.915 -0.2654  0.9011 -0.0104
  348MPD2    H7 5278   1.530   2.596  11.930 -0.6548 -0.5641 -1.7207
  349TMC3    C1 5279   1.573   2.383  11.988 -0.1637 -0.1272  1.3663
  349TMC3    C2 5280   1.590   2.287  12.082  0.1428  0.8048 -0.7478
  349TMC3    C3 5281   1.475   2.235  12.130 -0.0688 -1.1212 -0.5486
  349TMC3    C4 5282   1.451   2.435  11.948 -0.2977  0.3433 -0.0543
  349TMC3    C5 5283   1.346   2.390  12.014 -0.0209 -0.1598 -0.5525
  349TMC3    C6 5284   1.348   2.281  12.095 -0.4920 -0.8169 -1.2568
  349TMC3     C 5285   1.685   2.471  11.961 -0.0201 -0.1627 -0.7723
  349TMC3     O 5286   1.798   2.429  11.966 -0.8383 -0.1165  0.3944
  349TMC3     H 5287   1.690   2.256  12.108 -0.6615 -1.3986 -0.2482
  349TMC3    H1 5288   1.442   2.488  11.855  0.6496 -0.4797 -0.6202
  349TMC3    H2 5289   1.257   2.236  12.135  0.6574 -0.6873  1.4573
  349TMC3    C7 5290   1.213   2.410  11.950 -0.0017  0.0136 -0.6313
  349TMC3    C8 5291   1.478   2.097  12.178  0.1302  0.0515 -0.3315
  349TMC3    O1 5292   1.139   2.314  11.934 -0.4598 -0.3185 -0.1360
  349TMC3    O2 5293   1.580   2.071  12.239 -0.1462 -0.1379  0.0569
  350MPD2     C 5294   0.608   0.969  10.746  0.0665 -0.3957 -0.4227
  350MPD2    C1 5295   0.521   0.858  10.749 -0.1257 -0.6110 -0.8043
  350MPD2    C2 5296   0.460   0.819  10.866 -0.2252 -0.1527  0.2287
  350MPD2    C3 5297   0.479   0.885  10.984 -0.1138  0.3145 -0.1068
  350MPD2    C4 5298   0.570   0.989  10.986 -1.2612 -0.3716  0.3344
  350MPD2    C5 5299   0.637   1.026  10.869  0.4395  0.4745  0.3031
  350MPD2     H 5300   0.379   0.747  10.860 -2.5340  2.6880 -2.7259
  350MPD2    H1 5301   0.602   1.032  11.080 -1.4469 -1.3763  0.8486
  350MPD2    H2 5302   0.678   0.984  10.665  0.8092  2.6630  0.7991
  350MPD2    H3 5303   0.732   1.073  10.890 -0.6054  1.6473  2.3302
  350MPD2     N 5304   0.399   0.846  11.097  0.3264  0.0444  0.2155
  350MPD2    H5 5305   0.337   0.768  11.079 -1.7326  2.4469 -3.0031
  350MPD2    N1 5306   0.486   0.783  10.632  0.3370  0.4406 -0.0657
  350MPD2    H7 5307   0.431   0.697  10.641  1.0712 -0.2953 -2.4173
  351TMC3    C1 5308   0.457   0.733  10.400  0.1844  0.5611 -0.4960
  351TMC3    C2 5309   0.479   0.776  10.275 -0.0302  0.0582  0.9925
  351TMC3    C3 5310   0.390   0.726  10.183 -0.1003  0.1853  0.8073
  351TMC3    C4 5311   0.344   0.662  10.433 -0.4866  0.8322  0.0051
  351TMC3    C5 5312   0.261   0.606  10.335  0.2052 -0.3096  0.1058
  351TMC3    C6 5313   0.284   0.641  10.209  0.0823 -0.1724 -0.0316
  351TMC3     C 5314   0.523   0.809  10.502  0.2607  0.2888 -0.1471
  351TMC3     O 5315   0.590   0.908  10.467  0.3582 -0.1160 -0.6014
  351TMC3     H 5316   0.571   0.832  10.258 -1.2026  1.9547  0.8194
  351TMC3    H1 5317   0.316   0.657  10.538  0.5688  1.7631  0.3254
  351TMC3    H2 5318   0.211   0.621  10.132 -0.2753  0.8227  0.0490
  351TMC3    C7 5319   0.171   0.503  10.381 -0.1454 -0.1607  0.5723
  351TMC3    C8 5320   0.409   0.777  10.053 -0.5436 -0.0079  0.2976
  351TMC3    O1 5321   0.149   0.488  10.501  0.7067  0.2830  0.0792
  351TMC3    O2 5322   0.528   0.794  10.029 -0.7918 -0.6813  0.3595
  352MPD2     C 5323   3.971   2.720   1.350 -0.1159  0.5682 -0.3071
  352MPD2    C1 5324   3.847   2.677   1.394 -0.5766  0.3061 -0.1931
  352MPD2    C2 5325   3.832   2.552   1.452  0.0576 -0.0639 -0.3585
  352MPD2    C3 5326   3.946   2.469   1.462 -0.0197 -1.0249  0.3976
  352MPD2    C4 5327   4.070   2.524   1.433 -0.3890  0.0919  0.2770
  352MPD2    C5 5328   4.083   2.651   1.388  0.2257  0.1197 -0.1203
  352MPD2     H 5329   3.731   2.517   1.469  0.9298 -1.0513  2.7923
  352MPD2    H1 5330   4.155   2.461   1.458 -0.7167 -0.2314  0.5666
  352MPD2    H2 5331   3.983   2.825   1.328 -1.6165  0.7193 -0.4080
  352MPD2    H3 5332   4.178   2.701   1.377 -0.6391  1.9617  0.8159
  352MPD2     N 5333   3.952   2.332   1.501  0.1436  0.2766 -0.4174
  352MPD2    H5 5334   4.041   2.286   1.514  0.3672  0.5161 -1.0876
  352MPD2    N1 5335   3.743   2.768   1.355  0.2451  0.1516 -0.1553
  352MPD2    H7 5336   3.767   2.847   1.296 -1.1387  0.5504 -0.1743
  353TMC3    C1 5337   3.873   2.123   1.510  0.2272  0.0182  0.4894
  353TMC3    C2 5338   3.991   2.068   1.540  0.3159  0.0078  0.1544
  353TMC3    C3 5339   4.039   1.963   1.472  0.6546  0.0250 -0.0297
  353TMC3    C4 5340   3.782   2.058   1.431  0.2313  0.0517 -0.1653
  353TMC3    C5 5341   3.834   1.953   1.363  0.0131  0.4436 -0.3474
  353TMC3    C6 5342   3.956   1.897   1.385 -0.0610  0.0098  0.0466
  353TMC3     C 5343   3.839   2.254   1.527  0.2115  0.1857  0.3079
  353TMC3     O 5344   3.719   2.284   1.535 -0.5746 -0.5428 -0.4358
  353TMC3     H 5345   4.057   2.119   1.609  1.2181 -0.2847 -0.5031
  353TMC3    H1 5346   3.692   2.114   1.406  0.4831  0.1941 -0.7695
  353TMC3    H2 5347   3.983   1.811   1.325  0.6482 -0.7167  1.4036
  353TMC3    C7 5348   3.771   1.920   1.234 -0.1762 -0.0007 -0.7565
  353TMC3    C8 5349   4.170   1.908   1.517 -0.3891 -0.4225  0.6124
  353TMC3    O1 5350   3.843   1.868   1.146  0.7092 -1.2694  0.2339
  353TMC3    O2 5351   4.215   1.966   1.615 -0.1370  0.3894 -0.0242
  354TMC3    C1 5352   0.672   3.586  13.685  0.2758 -0.4185 -0.0940
  354TMC3    C2 5353   0.636   3.710  13.655  0.3786 -0.0199 -0.0995
  354TMC3    C3 5354   0.628   3.748  13.524 -0.3598 -0.3366 -0.1150
  354TMC3    C4 5355   0.698   3.496  13.589  0.1310  0.1317 -0.1165
  354TMC3    C5 5356   0.685   3.536  13.462 -0.4952 -0.5147 -0.2356
  354TMC3    C6 5357   0.657   3.664  13.423 -0.5385  0.4119 -0.0010
  354TMC3     C 5358   0.742   3.571  13.813 -0.7516  0.2043  0.0808
  354TMC3     O 5359   0.791   3.674  13.868 -0.8056 -0.3677 -0.0132
  354TMC3     H 5360   0.614   3.776  13.738 -2.8830  0.5092 -1.3806
  354TMC3    H1 5361   0.739   3.397  13.609  0.7337  0.7602  1.7176
  354TMC3    H2 5362   0.650   3.689  13.318 -1.5490 -1.5007 -0.3906
  354TMC3    C7 5363   0.756   3.450  13.372  0.2284 -0.4882  0.0004
  354TMC3    C8 5364   0.552   3.868  13.499  1.0437  0.2663 -0.1114
  354TMC3    O1 5365   0.757   3.329  13.397  0.0888 -0.4078  0.9617
  354TMC3    O2 5366   0.492   3.905  13.601  0.5965 -0.1424 -0.0027
  355MPD2     C 5367   0.436   4.296  12.027 -0.4534  0.2743 -0.7982
  355MPD2    C1 5368   0.465   4.369  11.915 -0.1412 -0.1320 -0.5898
  355MPD2    C2 5369   0.598   4.376  11.884  0.4516 -0.0845 -1.2624
  355MPD2    C3 5370   0.697   4.342  11.974  0.3097 -0.2928 -0.1165
  355MPD2    C4 5371   0.663   4.275  12.083 -0.4563 -0.0473  0.1236
  355MPD2    C5 5372   0.532   4.248  12.111  0.5315 -0.5641 -0.0330
  355MPD2     H 5373   0.633   4.414  11.789  3.0862 -0.7750 -0.5566
  355MPD2    H1 5374   0.731   4.246  12.163  1.8261  0.3140 -1.6985
  355MPD2    H2 5375   0.333   4.283  12.057  0.3566 -1.3886  1.2524
  355MPD2    H3 5376   0.513   4.195  12.204  1.8311 -0.9042  0.0352
  355MPD2     N 5377   0.835   4.355  11.953 -0.0897 -0.5249  0.2476
  355MPD2    H5 5378   0.898   4.348  12.032 -1.1219  0.3434  1.1607
  355MPD2    N1 5379   0.356   4.437  11.845 -0.0334 -0.0357  0.1542
  355MPD2    H7 5380   0.267   4.411  11.887 -0.4895 -0.2235 -0.9371
  356TMC3    C1 5381   1.034   4.448  11.843 -0.3286  0.8040  0.3758
  356TMC3    C2 5382   1.102   4.461  11.723  0.1007 -0.5410  0.8237
  356TMC3    C3 5383   1.222   4.524  11.734 -0.2184 -0.1875 -0.1291
  356TMC3    C4 5384   1.082   4.489  11.962  0.0534 -0.0174 -0.5276
  356TMC3    C5 5385   1.201   4.547  11.969  0.7583  0.5331  0.3565
  356TMC3    C6 5386   1.280   4.553  11.856  0.3436 -0.0502 -0.3452
  356TMC3     C 5387   0.893   4.402  11.832  0.2976  0.2592  0.3786
  356TMC3     O 5388   0.845   4.413  11.720  0.1422 -0.8358 -0.0627
  356TMC3     H 5389   1.049   4.444  11.630  0.8081  2.5086 -0.1328
  356TMC3    H1 5390   1.023   4.499  12.052 -0.4135  0.2839 -0.8692
  356TMC3    H2 5391   1.383   4.586  11.856 -0.4747  2.4498  2.0569
  356TMC3    C7 5392   1.211   4.670  12.039 -0.8960  0.7061  0.1013
  356TMC3    C8 5393   1.274   4.605  11.618  0.3645 -0.1608  0.5643
  356TMC3    O1 5394   1.254   0.023  11.972 -0.4362  0.5971  0.1543
  356TMC3    O2 5395   1.220   4.583  11.511  0.7526  0.0600  0.3751
  357MPD2     C 5396   1.461   4.677   2.214 -0.3295  0.2031  0.2700
  357MPD2    C1 5397   1.363   4.623   2.126 -0.3008  0.1155  0.0983
  357MPD2    C2 5398   1.237   4.676   2.120 -0.0302 -0.4752  0.0370
  357MPD2    C3 5399   1.203   0.049   2.189  0.1343  0.0313 -0.4254
  357MPD2    C4 5400   1.300   0.110   2.265  0.1022 -0.3651 -0.4351
  357MPD2    C5 5401   1.423   0.054   2.273 -0.4042  0.1948 -0.8875
  357MPD2     H 5402   1.173   4.631   2.044 -2.5303  1.9954  0.7004
  357MPD2    H1 5403   1.285   0.214   2.294 -0.1433 -0.5521  0.1029
  357MPD2    H2 5404   1.564   4.647   2.231 -0.0793  1.5402  1.0312
  357MPD2    H3 5405   1.503   0.110   2.320  0.5125 -3.4910  1.9801
  357MPD2     N 5406   1.079   0.110   2.172  0.3836 -0.0709  0.1773
  357MPD2    H5 5407   1.063   0.195   2.225  0.4756 -0.0798  0.2177
  357MPD2    N1 5408   1.406   4.508   2.058  0.2501 -0.4648  0.2051
  357MPD2    H7 5409   1.505   4.486   2.070  0.6341  1.6141  0.8582
  358TMC3    C1 5410   1.402   4.337   1.903  0.0620  0.5053  0.2319
  358TMC3    C2 5411   1.359   4.300   1.783  0.5081  0.1247  0.2710
  358TMC3    C3 5412   1.417   4.190   1.720  0.9840  0.6320  0.1761
  358TMC3    C4 5413   1.504   4.271   1.968  0.0062  0.3178  0.1547
  358TMC3    C5 5414   1.567   4.163   1.909 -0.1273 -0.4415  0.6760
  358TMC3    C6 5415   1.514   4.115   1.788  0.0036 -0.4828  0.2203
  358TMC3     C 5416   1.331   4.445   1.969 -0.0804  0.0815 -0.5401
  358TMC3     O 5417   1.215   4.456   1.929  0.1742 -0.4043 -0.2091
  358TMC3     H 5418   1.268   4.349   1.752  0.8800  0.7563  0.1627
  358TMC3    H1 5419   1.527   4.297   2.070  0.9211  1.6640 -0.3814
  358TMC3    H2 5420   1.578   4.045   1.736 -0.9024  0.1433 -1.7375
  358TMC3    C7 5421   1.704   4.143   1.954 -0.2717  0.1403  0.5873
  358TMC3    C8 5422   1.362   4.151   1.594 -0.6110 -0.4123  0.3376
  358TMC3    O1 5423   1.754   4.200   2.052  0.2557 -0.0615  0.0556
  358TMC3    O2 5424   1.280   4.232   1.551 -0.2032  0.0874 -0.0830
  359MPD2     C 5425   1.360   3.540  12.573  0.1499 -0.3110  0.6439
  359MPD2    C1 5426   1.246   3.517  12.502  0.2928 -0.9941  0.0255
  359MPD2    C2 5427   1.152   3.429  12.548 -0.3215  0.0782  0.0727
  359MPD2    C3 5428   1.181   3.349  12.657 -0.5124 -1.1167 -0.5875
  359MPD2    C4 5429   1.306   3.364  12.717 -0.8329 -0.0784 -0.7103
  359MPD2    C5 5430   1.395   3.458  12.672 -0.0789 -0.0962  0.5146
  359MPD2     H 5431   1.057   3.430  12.495 -0.8891  1.9336  1.1334
  359MPD2    H1 5432   1.343   3.305  12.799 -0.4317  1.1043 -0.0368
  359MPD2    H2 5433   1.427   3.613  12.530  0.5332 -0.0949  1.6030
  359MPD2    H3 5434   1.492   3.471  12.718  0.0060  2.4114 -0.3851
  359MPD2     N 5435   1.092   3.247  12.708  0.2109 -0.1386  0.3653
  359MPD2    H5 5436   1.116   3.203  12.797  0.1337 -0.5191  0.2000
  359MPD2    N1 5437   1.221   3.582  12.381 -0.3995  0.4916  0.5498
  359MPD2    H7 5438   1.131   3.554  12.343 -0.2241  3.2333 -1.8710
  360TMC3    C1 5439   1.261   3.696  12.171 -0.7352  0.2966  0.4092
  360TMC3    C2 5440   1.329   3.795  12.098  0.5912  0.1261 -0.5313
  360TMC3    C3 5441   1.324   3.788  11.960  0.4822 -0.3626  0.2057
  360TMC3    C4 5442   1.185   3.600  12.107 -0.2265 -0.1535  0.4989
  360TMC3    C5 5443   1.174   3.605  11.977 -0.3173  0.4252 -0.5367
  360TMC3    C6 5444   1.247   3.694  11.901 -0.5835 -0.5447  0.1043
  360TMC3     C 5445   1.301   3.675  12.317  0.5038  0.0437  0.0646
  360TMC3     O 5446   1.392   3.746  12.359  0.5228 -0.3917  0.0074
  360TMC3     H 5447   1.407   3.844  12.156  1.5435  1.1664 -2.6914
  360TMC3    H1 5448   1.151   3.510  12.156 -0.8358 -0.0130  0.3293
  360TMC3    H2 5449   1.229   3.695  11.794  1.3831  0.3904 -0.2144
  360TMC3    C7 5450   1.079   3.521  11.917  0.0773 -0.1137 -0.8912
  360TMC3    C8 5451   1.401   3.879  11.882 -0.3030  0.0612 -0.0898
  360TMC3    O1 5452   1.115   3.461  11.818 -0.9014 -0.6606 -0.2518
  360TMC3    O2 5453   1.401   4.001  11.904  0.1342  0.2992  0.4864
  361MPD2     C 5454   3.026   2.510  17.447 -0.0837  0.0621 -0.0896
  361MPD2    C1 5455   2.985   2.421  17.354 -0.1467  0.5398 -0.1883
  361MPD2    C2 5456   3.064   2.302  17.335 -0.4885  0.0982 -0.0472
  361MPD2    C3 5457   3.165   2.263  17.430  0.9931  0.6892  1.0326
  361MPD2    C4 5458   3.198   2.360  17.526 -0.0976 -0.2081  0.5819
  361MPD2    C5 5459   3.127   2.475  17.537  0.4012 -1.0163  0.4230
  361MPD2     H 5460   3.025   2.239  17.256 -1.1950 -0.0222  0.3988
  361MPD2    H1 5461   3.275   2.339  17.599 -0.8997  0.1343  1.5398
  361MPD2    H2 5462   2.971   2.603  17.456 -0.7017 -0.3220  0.0967
  361MPD2    H3 5463   3.149   2.548  17.615  0.6585  2.2598 -2.6886
  361MPD2     N 5464   3.244   2.143  17.427  0.0247 -0.7228  0.1950
  361MPD2    H5 5465   3.319   2.141  17.496  1.1416  0.4591 -0.9785
  361MPD2    N1 5466   2.872   2.444  17.271 -0.5496  0.4426  0.3294
  361MPD2    H7 5467   2.862   2.380  17.192 -1.7629 -0.0568  0.8953
  362TMC3    C1 5468   2.673   2.525  17.191  0.2963  0.2439  0.4677
  362TMC3    C2 5469   2.541   2.546  17.223 -0.5124  0.7723 -0.1046
  362TMC3    C3 5470   2.440   2.496  17.142 -0.2402 -0.3615 -0.2476
  362TMC3    C4 5471   2.711   2.456  17.077  1.1944 -0.0829  0.4966
  362TMC3    C5 5472   2.609   2.419  16.996 -0.1341  0.1432  0.2213
  362TMC3    C6 5473   2.477   2.425  17.033 -0.2410 -0.5873  0.4140
  362TMC3     C 5474   2.774   2.539  17.294  0.9787  0.3878 -0.5905
  362TMC3     O 5475   2.745   2.599  17.398  0.4074  0.0452  0.3073
  362TMC3     H 5476   2.515   2.599  17.313 -4.0248 -1.9304  0.5078
  362TMC3    H1 5477   2.814   2.448  17.044  1.5819  0.2121  1.6376
  362TMC3    H2 5478   2.389   2.400  16.974  0.1570  1.7665 -1.1693
  362TMC3    C7 5479   2.630   2.434  16.858 -0.0789  0.0500  0.5755
  362TMC3    C8 5480   2.305   2.546  17.150  0.6825  0.6068  0.8381
  362TMC3    O1 5481   2.701   2.529  16.822 -0.1626 -0.5959 -0.2513
  362TMC3    O2 5482   2.229   2.480  17.084  0.5965  0.4017  0.6022
  363TMC3    C1 5483   0.810   0.229   9.017 -0.9825 -0.3416 -0.0301
  363TMC3    C2 5484   0.909   0.175   9.095  0.1191  0.2428 -0.7293
  363TMC3    C3 5485   0.951   0.247   9.202  0.5853  0.1701 -0.5433
  363TMC3    C4 5486   0.745   0.343   9.062 -0.3353 -0.0873 -0.3284
  363TMC3    C5 5487   0.805   0.421   9.156  0.5513  1.0927 -0.2591
  363TMC3    C6 5488   0.899   0.370   9.237  0.0746 -0.2162  0.2794
  363TMC3     C 5489   0.763   0.153   8.907 -0.0959 -0.1474  0.6718
  363TMC3     O 5490   0.837   0.064   8.866  0.0767 -0.0902  0.3353
  363TMC3     H 5491   0.964   0.082   9.081 -0.7167 -0.5514  1.2563
  363TMC3    H1 5492   0.664   0.386   9.004 -0.6475  1.2994  1.1122
  363TMC3    H2 5493   0.928   0.433   9.320 -1.9898  1.6849 -0.4685
  363TMC3    C7 5494   0.741   0.545   9.200  0.2640 -0.6829  0.6747
  363TMC3    C8 5495   1.039   0.191   9.307 -0.1277  0.1263 -0.2966
  363TMC3    O1 5496   0.769   0.581   9.314 -0.2576  0.3641 -0.3047
  363TMC3    O2 5497   1.105   0.277   9.367 -0.0830 -0.3417 -0.6783
  364MPD2     C 5498   4.221   4.278  11.235 -0.1611 -0.4539 -0.2124
  364MPD2    C1 5499   4.288   4.210  11.134  0.4681  1.0897 -0.2411
  364MPD2    C2 5500   4.320   4.075  11.145  0.1611  0.4033  0.0631
  364MPD2    C3 5501   4.297   4.013  11.267  0.2734  0.7543  0.0491
  364MPD2    C4 5502   4.230   4.085  11.362  0.0128  0.0221  0.1830
  364MPD2    C5 5503   4.195   4.214  11.352  0.3302 -0.0303  0.4507
  364MPD2     H 5504   4.375   4.017  11.072 -0.4800  0.5657 -0.5570
  364MPD2    H1 5505   4.207   4.037  11.456  1.4337  0.1126  0.5699
  364MPD2    H2 5506   4.203   4.384  11.219 -0.1186 -0.1928  1.3981
  364MPD2    H3 5507   4.143   4.264  11.434  0.4524 -0.5538  0.8495
  364MPD2     N 5508   4.326   3.877  11.277  0.3208 -0.3114 -0.5154
  364MPD2    H5 5509   4.375   3.836  11.199 -1.7386 -0.0709 -1.9349
  364MPD2    N1 5510   4.325   4.291  11.029 -0.6213 -0.3902 -0.2377
  364MPD2    H7 5511   4.305   4.390  11.035 -0.7298 -0.3357 -1.4532
  365TMC3    C1 5512   4.448   4.343  10.833  0.0805 -0.0474  0.5449
  365TMC3    C2 5513   4.492   4.298  10.710  0.0561 -0.8783  0.3771
  365TMC3    C3 5514   4.562   4.385  10.626 -0.6496  0.1192 -0.1227
  365TMC3    C4 5515   4.494   4.466  10.884  0.7157  0.2276  0.4316
  365TMC3    C5 5516   4.570   4.547  10.797 -0.6184 -0.5385  0.3557
  365TMC3    C6 5517   4.597   4.507  10.668  0.6772 -0.3847  0.6333
  365TMC3     C 5518   4.402   4.246  10.924  0.7068  0.0752 -0.6569
  365TMC3     O 5519   4.416   4.131  10.883  0.9395  0.0847  0.8167
  365TMC3     H 5520   4.460   4.199  10.679 -1.3538 -0.3027 -0.0250
  365TMC3    H1 5521   4.475   4.490  10.988 -0.6200 -1.5158  0.6051
  365TMC3    H2 5522   4.657   4.570  10.603  0.0237 -2.8730 -2.3797
  365TMC3    C7 5523   4.639   4.668  10.838  0.6949  0.1683 -0.5368
  365TMC3    C8 5524   4.587   4.362  10.482  0.4207  0.4099 -0.3212
  365TMC3    O1 5525   4.726   4.714  10.766 -0.2163  0.6426  0.0629
  365TMC3    O2 5526   4.601   4.456  10.413 -0.0086 -0.1394 -0.5632
  366MPD2     C 5527   3.215   4.503  15.150 -0.3124  0.1935  0.5890
  366MPD2    C1 5528   3.275   4.621  15.102 -0.2229 -0.5464 -0.1633
  366MPD2    C2 5529   3.390   4.608  15.029 -0.0857 -1.1222 -0.4394
  366MPD2    C3 5530   3.466   4.493  15.026  0.0157 -0.2000  0.0064
  366MPD2    C4 5531   3.400   4.378  15.075 -0.1967 -0.4778 -0.0289
  366MPD2    C5 5532   3.270   4.385  15.128 -0.2956 -0.4950 -0.5285
  366MPD2     H 5533   3.416   4.693  14.966  0.0759 -0.9822 -0.1847
  366MPD2    H1 5534   3.438   4.277  15.060 -1.2308 -0.9937  0.8131
  366MPD2    H2 5535   3.112   4.503  15.186 -0.3591 -2.1436  0.4807
  366MPD2    H3 5536   3.214   4.294  15.148 -1.7949  0.7386  0.8299
  366MPD2     N 5537   3.594   4.484  14.960 -0.2512 -0.3190 -0.1066
  366MPD2    H5 5538   3.610   4.390  14.926 -1.0038 -0.9090  1.1527
  366MPD2    N1 5539   3.218   0.015  15.107 -0.1644 -0.3392  0.3427
  366MPD2    H7 5540   3.270   0.099  15.084  0.2929 -0.6727  0.1473
  367TMC3    C1 5541   3.076   0.166  15.202  0.2320  0.1655  0.0257
  367TMC3    C2 5542   3.187   0.225  15.259  0.6837 -0.9197 -0.1780
  367TMC3    C3 5543   3.199   0.361  15.250 -0.0524 -0.1007  0.2302
  367TMC3    C4 5544   2.973   0.239  15.150 -0.2540  0.4525 -0.1269
  367TMC3    C5 5545   2.990   0.372  15.141  0.3611  0.2176 -0.5967
  367TMC3    C6 5546   3.103   0.434  15.185  0.4076 -0.7879 -0.2453
  367TMC3     C 5547   3.090   0.029  15.148 -0.0526  0.1407  0.2032
  367TMC3     O 5548   2.982   4.702  15.124 -1.1088  0.0915  0.3150
  367TMC3     H 5549   3.263   0.156  15.293  0.4851 -1.1544 -0.2094
  367TMC3    H1 5550   2.887   0.187  15.111  0.7184 -2.1481  1.1925
  367TMC3    H2 5551   3.125   0.531  15.143  0.3080 -0.6301  0.0640
  367TMC3    C7 5552   2.886   0.459  15.094  0.6644  0.5476 -0.2113
  367TMC3    C8 5553   3.326   0.422  15.289  0.2553  0.4830  0.0236
  367TMC3    O1 5554   2.905   0.579  15.112 -0.9833  0.0742 -0.2070
  367TMC3    O2 5555   3.393   0.339  15.349 -0.3432 -0.0684  0.3234
  368MPD2     C 5556   4.432   2.032  13.299 -0.0086  0.1504 -0.2342
  368MPD2    C1 5557   4.427   2.158  13.244 -0.5842  0.2666  0.6831
  368MPD2    C2 5558   4.551   2.226  13.230  0.5030  0.1028  0.0968
  368MPD2    C3 5559   4.674   2.179  13.260  0.0749  0.4463  0.3600
  368MPD2    C4 5560   4.674   2.059  13.325  0.7173 -0.0231  0.5208
  368MPD2    C5 5561   4.556   1.986  13.335 -0.0651 -0.4478 -1.0260
  368MPD2     H 5562   4.541   2.326  13.189  0.9414 -0.3037 -1.0009
  368MPD2    H1 5563   0.031   2.007  13.344  0.5775 -0.2898  0.4839
  368MPD2    H2 5564   4.339   1.979  13.319 -0.4717  0.7374 -0.8441
  368MPD2    H3 5565   4.562   1.886  13.376 -2.2936  0.6008  1.8316
  368MPD2     N 5566   0.052   2.249  13.220 -0.2741 -0.3889  0.3548
  368MPD2    H5 5567   0.039   2.332  13.163 -2.2145 -0.3482  0.8772
  368MPD2    N1 5568   4.301   2.205  13.207 -0.3524  0.3172 -0.3590
  368MPD2    H7 5569   4.219   2.144  13.212 -0.6143  0.7383  0.4991
  369TMC3    C1 5570   4.140   2.354  13.110  0.5441  0.2354 -0.0597
  369TMC3    C2 5571   4.116   2.413  12.992  0.3793  0.5411 -0.1292
  369TMC3    C3 5572   4.007   2.491  12.977  0.8245  0.0916 -0.3954
  369TMC3    C4 5573   4.054   2.348  13.209  0.1554 -0.5694 -0.3352
  369TMC3    C5 5574   3.932   2.405  13.182 -0.3648  0.0964 -0.3525
  369TMC3    C6 5575   3.896   2.478  13.066  0.4253 -0.3118 -0.9257
  369TMC3     C 5576   4.281   2.320  13.130  0.1078  0.5188 -0.7954
  369TMC3     O 5577   4.361   2.391  13.072 -0.0854 -0.0985 -0.3486
  369TMC3     H 5578   4.194   2.404  12.917 -0.0781  1.1006 -0.6673
  369TMC3    H1 5579   4.066   2.286  13.297  1.4887  1.6321  1.0335
  369TMC3    H2 5580   3.802   2.532  13.060  1.3596  1.3902 -0.3340
  369TMC3    C7 5581   3.820   2.346  13.261  0.3430 -0.0547  0.2100
  369TMC3    C8 5582   4.030   2.626  12.952  0.3883 -0.5627  0.2039
  369TMC3    O1 5583   3.849   2.328  13.378 -0.3658  0.8552 -0.1304
  369TMC3    O2 5584   3.946   2.708  12.984  0.1421 -0.1274 -0.1001
  370TMC3    C1 5585   3.998   3.003  16.272  0.5871 -0.1933  0.2322
  370TMC3    C2 5586   3.893   2.957  16.351  0.0534 -0.8608  0.1023
  370TMC3    C3 5587   3.837   2.837  16.318 -0.2942 -0.3942 -0.4816
  370TMC3    C4 5588   4.041   2.942  16.158  0.5658 -0.3436  0.8225
  370TMC3    C5 5589   3.985   2.818  16.135 -0.1248  0.0555 -0.4268
  370TMC3    C6 5590   3.881   2.764  16.212  0.5467  0.2939  0.5210
  370TMC3     C 5591   4.092   3.076  16.358  0.0555 -0.2307  0.3959
  370TMC3     O 5592   4.078   3.064  16.477  0.0310 -0.1741 -0.1718
  370TMC3     H 5593   3.860   3.014  16.437 -1.1242 -2.1014  0.4680
  370TMC3    H1 5594   4.125   2.973  16.096 -0.1890 -1.1906 -0.6303
  370TMC3    H2 5595   3.843   2.665  16.188 -1.1144  0.5841  1.9397
  370TMC3    C7 5596   4.003   2.759  16.007  0.1368 -0.2134  0.1268
  370TMC3    C8 5597   3.740   2.775  16.416  0.0291  0.3534  0.1176
  370TMC3    O1 5598   3.976   2.828  15.909  0.0484 -0.5337 -0.2539
  370TMC3    O2 5599   3.733   2.653  16.410 -0.1100 -0.1387  0.1277
  371TMC3    C1 5600   0.383   1.020  15.543  0.1866  0.1059  0.4108
  371TMC3    C2 5601   0.297   1.023  15.650 -0.1698  0.2782 -0.0536
  371TMC3    C3 5602   0.260   1.148  15.693  0.0940  0.7187  0.0415
  371TMC3    C4 5603   0.442   1.134  15.493  0.4941 -0.1482 -0.3422
  371TMC3    C5 5604   0.402   1.255  15.540 -0.3447 -0.3172 -0.1468
  371TMC3    C6 5605   0.317   1.262  15.642 -1.0209  0.0224  0.1333
  371TMC3     C 5606   0.433   0.892  15.493 -0.2546 -0.1127 -0.9602
  371TMC3     O 5607   0.500   0.903  15.388 -0.1087 -0.0768  0.2566
  371TMC3     H 5608   0.263   0.928  15.689  0.3504  0.0496 -0.1479
  371TMC3    H1 5609   0.505   1.118  15.406  1.6672 -0.6220  0.5990
  371TMC3    H2 5610   0.304   1.357  15.691 -0.0280 -1.2087  2.7757
  371TMC3    C7 5611   0.465   1.373  15.491  0.4105  0.0798  0.5865
  371TMC3    C8 5612   0.182   1.160  15.816  0.4815  0.6713  0.1898
  371TMC3    O1 5613   0.436   1.472  15.549  0.3519  0.3080 -0.0146
  371TMC3    O2 5614   0.197   1.069  15.898 -0.0754  0.0704  0.0410
  372MPD2     C 5615   4.351   2.692  13.239 -0.1245 -0.5282  0.3677
  372MPD2    C1 5616   4.462   2.626  13.286  0.1865  0.6093 -0.0221
  372MPD2    C2 5617   4.439   2.526  13.378  0.5090 -0.1090 -0.3946
  372MPD2    C3 5618   4.314   2.501  13.428 -0.3532  0.0177  0.5279
  372MPD2    C4 5619   4.203   2.574  13.381  0.2219  0.4133 -0.4337
  372MPD2    C5 5620   4.226   2.674  13.289  0.3684  0.2379 -0.0949
  372MPD2     H 5621   4.522   2.466  13.413 -0.2400  0.2403  2.0276
  372MPD2    H1 5622   4.104   2.543  13.412  0.3273 -0.6617 -1.1430
  372MPD2    H2 5623   4.357   2.765  13.160 -0.2219 -0.2808  0.5882
  372MPD2    H3 5624   4.142   2.717  13.237  1.0244  1.9928  0.3049
  372MPD2     N 5625   4.298   2.402  13.526  0.1722  0.1621  0.1423
  372MPD2    H5 5626   4.384   2.352  13.548 -1.6398 -3.4158 -0.8148
  372MPD2    N1 5627   4.593   2.662  13.250 -0.0953  0.1179 -0.2012
  372MPD2    H7 5628   4.670   2.606  13.285 -0.4424 -0.6168 -0.6137
  373TMC3    C1 5629   4.196   2.269  13.691 -1.2203 -0.1028 -1.0429
  373TMC3    C2 5630   4.131   2.269  13.812 -0.6225  0.9135 -0.2670
  373TMC3    C3 5631   4.136   2.154  13.888 -1.2200 -0.3282  0.3369
  373TMC3    C4 5632   4.258   2.152  13.641 -0.0731  0.3721 -0.3264
  373TMC3    C5 5633   4.237   2.032  13.710 -0.2386  0.1963 -0.6748
  373TMC3    C6 5634   4.175   2.034  13.836  0.6108 -0.4690  0.2954
  373TMC3     C 5635   4.189   2.389  13.612 -1.0189  0.4027 -0.2626
  373TMC3     O 5636   4.087   2.456  13.634 -0.1952  0.3710 -0.1817
  373TMC3     H 5637   4.078   2.351  13.858 -2.2419 -0.4953  0.3700
  373TMC3    H1 5638   4.308   2.146  13.545 -1.8172  0.1972 -1.2154
  373TMC3    H2 5639   4.180   1.942  13.893  1.0876 -0.0265  0.9610
  373TMC3    C7 5640   4.356   1.950  13.715 -0.1467  0.4201 -0.6068
  373TMC3    C8 5641   4.199   2.181  14.018 -0.1649  0.0787  0.1354
  373TMC3    O1 5642   4.366   1.856  13.642 -0.3501  0.2358 -0.4023
  373TMC3    O2 5643   4.225   2.300  14.029 -0.0919  0.5491  0.2410
  374TMC3    C1 5644   0.120   2.589   9.966  0.4935  0.1389 -0.4901
  374TMC3    C2 5645   0.184   2.717   9.971  0.0836 -0.2291  0.5926
  374TMC3    C3 5646   0.122   2.815   9.890 -0.4965  0.5057  0.5066
  374TMC3    C4 5647   4.734   2.566   9.911  0.4523 -0.1013 -0.1548
  374TMC3    C5 5648   4.680   2.673   9.837  0.0562  0.0622 -0.4897
  374TMC3    C6 5649   0.000   2.795   9.830  0.6739  0.4871 -0.0767
  374TMC3     C 5650   0.198   2.478  10.013 -0.5709 -0.1415  0.3536
  374TMC3     O 5651   0.130   2.379  10.021  0.0561 -0.2397 -0.0154
  374TMC3     H 5652   0.273   2.736  10.028  0.2966 -1.2149  0.5813
  374TMC3    H1 5653   4.694   2.465   9.911  1.3187 -0.4428 -1.0897
  374TMC3    H2 5654   4.695   2.873   9.767 -0.8207 -0.2099  0.0301
  374TMC3    C7 5655   4.551   2.654   9.768  0.3140 -0.2877 -0.5475
  374TMC3    C8 5656   0.180   2.951   9.886  0.2024  0.7618  1.0612
  374TMC3    O1 5657   4.509   2.754   9.717  0.1705  0.1083 -0.0862
  374TMC3    O2 5658   0.099   3.034   9.849  0.1279 -0.2638  0.5220
  375MPD2     C 5659   0.565   3.854  16.909  0.0162 -0.0307  0.1554
  375MPD2    C1 5660   0.486   3.743  16.878 -0.3541  0.9130 -0.6755
  375MPD2    C2 5661   0.548   3.645  16.801  0.1121  0.5685  0.7167
  375MPD2    C3 5662   0.683   3.640  16.765 -0.0707  0.5054 -0.3737
  375MPD2    C4 5663   0.756   3.749  16.805  0.2484 -0.8211  0.2131
  375MPD2    C5 5664   0.694   3.848  16.878  0.3206  0.3478 -0.1584
  375MPD2     H 5665   0.479   3.571  16.763  0.5603  0.7384 -0.4502
  375MPD2    H1 5666   0.862   3.763  16.787  0.3454  0.6056  1.9145
  375MPD2    H2 5667   0.528   3.935  16.971  1.5954 -0.2646  1.4125
  375MPD2    H3 5668   0.755   3.933  16.907 -0.6338  1.3217 -1.0025
  375MPD2     N 5669   0.745   3.546  16.680 -0.0647 -0.3799 -0.7397
  375MPD2    H5 5670   0.844   3.563  16.663  0.7767 -2.5403  2.0122
  375MPD2    N1 5671   0.348   3.739  16.912 -0.0695  0.2635 -0.2867
  375MPD2    H7 5672   0.296   3.670  16.858  0.7720  0.2954 -1.1312
  376TMC3    C1 5673   0.778   3.364  16.540 -0.2834  0.2080  0.1067
  376TMC3    C2 5674   0.906   3.368  16.585  0.2359 -0.1191  0.4510
  376TMC3    C3 5675   0.999   3.330  16.496  0.0097 -0.5796 -0.5224
  376TMC3    C4 5676   0.737   3.314  16.422  0.3690  0.2570 -0.1651
  376TMC3    C5 5677   0.835   3.277  16.342 -0.6361  0.2041  0.0646
  376TMC3    C6 5678   0.963   3.285  16.375 -0.0731 -1.1728  0.4785
  376TMC3     C 5679   0.688   3.427  16.626 -0.5297  0.3691 -0.7676
  376TMC3     O 5680   0.572   3.385  16.636 -0.4676 -0.1391 -0.1710
  376TMC3     H 5681   0.934   3.413  16.679  1.5104  0.1316 -0.0588
  376TMC3    H1 5682   0.633   3.326  16.394 -0.4443 -3.4063  1.2571
  376TMC3    H2 5683   1.041   3.252  16.307  0.3665 -0.8590  0.8345
  376TMC3    C7 5684   0.807   3.235  16.203  0.3221  0.2776  0.2668
  376TMC3    C8 5685   1.130   3.299  16.541 -0.9113  0.0835  0.0954
  376TMC3    O1 5686   0.900   3.259  16.126  0.6258 -0.9266 -0.0982
  376TMC3    O2 5687   1.217   3.283  16.457 -0.6623  0.2497 -0.1057
  377MPD2     C 5688   3.736   2.739  13.221 -0.1276  0.7518  0.0925
  377MPD2    C1 5689   3.614   2.704  13.157 -1.0580  0.0377  1.0397
  377MPD2    C2 5690   3.536   2.607  13.225 -0.1948  0.5051  0.8284
  377MPD2    C3 5691   3.561   2.567  13.353 -0.7412  0.2620 -0.4843
  377MPD2    C4 5692   3.676   2.609  13.413  0.3660  0.4196 -0.5230
  377MPD2    C5 5693   3.759   2.697  13.348  0.2042  0.1154  0.0029
  377MPD2     H 5694   3.446   2.570  13.176  1.2826 -0.6970 -0.9783
  377MPD2    H1 5695   3.706   2.577  13.512 -1.5350  1.4220  0.3823
  377MPD2    H2 5696   3.812   2.797  13.170  2.4858 -2.3797  0.4114
  377MPD2    H3 5697   3.859   2.710  13.387  0.8490 -2.4936 -0.7917
  377MPD2     N 5698   3.471   2.494  13.434  0.5324 -0.0224  0.1326
  377MPD2    H5 5699   3.508   2.478  13.527  0.7251 -0.7345 -0.0600
  377MPD2    N1 5700   3.603   2.730  13.017 -0.1829 -0.2971  0.7384
  377MPD2    H7 5701   3.679   2.787  12.981  1.0307 -1.8343  0.8729
  378TMC3    C1 5702   3.444   2.825  12.596  0.5804  0.5110 -0.5313
  378TMC3    C2 5703   3.415   2.768  12.719 -0.4800 -0.5293 -0.1023
  378TMC3    C3 5704   3.523   2.731  12.793 -0.8909 -0.6583 -0.3589
  378TMC3    C4 5705   3.571   2.828  12.545  0.4881 -0.2196  0.5923
  378TMC3    C5 5706   3.675   2.789  12.628  0.0618 -0.4838 -0.3165
  378TMC3    C6 5707   3.649   2.749  12.755 -0.2211  0.1717  0.1961
  378TMC3     C 5708   3.332   2.843  12.504  0.9395  0.6641 -0.4162
  378TMC3     O 5709   3.226   2.854  12.565  0.2411  0.1555  0.1108
  378TMC3     H 5710   3.313   2.760  12.752 -0.0606  1.3265  1.6386
  378TMC3    H1 5711   3.591   2.878  12.451 -0.9346  0.8285  0.8314
  378TMC3    H2 5712   3.729   2.712  12.818  0.6918  2.1576  0.2135
  378TMC3    C7 5713   3.805   2.840  12.596  0.8514  0.3728  0.5117
  378TMC3    C8 5714   3.497   2.699  12.933  0.5538  0.4965  0.0691
  378TMC3    O1 5715   3.868   2.882  12.690  0.0925 -0.1365 -0.0613
  378TMC3    O2 5716   3.388   2.644  12.958  0.0551  0.3957  0.1117
  379MPD2     C 5717   4.097   0.847  15.997 -0.1910 -0.2583  0.4823
  379MPD2    C1 5718   4.036   0.808  16.110 -0.0448  0.8056 -0.4536
  379MPD2    C2 5719   4.100   0.773  16.227 -0.5360  0.1650  0.4083
  379MPD2    C3 5720   4.240   0.798  16.235 -0.0242 -0.4578  0.1352
  379MPD2    C4 5721   4.295   0.853  16.123  0.7323  0.0348  0.6336
  379MPD2    C5 5722   4.226   0.888  16.006 -0.6233 -0.3534 -0.2555
  379MPD2     H 5723   4.046   0.746  16.317 -3.1795  0.6429 -1.0455
  379MPD2    H1 5724   4.403   0.852  16.113  0.4697 -2.3980 -2.0565
  379MPD2    H2 5725   4.029   0.880  15.920  0.9049 -1.4196 -0.9741
  379MPD2    H3 5726   4.283   0.925  15.922  0.1898  0.5650  0.6961
  379MPD2     N 5727   4.335   0.760  16.334 -0.0981 -0.2436  0.2971
  379MPD2    H5 5728   4.432   0.762  16.307 -0.3942  0.6429 -0.7140
  379MPD2    N1 5729   3.902   0.783  16.095  0.3288  0.0091 -0.1893
  379MPD2    H7 5730   3.866   0.811  16.004 -0.6439 -0.1363  0.1589
  380TMC3    C1 5731   3.729   0.644  16.073  0.4482  0.2494 -0.3907
  380TMC3    C2 5732   3.732   0.509  16.068  0.3539 -0.3349  0.0337
  380TMC3    C3 5733   3.743   0.449  15.946  0.5707  0.1128 -0.4727
  380TMC3    C4 5734   3.704   0.716  15.956 -0.1324  0.3217  0.1329
  380TMC3    C5 5735   3.702   0.648  15.837 -0.1333  0.0385 -0.1966
  380TMC3    C6 5736   3.717   0.514  15.831 -0.1927  0.3820 -0.8339
  380TMC3     C 5737   3.826   0.700  16.167 -0.0486 -0.0817  0.5357
  380TMC3     O 5738   3.853   0.623  16.258 -0.1218  0.0432  0.1199
  380TMC3     H 5739   3.751   0.448  16.156 -1.6529 -1.7425 -0.5208
  380TMC3    H1 5740   3.687   0.822  15.968  1.1740  0.8111 -2.3280
  380TMC3    H2 5741   3.722   0.460  15.737  0.3294  0.0333 -0.6082
  380TMC3    C7 5742   3.675   0.720  15.718 -0.0832  0.4691 -0.9584
  380TMC3    C8 5743   3.886   0.409  15.936 -0.8300  0.0386  0.0114
  380TMC3    O1 5744   3.646   0.843  15.723  0.0648  0.0504  0.1334
  380TMC3    O2 5745   3.924   0.419  15.820 -0.3000  0.0616  0.5082
  381TMC3    C1 5746   3.691   2.128  16.169 -0.4313 -0.7772 -0.2446
  381TMC3    C2 5747   3.782   2.229  16.164 -0.2197 -0.0521 -0.3263
  381TMC3    C3 5748   3.812   2.287  16.287  0.2973  0.3874  0.1294
  381TMC3    C4 5749   3.647   2.069  16.285 -0.1635 -0.1669  0.5699
  381TMC3    C5 5750   3.691   2.128  16.404 -0.5004  0.1329 -0.1764
  381TMC3    C6 5751   3.775   2.231  16.406  0.2121  0.0099 -0.3964
  381TMC3     C 5752   3.669   2.049  16.048 -0.1565 -0.2856 -0.4209
  381TMC3     O 5753   3.767   2.033  15.977 -0.1453  0.4048 -0.2180
  381TMC3     H 5754   3.832   2.253  16.071 -0.0181 -1.7243 -0.6402
  381TMC3    H1 5755   3.591   1.977  16.277  0.0876 -0.2813  0.1519
  381TMC3    H2 5756   3.811   2.271  16.500 -0.6729 -0.4558  0.1451
  381TMC3    C7 5757   3.639   2.071  16.523  0.6075 -0.9535  0.0844
  381TMC3    C8 5758   3.924   2.370  16.283 -0.0442  0.0407  0.0727
  381TMC3    O1 5759   3.602   1.953  16.511 -0.4123  0.2356 -0.4315
  381TMC3    O2 5760   3.993   2.378  16.179 -0.1074  0.1153 -0.8746
  382MPD2     C 5761   3.398   4.473  16.697 -0.6750  0.1782 -0.0303
  382MPD2    C1 5762   3.434   4.509  16.826 -0.1085  0.6626  0.3739
  382MPD2    C2 5763   3.434   4.407  16.925 -0.6176  0.0935 -0.2461
  382MPD2    C3 5764   3.386   4.277  16.904  0.2244  0.7871 -0.4543
  382MPD2    C4 5765   3.356   4.247  16.771 -0.5646 -0.2193  0.5862
  382MPD2    C5 5766   3.359   4.344  16.678 -0.6809  0.1678  0.0679
  382MPD2     H 5767   3.447   4.447  17.025  3.8451 -0.6682 -0.5309
  382MPD2    H1 5768   3.318   4.150  16.742 -1.5789  0.4507 -0.3200
  382MPD2    H2 5769   3.388   4.546  16.618 -1.7343 -0.2980 -0.3398
  382MPD2    H3 5770   3.313   4.320  16.582  1.8195  1.1834 -1.3876
  382MPD2     N 5771   3.378   4.184  17.009 -0.4020  0.0885 -0.3321
  382MPD2    H5 5772   3.313   4.107  16.996  2.0791 -2.0117 -0.3542
  382MPD2    N1 5773   3.480   4.641  16.863 -0.0765  0.8059 -0.3160
  382MPD2    H7 5774   3.514   4.670  16.954 -2.1793  2.0583  0.0632
  383TMC3    C1 5775   3.360   4.106  17.235 -0.6753 -0.3252  0.1880
  383TMC3    C2 5776   3.228   4.065  17.222  0.3713 -0.4030 -0.4033
  383TMC3    C3 5777   3.178   3.979  17.323  0.1811  0.3617 -0.8575
  383TMC3    C4 5778   3.430   4.092  17.351  0.1155 -0.3648  0.2586
  383TMC3    C5 5779   3.376   4.014  17.447 -0.5051 -0.7307  0.1276
  383TMC3    C6 5780   3.253   3.955  17.436 -0.1081  0.1649  0.2165
  383TMC3     C 5781   3.424   4.202  17.137 -0.3737 -0.8350 -0.3688
  383TMC3     O 5782   3.510   4.279  17.186  0.3393 -0.3837 -0.1103
  383TMC3     H 5783   3.173   4.053  17.129 -1.0225 -1.7889  0.5964
  383TMC3    H1 5784   3.532   4.127  17.345  0.1423 -0.0627  2.4923
  383TMC3    H2 5785   3.206   3.892  17.511 -1.6445 -0.6118 -1.3862
  383TMC3    C7 5786   3.426   4.019  17.578  0.6152  0.2012  0.9254
  383TMC3    C8 5787   3.035   3.945  17.312 -0.1806  0.4619 -0.4865
  383TMC3    O1 5788   3.373   3.944  17.663  0.2159 -0.0972 -0.0066
  383TMC3    O2 5789   2.962   4.017  17.250  0.1673 -0.3922 -0.2381
  384MPD2     C 5790   4.408   0.838  12.319  0.1402  0.4276  0.0584
  384MPD2    C1 5791   4.447   0.832  12.450  0.3711 -0.3452 -0.9107
  384MPD2    C2 5792   4.581   0.814  12.482  0.2696  0.0159 -0.3935
  384MPD2    C3 5793   4.680   0.825  12.386 -0.4580 -0.0102 -0.1671
  384MPD2    C4 5794   4.642   0.854  12.258  0.3785  0.0360  0.1758
  384MPD2    C5 5795   4.506   0.860  12.228  0.4152  0.1344 -0.0906
  384MPD2     H 5796   4.604   0.781  12.583  0.5526  0.0512 -0.4455
  384MPD2    H1 5797   4.711   0.857  12.174  1.1724  0.3121  0.8340
  384MPD2    H2 5798   4.306   0.835  12.282  0.0179  0.0821  0.4186
  384MPD2    H3 5799   4.487   0.869  12.122 -2.1379 -0.8663  0.2833
  384MPD2     N 5800   0.076   0.782  12.418 -0.0160 -0.0692  0.0708
  384MPD2    H5 5801   0.143   0.768  12.343  0.8689 -0.5904  0.9513
  384MPD2    N1 5802   4.356   0.809  12.559  0.3758  0.5122 -0.6227
  384MPD2    H7 5803   4.395   0.780  12.648 -0.7363  1.4400  0.1767
  385TMC3    C1 5804   0.231   0.652  12.549 -0.2557 -0.3001  0.9357
  385TMC3    C2 5805   0.235   0.556  12.449  0.0493 -0.4359  0.5974
  385TMC3    C3 5806   0.250   0.437  12.503 -0.3063 -1.0883  1.0611
  385TMC3    C4 5807   0.262   0.636  12.686 -0.4267 -0.0362 -0.4757
  385TMC3    C5 5808   0.275   0.502  12.728 -0.3319 -0.4707 -0.4820
  385TMC3    C6 5809   0.267   0.403  12.635 -0.1599 -0.2245 -0.9222
  385TMC3     C 5810   0.116   0.746  12.544 -0.2230  0.3387  0.0360
  385TMC3     O 5811   0.074   0.795  12.650 -0.2644 -0.2929 -0.8981
  385TMC3     H 5812   0.248   0.584  12.345 -0.5381  0.2940  0.7182
  385TMC3    H1 5813   0.260   0.712  12.763  0.9735  0.3282 -0.7978
  385TMC3    H2 5814   0.260   0.297  12.657 -0.2401  0.3002  1.6320
  385TMC3    C7 5815   0.170   0.485  12.831 -0.3006 -0.0229  0.0502
  385TMC3    C8 5816   0.278   0.331  12.410  0.0803  0.2911 -0.5291
  385TMC3    O1 5817   0.105   0.589  12.849 -0.1163  0.0600  0.0468
  385TMC3    O2 5818   0.341   0.237  12.448 -0.6008  0.5096 -0.5884
  386TMC3    C1 5819   0.007   2.902  11.816  1.0624 -0.4515  0.1419
  386TMC3    C2 5820   0.035   2.967  11.700 -0.3065 -0.1103  0.1025
  386TMC3    C3 5821   4.691   3.074  11.668  0.3535  0.3160  0.4044
  386TMC3    C4 5822   4.634   2.927  11.891 -0.1880  0.5246  0.0774
  386TMC3    C5 5823   4.546   3.020  11.844 -0.2741  0.7010  0.8730
  386TMC3    C6 5824   4.575   3.107  11.743  0.3219 -0.2133  0.0353
  386TMC3     C 5825   0.120   2.847  11.889  0.1659  0.2369  0.7305
  386TMC3     O 5826   0.233   2.871  11.846 -0.5171 -0.1798 -0.1464
  386TMC3     H 5827   0.115   2.926  11.640  0.3457 -1.5333  1.9314
  386TMC3    H1 5828   4.619   2.891  11.992 -1.7005 -0.1672 -0.3835
  386TMC3    H2 5829   4.511   3.193  11.734 -1.1963 -1.4563 -0.9460
  386TMC3    C7 5830   4.430   3.053  11.912 -0.1288  0.3893 -0.1137
  386TMC3    C8 5831   4.671   3.101  11.523 -0.3102  1.1325 -0.1056
  386TMC3    O1 5832   4.437   3.039  12.033 -0.1433 -0.4209  0.1985
  386TMC3    O2 5833   4.565   3.161  11.496  0.0260  0.1939  0.1088
  387MPD2     C 5834   1.802   3.042   9.563 -0.9048 -1.0262  0.1594
  387MPD2    C1 5835   1.912   3.042   9.648 -0.6941 -0.2707 -0.4108
  387MPD2    C2 5836   1.932   2.935   9.736  0.3002 -0.0786 -0.2067
  387MPD2    C3 5837   1.830   2.836   9.739 -0.4170  0.4549  0.5107
  387MPD2    C4 5838   1.726   2.832   9.653 -0.1148 -0.5084 -0.1171
  387MPD2    C5 5839   1.713   2.940   9.559 -0.8369  0.5373 -1.0822
  387MPD2     H 5840   2.018   2.921   9.800  0.7131 -0.6914 -0.8950
  387MPD2    H1 5841   1.646   2.760   9.666  0.7609 -0.8701  3.1755
  387MPD2    H2 5842   1.786   3.128   9.499  0.0200  0.2261  1.6249
  387MPD2    H3 5843   1.631   2.943   9.488 -0.5882  1.5275 -1.3238
  387MPD2     N 5844   1.847   2.732   9.833  0.2174 -0.4811  1.3937
  387MPD2    H5 5845   1.922   2.755   9.898  1.4215  1.1343 -0.5712
  387MPD2    N1 5846   2.006   3.151   9.677  0.0407 -0.3418 -0.2544
  387MPD2    H7 5847   2.093   3.117   9.718 -0.7643 -1.7148  0.2808
  388TMC3    C1 5848   2.064   3.372   9.733 -0.1835 -0.0254  0.4877
  388TMC3    C2 5849   2.133   3.475   9.677 -0.9831 -0.1792  0.0501
  388TMC3    C3 5850   2.206   3.551   9.764  0.1480 -0.0555  0.0647
  388TMC3    C4 5851   2.070   3.337   9.862  0.1992  0.8086  0.3424
  388TMC3    C5 5852   2.131   3.431   9.946  0.0507 -0.1787  0.1478
  388TMC3    C6 5853   2.195   3.546   9.903  0.3505 -0.0070 -0.1924
  388TMC3     C 5854   1.983   3.284   9.652 -1.0448  0.8181 -0.6841
  388TMC3     O 5855   1.891   3.334   9.591 -0.3484  0.6985 -0.5476
  388TMC3     H 5856   2.134   3.492   9.570  0.6090  1.5802  0.3400
  388TMC3    H1 5857   1.998   3.266   9.900 -0.2326 -0.3515 -2.6502
  388TMC3    H2 5858   2.239   3.616   9.972  0.0522  1.4206 -1.4458
  388TMC3    C7 5859   2.176   3.379  10.076 -0.6612  0.3604 -1.2075
  388TMC3    C8 5860   2.287   3.643   9.700 -0.2631 -0.3475  0.3805
  388TMC3    O1 5861   2.205   3.454  10.168  0.7451 -0.2719  0.6011
  388TMC3    O2 5862   2.252   3.679   9.586 -0.6138 -0.2592  0.3228
  389MPD2     C 5863   1.608   1.366  11.654 -0.2779 -0.2239 -0.1045
  389MPD2    C1 5864   1.517   1.353  11.547  0.1478  0.1038 -0.0339
  389MPD2    C2 5865   1.468   1.223  11.528  0.0612  0.7044 -0.1385
  389MPD2    C3 5866   1.515   1.110  11.602 -0.4356 -0.1112  0.6262
  389MPD2    C4 5867   1.611   1.128  11.697 -0.2427 -0.5926  0.5330
  389MPD2    C5 5868   1.655   1.254  11.721 -0.4801 -0.5607 -0.2344
  389MPD2     H 5869   1.376   1.209  11.473 -0.0670  2.0278 -0.2712
  389MPD2    H1 5870   1.636   1.048  11.767 -1.3591 -1.2393  0.1936
  389MPD2    H2 5871   1.656   1.458  11.683  0.2380 -0.6159  0.2836
  389MPD2    H3 5872   1.729   1.264  11.799 -1.1183 -0.0056  0.2995
  389MPD2     N 5873   1.468   0.976  11.581 -1.1135 -0.5383 -0.3711
  389MPD2    H5 5874   1.499   0.903  11.644  0.6729  0.8486  0.3704
  389MPD2    N1 5875   1.474   1.463  11.477 -0.4262  0.0102  0.1218
  389MPD2    H7 5876   1.530   1.547  11.489 -1.2296  0.1150  3.1981
  390TMC3    C1 5877   1.331   0.800  11.512 -0.6779 -0.1751 -0.5181
  390TMC3    C2 5878   1.342   0.731  11.636 -0.9039  0.5645  0.5590
  390TMC3    C3 5879   1.293   0.598  11.636  0.0071 -0.8411 -0.0350
  390TMC3    C4 5880   1.263   0.746  11.404  0.1018  0.2604 -0.4564
  390TMC3    C5 5881   1.227   0.611  11.405  0.3729 -0.4407  0.2040
  390TMC3    C6 5882   1.246   0.539  11.518  0.4467 -0.2838 -0.4073
  390TMC3     C 5883   1.370   0.938  11.490 -0.4951  0.5723  0.0414
  390TMC3     O 5884   1.317   0.999  11.400 -0.3667 -0.1283  0.8966
  390TMC3     H 5885   1.373   0.776  11.730  0.2287  1.1927 -0.1095
  390TMC3    H1 5886   1.260   0.796  11.308 -0.2438  1.9177  0.4116
  390TMC3    H2 5887   1.225   0.433  11.505  1.3825 -0.2436 -2.2387
  390TMC3    C7 5888   1.110   0.568  11.346 -0.5728  0.5746 -0.2789
  390TMC3    C8 5889   1.244   0.551  11.767  0.3657  0.0182  0.5115
  390TMC3    O1 5890   1.122   0.487  11.254  0.0471  0.4705  0.0903
  390TMC3    O2 5891   1.291   0.587  11.877 -0.9821  0.3907 -0.2170
  391MPD2     C 5892   0.942   2.933  11.258 -0.1366  0.0541 -0.5073
  391MPD2    C1 5893   1.032   3.019  11.191  0.6337 -0.3573  0.3622
  391MPD2    C2 5894   1.004   3.057  11.065  0.2240  1.4914 -0.3256
  391MPD2    C3 5895   0.898   3.009  10.990  0.2203  0.4164  0.4257
  391MPD2    C4 5896   0.817   2.911  11.043 -0.4561  0.7667 -0.1556
  391MPD2    C5 5897   0.837   2.886  11.177  0.3675  0.2817  0.0127
  391MPD2     H 5898   1.070   3.132  11.022  1.1999  0.5367 -0.5101
  391MPD2    H1 5899   0.738   2.856  10.991  0.0891 -0.1446 -0.0184
  391MPD2    H2 5900   0.940   2.923  11.365  0.1047 -1.0856 -0.6128
  391MPD2    H3 5901   0.767   2.817  11.224 -0.7709  0.8428 -0.8523
  391MPD2     N 5902   0.888   3.047  10.852 -0.1130  0.5023 -0.2878
  391MPD2    H5 5903   0.963   3.105  10.814  2.1257 -1.6791  0.8141
  391MPD2    N1 5904   1.137   3.087  11.261  0.0881 -0.5803  0.4288
  391MPD2    H7 5905   1.199   3.146  11.206 -0.0661  0.4174  1.3299
  392TMC3    C1 5906   0.823   3.046  10.629 -0.5576 -0.0122  0.0606
  392TMC3    C2 5907   0.715   3.055  10.544 -0.6630 -0.1660 -0.3754
  392TMC3    C3 5908   0.705   3.145  10.442  0.6457  0.7739 -0.3608
  392TMC3    C4 5909   0.929   3.128  10.602  0.0584 -0.5063  0.1285
  392TMC3    C5 5910   0.918   3.216  10.498 -0.1610  0.3756  0.2797
  392TMC3    C6 5911   0.805   3.232  10.428  0.2123  0.2856  0.5969
  392TMC3     C 5912   0.801   2.991  10.762  0.2349  0.0562  0.2886
  392TMC3     O 5913   0.708   2.911  10.774 -0.2933  0.3056  0.0196
  392TMC3     H 5914   0.629   2.992  10.562  0.1469 -0.7915  1.3532
  392TMC3    H1 5915   1.015   3.120  10.666 -0.8628 -0.8114  1.3305
  392TMC3    H2 5916   0.796   3.300  10.344  3.6607 -0.8305 -0.6979
  392TMC3    C7 5917   1.025   3.317  10.479 -0.1452  0.6146  0.6813
  392TMC3    C8 5918   0.624   3.097  10.333  0.8272 -0.7770  0.9219
  392TMC3    O1 5919   1.110   3.318  10.566  0.0156  0.3079  0.0894
  392TMC3    O2 5920   0.612   2.976  10.326  0.0159  0.0590 -0.5209
  393TMC3    C1 5921   4.234   0.639  10.601 -0.3442 -0.8264  0.5804
  393TMC3    C2 5922   4.111   0.572  10.590 -0.4896 -0.1717 -0.2023
  393TMC3    C3 5923   4.060   0.500  10.694 -0.4103  0.0310 -0.0146
  393TMC3    C4 5924   4.307   0.621  10.713  0.0228  1.2033  0.4675
  393TMC3    C5 5925   4.247   0.543  10.815  0.8405  0.3067  0.2984
  393TMC3    C6 5926   4.130   0.480  10.805 -0.1138 -0.0827  0.5666
  393TMC3     C 5927   4.259   0.752  10.515  0.2531 -0.0554  0.3697
  393TMC3     O 5928   4.198   0.759  10.412  0.4155  0.0054 -0.3946
  393TMC3     H 5929   4.047   0.595  10.506 -1.6525  0.8800  0.9581
  393TMC3    H1 5930   4.411   0.649  10.726  0.8481 -1.1026 -1.1778
  393TMC3    H2 5931   4.089   0.418  10.883 -1.9011 -1.9332 -1.8509
  393TMC3    C7 5932   4.327   0.537  10.934 -0.0635 -0.3208 -0.3445
  393TMC3    C8 5933   3.955   0.411  10.659 -0.2221 -0.3250  0.3960
  393TMC3    O1 5934   4.451   0.534  10.928 -0.2982 -0.1572  0.2048
  393TMC3    O2 5935   3.883   0.382  10.751  0.6093 -0.3346 -0.4721
  394TMC3    C1 5936   1.363   1.598  11.312  1.2327  0.5049 -0.7465
  394TMC3    C2 5937   1.241   1.621  11.260 -0.6668 -0.1995 -0.4274
  394TMC3    C3 5938   1.225   1.734  11.189  0.0066  0.2385  0.3117
  394TMC3    C4 5939   1.477   1.668  11.295  0.4936 -0.3183 -0.2223
  394TMC3    C5 5940   1.462   1.774  11.216  0.1568  0.1543 -0.0179
  394TMC3    C6 5941   1.337   1.812  11.169  0.5188 -0.3969  0.3474
  394TMC3     C 5942   1.372   1.471  11.388  0.0321  0.0916 -0.1595
  394TMC3     O 5943   1.293   1.383  11.363 -0.1626 -0.1719 -0.0960
  394TMC3     H 5944   1.154   1.564  11.288 -0.8019 -0.3910 -1.2281
  394TMC3    H1 5945   1.576   1.634  11.326  0.2144 -0.2724  0.7121
  394TMC3    H2 5946   1.326   1.894  11.098  1.0233 -0.9602 -0.3850
  394TMC3    C7 5947   1.580   1.847  11.168 -0.1618  0.3566  0.1638
  394TMC3    C8 5948   1.128   1.726  11.079  0.0773  0.1137 -0.1927
  394TMC3    O1 5949   1.562   1.963  11.134  0.4964 -0.0362  0.0362
  394TMC3    O2 5950   1.007   1.756  11.096 -0.5495 -0.3770 -0.6486
  395TMC3    C1 5951   1.722   2.520  14.238  0.0519  0.7056 -0.0633
  395TMC3    C2 5952   1.610   2.536  14.161 -0.2268  0.0731  0.3584
  395TMC3    C3 5953   1.586   2.652  14.094 -0.8914 -0.0523  0.2091
  395TMC3    C4 5954   1.817   2.615  14.244 -0.4479 -0.3203  0.2102
  395TMC3    C5 5955   1.789   2.735  14.179  0.3603  0.4581 -0.1120
  395TMC3    C6 5956   1.675   2.758  14.106 -0.1618 -0.2025  0.9550
  395TMC3     C 5957   1.713   2.435  14.356 -0.0714 -0.4612  0.0871
  395TMC3     O 5958   1.801   2.450  14.438  0.2057 -0.3746 -0.9204
  395TMC3     H 5959   1.541   2.453  14.157 -0.9499  0.7048 -0.3888
  395TMC3    H1 5960   1.900   2.610  14.314 -0.8013  3.5900  0.9276
  395TMC3    H2 5961   1.667   2.855  14.059  3.7565  0.1928  1.1431
  395TMC3    C7 5962   1.874   2.847  14.222  0.2124 -0.3368  0.2509
  395TMC3    C8 5963   1.452   2.714  14.117  0.2522  0.1404 -0.5466
  395TMC3    O1 5964   1.816   2.957  14.233  0.1235  0.0527 -0.7244
  395TMC3    O2 5965   1.444   2.833  14.116 -0.3077  0.8813  0.1440
  396MPD2     C 5966   1.195   4.515  17.017 -0.3938  0.4687  0.2158
  396MPD2    C1 5967   1.326   4.477  17.010  0.0647 -0.0103  0.8415
  396MPD2    C2 5968   1.382   4.466  16.879 -0.3580 -0.5057 -0.0040
  396MPD2    C3 5969   1.318   4.523  16.771 -0.2909 -0.7130 -0.9891
  396MPD2    C4 5970   1.191   4.573  16.783  0.0974 -0.0906  0.0629
  396MPD2    C5 5971   1.131   4.567  16.908 -0.1129 -0.1731 -0.0213
  396MPD2     H 5972   1.482   4.430  16.858  0.5439  0.6204  2.3442
  396MPD2    H1 5973   1.125   4.606  16.704  0.8811 -0.6590 -0.8181
  396MPD2    H2 5974   1.149   4.503  17.115  0.2807 -1.4248  0.3079
  396MPD2    H3 5975   1.026   4.593  16.917 -0.6755 -2.3556 -0.2462
  396MPD2     N 5976   1.392   4.533  16.649  0.2630 -0.1038 -0.2531
  396MPD2    H5 5977   1.488   4.503  16.659 -0.7978 -4.6311 -3.6907
  396MPD2    N1 5978   1.381   4.436  17.128 -0.1520  0.3235 -0.2242
  396MPD2    H7 5979   1.336   4.443  17.219  0.5442  0.0377  0.1452
  397TMC3    C1 5980   1.538   4.369  17.287 -0.0113 -0.6060  0.1201
  397TMC3    C2 5981   1.668   4.359  17.326 -0.3225  0.0989  0.5322
  397TMC3    C3 5982   1.708   4.237  17.379 -0.4445  0.1655  0.9874
  397TMC3    C4 5983   1.452   4.276  17.342  0.0768  0.6903 -0.4357
  397TMC3    C5 5984   1.492   4.174  17.427  0.5977  1.0223 -0.3481
  397TMC3    C6 5985   1.622   4.148  17.438  0.0448  0.4084  0.4288
  397TMC3     C 5986   1.515   4.401  17.147  0.6535  0.9353 -0.2449
  397TMC3     O 5987   1.612   4.427  17.077 -0.7179 -0.6182  0.3045
  397TMC3     H 5988   1.744   4.409  17.266 -3.1830  2.8938 -0.7606
  397TMC3    H1 5989   1.345   4.280  17.327 -0.0818  1.6062  0.9716
  397TMC3    H2 5990   1.660   4.052  17.474 -0.2045  0.2963  0.3896
  397TMC3    C7 5991   1.393   4.071  17.443  0.6777 -0.0178 -0.3163
  397TMC3    C8 5992   1.823   4.190  17.304 -0.2646  0.2480 -0.5755
  397TMC3    O1 5993   1.324   4.039  17.349  0.2982  0.3317 -0.1262
  397TMC3    O2 5994   1.930   4.241  17.332 -0.2797  0.3303  0.2412
  398MPD2     C 5995   4.145   0.723   0.191  0.2707 -0.3781 -0.1008
  398MPD2    C1 5996   4.259   0.678   0.242 -0.2278 -0.3667 -0.0867
  398MPD2    C2 5997   4.341   0.770   0.298  0.1334 -0.1366 -0.8254
  398MPD2    C3 5998   4.319   0.909   0.289 -0.0255 -0.2598 -0.0059
  398MPD2    C4 5999   4.195   0.949   0.241 -0.2441 -0.1580  0.1053
  398MPD2    C5 6000   4.111   0.854   0.192  0.3575 -0.7811  0.2003
  398MPD2     H 6001   4.425   0.732   0.356  0.5605  2.0900  0.0565
  398MPD2    H1 6002   4.166   1.054   0.233 -1.5692 -0.6078 -0.9804
  398MPD2    H2 6003   4.067   0.655   0.157 -1.0875  1.9396 -1.6087
  398MPD2    H3 6004   4.010   0.873   0.158  0.5137 -0.6354 -0.1823
  398MPD2     N 6005   4.411   0.992   0.349 -0.5125  1.1931 -0.5986
  398MPD2    H5 6006   4.484   0.949   0.405 -1.9588  0.1226  0.4417
  398MPD2    N1 6007   4.306   0.542   0.233 -0.3089 -1.0874 -0.1010
  398MPD2    H7 6008   4.404   0.536   0.261  0.2283  1.5332 -1.4279
  399TMC3    C1 6009   4.328   0.319   0.176  0.0097  0.1392 -0.6929
  399TMC3    C2 6010   4.449   0.302   0.246 -0.5809  0.7065  0.1358
  399TMC3    C3 6011   4.509   0.174   0.239  0.1831  0.0659  0.1684
  399TMC3    C4 6012   4.272   0.212   0.116  0.9057  0.7516 -0.4708
  399TMC3    C5 6013   4.338   0.092   0.112  0.1385  0.0146 -0.9395
  399TMC3    C6 6014   4.456   0.069   0.176 -0.1594  0.6039  0.4489
  399TMC3     C 6015   4.248   0.437   0.172  0.7041 -0.2081  0.1739
  399TMC3     O 6016   4.145   0.432   0.106  0.4174  0.2201  0.1880
  399TMC3     H 6017   4.498   0.373   0.312  1.6274 -2.3374  1.7741
  399TMC3    H1 6018   4.170   0.216   0.078 -1.1061  0.4553  4.9273
  399TMC3    H2 6019   4.513   4.716   0.151 -0.8170  0.0210  1.0294
  399TMC3    C7 6020   4.282   4.731   0.028 -0.3096 -0.1885 -0.2343
  399TMC3    C8 6021   4.603   0.138   0.344  0.9985 -0.5876  0.4273
  399TMC3    O1 6022   4.317   4.617   0.066  0.4156 -0.6116  0.2506
  399TMC3    O2 6023   4.686   0.225   0.368  0.5329  0.4009  0.2257
  400TMC3    C1 6024   2.949   3.641  16.880 -0.5472  0.1611  0.8594
  400TMC3    C2 6025   2.821   3.605  16.910 -0.3448  0.7133 -0.1888
  400TMC3    C3 6026   2.726   3.628  16.820 -0.5660  0.1713 -0.4018
  400TMC3    C4 6027   2.971   3.697  16.758  0.2456 -0.4536  1.2679
  400TMC3    C5 6028   2.864   3.737  16.678  0.1096  0.4829 -0.6221
  400TMC3    C6 6029   2.738   3.704  16.705  0.5689 -0.1587 -0.3432
  400TMC3     C 6030   3.054   3.644  16.982  0.1847 -0.1912 -0.5003
  400TMC3     O 6031   3.043   3.585  17.092 -0.1582  0.4072 -0.1470
  400TMC3     H 6032   2.804   3.551  17.002  1.6707  2.3459  1.1214
  400TMC3    H1 6033   3.071   3.700  16.716  0.6131 -1.4657  2.0521
  400TMC3    H2 6034   2.654   3.731  16.641 -0.5042 -0.7190  0.8224
  400TMC3    C7 6035   2.882   3.874  16.662  0.0198 -0.0274 -0.8773
  400TMC3    C8 6036   2.594   3.558  16.849  0.6224  0.4445 -0.3846
  400TMC3    O1 6037   2.985   3.917  16.704 -0.3263 -0.3754 -0.1532
  400TMC3    O2 6038   2.551   3.552  16.964 -0.1590  0.1577  0.0533
  401MPD2     C 6039   1.198   2.400   0.687  0.0032  0.0648 -0.3923
  401MPD2    C1 6040   1.296   2.336   0.768  0.7690  0.2165 -0.2547
  401MPD2    C2 6041   1.298   2.196   0.765  0.5498  0.2144  0.2665
  401MPD2    C3 6042   1.211   2.119   0.692 -0.4360  0.0270 -0.0925
  401MPD2    C4 6043   1.115   2.184   0.616 -0.6442  0.0384  0.0173
  401MPD2    C5 6044   1.116   2.321   0.611  0.6401  0.4746 -0.1189
  401MPD2     H 6045   1.373   2.141   0.820  0.7632  1.2783  1.0287
  401MPD2    H1 6046   1.039   2.130   0.562  0.2120 -2.1279  0.9894
  401MPD2    H2 6047   1.192   2.508   0.677 -2.4278  0.1023  1.4868
  401MPD2    H3 6048   1.045   2.374   0.547  0.4339 -0.1489 -0.4009
  401MPD2     N 6049   1.212   1.979   0.713  0.1426 -0.0560 -0.6728
  401MPD2    H5 6050   1.266   1.944   0.791  0.6558  0.8918 -0.6106
  401MPD2    N1 6051   1.395   2.411   0.832 -0.0641  0.4682 -0.1838
  401MPD2    H7 6052   1.468   2.358   0.878 -2.0000 -0.7774  1.4677
  402TMC3    C1 6053   1.192   1.753   0.672 -0.4321  0.0816 -0.1119
  402TMC3    C2 6054   1.216   1.731   0.801  0.8878 -0.0970  0.9487
  402TMC3    C3 6055   1.263   1.602   0.830 -0.2787  1.4399  0.1400
  402TMC3    C4 6056   1.204   1.655   0.572 -0.7028  0.2081 -0.5059
  402TMC3    C5 6057   1.231   1.527   0.610 -0.4901 -0.2028  0.3286
  402TMC3    C6 6058   1.267   1.498   0.741 -0.1724  0.3968  0.4128
  402TMC3     C 6059   1.151   1.885   0.633  0.5221 -0.0214  0.1537
  402TMC3     O 6060   1.098   1.901   0.523  0.5504 -0.0419 -0.6441
  402TMC3     H 6061   1.212   1.801   0.884 -0.2241 -0.3747  1.1334
  402TMC3    H1 6062   1.175   1.667   0.468 -3.0740 -0.6417  0.0653
  402TMC3    H2 6063   1.298   1.401   0.779 -0.4370  0.9221  1.9665
  402TMC3    C7 6064   1.271   1.428   0.508  0.0997  0.2966  0.0765
  402TMC3    C8 6065   1.307   1.562   0.959 -0.2697  0.1055 -0.5198
  402TMC3    O1 6066   1.245   1.449   0.392  0.1169  0.9296 -0.0172
  402TMC3    O2 6067   1.403   1.485   0.969  0.0844  0.1828 -0.0240
  403MPD2     C 6068   4.005   0.656  13.430  0.1216  0.0075 -0.0789
  403MPD2    C1 6069   4.020   0.561  13.528 -0.1429  0.3760  0.2421
  403MPD2    C2 6070   4.049   0.600  13.655  0.1934 -0.4072 -0.3288
  403MPD2    C3 6071   4.069   0.732  13.684 -0.4257 -0.6969  0.8030
  403MPD2    C4 6072   4.053   0.830  13.590 -0.4601  0.4556  0.6228
  403MPD2    C5 6073   4.021   0.786  13.463 -0.3747 -0.1170  0.4429
  403MPD2     H 6074   4.036   0.536  13.742  0.5806  0.5084  0.4126
  403MPD2    H1 6075   4.072   0.936  13.597 -1.9717  0.6802  1.3843
  403MPD2    H2 6076   3.970   0.625  13.333  0.6665  2.2424 -0.9825
  403MPD2    H3 6077   4.006   0.858  13.383  1.1869  0.0005  0.2447
  403MPD2     N 6078   4.108   0.768  13.818 -0.3080 -0.5539 -0.1787
  403MPD2    H5 6079   4.116   0.689  13.882  0.2270 -0.0446  0.3781
  403MPD2    N1 6080   3.995   0.429  13.485  0.2725 -0.4415 -0.0211
  403MPD2    H7 6081   3.959   0.413  13.391 -1.5998  0.2728  0.5821
  404TMC3    C1 6082   3.953   0.202  13.498  0.2797 -0.2069  0.5311
  404TMC3    C2 6083   3.928   0.094  13.581  0.0797 -0.2998  0.2260
  404TMC3    C3 6084   3.863   4.725  13.524 -0.1519  1.1465 -1.0065
  404TMC3    C4 6085   3.948   0.190  13.362  0.1957 -0.7527 -1.0214
  404TMC3    C5 6086   3.883   0.085  13.311 -0.3430 -0.7737 -0.4872
  404TMC3    C6 6087   3.836   4.716  13.388 -0.1694 -0.4322  0.4216
  404TMC3     C 6088   4.009   0.320  13.564 -0.2339  0.0555  0.3582
  404TMC3     O 6089   4.039   0.317  13.679 -0.3192 -0.4559 -0.3059
  404TMC3     H 6090   3.967   0.094  13.682 -1.7549 -1.5083  0.9296
  404TMC3    H1 6091   3.972   0.276  13.300 -0.1734  0.3411  0.3596
  404TMC3    H2 6092   3.785   4.630  13.346  2.3696  0.2636 -4.0289
  404TMC3    C7 6093   3.873   0.077  13.165  0.5766  0.1295 -0.3579
  404TMC3    C8 6094   3.854   4.601  13.592 -0.8548 -0.0109  1.0018
  404TMC3    O1 6095   3.952   0.153  13.112  0.1552 -0.2139 -0.1180
  404TMC3    O2 6096   3.860   4.500  13.531  0.6923 -0.0810  0.2899
  405MPD2     C 6097   4.474   1.032  15.148 -0.1599  0.9152  0.2731
  405MPD2    C1 6098   4.445   0.970  15.034 -0.0994 -0.1363 -0.0428
  405MPD2    C2 6099   4.335   1.027  14.962 -0.4088 -0.3550 -0.0585
  405MPD2    C3 6100   4.263   1.132  15.015 -0.2588  0.5317 -0.0222
  405MPD2    C4 6101   4.298   1.189  15.132  0.1146 -0.3610  0.1586
  405MPD2    C5 6102   4.404   1.132  15.197  0.2704  0.8861  0.2149
  405MPD2     H 6103   4.306   0.997  14.862 -1.4457 -0.2905  0.2258
  405MPD2    H1 6104   4.247   1.264  15.191  0.1764  1.1793 -1.7290
  405MPD2    H2 6105   4.554   1.001  15.215 -0.5993 -0.1612  0.2987
  405MPD2    H3 6106   4.429   1.173  15.295 -0.4926  0.1114  0.7366
  405MPD2     N 6107   4.154   1.172  14.942 -0.1852 -0.4666 -0.0651
  405MPD2    H5 6108   4.140   1.132  14.850  1.0120 -1.5708  0.2304
  405MPD2    N1 6109   4.509   0.847  14.991  0.3231  0.3672  0.8822
  405MPD2    H7 6110   4.578   0.805  15.054 -0.0592 -0.0732  1.0122
  406TMC3    C1 6111   3.776   1.322  14.763  0.0817 -0.1066  0.3288
  406TMC3    C2 6112   3.734   1.198  14.737  0.8774  0.1063  0.2342
  406TMC3    C3 6113   3.802   1.094  14.799  0.2974 -0.0464  0.2556
  406TMC3    C4 6114   3.870   1.345  14.863  0.5464 -0.5033 -0.8289
  406TMC3    C5 6115   3.937   1.232  14.907  0.6532  0.6596 -0.3114
  406TMC3    C6 6116   3.908   1.104  14.875  0.2214  0.5212  0.2578
  406TMC3     C 6117   3.725   1.441  14.691 -0.3426  0.5989  0.6109
  406TMC3     O 6118   3.723   1.551  14.747 -0.3140  0.0119 -0.3236
  406TMC3     H 6119   3.660   1.169  14.663 -0.1774  0.9354  0.9660
  406TMC3    H1 6120   3.885   1.449  14.890  0.4269 -0.3033 -1.5437
  406TMC3    H2 6121   3.956   1.025  14.932 -0.8123 -1.3276 -1.4557
  406TMC3    C7 6122   4.055   1.258  14.987 -0.3691  0.1708 -0.1751
  406TMC3    C8 6123   3.784   0.954  14.755 -0.4157 -0.3146  0.1747
  406TMC3    O1 6124   4.065   1.356  15.057  1.2019 -0.3722  0.3807
  406TMC3    O2 6125   3.667   0.916  14.733 -0.2978 -0.0571 -0.1555
  407MPD2     C 6126   1.268   2.485   9.571  0.1489  0.2069 -0.3264
  407MPD2    C1 6127   1.377   2.537   9.637  0.0639 -0.1158  0.6955
  407MPD2    C2 6128   1.368   2.640   9.726  0.2348  0.5696  0.5312
  407MPD2    C3 6129   1.245   2.704   9.746 -0.0978 -0.1660 -0.3294
  407MPD2    C4 6130   1.132   2.655   9.671  0.5975 -0.1229  0.5688
  407MPD2    C5 6131   1.144   2.543   9.588 -0.1523  0.1504  0.0496
  407MPD2     H 6132   1.458   2.664   9.781  1.0047  0.3832 -0.6646
  407MPD2    H1 6133   1.032   2.695   9.686  1.5401  3.3428 -2.4433
  407MPD2    H2 6134   1.275   2.399   9.506  2.8078  1.0082 -1.0810
  407MPD2    H3 6135   1.062   2.494   9.538  1.2295 -1.4755 -0.6280
  407MPD2     N 6136   1.241   2.822   9.827  0.3580 -0.5723  0.6364
  407MPD2    H5 6137   1.186   2.901   9.798 -0.5975 -1.9954 -1.4463
  407MPD2    N1 6138   1.505   2.480   9.611 -0.0884  0.1734  0.3028
  407MPD2    H7 6139   1.584   2.522   9.658 -0.7594  2.7867 -0.9170
  408TMC3    C1 6140   1.691   2.377   9.536 -0.7860  0.5879 -0.0465
  408TMC3    C2 6141   1.769   2.285   9.598 -0.1137  0.0816  0.4016
  408TMC3    C3 6142   1.900   2.308   9.629  0.2802  0.2068 -0.2020
  408TMC3    C4 6143   1.744   2.494   9.509 -0.3770 -0.3409 -0.5852
  408TMC3    C5 6144   1.875   2.522   9.520  0.5647  0.1992 -0.6546
  408TMC3    C6 6145   1.959   2.429   9.582 -0.5047 -0.0334  0.1419
  408TMC3     C 6146   1.549   2.366   9.548 -0.2270 -0.1811 -0.0068
  408TMC3     O 6147   1.491   2.270   9.491  0.3809  0.0433  0.4111
  408TMC3     H 6148   1.711   2.203   9.639  0.4272 -1.5233 -2.0765
  408TMC3    H1 6149   1.678   2.572   9.473 -0.9950 -1.2728 -1.4725
  408TMC3    H2 6150   2.066   2.444   9.574 -0.3314 -1.5217 -0.3287
  408TMC3    C7 6151   1.936   2.632   9.443 -0.1397  0.8086  0.4048
  408TMC3    C8 6152   1.992   2.206   9.691 -0.2418 -0.2880 -0.8783
  408TMC3    O1 6153   2.048   2.669   9.480  0.3825 -0.3751 -0.5997
  408TMC3    O2 6154   1.946   2.095   9.719 -0.0195  0.0907  0.4931
  409MPD2     C 6155   1.634   3.450  17.156  0.2770 -0.2107 -0.3346
  409MPD2    C1 6156   1.724   3.472  17.262  0.0726  0.4308 -0.1054
  409MPD2    C2 6157   1.849   3.526  17.230  0.1347 -0.5447  0.8175
  409MPD2    C3 6158   1.884   3.558  17.096 -0.7674 -0.2545 -0.0200
  409MPD2    C4 6159   1.787   3.553  17.001  0.3924 -0.0112 -0.1984
  409MPD2    C5 6160   1.664   3.491  17.032 -0.1927  0.5909  0.2065
  409MPD2     H 6161   1.921   3.522  17.311 -0.6824 -0.2408  1.5600
  409MPD2    H1 6162   1.799   3.578  16.896 -0.9478 -0.6578 -0.5152
  409MPD2    H2 6163   1.534   3.410  17.168  0.6126 -1.8819 -3.0278
  409MPD2    H3 6164   1.591   3.480  16.953  0.5930 -1.2468 -0.2715
  409MPD2     N 6165   2.009   3.610  17.056  0.7704  0.7104 -0.1176
  409MPD2    H5 6166   2.011   3.643  16.960  0.2957  1.0504 -0.0113
  409MPD2    N1 6167   1.669   3.437  17.393 -0.4686  0.7750  0.7519
  409MPD2    H7 6168   1.570   3.414  17.391 -0.1217 -0.5587 -0.7596
  410TMC3    C1 6169   2.216   3.703  17.078  0.5879  0.2329 -0.3078
  410TMC3    C2 6170   2.307   3.749  17.171  0.3873 -0.0094 -0.2223
  410TMC3    C3 6171   2.402   3.838  17.129 -0.0699 -0.1761 -0.0569
  410TMC3    C4 6172   2.216   3.740  16.943  0.0029  0.6357  0.6115
  410TMC3    C5 6173   2.325   3.817  16.915 -0.4569  0.6719  0.0586
  410TMC3    C6 6174   2.416   3.866  16.999 -0.1973  0.5470  0.4939
  410TMC3     C 6175   2.118   3.618  17.141  0.4035  0.0396  0.4559
  410TMC3     O 6176   2.143   3.565  17.248 -0.7814 -0.2900 -0.0789
  410TMC3     H 6177   2.287   3.733  17.276 -3.1749 -0.0113 -0.8815
  410TMC3    H1 6178   2.136   3.732  16.869  1.1170 -1.5454 -0.3603
  410TMC3    H2 6179   2.498   3.926  16.961 -0.1654  1.4650  1.9959
  410TMC3    C7 6180   2.347   3.839  16.774  0.4639  0.1582  0.0927
  410TMC3    C8 6181   2.521   3.852  17.203  0.1233  0.2365 -0.4454
  410TMC3    O1 6182   2.317   3.749  16.700 -0.4262  0.3802 -0.5594
  410TMC3    O2 6183   2.594   3.947  17.175 -0.3243 -0.1866  0.1718
  411MPD2     C 6184   1.972   3.482  14.296 -0.3632  0.4484 -0.1905
  411MPD2    C1 6185   1.909   3.489  14.416  0.0604  0.0671  0.2225
  411MPD2    C2 6186   1.827   3.395  14.456 -0.4333  0.3498 -0.1966
  411MPD2    C3 6187   1.809   3.279  14.379 -0.2841 -0.2578 -0.0993
  411MPD2    C4 6188   1.867   3.275  14.255  0.5517 -0.9624 -0.0019
  411MPD2    C5 6189   1.954   3.376  14.215  0.7426  0.4114  0.2825
  411MPD2     H 6190   1.762   3.410  14.541 -0.7918 -1.6255 -0.1091
  411MPD2    H1 6191   1.866   3.185  14.194  4.4528 -1.8988  1.2687
  411MPD2    H2 6192   2.041   3.561  14.268 -0.7231  0.8995  0.1782
  411MPD2    H3 6193   2.021   3.350  14.134 -0.0472 -2.0745  0.4403
  411MPD2     N 6194   1.733   3.172  14.426 -0.2308 -0.3439  0.4540
  411MPD2    H5 6195   1.708   3.108  14.352 -1.2808  0.8840 -0.2504
  411MPD2    N1 6196   1.935   3.610  14.490 -0.5642  0.1957  0.7379
  411MPD2    H7 6197   2.003   3.675  14.451 -1.2199  0.4701  0.0731
  412TMC3    C1 6198   1.565   3.091  14.562 -0.3402 -0.0820 -0.3359
  412TMC3    C2 6199   1.479   3.163  14.642  0.2650 -0.0368  1.2529
  412TMC3    C3 6200   1.344   3.161  14.610 -0.5029 -0.2854  0.2645
  412TMC3    C4 6201   1.518   3.038  14.441  0.4949  0.1995 -0.2216
  412TMC3    C5 6202   1.391   3.049  14.408  0.1200  0.4004  0.2612
  412TMC3    C6 6203   1.300   3.094  14.499 -0.0653 -0.0337  0.6345
  412TMC3     C 6204   1.695   3.160  14.553 -0.1736  0.8829 -1.0054
  412TMC3     O 6205   1.746   3.211  14.651  0.5120 -0.3121 -0.1457
  412TMC3     H 6206   1.502   3.218  14.732 -0.3214 -2.0009  2.6152
  412TMC3    H1 6207   1.592   2.995  14.375  0.0207 -0.2478 -0.4585
  412TMC3    H2 6208   1.199   3.092  14.460 -1.0628 -0.9262  3.2956
  412TMC3    C7 6209   1.374   3.128  14.286 -0.3148 -0.8382 -0.7488
  412TMC3    C8 6210   1.287   3.292  14.639  0.0749 -0.3766 -0.1289
  412TMC3    O1 6211   1.309   3.230  14.290 -0.6143 -0.1016 -0.5558
  412TMC3    O2 6212   1.358   3.371  14.701 -0.0541  0.0765  0.0062
  413MPD2     C 6213   3.556   2.182  15.615 -0.1808  0.8768 -0.4386
  413MPD2    C1 6214   3.513   2.113  15.506  0.6407  0.3571  0.4872
  413MPD2    C2 6215   3.602   2.025  15.442 -0.1272  0.2055  0.9030
  413MPD2    C3 6216   3.727   2.015  15.492 -0.3561  0.4103 -0.2740
  413MPD2    C4 6217   3.770   2.090  15.598  0.3725 -0.2534 -0.6696
  413MPD2    C5 6218   3.683   2.179  15.652  0.4047  1.0580 -0.4530
  413MPD2     H 6219   3.570   1.970  15.355 -0.1393  2.0993 -0.2921
  413MPD2    H1 6220   3.868   2.074  15.642  0.1489 -0.9922 -0.4376
  413MPD2    H2 6221   3.486   2.241  15.673 -0.9563 -2.9106  2.3988
  413MPD2    H3 6222   3.716   2.228  15.743 -0.0060 -1.1295  0.8652
  413MPD2     N 6223   3.803   1.900  15.449 -1.3302  0.2323 -0.3639
  413MPD2    H5 6224   3.777   1.858  15.360 -2.3094  1.7419 -0.7931
  413MPD2    N1 6225   3.379   2.124  15.473  0.5433 -0.5550 -0.2159
  413MPD2    H7 6226   3.329   2.178  15.542 -0.8731  0.4061 -1.9920
  414TMC3    C1 6227   3.946   1.711  15.468  0.0792 -0.5678  0.2379
  414TMC3    C2 6228   3.962   1.599  15.536 -0.3171  0.8928  0.0474
  414TMC3    C3 6229   4.035   1.500  15.477 -0.5744  0.0008 -0.3914
  414TMC3    C4 6230   4.006   1.736  15.346 -0.7118  0.2774 -0.2804
  414TMC3    C5 6231   4.074   1.629  15.289 -0.5172 -0.2598  0.6808
  414TMC3    C6 6232   4.086   1.511  15.356 -0.4191 -0.8032  0.0894
  414TMC3     C 6233   3.892   1.830  15.530  0.0016  0.2529  0.1423
  414TMC3     O 6234   3.905   1.842  15.652 -0.3627 -0.3346  0.2813
  414TMC3     H 6235   3.924   1.594  15.637 -2.4718 -4.1787 -1.0300
  414TMC3    H1 6236   3.974   1.820  15.285 -0.3306  1.8382  1.6790
  414TMC3    H2 6237   4.151   1.429  15.327 -0.0549 -0.2048 -0.7710
  414TMC3    C7 6238   4.188   1.664  15.211 -0.1764  0.3049 -0.0544
  414TMC3    C8 6239   4.097   1.398  15.555 -0.5070  0.3647 -0.4833
  414TMC3    O1 6240   4.237   1.775  15.236 -0.3404  0.2587 -0.3693
  414TMC3    O2 6241   4.090   1.291  15.501  0.8329  0.5190 -0.0477
  415TMC3    C1 6242   3.906   4.678  10.629  0.1099 -0.0781  0.0481
  415TMC3    C2 6243   3.943   4.716  10.503  0.7026  0.0145 -0.0000
  415TMC3    C3 6244   3.907   4.624  10.406 -0.7076 -0.4075  0.1368
  415TMC3    C4 6245   3.831   4.568  10.662 -0.2702  0.1250 -0.5190
  415TMC3    C5 6246   3.809   4.481  10.561  0.3978 -0.0990 -0.4662
  415TMC3    C6 6247   3.845   4.509  10.431 -0.4754  0.1359 -0.4719
  415TMC3     C 6248   3.955   0.014  10.742 -0.1276  0.0569 -0.2733
  415TMC3     O 6249   3.885   0.011  10.841 -0.8830 -0.1659  0.0877
  415TMC3     H 6250   3.976   0.081  10.485  0.1543  0.1848 -0.0665
  415TMC3    H1 6251   3.797   4.552  10.764 -1.1414 -0.6112 -0.9289
  415TMC3    H2 6252   3.839   4.428  10.360  0.9657 -0.5605  0.1978
  415TMC3    C7 6253   3.744   4.355  10.585  0.5464  0.1691  0.7338
  415TMC3    C8 6254   3.956   4.646  10.267 -0.5685  0.6178  0.7371
  415TMC3    O1 6255   3.732   4.269  10.495  0.0345  0.5480 -0.1736
  415TMC3    O2 6256   3.907   4.571  10.178 -0.2537  0.0183  0.0490
  416MPD2     C 6257   0.990   3.881  11.174 -0.3647 -0.3705 -0.1658
  416MPD2    C1 6258   0.979   3.826  11.295 -0.3743 -0.3076  0.5643
  416MPD2    C2 6259   0.961   3.691  11.308 -0.4710  0.5755 -0.1110
  416MPD2    C3 6260   0.960   3.608  11.197  0.1089 -0.0717  0.4258
  416MPD2    C4 6261   0.976   3.666  11.070  0.2918 -0.6079  0.3047
  416MPD2    C5 6262   0.997   3.800  11.064 -0.1985  1.0684  0.1550
  416MPD2     H 6263   0.941   3.638  11.400 -2.6817  1.6109  0.0093
  416MPD2    H1 6264   0.990   3.599  10.985  1.2508  1.5447 -1.2418
  416MPD2    H2 6265   1.009   3.988  11.165 -3.2519  0.2594  0.9649
  416MPD2    H3 6266   1.012   3.847  10.968 -0.6807  2.5199  0.7871
  416MPD2     N 6267   0.922   3.471  11.216 -0.2492 -0.2943  0.1016
  416MPD2    H5 6268   0.917   3.430  11.309 -3.2767  0.8818  0.4566
  416MPD2    N1 6269   0.975   3.907  11.407 -0.1578  0.8040 -0.4829
  416MPD2    H7 6270   0.973   4.006  11.383  0.2506  1.0161  0.3614
  417TMC3    C1 6271   0.917   3.955  11.620 -0.5754 -0.5462 -0.5961
  417TMC3    C2 6272   0.941   3.928  11.751 -0.6393 -1.1978 -0.2951
  417TMC3    C3 6273   0.838   3.973  11.834  0.3189 -0.1029 -1.0165
  417TMC3    C4 6274   0.813   4.028  11.573  0.2797  0.2463  0.5395
  417TMC3    C5 6275   0.709   4.046  11.652  0.3313 -0.8007  0.8092
  417TMC3    C6 6276   0.725   4.016  11.781 -0.4822  0.1705  0.3294
  417TMC3     C 6277   0.979   3.864  11.535 -0.6163  0.0287 -0.1216
  417TMC3     O 6278   1.001   3.754  11.585  0.4824  0.1105  0.4248
  417TMC3     H 6279   1.036   3.890  11.788 -0.4099  1.9158  2.2495
  417TMC3    H1 6280   0.800   4.051  11.468 -1.5951  1.8648  1.1270
  417TMC3    H2 6281   0.644   4.032  11.851  0.3694  0.7537  1.2000
  417TMC3    C7 6282   0.594   4.128  11.601  0.2126 -0.2868 -0.3799
  417TMC3    C8 6283   0.837   3.960  11.978  0.0875  0.2292  0.2371
  417TMC3    O1 6284   0.616   4.205  11.510 -0.2489 -0.1431  0.0164
  417TMC3    O2 6285   0.734   3.933  12.040  0.0733  0.0432  0.0252
  418TMC3    C1 6286   4.685   1.331   0.451 -0.7521  0.6519 -0.6001
  418TMC3    C2 6287   4.570   1.301   0.386  0.3841  0.8486  0.4573
  418TMC3    C3 6288   4.510   1.192   0.430 -0.4941  0.3153  0.5835
  418TMC3    C4 6289   0.005   1.261   0.558 -0.3454  0.0972 -0.6072
  418TMC3    C5 6290   4.664   1.152   0.605 -0.0111  0.2699 -0.2538
  418TMC3    C6 6291   4.552   1.118   0.536  0.1706  0.0734  0.0684
  418TMC3     C 6292   0.056   1.399   0.368  0.1708 -0.3250 -0.2113
  418TMC3     O 6293   0.029   1.511   0.326 -0.1876  0.1174  0.8055
  418TMC3     H 6294   4.526   1.341   0.295 -0.7611 -0.5980  0.3847
  418TMC3    H1 6295   0.074   1.316   0.621  0.4292 -2.7237  0.9823
  418TMC3    H2 6296   4.499   1.027   0.565 -0.9680  0.7251  0.0311
  418TMC3    C7 6297   4.689   1.080   0.721  0.4690 -0.5903 -0.5901
  418TMC3    C8 6298   4.418   1.127   0.340 -0.0813  0.0770  0.2188
  418TMC3    O1 6299   4.648   0.961   0.718  0.1687 -0.1903  0.4475
  418TMC3    O2 6300   4.370   1.186   0.244  0.2145  0.0523  0.2843
  419MPD2     C 6301   3.343   3.573  12.497  0.4045 -0.3861  0.3118
  419MPD2    C1 6302   3.230   3.653  12.518  0.0432  0.3166 -0.0489
  419MPD2    C2 6303   3.195   3.694  12.642  0.2823 -0.0586  0.0757
  419MPD2    C3 6304   3.257   3.645  12.757 -0.0688 -0.4146  0.1534
  419MPD2    C4 6305   3.364   3.551  12.741 -0.7449 -0.1121  0.0287
  419MPD2    C5 6306   3.408   3.532  12.614  0.3074 -0.5879 -0.1159
  419MPD2     H 6307   3.117   3.768  12.650 -0.6357 -1.0835  0.6617
  419MPD2    H1 6308   3.419   3.517  12.828  2.4334 -1.4055 -2.4682
  419MPD2    H2 6309   3.403   3.573  12.407  1.6491  2.4966  1.1549
  419MPD2    H3 6310   3.489   3.464  12.592  1.7024  1.5138 -1.4417
  419MPD2     N 6311   3.209   3.689  12.879  0.3149 -0.0437  0.2496
  419MPD2    H5 6312   3.146   3.768  12.871 -2.2491 -2.1922 -0.6748
  419MPD2    N1 6313   3.161   3.710  12.410  0.3019 -0.4139 -0.1759
  419MPD2    H7 6314   3.081   3.771  12.423 -0.4956 -1.5044  0.0540
  420TMC3    C1 6315   3.173   3.703  13.110 -0.0602  0.3375 -0.5373
  420TMC3    C2 6316   3.052   3.752  13.085 -0.2039 -0.2658  0.6480
  420TMC3    C3 6317   2.988   3.817  13.185  0.6051  0.2891  0.1410
  420TMC3    C4 6318   3.238   3.714  13.227 -0.3089  0.2978  0.4943
  420TMC3    C5 6319   3.168   3.786  13.327  0.6221 -0.5685  0.4409
  420TMC3    C6 6320   3.040   3.840  13.311 -0.0601  0.1725 -0.2381
  420TMC3     C 6321   3.243   3.638  13.007  0.3788 -0.6512  0.4363
  420TMC3     O 6322   3.345   3.578  13.042  0.3054 -0.1770  0.9135
  420TMC3     H 6323   2.998   3.716  12.998 -0.5490 -2.0394  1.5873
  420TMC3    H1 6324   3.338   3.682  13.251  0.8901  4.7756  1.4404
  420TMC3    H2 6325   3.000   3.911  13.383 -0.7493  0.7749 -1.2135
  420TMC3    C7 6326   3.204   3.746  13.460  0.4525  0.7463  0.2655
  420TMC3    C8 6327   2.856   3.871  13.157 -0.6044  0.4165  0.0247
  420TMC3    O1 6328   3.115   3.730  13.546 -0.4743  0.8050 -0.3361
  420TMC3    O2 6329   2.830   3.879  13.037 -0.0724  0.2685 -0.4549
  421TMC3    C1 6330   4.207   0.892  13.989  0.0156 -0.2769  0.1749
  421TMC3    C2 6331   4.219   1.022  14.037  0.7609 -0.3935  0.2966
  421TMC3    C3 6332   4.297   1.030  14.149  0.0878  0.0801 -0.1221
  421TMC3    C4 6333   4.263   0.780  14.040  0.5350 -0.4007 -0.0508
  421TMC3    C5 6334   4.332   0.797  14.160  0.0545  0.3891 -0.4829
  421TMC3    C6 6335   4.346   0.921  14.214 -0.2235  0.4619 -0.1165
  421TMC3     C 6336   4.152   0.890  13.857  0.2402 -0.4438  0.1350
  421TMC3     O 6337   4.159   0.998  13.798  0.0244 -0.1783  0.0144
  421TMC3     H 6338   4.173   1.112  13.997  0.6083 -0.0772  1.1714
  421TMC3    H1 6339   4.268   0.693  13.975  1.6088 -0.3686 -0.0134
  421TMC3    H2 6340   4.407   0.948  14.300  0.3317 -1.4669  0.0978
  421TMC3    C7 6341   4.427   0.696  14.207 -0.0286  0.3039  0.2408
  421TMC3    C8 6342   4.362   1.158  14.175 -0.3523 -0.0595  0.1280
  421TMC3    O1 6343   4.533   0.733  14.257  0.2361 -0.5466 -0.3316
  421TMC3    O2 6344   4.390   1.185  14.289  0.1907  0.3103  0.0343
  422TMC3    C1 6345   1.790   2.010  12.562  0.1134  0.2918 -0.2643
  422TMC3    C2 6346   1.826   2.111  12.648 -0.5239  0.4613 -0.4342
  422TMC3    C3 6347   1.733   2.205  12.676 -0.1632  0.3561  0.2571
  422TMC3    C4 6348   1.659   1.994  12.527 -0.6479 -0.1634  0.0423
  422TMC3    C5 6349   1.569   2.090  12.562 -0.6282  0.2835  0.7724
  422TMC3    C6 6350   1.604   2.195  12.637  0.4734  0.7256 -0.0541
  422TMC3     C 6351   1.902   1.979  12.469 -0.2544  0.4934 -0.5736
  422TMC3     O 6352   2.010   2.009  12.513  0.1266 -0.2491 -0.1637
  422TMC3     H 6353   1.927   2.111  12.686 -0.8793 -0.7037  0.5393
  422TMC3    H1 6354   1.626   1.911  12.465 -0.8477  0.3359 -0.5168
  422TMC3    H2 6355   1.531   2.266  12.675  0.2692 -0.3050  1.4442
  422TMC3    C7 6356   1.434   2.055  12.530  0.4981 -0.0543  0.5982
  422TMC3    C8 6357   1.789   2.337  12.703 -0.1528  0.3718  0.2653
  422TMC3    O1 6358   1.363   2.145  12.478  0.2023 -0.2074 -0.0634
  422TMC3    O2 6359   1.905   2.334  12.744  0.0802 -0.0027 -0.3844
  423MPD2     C 6360   3.619   3.146   0.735  0.7365 -0.2616  0.4773
  423MPD2    C1 6361   3.623   3.018   0.797 -0.8909 -0.0084 -0.3885
  423MPD2    C2 6362   3.660   2.912   0.715  0.1981  0.0411 -0.0418
  423MPD2    C3 6363   3.694   2.926   0.587  0.2532 -0.2564  0.5219
  423MPD2    C4 6364   3.680   3.049   0.524  0.2319  0.1028 -0.3999
  423MPD2    C5 6365   3.647   3.157   0.599 -0.3313  0.8679  0.5081
  423MPD2     H 6366   3.667   2.816   0.766 -1.2730 -1.0155 -1.8243
  423MPD2    H1 6367   3.710   3.066   0.421  5.8900  1.5620  1.5116
  423MPD2    H2 6368   3.599   3.234   0.794  1.4632  0.5210 -0.4430
  423MPD2    H3 6369   3.638   3.255   0.553 -0.5459 -0.1933 -1.7582
  423MPD2     N 6370   3.740   2.817   0.509 -0.1819 -0.0298  0.1631
  423MPD2    H5 6371   3.757   2.844   0.413 -0.5508  0.4782  0.2429
  423MPD2    N1 6372   3.584   2.993   0.932 -1.0771  0.0971 -0.4979
  423MPD2    H7 6373   3.575   2.895   0.961 -1.7849 -0.5271 -2.8739
  424TMC3    C1 6374   3.488   3.023   1.147 -0.6202 -0.5519  0.1064
  424TMC3    C2 6375   3.568   2.926   1.207  0.2999 -0.1587 -0.3630
  424TMC3    C3 6376   3.538   2.884   1.334  0.2786 -0.5558  0.8894
  424TMC3    C4 6377   3.383   3.077   1.203 -0.6376 -0.0217  0.6520
  424TMC3    C5 6378   3.357   3.035   1.333 -0.1232 -0.4537  0.4464
  424TMC3    C6 6379   3.428   2.936   1.396 -0.4483 -0.4220 -0.3817
  424TMC3     C 6380   3.539   3.086   1.023 -0.3287  0.6160 -0.3532
  424TMC3     O 6381   3.517   3.202   1.007 -0.6754 -0.1460  0.2922
  424TMC3     H 6382   3.663   2.895   1.166 -0.2468 -0.3589 -1.4743
  424TMC3    H1 6383   3.330   3.154   1.148  0.6100  1.0624  0.9812
  424TMC3    H2 6384   3.404   2.903   1.497 -1.9935 -1.2278 -1.0200
  424TMC3    C7 6385   3.228   3.081   1.384  0.3894  0.7190  0.1397
  424TMC3    C8 6386   3.611   2.769   1.397 -0.0472 -0.3690 -0.4557
  424TMC3    O1 6387   3.215   3.073   1.507  0.1660 -0.2080  0.3957
  424TMC3    O2 6388   3.558   2.708   1.493 -0.8857 -0.2914 -0.2093
  425MPD2     C 6389   2.683   2.122  17.365  0.2040 -0.0126 -0.3990
  425MPD2    C1 6390   2.593   2.057  17.300 -0.8136  0.0437  0.4852
  425MPD2    C2 6391   2.465   2.103  17.296  0.7664  0.4605  0.1621
  425MPD2    C3 6392   2.427   2.220  17.367  0.2745  0.4372  0.7653
  425MPD2    C4 6393   2.524   2.293  17.426 -0.1719 -0.6829 -0.2787
  425MPD2    C5 6394   2.651   2.245  17.424 -0.2655  0.3186 -0.2930
  425MPD2     H 6395   2.385   2.052  17.244  0.5269 -0.3624  1.3347
  425MPD2    H1 6396   2.497   2.372  17.495  0.3233  1.5844 -2.6877
  425MPD2    H2 6397   2.782   2.078  17.379  0.9861  1.7689 -0.3326
  425MPD2    H3 6398   2.710   2.298  17.498  1.3215 -0.7200 -0.8057
  425MPD2     N 6399   2.290   2.257  17.376  0.2836  0.7448  0.5834
  425MPD2    H5 6400   2.225   2.192  17.332  1.3118 -0.6554  1.1472
  425MPD2    N1 6401   2.634   1.941  17.217  0.0757 -0.1504 -0.0164
  425MPD2    H7 6402   2.727   1.903  17.234  0.4693  1.8418  2.3576
  426TMC3    C1 6403   2.623   1.744  17.090  0.7926 -0.3175 -0.1782
  426TMC3    C2 6404   2.595   1.699  16.962 -0.6024  0.4380 -0.2538
  426TMC3    C3 6405   2.628   1.569  16.927 -0.1486 -0.7197 -0.6319
  426TMC3    C4 6406   2.673   1.659  17.190  0.0700 -0.2314  0.4628
  426TMC3    C5 6407   2.697   1.535  17.148 -0.6919  0.0843 -0.3995
  426TMC3    C6 6408   2.686   1.486  17.019 -0.2823  0.3918 -0.7794
  426TMC3     C 6409   2.560   1.869  17.132 -0.3173 -0.7211  0.6687
  426TMC3     O 6410   2.463   1.914  17.070 -0.1721 -0.1837 -0.0552
  426TMC3     H 6411   2.559   1.775  16.893  3.8489  1.0565 -1.8828
  426TMC3    H1 6412   2.675   1.692  17.293 -2.0491  2.0786 -0.2272
  426TMC3    H2 6413   2.694   1.380  16.998  3.6294  0.4433  0.4343
  426TMC3    C7 6414   2.741   1.440  17.245  0.0702  0.1804  0.0899
  426TMC3    C8 6415   2.608   1.529  16.788 -0.2823 -0.2981 -0.7079
  426TMC3    O1 6416   2.798   1.337  17.208 -0.0144 -0.8770 -0.6210
  426TMC3    O2 6417   2.532   1.438  16.755 -0.7028  0.2442  0.5405
  427MPD2     C 6418   0.633   3.420  15.180  0.5781  0.5218  0.0047
  427MPD2    C1 6419   0.747   3.495  15.163 -0.3133 -0.3208 -0.6909
  427MPD2    C2 6420   0.741   3.627  15.107  0.5148 -0.3863 -0.9112
  427MPD2    C3 6421   0.616   3.667  15.071 -1.0592  0.3868 -0.1767
  427MPD2    C4 6422   0.502   3.600  15.096 -0.2218 -0.2906  0.1750
  427MPD2    C5 6423   0.508   3.477  15.153  0.4655 -0.4299 -0.3989
  427MPD2     H 6424   0.835   3.675  15.084  0.3775  0.3195 -0.0108
  427MPD2    H1 6425   0.405   3.641  15.071  0.3590  0.1222 -1.4062
  427MPD2    H2 6426   0.635   3.319  15.219 -2.0865  0.9607  1.3244
  427MPD2    H3 6427   0.414   3.423  15.157  0.1571  0.1691  0.3060
  427MPD2     N 6428   0.603   3.800  15.015 -0.7296  0.3574 -0.5431
  427MPD2    H5 6429   0.507   3.830  15.004 -0.4663  0.2011 -3.1176
  427MPD2    N1 6430   0.878   3.449  15.180 -0.0716  0.1774  0.1745
  427MPD2    H7 6431   0.958   3.510  15.164  1.9628 -2.6537 -0.3792
  428TMC3    C1 6432   1.045   3.309  15.242  0.0351 -0.0136  0.5957
  428TMC3    C2 6433   1.089   3.182  15.248  0.1130  0.0639 -1.1258
  428TMC3    C3 6434   1.193   3.153  15.330  0.0768  0.2171  0.1954
  428TMC3    C4 6435   1.103   3.407  15.322 -0.1237 -0.2213  0.2609
  428TMC3    C5 6436   1.206   3.371  15.404 -0.4869  0.2401 -0.7799
  428TMC3    C6 6437   1.252   3.245  15.412  0.2285 -0.9568  0.0506
  428TMC3     C 6438   0.908   3.317  15.205 -0.7039  0.3633  0.2208
  428TMC3     O 6439   0.841   3.212  15.220 -0.2493  0.2964  0.6605
  428TMC3     H 6440   1.041   3.103  15.190 -0.0931 -1.3014  0.9124
  428TMC3    H1 6441   1.074   3.511  15.324 -1.5927 -0.5965 -1.6962
  428TMC3    H2 6442   1.346   3.223  15.461  0.1955 -1.9363 -0.3257
  428TMC3    C7 6443   1.269   3.469  15.494 -0.2819  0.1718  1.2728
  428TMC3    C8 6444   1.234   3.012  15.344 -0.9688 -0.0539  0.2094
  428TMC3    O1 6445   1.276   3.582  15.455  0.2006 -0.3747  0.0872
  428TMC3    O2 6446   1.194   2.935  15.254 -0.0753 -0.1984  0.3452
  429MPD2     C 6447   3.225   4.300  17.624 -0.4156 -0.3592 -0.4988
  429MPD2    C1 6448   3.113   4.255  17.555 -0.2596 -0.1429 -0.0610
  429MPD2    C2 6449   3.078   4.314  17.432 -0.6362  0.6638  0.6082
  429MPD2    C3 6450   3.165   4.399  17.373  1.0667 -0.5455 -0.1887
  429MPD2    C4 6451   3.282   4.436  17.443 -0.3348 -0.0185 -0.3285
  429MPD2    C5 6452   3.307   4.391  17.568  0.0112 -0.5864  0.1378
  429MPD2     H 6453   2.987   4.281  17.384 -1.0884  1.2108  1.0955
  429MPD2    H1 6454   3.353   4.500  17.391 -0.7797 -0.4043 -1.4241
  429MPD2    H2 6455   3.246   4.272  17.726 -0.0575 -0.6841 -0.6597
  429MPD2    H3 6456   3.387   4.427  17.631  1.6209  0.4799 -2.5069
  429MPD2     N 6457   3.135   4.460  17.247  0.0290  0.0853  0.3361
  429MPD2    H5 6458   3.040   4.441  17.217  0.3383 -0.3693 -0.3381
  429MPD2    N1 6459   3.029   4.147  17.605  0.7236 -0.2217 -0.3414
  429MPD2    H7 6460   2.950   4.127  17.545 -1.0378 -0.1121  1.9657
  430TMC3    C1 6461   3.159   4.572  17.046 -0.4656  0.6723 -0.6133
  430TMC3    C2 6462   3.170   4.699  16.986 -0.0761  0.0672 -0.1061
  430TMC3    C3 6463   3.121   4.718  16.855 -0.0963  0.2045 -0.7882
  430TMC3    C4 6464   3.119   4.472  16.972  0.4518 -0.2798  0.2985
  430TMC3    C5 6465   3.070   4.491  16.843 -0.6362 -0.2106  0.0978
  430TMC3    C6 6466   3.064   4.618  16.782 -0.9124 -0.1511  0.1862
  430TMC3     C 6467   3.213   4.553  17.175  0.3576 -0.2534 -0.8024
  430TMC3     O 6468   3.305   4.628  17.213  0.6368  0.0372 -0.2961
  430TMC3     H 6469   3.205   0.050  17.040  1.9980 -1.3624  0.8690
  430TMC3    H1 6470   3.121   4.371  17.013  1.5850 -0.4427 -0.1404
  430TMC3    H2 6471   3.030   4.636  16.681 -1.6386 -0.3858  0.3881
  430TMC3    C7 6472   2.998   4.377  16.789 -0.1008  0.1907  0.6340
  430TMC3    C8 6473   3.063   0.110  16.819 -0.1769 -0.8358  0.2248
  430TMC3    O1 6474   2.982   4.281  16.861  0.8606  0.1529 -0.2084
  430TMC3    O2 6475   3.120   0.216  16.845  0.4168  0.5531  0.0639
  431MPD2     C 6476   2.791   4.086  12.771  0.3894 -0.9466 -0.6141
  431MPD2    C1 6477   2.847   4.159  12.668  0.1756 -0.1454  0.7917
  431MPD2    C2 6478   2.856   4.096  12.541  0.0980 -0.1021 -0.4527
  431MPD2    C3 6479   2.803   3.972  12.522 -0.0045 -0.0138 -0.0529
  431MPD2    C4 6480   2.757   3.903  12.624 -0.1310  0.0784  0.0389
  431MPD2    C5 6481   2.742   3.961  12.742  0.0337 -0.1015  1.0230
  431MPD2     H 6482   2.904   4.145  12.456  1.6458  0.8408  0.9677
  431MPD2    H1 6483   2.718   3.802  12.620 -1.0498  0.4844 -1.7070
  431MPD2    H2 6484   2.783   4.129  12.871  0.3894 -0.1434 -0.9542
  431MPD2    H3 6485   2.692   3.903  12.818  0.0828 -2.3672 -0.6745
  431MPD2     N 6486   2.801   3.904  12.401  0.2941  0.0098 -0.3418
  431MPD2    H5 6487   2.794   3.803  12.397  1.0087  0.0518 -2.9701
  431MPD2    N1 6488   2.888   4.291  12.679  0.0360  0.1290  0.1077
  431MPD2    H7 6489   2.916   4.336  12.593  0.6367  2.5866  1.5827
  432TMC3    C1 6490   2.900   3.881  12.189 -0.1494 -0.0394 -0.5903
  432TMC3    C2 6491   2.957   3.962  12.089 -0.1385  1.6041  1.2748
  432TMC3    C3 6492   3.078   3.924  12.037 -0.7585  0.1721 -0.2704
  432TMC3    C4 6493   2.969   3.771  12.237 -0.8087 -0.7395  0.1990
  432TMC3    C5 6494   3.098   3.745  12.188 -0.7021 -0.1367  0.2875
  432TMC3    C6 6495   3.148   3.822  12.092 -0.5146  0.0172 -0.3740
  432TMC3     C 6496   2.831   3.968  12.279 -0.0709  0.3232 -0.0134
  432TMC3     O 6497   2.822   4.088  12.252  0.1325 -0.6060 -0.2604
  432TMC3     H 6498   2.897   4.044  12.051 -4.7712 -2.4175 -0.1208
  432TMC3    H1 6499   2.930   3.717  12.322 -0.6109  0.8670  1.3185
  432TMC3    H2 6500   3.244   3.795  12.050  0.2078 -1.1695  2.0087
  432TMC3    C7 6501   3.193   3.685  12.279 -0.0154  0.2117 -0.0065
  432TMC3    C8 6502   3.161   4.033  11.987  0.5929 -0.1694  0.1150
  432TMC3    O1 6503   3.291   3.635  12.223 -0.3391 -0.2210  0.2077
  432TMC3    O2 6504   3.109   4.122  11.919  0.6632  0.0854  0.3996
  433MPD2     C 6505   1.376   3.182  10.665  0.4198 -1.1331 -0.4738
  433MPD2    C1 6506   1.472   3.104  10.730 -0.4302  0.3956 -0.2642
  433MPD2    C2 6507   1.570   3.160  10.803  0.2504 -0.3390 -0.5886
  433MPD2    C3 6508   1.590   3.295  10.814 -0.0163 -0.0139  0.1292
  433MPD2    C4 6509   1.506   3.373  10.737  0.2041  0.4379 -0.1607
  433MPD2    C5 6510   1.407   3.317  10.657 -0.1964 -0.0346  0.2298
  433MPD2     H 6511   1.633   3.109  10.875  0.5294  0.0975 -0.5210
  433MPD2    H1 6512   1.520   3.480  10.737 -0.7889  0.5711 -2.2449
  433MPD2    H2 6513   1.296   3.148  10.600  0.0743 -1.9932  0.4056
  433MPD2    H3 6514   1.338   3.381  10.603  1.0103  2.9827  2.2971
  433MPD2     N 6515   1.684   3.347  10.910  0.2765 -0.2008  0.3402
  433MPD2    H5 6516   1.741   3.280  10.960  0.4936 -1.1888 -1.2052
  433MPD2    N1 6517   1.479   2.967  10.724 -0.0740  0.2755  0.1590
  433MPD2    H7 6518   1.552   2.916  10.773  0.1326  1.4977  1.1204
  434TMC3    C1 6519   1.428   2.742  10.700 -0.0755  0.2138  0.7834
  434TMC3    C2 6520   1.514   2.717  10.807 -0.4601 -0.9598  0.5067
  434TMC3    C3 6521   1.514   2.588  10.860 -0.6962 -0.0951  0.2530
  434TMC3    C4 6522   1.348   2.647  10.642 -0.3748  0.3485  0.0132
  434TMC3    C5 6523   1.342   2.527  10.709  0.6852  0.2534 -0.5939
  434TMC3    C6 6524   1.431   2.489  10.812 -0.6520 -0.0147 -0.1129
  434TMC3     C 6525   1.393   2.880  10.669  0.5224 -0.7220  0.3771
  434TMC3     O 6526   1.307   2.904  10.585  0.4889 -0.6624 -0.2411
  434TMC3     H 6527   1.580   2.790  10.854  0.5203 -0.0039 -2.3696
  434TMC3    H1 6528   1.282   2.673  10.561 -0.4457  0.3202  0.0615
  434TMC3    H2 6529   1.436   2.387  10.848 -2.3714  0.2614  0.9195
  434TMC3    C7 6530   1.225   2.450  10.684 -0.8585 -0.3103 -0.3173
  434TMC3    C8 6531   1.618   2.556  10.956 -0.2110  0.3713 -0.2053
  434TMC3    O1 6532   1.180   2.457  10.574  0.4677 -0.6533  0.5189
  434TMC3    O2 6533   1.721   2.621  10.953 -0.3391 -0.0897 -0.9141
  435MPD2     C 6534   4.216   3.001  15.519  1.2748 -0.5373 -0.0623
  435MPD2    C1 6535   4.158   2.961  15.640 -0.1321 -1.0586 -0.8519
  435MPD2    C2 6536   4.229   2.874  15.714  0.2891 -0.8868 -0.1446
  435MPD2    C3 6537   4.346   2.815  15.682 -0.6009  0.0555  0.2109
  435MPD2    C4 6538   4.397   2.840  15.557  0.4674 -0.5629 -0.0151
  435MPD2    C5 6539   4.331   2.943  15.479  0.0521 -0.2640  0.0728
  435MPD2     H 6540   4.201   2.846  15.815  3.0008 -1.4483  0.4582
  435MPD2    H1 6541   4.480   2.790  15.509 -0.1964 -0.1813 -1.5367
  435MPD2    H2 6542   4.183   3.091  15.469  0.1512  0.1456  1.9210
  435MPD2    H3 6543   4.375   2.956  15.381 -0.3473  1.1003  0.0821
  435MPD2     N 6544   4.412   2.738  15.776 -0.3182 -0.7010  0.3216
  435MPD2    H5 6545   4.357   2.707  15.855  0.3534  0.6737  1.3356
  435MPD2    N1 6546   4.043   3.020  15.693  0.1288  0.5945  0.2865
  435MPD2    H7 6547   4.003   2.988  15.781  1.0249 -2.0806 -0.2617
  436TMC3    C1 6548   3.695   3.118  15.900 -0.3385  0.0936  0.4539
  436TMC3    C2 6549   3.814   3.093  15.841 -0.0504  0.1405  0.2444
  436TMC3    C3 6550   3.831   3.127  15.709  0.2508 -0.1166 -0.0347
  436TMC3    C4 6551   3.592   3.170  15.832 -0.1275 -0.2455 -0.1746
  436TMC3    C5 6552   3.614   3.192  15.695 -0.4496 -0.6314 -0.3768
  436TMC3    C6 6553   3.734   3.182  15.632 -0.4302 -0.1409 -0.4392
  436TMC3     C 6554   3.699   3.135  16.052  0.0531 -0.0731  0.4969
  436TMC3     O 6555   3.803   3.182  16.095  0.4569 -0.2300  0.1441
  436TMC3     H 6556   3.890   3.058  15.909  1.4403  0.5288 -1.2248
  436TMC3    H1 6557   3.501   3.200  15.883 -0.7951 -0.9480 -0.9448
  436TMC3    H2 6558   3.741   3.192  15.524  2.2787 -1.0064 -0.3326
  436TMC3    C7 6559   3.501   3.198  15.611 -0.6917  0.3342  0.1019
  436TMC3    C8 6560   3.959   3.103  15.633 -0.7669 -0.0003 -0.4879
  436TMC3    O1 6561   3.513   3.253  15.505 -0.5698 -0.4722  0.0577
  436TMC3    O2 6562   3.962   3.145  15.518  0.1364 -0.1979 -0.1714
  437TMC3    C1 6563   2.598   4.292  13.374 -0.0166  0.1686 -0.2153
  437TMC3    C2 6564   2.481   4.319  13.438  0.5089 -0.2654  0.6636
  437TMC3    C3 6565   2.385   4.375  13.365  0.7394  0.1294  0.0593
  437TMC3    C4 6566   2.610   4.324  13.236  0.2637  0.2112  0.4918
  437TMC3    C5 6567   2.507   4.378  13.166 -0.1936 -0.1032  0.0062
  437TMC3    C6 6568   2.393   4.405  13.231  0.2989 -0.3807 -1.3857
  437TMC3     C 6569   2.711   4.248  13.451  0.1918  0.2945  0.0747
  437TMC3     O 6570   2.689   4.240  13.575  0.7976  0.3832 -0.0684
  437TMC3     H 6571   2.463   4.292  13.541 -0.1353  1.6250  1.0383
  437TMC3    H1 6572   2.710   4.304  13.199 -0.7702 -2.4461 -0.8476
  437TMC3    H2 6573   2.315   4.454  13.175 -0.8696 -0.7404 -0.0752
  437TMC3    C7 6574   2.528   4.455  13.047  0.5445 -0.5933 -0.3483
  437TMC3    C8 6575   2.282   4.437  13.438 -0.3807  0.2516 -0.4266
  437TMC3    O1 6576   2.427   4.491  12.989 -0.2389 -0.0097  0.6019
  437TMC3    O2 6577   2.234   4.368  13.529 -0.1302  0.5848 -0.0694
  438MPD2     C 6578   0.237   0.726  16.560  0.4227 -0.7576 -0.6041
  438MPD2    C1 6579   0.349   0.683  16.631  0.0863 -0.3850 -0.8042
  438MPD2    C2 6580   0.372   0.720  16.759  0.6164  0.1142 -0.5001
  438MPD2    C3 6581   0.276   0.792  16.825  0.0841  0.3343 -0.2218
  438MPD2    C4 6582   0.152   0.808  16.758 -0.3504 -0.2294 -0.1124
  438MPD2    C5 6583   0.136   0.781  16.624  0.0548  1.2631 -0.4097
  438MPD2     H 6584   0.465   0.705  16.813 -0.2501 -0.2637  0.9175
  438MPD2    H1 6585   0.071   0.863  16.805  0.1901  0.0061  0.5442
  438MPD2    H2 6586   0.223   0.701  16.455 -1.6910 -3.6236  0.3591
  438MPD2    H3 6587   0.049   0.812  16.566 -1.5030 -2.9160 -0.3074
  438MPD2     N 6588   0.288   0.837  16.958 -0.1345 -0.3273  0.1452
  438MPD2    H5 6589   0.199   0.874  16.991 -0.2351 -0.7482  0.3408
  438MPD2    N1 6590   0.451   0.608  16.563  0.1576 -0.5623  0.0120
  438MPD2    H7 6591   0.521   0.572  16.627 -0.0190 -2.8665 -1.0692
  439TMC3    C1 6592   0.580   0.492  16.387  0.4476 -0.1904 -0.5276
  439TMC3    C2 6593   0.601   0.488  16.254 -0.7783 -0.5819 -0.4239
  439TMC3    C3 6594   0.690   0.398  16.214  0.2167 -0.1231 -0.7363
  439TMC3    C4 6595   0.668   0.439  16.480 -0.4951 -0.3612  0.0292
  439TMC3    C5 6596   0.774   0.372  16.436 -0.1105 -0.7294 -0.0588
  439TMC3    C6 6597   0.788   0.345  16.297  0.1208  0.1839 -0.6786
  439TMC3     C 6598   0.459   0.567  16.429  0.3171  0.2813 -0.7311
  439TMC3     O 6599   0.386   0.605  16.342  0.4704  0.0408  0.3336
  439TMC3     H 6600   0.525   0.510  16.180 -2.8635 -0.7201  1.6916
  439TMC3    H1 6601   0.655   0.443  16.587 -0.0683 -2.5090  0.1498
  439TMC3    H2 6602   0.852   0.270  16.251  0.2297 -0.5765  0.6900
  439TMC3    C7 6603   0.859   0.316  16.540  0.0377  0.0049  0.2604
  439TMC3    C8 6604   0.690   0.371  16.071 -0.2834 -1.1000  0.2756
  439TMC3    O1 6605   0.833   0.321  16.660 -0.5647  0.5798  0.3016
  439TMC3    O2 6606   0.746   0.264  16.044 -0.1990  0.1974 -0.7476
  440MPD2     C 6607   3.943   0.933  15.168 -0.5941  0.2452  0.3409
  440MPD2    C1 6608   3.985   1.003  15.283  0.5539  0.5698 -1.3393
  440MPD2    C2 6609   4.104   0.962  15.343 -0.0177 -0.2245 -0.4945
  440MPD2    C3 6610   4.169   0.842  15.303 -0.1921 -0.3292 -0.3081
  440MPD2    C4 6611   4.110   0.770  15.206 -0.0034  1.0669  0.0767
  440MPD2    C5 6612   4.000   0.816  15.138  0.1444  0.2687  0.1558
  440MPD2     H 6613   4.141   1.022  15.425  0.7449  0.3687 -1.2707
  440MPD2    H1 6614   4.152   0.674  15.177 -0.1903  0.9900  0.0602
  440MPD2    H2 6615   3.849   0.960  15.122 -1.0024 -0.9270  0.4809
  440MPD2    H3 6616   3.958   0.751  15.062 -1.9891  3.9907 -1.8926
  440MPD2     N 6617   4.290   0.799  15.354 -0.4778  0.2549  1.0170
  440MPD2    H5 6618   4.323   0.709  15.322  0.3052  1.7985 -2.5069
  440MPD2    N1 6619   3.913   1.103  15.345  0.1284  0.1974 -0.3474
  440MPD2    H7 6620   3.957   1.149  15.424  0.7387  0.2024 -0.6910
  441TMC3    C1 6621   4.461   0.797  15.523 -0.3574 -0.0444  0.4047
  441TMC3    C2 6622   4.528   0.889  15.603  0.3004 -0.1577  0.1929
  441TMC3    C3 6623   4.549   0.855  15.734  0.6204 -0.9955  0.7432
  441TMC3    C4 6624   4.432   0.666  15.564  0.2354  0.3316 -0.3156
  441TMC3    C5 6625   4.457   0.632  15.702 -0.8626 -0.4007  0.7264
  441TMC3    C6 6626   4.505   0.735  15.786  0.0494  0.1471  0.7709
  441TMC3     C 6627   4.357   0.869  15.441 -0.1308 -0.3708  0.4327
  441TMC3     O 6628   4.352   0.991  15.464 -0.2432  0.2482 -0.2690
  441TMC3     H 6629   4.558   0.985  15.563  1.0050 -0.7751 -0.7681
  441TMC3    H1 6630   4.376   0.611  15.489  1.2038  1.8232 -2.1086
  441TMC3    H2 6631   4.515   0.721  15.893  1.6971  0.2018  0.6351
  441TMC3    C7 6632   4.369   0.538  15.750 -0.0490  0.4033 -0.3238
  441TMC3    C8 6633   4.526   0.973  15.822  0.3881  0.2418 -0.5691
  441TMC3    O1 6634   4.288   0.483  15.675  0.3218  0.1602  0.3562
  441TMC3    O2 6635   4.551   0.980  15.941 -0.0576 -0.1537 -0.4726
  442MPD2     C 6636   2.166   1.766  16.382 -0.2042 -0.0049 -0.3494
  442MPD2    C1 6637   2.084   1.666  16.440 -0.6718  0.3389  0.2305
  442MPD2    C2 6638   2.071   1.548  16.370 -0.5570  0.0254 -0.3390
  442MPD2    C3 6639   2.126   1.526  16.245  1.0263 -0.5349  0.1116
  442MPD2    C4 6640   2.214   1.626  16.191  0.6293 -0.2556 -0.1340
  442MPD2    C5 6641   2.220   1.749  16.256 -0.1621  0.7632 -0.2502
  442MPD2     H 6642   2.014   1.464  16.409 -0.0467  0.2988  1.0038
  442MPD2    H1 6643   2.272   1.614  16.101 -0.3767  0.0901 -0.8193
  442MPD2    H2 6644   2.179   1.863  16.429  0.0852  0.2998 -1.0710
  442MPD2    H3 6645   2.292   1.815  16.211  0.4363 -0.4246 -1.0406
  442MPD2     N 6646   2.116   1.397  16.188  1.2717 -0.9240 -0.6807
  442MPD2    H5 6647   2.056   1.332  16.240  2.0808 -1.0093  0.1452
  442MPD2    N1 6648   2.012   1.686  16.563 -0.4910  0.2256 -0.1623
  442MPD2    H7 6649   1.955   1.608  16.592 -3.6939  2.6125 -0.0280
  443TMC3    C1 6650   1.868   1.818  16.691  0.7276 -0.4641 -0.2746
  443TMC3    C2 6651   1.772   1.892  16.622  0.6090 -0.2734  0.0092
  443TMC3    C3 6652   1.645   1.836  16.606  0.5002 -0.3160 -0.3298
  443TMC3    C4 6653   1.830   1.705  16.758  0.0298 -0.2230 -0.3722
  443TMC3    C5 6654   1.696   1.666  16.740 -0.1355 -0.1850 -1.2108
  443TMC3    C6 6655   1.607   1.722  16.660 -0.0314  0.1765  0.3337
  443TMC3     C 6656   1.996   1.809  16.624 -0.4142 -0.3477  0.0709
  443TMC3     O 6657   2.033   1.922  16.588  0.4287 -0.4778  0.2926
  443TMC3     H 6658   1.805   1.985  16.577  3.0342 -1.2469 -0.2483
  443TMC3    H1 6659   1.895   1.629  16.799  1.7791  0.9315 -0.9892
  443TMC3    H2 6660   1.512   1.673  16.642  0.4094 -0.2172 -0.9070
  443TMC3    C7 6661   1.657   1.562  16.831  0.1840  0.5408  0.5971
  443TMC3    C8 6662   1.583   1.871  16.483 -0.2624  0.5540 -0.6593
  443TMC3    O1 6663   1.573   1.487  16.786  0.1778  0.0277 -0.5136
  443TMC3    O2 6664   1.600   1.990  16.457 -0.5488  0.3675 -0.2001
  444MPD2     C 6665   2.151   1.302  16.623 -0.7412 -0.2597  0.6253
  444MPD2    C1 6666   2.094   1.183  16.672  0.2427 -0.1411 -0.2568
  444MPD2    C2 6667   2.095   1.067  16.599 -0.3821  0.1122 -0.1092
  444MPD2    C3 6668   2.158   1.055  16.480 -0.0871 -0.4926 -0.0366
  444MPD2    C4 6669   2.224   1.172  16.434  0.5575  0.3608 -0.1771
  444MPD2    C5 6670   2.215   1.295  16.506 -0.5884  0.6919  0.1620
  444MPD2     H 6671   2.043   0.976  16.627 -1.5674  1.4758  2.1537
  444MPD2    H1 6672   2.276   1.173  16.339  0.1777 -1.3980 -0.4007
  444MPD2    H2 6673   2.152   1.400  16.669  2.4029  0.1976 -0.3989
  444MPD2    H3 6674   2.262   1.384  16.467  0.8396 -0.5875 -1.0758
  444MPD2     N 6675   2.167   0.933  16.413 -0.9662  0.3226  0.3572
  444MPD2    H5 6676   2.159   0.846  16.466 -1.0003 -0.0258 -0.2126
  444MPD2    N1 6677   2.020   1.188  16.794  0.0312 -0.4726 -0.5662
  444MPD2    H7 6678   1.979   1.104  16.834 -0.6655  1.2146  2.2502
  445TMC3    C1 6679   2.226   0.776  16.244 -0.0171  0.9792 -0.2874
  445TMC3    C2 6680   2.204   0.746  16.111 -0.6370 -0.6838  0.1437
  445TMC3    C3 6681   2.247   0.626  16.062 -0.2475  0.2567 -0.1371
  445TMC3    C4 6682   2.317   0.698  16.316  0.0637  0.1867 -0.0965
  445TMC3    C5 6683   2.376   0.595  16.250  0.3306 -0.4436 -0.3403
  445TMC3    C6 6684   2.345   0.554  16.122  0.1006 -0.0004  0.5460
  445TMC3     C 6685   2.199   0.911  16.278 -0.3781 -0.3567 -0.2738
  445TMC3     O 6686   2.199   0.988  16.183  0.0249  0.1047 -0.1370
  445TMC3     H 6687   2.131   0.806  16.058 -0.2531  1.8175  2.4188
  445TMC3    H1 6688   2.340   0.717  16.421 -1.1174  3.9237 -0.4957
  445TMC3    H2 6689   2.375   0.466  16.068  1.2431 -0.4530  1.9192
  445TMC3    C7 6690   2.493   0.531  16.315  0.1846  0.5959  0.6271
  445TMC3    C8 6691   2.183   0.576  15.939  0.0362  0.1432 -0.3494
  445TMC3    O1 6692   2.559   0.588  16.402  0.2872 -0.2168  0.1968
  445TMC3    O2 6693   2.110   0.656  15.884  0.2650 -0.2152 -0.1208
  446MPD2     C 6694   1.575   2.557  11.484 -0.4697 -0.3119  0.0086
  446MPD2    C1 6695   1.504   2.636  11.394 -0.0256 -0.2699  0.6606
  446MPD2    C2 6696   1.578   2.712  11.302 -0.5866  0.2056 -0.1160
  446MPD2    C3 6697   1.718   2.713  11.294  0.3868  0.2134 -0.1691
  446MPD2    C4 6698   1.782   2.644  11.392  0.1751 -0.6067  0.5344
  446MPD2    C5 6699   1.713   2.555  11.476  0.5127  0.6704 -0.2934
  446MPD2     H 6700   1.525   2.757  11.219 -0.8575 -0.0046 -0.0552
  446MPD2    H1 6701   1.889   2.630  11.389 -0.4232 -4.5158 -3.2370
  446MPD2    H2 6702   1.525   2.490  11.554  1.1087  0.1315  1.5500
  446MPD2    H3 6703   1.762   2.506  11.559 -1.9264 -1.3927 -0.0695
  446MPD2     N 6704   1.787   2.786  11.192  0.6236  0.7436  0.2730
  446MPD2    H5 6705   1.725   2.836  11.130  0.1038 -0.7435 -0.4190
  446MPD2    N1 6706   1.364   2.639  11.383 -0.5881 -1.0410 -0.6909
  446MPD2    H7 6707   1.318   2.674  11.299  1.9804 -0.5148 -1.8696
  447TMC3    C1 6708   1.968   2.833  11.049 -0.5668  0.1307  0.2452
  447TMC3    C2 6709   1.879   2.878  10.946  0.1570  0.3505 -0.1573
  447TMC3    C3 6710   1.934   2.941  10.836  0.4050 -0.0678 -0.1515
  447TMC3    C4 6711   2.098   2.864  11.040 -0.5805  0.4730  0.2200
  447TMC3    C5 6712   2.144   2.930  10.928 -0.5614 -0.0337  0.2569
  447TMC3    C6 6713   2.067   2.976  10.822  0.1567 -0.3276  0.0705
  447TMC3     C 6714   1.923   2.780  11.174  0.7935  0.6852  0.1899
  447TMC3     O 6715   2.011   2.730  11.242  0.3933  0.3221  0.0426
  447TMC3     H 6716   1.775   2.849  10.947  0.3016 -0.2070 -1.4357
  447TMC3    H1 6717   2.164   2.830  11.119  3.1472 -0.0877 -3.1212
  447TMC3    H2 6718   2.095   3.027  10.731  2.0540  0.3200  1.0103
  447TMC3    C7 6719   2.289   2.952  10.923 -0.2853  0.7908  0.0530
  447TMC3    C8 6720   1.840   2.983  10.731 -0.4236  1.3969 -0.5072
  447TMC3    O1 6721   2.357   2.898  11.012 -0.4619 -0.4776  0.2040
  447TMC3    O2 6722   1.750   2.907  10.696 -0.4780 -0.1253  0.3125
  448TMC3    C1 6723   0.613   2.117  16.689  0.0174  0.4877  0.2969
  448TMC3    C2 6724   0.619   1.989  16.637 -0.0674 -0.2824  0.5369
  448TMC3    C3 6725   0.735   1.924  16.677  0.8272  0.1384 -0.2069
  448TMC3    C4 6726   0.705   2.173  16.769 -0.1748  0.2173  0.4190
  448TMC3    C5 6727   0.805   2.094  16.812  0.5273 -0.1284 -0.0036
  448TMC3    C6 6728   0.823   1.970  16.773 -0.2383  0.1308  0.0660
  448TMC3     C 6729   0.489   2.193  16.672 -0.1531 -0.7325 -0.8295
  448TMC3     O 6730   0.406   2.142  16.594 -0.3334 -0.4331  0.4393
  448TMC3     H 6731   0.538   1.942  16.583  0.1995 -1.7421  1.4123
  448TMC3    H1 6732   0.698   2.273  16.810  2.5213 -0.5452  2.7410
  448TMC3    H2 6733   0.916   1.917  16.790 -0.1929  0.7856  1.8853
  448TMC3    C7 6734   0.883   2.138  16.923  0.4291 -0.4707 -0.5542
  448TMC3    C8 6735   0.764   1.800  16.607  0.1783  0.3936  0.4778
  448TMC3    O1 6736   0.886   2.253  16.948  0.4647  0.2813  0.3870
  448TMC3    O2 6737   0.854   1.734  16.657 -0.5847 -0.5036 -0.1029
  449MPD2     C 6738   1.550   0.096  13.524  0.0843  0.0296  0.1881
  449MPD2    C1 6739   1.416   0.126  13.513 -0.2902  0.0779  0.7861
  449MPD2    C2 6740   1.354   0.162  13.632  0.9658  0.0468 -0.1481
  449MPD2    C3 6741   1.410   0.146  13.752  0.2380 -0.1769 -0.1277
  449MPD2    C4 6742   1.542   0.108  13.761 -0.2537  0.3849 -0.3231
  449MPD2    C5 6743   1.604   0.089  13.644 -0.1182 -0.0446  0.3561
  449MPD2     H 6744   1.250   0.192  13.621  1.1633  1.6786  2.2508
  449MPD2    H1 6745   1.604   0.096  13.849 -1.0365  0.1112  0.1912
  449MPD2    H2 6746   1.608   0.068  13.437 -2.4430 -1.9116 -0.8767
  449MPD2    H3 6747   1.709   0.064  13.656 -0.4301 -1.3536  0.3742
  449MPD2     N 6748   1.333   0.185  13.864 -0.3379 -0.2967 -0.8533
  449MPD2    H5 6749   1.243   0.225  13.838 -0.1908  0.3732 -0.3170
  449MPD2    N1 6750   1.342   0.130  13.399  0.0908 -0.2142 -0.8365
  449MPD2    H7 6751   1.253   0.178  13.404  0.2437  0.0769 -0.9751
  450TMC3    C1 6752   1.281   0.151  13.180  0.0836 -0.3468 -0.0667
  450TMC3    C2 6753   1.322   0.239  13.076  0.6688 -0.2281 -0.0132
  450TMC3    C3 6754   1.247   0.352  13.067 -0.1237  0.5486 -0.1251
  450TMC3    C4 6755   1.164   0.163  13.238  0.4994  0.2748  0.8375
  450TMC3    C5 6756   1.092   0.272  13.218  0.1910  0.5784 -0.2980
  450TMC3    C6 6757   1.133   0.376  13.136  0.2708  0.1494  1.1032
  450TMC3     C 6758   1.387   0.105  13.273 -0.0854  0.0251 -0.2096
  450TMC3     O 6759   1.498   0.068  13.240  0.0092 -0.0471 -0.5386
  450TMC3     H 6760   1.421   0.223  13.035 -0.1106  1.2646 -2.4289
  450TMC3    H1 6761   1.121   0.080  13.292  1.0792 -0.6000 -0.0407
  450TMC3    H2 6762   1.089   0.475  13.125  2.4760  1.0301  0.2027
  450TMC3    C7 6763   1.030   0.304  13.343 -0.7707 -0.8053 -0.1371
  450TMC3    C8 6764   1.300   0.461  12.983  1.1056 -0.3002  0.4577
  450TMC3    O1 6765   1.061   0.227  13.432  0.1953  0.2517  0.6358
  450TMC3    O2 6766   1.226   0.525  12.912 -0.0853 -0.2091 -0.0350
  451MPD2     C 6767   3.188   3.932   1.279  0.2103 -0.1414  0.1802
  451MPD2    C1 6768   3.260   3.994   1.188 -0.9808  0.0088 -0.4912
  451MPD2    C2 6769   3.342   3.917   1.105  0.3803  0.5374  0.7068
  451MPD2    C3 6770   3.352   3.779   1.110 -0.1308  0.1527 -0.4962
  451MPD2    C4 6771   3.267   3.716   1.193  0.3418 -0.0327  0.1428
  451MPD2    C5 6772   3.184   3.792   1.273  0.2381  0.4050  0.5895
  451MPD2     H 6773   3.404   3.956   1.025  2.2616 -1.7062  1.0744
  451MPD2    H1 6774   3.265   3.607   1.192  0.8956 -0.0181 -1.6341
  451MPD2    H2 6775   3.119   3.993   1.337  0.6174 -0.3751  0.9041
  451MPD2    H3 6776   3.132   3.736   1.350  1.2325  0.0560  1.0120
  451MPD2     N 6777   3.439   3.700   1.032 -0.3533 -0.2876  0.7405
  451MPD2    H5 6778   3.440   3.600   1.047 -3.5212 -0.7273 -1.9363
  451MPD2    N1 6779   3.238   4.131   1.176 -0.5154  0.3624 -0.4842
  451MPD2    H7 6780   3.172   4.172   1.242 -0.6941 -0.3890 -0.2007
  452TMC3    C1 6781   3.572   3.630   0.853  0.5863 -0.8877  1.1427
  452TMC3    C2 6782   3.466   3.554   0.801 -0.4353  0.5678  0.8046
  452TMC3    C3 6783   3.491   3.493   0.685  0.9307  0.3965  0.1294
  452TMC3    C4 6784   3.685   3.660   0.784 -0.7161 -0.2729 -0.0993
  452TMC3    C5 6785   3.695   3.609   0.660 -0.5380 -0.5313 -0.2106
  452TMC3    C6 6786   3.606   3.523   0.614  0.2921  0.0516  0.1832
  452TMC3     C 6787   3.528   3.736   0.941 -0.4974 -0.4969  0.8565
  452TMC3     O 6788   3.578   3.844   0.914 -0.4229 -0.0864 -0.1412
  452TMC3     H 6789   3.371   3.549   0.853  0.8597 -1.0726  3.0172
  452TMC3    H1 6790   3.764   3.717   0.831 -0.1915 -0.0882 -1.2173
  452TMC3    H2 6791   3.605   3.486   0.512 -2.6689  0.1770  0.1556
  452TMC3    C7 6792   3.772   3.679   0.562  0.6262  0.3167 -0.4639
  452TMC3    C8 6793   3.388   3.435   0.605 -0.1133 -0.4203 -0.1409
  452TMC3    O1 6794   3.825   3.618   0.470  0.0515  0.1139  0.0982
  452TMC3    O2 6795   3.418   3.354   0.515  0.4112 -0.1633  0.4269
  453TMC3    C1 6796   3.705   1.481  11.678  0.4671  0.0053 -0.6901
  453TMC3    C2 6797   3.583   1.455  11.738  0.1611 -0.7155  0.0267
  453TMC3    C3 6798   3.515   1.354  11.682  0.4483  0.3680  0.0383
  453TMC3    C4 6799   3.747   1.436  11.555  0.1604 -0.0055 -0.1185
  453TMC3    C5 6800   3.673   1.339  11.501  0.2921 -0.4641  0.4275
  453TMC3    C6 6801   3.561   1.292  11.565 -0.3231 -0.6235  0.3175
  453TMC3     C 6802   3.810   1.534  11.767  0.1680 -0.4175 -0.6272
  453TMC3     O 6803   3.924   1.495  11.749  0.2407 -0.1461  0.2379
  453TMC3     H 6804   3.581   1.491  11.840 -0.6776  1.5633 -0.7852
  453TMC3    H1 6805   3.838   1.479  11.513  0.4619 -0.6909 -0.1752
  453TMC3    H2 6806   3.513   1.201  11.532 -0.1864 -0.6199  0.1090
  453TMC3    C7 6807   3.703   1.304  11.358 -0.0470 -0.2827  0.1518
  453TMC3    C8 6808   3.447   1.272  11.776  0.4976  0.7825  0.0732
  453TMC3    O1 6809   3.795   1.361  11.302  0.8283 -0.4968 -0.7912
  453TMC3    O2 6810   3.389   1.327  11.869 -0.3968  0.1734  0.4384
  454MPD2     C 6811   3.037   0.742  15.879  0.1221 -0.5074 -0.3933
  454MPD2    C1 6812   2.989   0.815  15.775 -0.2371 -0.0760  0.3994
  454MPD2    C2 6813   2.918   0.926  15.798 -0.4914 -0.0087 -0.1541
  454MPD2    C3 6814   2.906   0.978  15.928 -0.1705  0.6525 -0.7438
  454MPD2    C4 6815   2.966   0.911  16.033 -0.4856  0.5055  0.5570
  454MPD2    C5 6816   3.018   0.790  16.008  0.0877  0.4160 -0.3344
  454MPD2     H 6817   2.867   0.965  15.711 -0.1559 -1.6723 -1.0850
  454MPD2    H1 6818   2.940   0.935  16.135 -0.7377  0.9046  0.3986
  454MPD2    H2 6819   3.097   0.652  15.871  1.5315  0.5550 -1.7490
  454MPD2    H3 6820   3.053   0.732  16.092 -2.0184 -2.5219 -1.5109
  454MPD2     N 6821   2.830   1.091  15.961  0.1127  0.2624 -0.1342
  454MPD2    H5 6822   2.819   1.112  16.060 -3.3723  1.1939 -0.7078
  454MPD2    N1 6823   2.979   0.764  15.641 -0.2593 -0.0135  0.0152
  454MPD2    H7 6824   2.946   0.832  15.572  1.2535  0.9025  0.1870
  455TMC3    C1 6825   2.636   1.211  15.944  0.3412  0.4382  0.0350
  455TMC3    C2 6826   2.660   1.262  16.070  0.2287  1.2176 -0.0141
  455TMC3    C3 6827   2.570   1.230  16.169 -0.9649 -0.2796 -0.1677
  455TMC3    C4 6828   2.535   1.130  15.925 -0.1806 -0.1398 -0.0035
  455TMC3    C5 6829   2.470   1.074  16.033 -0.8664  0.9318  0.0594
  455TMC3    C6 6830   2.477   1.126  16.160 -0.4030  0.0772 -0.2665
  455TMC3     C 6831   2.747   1.162  15.874 -0.1039  0.3135 -0.7389
  455TMC3     O 6832   2.740   1.156  15.753  0.3591  0.3767  0.0117
  455TMC3     H 6833   2.749   1.318  16.094  0.5391  1.0579 -0.8086
  455TMC3    H1 6834   2.537   1.078  15.830 -1.7960  3.1334 -1.8351
  455TMC3    H2 6835   2.417   1.084  16.240 -1.9984 -0.9611 -2.0242
  455TMC3    C7 6836   2.505   0.934  16.046  0.4049 -0.3885 -0.5048
  455TMC3    C8 6837   2.564   1.311  16.281  0.6776 -0.0093 -0.1264
  455TMC3    O1 6838   2.530   0.903  16.163  0.4312 -0.5025  0.0924
  455TMC3    O2 6839   2.514   1.261  16.382  0.0998 -0.3616  0.4144
  456MPD2     C 6840   1.053   0.738  15.931  0.3695  0.6095 -0.0242
  456MPD2    C1 6841   1.052   0.645  16.039 -0.2962 -0.2071  0.5090
  456MPD2    C2 6842   1.023   0.692  16.164  0.0680  0.1824  0.4274
  456MPD2    C3 6843   1.021   0.831  16.188  0.1506  0.6005  0.2349
  456MPD2    C4 6844   1.020   0.922  16.079 -0.4303  0.1942  0.4349
  456MPD2    C5 6845   1.046   0.873  15.957  0.1276 -0.0673  0.6559
  456MPD2     H 6846   1.010   0.620  16.245  0.2255 -0.0575  0.2403
  456MPD2    H1 6847   1.016   1.030  16.087 -1.0696  0.1747  0.3854
  456MPD2    H2 6848   1.066   0.707  15.828  0.3636  0.1381  0.1166
  456MPD2    H3 6849   1.039   0.940  15.872 -0.0800  1.4238  1.8698
  456MPD2     N 6850   0.996   0.899  16.304 -0.3442  0.6999  0.2045
  456MPD2    H5 6851   1.009   0.999  16.295 -1.4956  0.9326  1.0297
  456MPD2    N1 6852   1.064   0.513  15.997  0.1620 -0.1483  0.3745
  456MPD2    H7 6853   1.092   0.497  15.901  0.4602 -1.6936  0.7244
  457TMC3    C1 6854   0.929   0.932  16.529  0.0779 -0.4842 -0.5497
  457TMC3    C2 6855   0.867   1.050  16.500 -0.0051  0.1785 -0.3139
  457TMC3    C3 6856   0.857   1.140  16.598  0.6867  0.0648 -0.3557
  457TMC3    C4 6857   0.976   0.905  16.655  0.0567 -0.0341  0.1791
  457TMC3    C5 6858   0.961   0.998  16.752 -0.7136 -1.0951  0.0516
  457TMC3    C6 6859   0.892   1.114  16.730 -0.0871 -0.2835  0.0382
  457TMC3     C 6860   0.958   0.835  16.426  0.3123 -0.6525  0.0325
  457TMC3     O 6861   0.929   0.720  16.459  0.2027 -0.7248 -0.1133
  457TMC3     H 6862   0.822   1.059  16.402  1.0234 -2.6812 -1.0427
  457TMC3    H1 6863   1.043   0.822  16.670 -2.2629 -1.1276  4.4869
  457TMC3    H2 6864   0.869   1.188  16.806 -0.3422 -0.0018 -0.3176
  457TMC3    C7 6865   1.018   0.967  16.874 -0.1958 -0.7756 -0.0295
  457TMC3    C8 6866   0.801   1.274  16.567  0.6745 -0.0875  0.0559
  457TMC3    O1 6867   1.041   0.851  16.906 -0.0321 -0.1681 -0.1715
  457TMC3    O2 6868   0.773   1.346  16.660 -0.4340  0.0437  0.3794
  458MPD2     C 6869   2.811   0.088  12.846 -0.0881  0.3631  0.6314
  458MPD2    C1 6870   2.880   0.036  12.954 -0.4599  0.3443  0.2019
  458MPD2    C2 6871   2.824   4.668  13.025  0.3641  0.9193 -0.5342
  458MPD2    C3 6872   2.708   4.608  12.979 -0.7591  0.4289 -0.8072
  458MPD2    C4 6873   2.639   4.663  12.868  0.3766  0.5979  0.5187
  458MPD2    C5 6874   2.695   0.031  12.801  0.6271 -0.5701 -0.2634
  458MPD2     H 6875   2.870   4.632  13.116 -0.8664 -0.0346 -0.2848
  458MPD2    H1 6876   2.545   4.627  12.828  1.4762 -2.3629  0.6393
  458MPD2    H2 6877   2.859   0.168  12.791 -2.0614  0.2247 -1.2775
  458MPD2    H3 6878   2.654   0.069  12.708  0.5961  2.3795  0.9504
  458MPD2     N 6879   2.653   4.513  13.061 -0.0026 -0.4085 -0.6199
  458MPD2    H5 6880   2.718   4.468  13.125 -0.6545  0.2724  0.5074
  458MPD2    N1 6881   3.005   0.089  12.990 -0.0599  0.1303  0.1469
  458MPD2    H7 6882   3.042   0.161  12.928 -2.1994  1.4084  0.3658
  459TMC3    C1 6883   3.183   0.157  13.128  0.2127  0.2770  0.3975
  459TMC3    C2 6884   3.261   0.204  13.027  0.1517  0.3213  0.3282
  459TMC3    C3 6885   3.390   0.232  13.047 -0.0047 -0.0707 -0.9248
  459TMC3    C4 6886   3.239   0.131  13.251  0.3762 -0.0933 -1.0313
  459TMC3    C5 6887   3.372   0.134  13.259  0.1339  0.2120 -1.0704
  459TMC3    C6 6888   3.450   0.180  13.159  0.4459  0.1644  0.2050
  459TMC3     C 6889   3.063   0.078  13.109  0.3012 -0.0681 -0.0961
  459TMC3     O 6890   3.041   4.736  13.204 -0.1285  0.1874 -0.6428
  459TMC3     H 6891   3.211   0.241  12.939 -0.0599 -1.3106 -0.2473
  459TMC3    H1 6892   3.168   0.113  13.330 -0.7063  0.0776 -1.9658
  459TMC3    H2 6893   3.556   0.185  13.179  0.4201  0.2441  0.3222
  459TMC3    C7 6894   3.437   0.037  13.344 -0.4895  0.4460  0.2819
  459TMC3    C8 6895   3.477   0.303  12.954  0.4157 -0.2036  0.6682
  459TMC3    O1 6896   3.531   4.708  13.306  0.5590  0.3946  0.2018
  459TMC3    O2 6897   3.561   0.366  13.010 -0.3945 -0.7762  0.2447
  460MPD2     C 6898   1.892   3.283  10.514  0.2682 -0.4471 -0.6418
  460MPD2    C1 6899   1.829   3.176  10.571 -0.0704 -0.7270 -0.3384
  460MPD2    C2 6900   1.713   3.126  10.505 -0.2143 -0.2393  0.4514
  460MPD2    C3 6901   1.650   3.186  10.400 -0.7380 -0.3244 -0.0605
  460MPD2    C4 6902   1.720   3.297  10.346  0.0378 -0.1117  0.5936
  460MPD2    C5 6903   1.844   3.334  10.398  0.3779 -0.6504 -0.4636
  460MPD2     H 6904   1.650   3.049  10.549  1.8190 -0.6708  2.5894
  460MPD2    H1 6905   1.689   3.357  10.262  0.1946 -2.2355 -0.9714
  460MPD2    H2 6906   1.993   3.311  10.543 -1.1033  0.6882  2.9944
  460MPD2    H3 6907   1.887   3.420  10.347 -2.2185  0.2645 -1.1114
  460MPD2     N 6908   1.535   3.133  10.330  0.5412  0.1776 -0.9858
  460MPD2    H5 6909   1.486   3.050  10.361  1.7361 -0.0588  0.2926
  460MPD2    N1 6910   1.882   3.111  10.686 -0.0475  0.4265 -0.6788
  460MPD2    H7 6911   1.950   3.160  10.744 -0.3678 -0.2591  0.2767
  461TMC3    C1 6912   1.358   3.125  10.171 -0.3043  0.2041  0.4777
  461TMC3    C2 6913   1.375   2.999  10.115 -0.3599 -0.0174  0.5281
  461TMC3    C3 6914   1.311   2.973   9.996 -0.0273 -0.1287  0.3617
  461TMC3    C4 6915   1.285   3.230  10.116  0.4363 -0.1405 -0.3771
  461TMC3    C5 6916   1.235   3.199   9.993 -0.5887 -0.6263  0.1080
  461TMC3    C6 6917   1.245   3.075   9.936 -0.7165  0.1056  0.1497
  461TMC3     C 6918   1.488   3.180  10.206  0.0198  0.2724  0.9352
  461TMC3     O 6919   1.532   3.266  10.135 -0.1945  0.2234  0.3389
  461TMC3     H 6920   1.426   2.916  10.163  0.3129  1.0730  1.7109
  461TMC3    H1 6921   1.293   3.325  10.166  1.0695 -0.5964  0.3921
  461TMC3    H2 6922   1.194   3.074   9.841 -2.0542  0.2609  0.8665
  461TMC3    C7 6923   1.232   3.308   9.901 -0.1121 -0.9406 -0.0227
  461TMC3    C8 6924   1.324   2.844   9.934  0.8201  0.8480 -0.3442
  461TMC3    O1 6925   1.123   3.333   9.854 -0.2217 -0.4091 -0.1706
  461TMC3    O2 6926   1.395   2.768   9.999  0.3995 -0.2589 -0.8032
  462TMC3    C1 6927   2.830   4.214   0.228 -0.2283  0.2335  0.3885
  462TMC3    C2 6928   2.932   4.183   0.313  0.1445 -0.3254 -0.2284
  462TMC3    C3 6929   2.910   4.091   0.408 -0.8230 -0.4988  0.1194
  462TMC3    C4 6930   2.708   4.151   0.225 -0.4740  0.3912  0.1286
  462TMC3    C5 6931   2.690   4.071   0.334  0.1252  0.5373  0.6799
  462TMC3    C6 6932   2.787   4.047   0.432  0.2255 -0.0977 -0.1514
  462TMC3     C 6933   2.854   4.316   0.132  0.6786  0.6873 -0.1632
  462TMC3     O 6934   2.794   4.303   0.023 -0.2489 -0.2055  0.5213
  462TMC3     H 6935   3.028   4.230   0.296 -0.3744  1.3321  1.3862
  462TMC3    H1 6936   2.640   4.155   0.141 -0.8760  0.2270  0.4437
  462TMC3    H2 6937   2.769   3.971   0.508  1.5616 -1.0235 -0.7714
  462TMC3    C7 6938   2.591   3.962   0.327 -0.1478  0.1925  0.9061
  462TMC3    C8 6939   3.021   4.016   0.460  0.3353 -0.1767  0.3483
  462TMC3    O1 6940   2.623   3.850   0.360  0.1775 -0.2817  0.1152
  462TMC3    O2 6941   3.010   3.970   0.572  0.1951  0.5121  0.2228
  463MPD2     C 6942   4.002   2.188   1.904  0.8643  0.3154  0.3268
  463MPD2    C1 6943   3.881   2.249   1.868 -0.4907  0.9444  0.3583
  463MPD2    C2 6944   3.887   2.379   1.821  0.2459 -0.1923  0.0967
  463MPD2    C3 6945   4.005   2.447   1.814  0.5233 -0.3694 -0.4309
  463MPD2    C4 6946   4.119   2.386   1.852 -0.3231 -0.4743 -0.7645
  463MPD2    C5 6947   4.121   2.256   1.897  0.2431  0.0693 -0.4622
  463MPD2     H 6948   3.794   2.421   1.784  1.3406  1.5159 -0.6759
  463MPD2    H1 6949   4.213   2.435   1.832 -0.0641 -0.4702  0.4490
  463MPD2    H2 6950   3.996   2.086   1.941  0.3637  1.2577  2.8638
  463MPD2    H3 6951   4.213   2.203   1.919  0.2102  0.8684  1.5912
  463MPD2     N 6952   4.011   2.587   1.775 -0.0422  0.0133 -0.6168
  463MPD2    H5 6953   4.107   2.619   1.771 -0.5566  1.6818  0.4424
  463MPD2    N1 6954   3.757   2.185   1.874 -0.0984 -0.1822 -0.3976
  463MPD2    H7 6955   3.680   2.242   1.841 -0.6492 -0.0079  1.1477
  464TMC3    C1 6956   3.591   2.027   1.858  0.5244  0.4228 -0.5827
  464TMC3    C2 6957   3.529   2.108   1.765  0.1018  0.0755 -0.1048
  464TMC3    C3 6958   3.402   2.090   1.744  0.3026  0.1677 -0.0385
  464TMC3    C4 6959   3.530   1.951   1.950  0.7865 -0.1480 -0.3954
  464TMC3    C5 6960   3.398   1.939   1.925  0.2352 -0.2923  0.2717
  464TMC3    C6 6961   3.329   2.011   1.827  0.3688 -0.1687  0.3905
  464TMC3     C 6962   3.730   2.047   1.887 -0.0326 -0.8319  0.3913
  464TMC3     O 6963   3.789   1.967   1.958 -0.3706 -0.0069 -0.1239
  464TMC3     H 6964   3.593   2.159   1.695  1.9846  0.3036  1.7748
  464TMC3    H1 6965   3.583   1.874   2.006  1.3773  2.1343  2.1780
  464TMC3    H2 6966   3.224   1.998   1.803  0.7770 -1.6250 -0.5839
  464TMC3    C7 6967   3.327   1.818   1.971 -0.2791  0.0291  1.2182
  464TMC3    C8 6968   3.336   2.168   1.642 -0.1095 -0.2004 -0.7506
  464TMC3    O1 6969   3.354   1.764   2.077 -0.4567  0.1228  0.0822
  464TMC3    O2 6970   3.216   2.176   1.645  0.0558 -0.7754  0.0321
  465MPD2     C 6971   4.418   1.089  16.401  0.5968 -0.6545  0.8647
  465MPD2    C1 6972   4.315   1.085  16.490  0.8747 -0.0245 -0.0997
  465MPD2    C2 6973   4.188   1.099  16.432 -0.2193 -0.3622  0.5062
  465MPD2    C3 6974   4.160   1.131  16.297  0.3349 -0.5926  0.2256
  465MPD2    C4 6975   4.265   1.141  16.214  1.1114  0.7697 -0.1052
  465MPD2    C5 6976   4.394   1.123  16.267 -0.2396 -0.0823 -0.4628
  465MPD2     H 6977   4.108   1.098  16.504  1.3575 -1.6351  2.2560
  465MPD2    H1 6978   4.255   1.187  16.115 -1.1655 -0.1409 -0.2990
  465MPD2    H2 6979   4.523   1.073  16.421  0.5816 -1.9139 -0.0522
  465MPD2    H3 6980   4.477   1.150  16.204 -0.9368 -2.3528 -2.3596
  465MPD2     N 6981   4.030   1.180  16.272 -0.5441  0.5785 -0.7717
  465MPD2    H5 6982   3.974   1.185  16.357  1.1185  2.6258  0.2133
  465MPD2    N1 6983   4.328   1.060  16.630 -0.4027 -0.3272  0.0660
  465MPD2    H7 6984   4.242   1.059  16.683 -0.5680 -2.4839 -0.2303
  466TMC3    C1 6985   3.734   1.380  16.327  0.3020  0.4582 -0.4571
  466TMC3    C2 6986   3.732   1.499  16.266  0.9961  0.1500  0.1593
  466TMC3    C3 6987   3.782   1.510  16.140 -0.1474  0.3103 -0.1704
  466TMC3    C4 6988   3.800   1.274  16.275  0.8332  0.3365 -0.4419
  466TMC3    C5 6989   3.853   1.292  16.153 -0.6260 -0.5443  0.4203
  466TMC3    C6 6990   3.846   1.409  16.081  0.3326 -1.1238 -0.3275
  466TMC3     C 6991   3.737   1.378  16.472  0.9627 -0.3669  0.2253
  466TMC3     O 6992   3.799   1.281  16.515 -0.3652  1.1651  0.4832
  466TMC3     H 6993   3.651   1.564  16.296  1.5702  2.0957 -2.4487
  466TMC3    H1 6994   3.795   1.173  16.314  0.0671  0.0175 -1.3729
  466TMC3    H2 6995   3.903   1.417  15.988  1.4938  0.2025  0.4876
  466TMC3    C7 6996   3.987   1.243  16.151  0.2218 -0.2037 -0.3990
  466TMC3    C8 6997   3.833   1.637  16.106 -0.7551  0.4454  0.1629
  466TMC3    O1 6998   4.053   1.262  16.049  0.2616 -0.2565 -0.3018
  466TMC3    O2 6999   3.874   1.644  15.990  0.2322 -0.6252 -0.3623
  467TMC3    C1 7000   0.658   4.202  13.811  1.1125 -0.5114 -0.8615
  467TMC3    C2 7001   0.560   4.279  13.761  0.2050  0.4328  0.0283
  467TMC3    C3 7002   0.428   4.238  13.773 -0.1070 -0.2425 -0.0339
  467TMC3    C4 7003   0.631   4.084  13.879  0.1551 -0.7232  0.0012
  467TMC3    C5 7004   0.501   4.059  13.898 -0.0628  0.4598  0.0015
  467TMC3    C6 7005   0.392   4.127  13.845 -0.5151 -0.6063  0.0994
  467TMC3     C 7006   0.783   4.265  13.816  0.3532  0.0388  0.2780
  467TMC3     O 7007   0.862   4.217  13.898 -0.3368 -0.5682 -0.0009
  467TMC3     H 7008   0.570   4.360  13.689 -1.5319  0.1713 -0.5207
  467TMC3    H1 7009   0.703   4.018  13.926  0.8236  2.0900  2.9089
  467TMC3    H2 7010   0.291   4.105  13.877  0.3500 -1.6925  2.0970
  467TMC3    C7 7011   0.476   3.958  14.001  0.5932  0.0485  0.4519
  467TMC3    C8 7012   0.322   4.334  13.744 -0.8178 -0.4307 -0.4151
  467TMC3    O1 7013   0.562   3.882  14.037 -0.3215  0.2095 -0.1600
  467TMC3    O2 7014   0.357   4.450  13.719  0.0158  0.0325  0.5015
  468MPD2     C 7015   3.842   2.770  10.739  0.1635  0.0179  0.1064
  468MPD2    C1 7016   3.975   2.768  10.773  0.2317  0.3993  0.2079
  468MPD2    C2 7017   4.049   2.649  10.771  0.0963  0.2200 -0.6945
  468MPD2    C3 7018   3.983   2.530  10.772 -0.1272  0.7301 -0.6651
  468MPD2    C4 7019   3.848   2.523  10.751  0.5345  0.1919 -0.6837
  468MPD2    C5 7020   3.782   2.643  10.724 -0.3382 -0.1624  0.4456
  468MPD2     H 7021   4.156   2.649  10.786 -0.2203 -4.6338  1.3103
  468MPD2    H1 7022   3.792   2.430  10.755 -1.3647  1.4100  0.9787
  468MPD2    H2 7023   3.781   2.858  10.723 -0.1713  0.2172  2.5113
  468MPD2    H3 7024   3.678   2.646  10.694 -0.1810 -1.0216 -0.1746
  468MPD2     N 7025   4.052   2.405  10.781  0.2297 -0.5796 -0.4410
  468MPD2    H5 7026   3.997   2.320  10.775 -0.5932 -0.0934  0.2798
  468MPD2    N1 7027   4.040   2.889  10.794  0.3302  0.7800  0.6359
  468MPD2    H7 7028   4.140   2.884  10.811  0.4870 -2.4876 -1.3420
  469TMC3    C1 7029   4.087   3.108  10.843 -0.3331  0.7330 -0.0353
  469TMC3    C2 7030   4.220   3.078  10.834 -0.8192 -0.2141 -0.2519
  469TMC3    C3 7031   4.318   3.159  10.888 -0.1107  0.2179 -0.8237
  469TMC3    C4 7032   4.052   3.221  10.911 -0.5782  0.7097  0.1693
  469TMC3    C5 7033   4.150   3.290  10.973 -0.0134  0.1351  0.4137
  469TMC3    C6 7034   4.287   3.261  10.968 -0.0538 -0.1452  0.0186
  469TMC3     C 7035   3.986   3.019  10.803 -0.4197  0.0206  0.6927
  469TMC3     O 7036   3.871   3.053  10.810  0.0552  0.3549 -0.4268
  469TMC3     H 7037   4.257   3.005  10.764 -1.8276  0.6827 -1.7247
  469TMC3    H1 7038   3.948   3.251  10.916 -1.0719 -0.8138 -0.8723
  469TMC3    H2 7039   4.361   3.327  11.011 -1.9593  1.9827  0.0627
  469TMC3    C7 7040   4.103   3.406  11.046  0.0113 -0.1817  0.0381
  469TMC3    C8 7041   4.441   3.095  10.915 -0.4607  0.4165  0.1546
  469TMC3    O1 7042   4.024   3.471  10.975  0.2113  0.4910 -0.0382
  469TMC3    O2 7043   4.497   3.040  10.820 -0.6136 -0.4984 -0.1903
  470TMC3    C1 7044   1.938   3.427   0.813 -0.0068  0.2731 -0.0558
  470TMC3    C2 7045   2.044   3.505   0.849  0.3639 -0.6906  0.2133
  470TMC3    C3 7046   2.062   3.530   0.984 -0.9488 -0.1880 -0.5956
  470TMC3    C4 7047   1.857   3.360   0.907  0.3689  0.1452 -0.1854
  470TMC3    C5 7048   1.885   3.389   1.038  0.2648  0.1679 -0.6620
  470TMC3    C6 7049   1.972   3.487   1.075 -0.4200 -0.1217  0.4434
  470TMC3     C 7050   1.910   3.401   0.672 -0.5955 -0.2188  0.6041
  470TMC3     O 7051   1.972   3.477   0.598  0.3179 -0.9787  0.6391
  470TMC3     H 7052   2.091   3.579   0.786  0.1770 -1.9507 -1.4019
  470TMC3    H1 7053   1.768   3.303   0.882 -2.3702  4.9919 -1.4218
  470TMC3    H2 7054   1.978   3.520   1.178  0.4243  0.5395  0.1832
  470TMC3    C7 7055   1.806   3.318   1.139 -0.3909 -0.0968 -1.2698
  470TMC3    C8 7056   2.131   3.647   1.018  0.1271 -1.0331  0.0808
  470TMC3    O1 7057   1.710   3.255   1.094  0.3245 -0.4637 -0.2795
  470TMC3    O2 7058   2.098   3.699   1.125 -0.5564 -0.3715 -0.4680
  471MPD2     C 7059   2.632   0.358  16.661  0.4068  0.1226 -0.1961
  471MPD2    C1 7060   2.614   0.218  16.658  0.2439 -0.6437 -0.8417
  471MPD2    C2 7061   2.718   0.141  16.693 -1.0288  0.1273 -0.0392
  471MPD2    C3 7062   2.840   0.188  16.739  0.7098 -0.1002  0.7892
  471MPD2    C4 7063   2.854   0.325  16.751 -0.1424  0.4742 -0.3553
  471MPD2    C5 7064   2.751   0.405  16.715  0.4102 -0.4657 -0.8862
  471MPD2     H 7065   2.721   0.036  16.668 -1.0193 -0.3514  1.9220
  471MPD2    H1 7066   2.944   0.379  16.778  0.6836  0.1525 -2.4336
  471MPD2    H2 7067   2.553   0.430  16.641 -0.1294 -0.9530 -1.9110
  471MPD2    H3 7068   2.759   0.511  16.740  0.9827 -0.6915 -0.1027
  471MPD2     N 7069   2.935   0.091  16.773  0.3720 -0.2418 -0.1348
  471MPD2    H5 7070   2.908   4.729  16.777  0.6259 -0.2274  1.7977
  471MPD2    N1 7071   2.500   0.149  16.620  0.1217  0.0664 -0.3536
  471MPD2    H7 7072   2.504   0.048  16.613  0.7222  0.0373  0.3633
  472TMC3    C1 7073   2.282   0.089  16.565  0.3120  0.1609  0.3172
  472TMC3    C2 7074   2.219   0.102  16.449 -0.0281  0.2917 -0.6122
  472TMC3    C3 7075   2.186   4.727  16.380 -0.6654  0.1881  0.2093
  472TMC3    C4 7076   2.318   4.704  16.617 -0.2265  0.1423 -0.0064
  472TMC3    C5 7077   2.281   4.595  16.550  0.2778 -0.3606 -0.0428
  472TMC3    C6 7078   2.211   4.603  16.435 -0.1634  0.6143  0.4697
  472TMC3     C 7079   2.376   0.204  16.582 -0.7137  0.4668 -0.4540
  472TMC3     O 7080   2.336   0.319  16.560 -0.6045 -0.2449  0.0123
  472TMC3     H 7081   2.189   0.202  16.421 -0.8920 -0.4352 -2.3245
  472TMC3    H1 7082   2.363   4.700  16.716 -1.9579  2.5483  0.8942
  472TMC3    H2 7083   2.187   4.514  16.378 -2.4165  1.0947  0.6923
  472TMC3    C7 7084   2.317   4.463  16.595 -0.6045  0.3463  0.1734
  472TMC3    C8 7085   2.078   4.727  16.283 -0.2239 -0.2969  0.0282
  472TMC3    O1 7086   2.331   4.444  16.715 -0.2232 -0.1717  0.0571
  472TMC3    O2 7087   2.071   0.076  16.192 -0.3675  0.3215 -0.4543
  473MPD2     C 7088   1.796   1.620  13.714 -0.1039  0.3672  0.1784
  473MPD2    C1 7089   1.842   1.727  13.643  0.6953  0.5651 -0.0634
  473MPD2    C2 7090   1.893   1.840  13.712  0.2266 -0.1323  0.1588
  473MPD2    C3 7091   1.884   1.839  13.849  0.1486 -0.2071  0.5410
  473MPD2    C4 7092   1.824   1.735  13.915  0.1545  0.5901  0.7372
  473MPD2    C5 7093   1.779   1.628  13.848 -0.8524  0.0854  0.5151
  473MPD2     H 7094   1.951   1.911  13.655  2.8599 -1.3832  1.2452
  473MPD2    H1 7095   1.808   1.744  14.022 -0.1888  0.3321  0.7101
  473MPD2    H2 7096   1.757   1.532  13.663 -1.0377  0.2713  1.0581
  473MPD2    H3 7097   1.752   1.544  13.911 -0.8301 -0.1679  0.1893
  473MPD2     N 7098   1.938   1.937  13.937 -0.1119 -0.1044  0.2178
  473MPD2    H5 7099   1.908   1.923  14.033 -0.1055 -1.1969  0.0600
  473MPD2    N1 7100   1.857   1.722  13.501 -0.6130  0.2256  0.1419
  473MPD2    H7 7101   1.860   1.816  13.461 -0.6393  1.4699  3.1100
  474TMC3    C1 7102   2.060   2.139  14.014 -0.7824  0.1899  0.2106
  474TMC3    C2 7103   2.096   2.267  13.985 -0.2262  0.7504 -0.3481
  474TMC3    C3 7104   2.096   2.359  14.089  0.2596  0.5134 -0.6300
  474TMC3    C4 7105   2.036   2.098  14.138 -0.1625  0.2502 -0.1238
  474TMC3    C5 7106   2.031   2.193  14.237  0.2966 -0.7077 -0.4552
  474TMC3    C6 7107   2.068   2.321  14.216  0.7664  0.2954  0.0659
  474TMC3     C 7108   2.022   2.045  13.906  0.1202 -0.0639 -0.1129
  474TMC3     O 7109   2.052   2.072  13.788  0.3607 -0.5222  0.4886
  474TMC3     H 7110   2.124   2.297  13.884 -0.5834  1.6587 -0.1751
  474TMC3    H1 7111   2.022   1.994  14.166 -0.2154 -0.4315 -2.7116
  474TMC3    H2 7112   2.053   2.396  14.294 -2.9273  1.4501 -1.7240
  474TMC3    C7 7113   1.991   2.139  14.368  0.3357  0.4577  0.3256
  474TMC3    C8 7114   2.088   2.498  14.057  0.4677 -0.2645 -0.0937
  474TMC3    O1 7115   1.950   2.023  14.371  0.4111  0.3071  0.5770
  474TMC3    O2 7116   2.119   2.580  14.143 -0.6509  0.3742 -0.0494
  475MPD2     C 7117   4.419   0.541  11.443 -1.1244 -0.1135 -0.0956
  475MPD2    C1 7118   4.488   0.598  11.340 -0.0283  0.8886  0.2908
  475MPD2    C2 7119   4.442   0.588  11.214 -0.1459  0.2960 -0.9352
  475MPD2    C3 7120   4.321   0.523  11.184  0.5322  0.1064 -1.0180
  475MPD2    C4 7121   4.254   0.474  11.294  0.0385 -0.0912  0.4765
  475MPD2    C5 7122   4.298   0.478  11.425 -0.0739 -0.3148 -0.5000
  475MPD2     H 7123   4.492   0.645  11.136  0.1670 -0.9422 -1.6388
  475MPD2    H1 7124   4.158   0.427  11.278  0.1865 -0.0025 -0.6673
  475MPD2    H2 7125   4.465   0.555  11.540  1.0412 -2.1903 -0.8167
  475MPD2    H3 7126   4.245   0.442  11.512  1.5561  1.1555  1.1173
  475MPD2     N 7127   4.259   0.523  11.053  0.1178 -0.2960  0.7110
  475MPD2    H5 7128   4.160   0.499  11.055 -0.0123  0.4439  3.6840
  475MPD2    N1 7129   4.608   0.664  11.370  0.1049 -0.4250 -0.5112
  475MPD2    H7 7130   4.641   0.643  11.464 -0.6330  0.5604 -0.0417
  476TMC3    C1 7131   0.079   0.786  11.349 -0.2397 -0.6307  0.1356
  476TMC3    C2 7132   0.183   0.817  11.267 -1.3268 -0.1659  0.3820
  476TMC3    C3 7133   0.286   0.887  11.304  0.3662  0.3194 -0.2325
  476TMC3    C4 7134   0.070   0.834  11.474 -0.0648 -0.2858  0.4466
  476TMC3    C5 7135   0.177   0.917  11.510 -0.3155  0.0873  0.2534
  476TMC3    C6 7136   0.288   0.939  11.434  0.1117 -0.0552 -0.7051
  476TMC3     C 7137   4.690   0.740  11.286 -0.2121  0.0358  0.3372
  476TMC3     O 7138   4.688   0.756  11.164  0.2875 -0.0868 -0.4676
  476TMC3     H 7139   0.165   0.786  11.164 -2.5843 -0.3640  0.6665
  476TMC3    H1 7140   4.713   0.810  11.524 -0.6428  1.0248 -0.0174
  476TMC3    H2 7141   0.371   1.003  11.461 -0.5178  0.0726  0.9026
  476TMC3    C7 7142   0.179   0.995  11.626 -0.3812  0.1869  0.1323
  476TMC3    C8 7143   0.393   0.917  11.215 -0.2886 -0.0638  0.2733
  476TMC3    O1 7144   0.126   0.944  11.726  0.0271  0.5298  0.6037
  476TMC3    O2 7145   0.475   0.998  11.246  0.2382 -0.2824 -0.1169
  477MPD2     C 7146   2.807   2.394  11.802  0.5671  0.8329  0.4736
  477MPD2    C1 7147   2.702   2.315  11.753  0.2720  0.4263 -0.5058
  477MPD2    C2 7148   2.677   2.189  11.814 -0.0715  0.5419 -0.0340
  477MPD2    C3 7149   2.752   2.161  11.926  0.4544  0.2390  0.6653
  477MPD2    C4 7150   2.860   2.243  11.976  0.0284  0.0831  0.1147
  477MPD2    C5 7151   2.886   2.360  11.906  0.2263 -0.2017 -0.2845
  477MPD2     H 7152   2.601   2.123  11.774  0.8653  0.0746 -1.0443
  477MPD2    H1 7153   2.925   2.218  12.058  0.0727  0.4091  0.1772
  477MPD2    H2 7154   2.826   2.489  11.753  0.7830  0.1629 -0.7536
  477MPD2    H3 7155   2.970   2.424  11.930  1.1162 -1.5234  0.1264
  477MPD2     N 7156   2.714   2.045  11.995 -0.7370  0.3627 -0.0220
  477MPD2    H5 7157   2.647   1.987  11.945  2.2855 -1.5405 -1.8953
  477MPD2    N1 7158   2.632   2.370  11.642 -0.1174  0.3470 -0.0314
  477MPD2    H7 7159   2.644   2.467  11.613 -0.1703  0.5789  0.7134
  478TMC3    C1 7160   2.440   2.388  11.503 -0.7035  0.0573 -0.3025
  478TMC3    C2 7161   2.436   2.521  11.531  0.3496 -0.1501  0.0572
  478TMC3    C3 7162   2.326   2.593  11.485  0.2570 -0.1908  0.3822
  478TMC3    C4 7163   2.335   2.319  11.441 -0.3093  1.0646 -0.8460
  478TMC3    C5 7164   2.236   2.395  11.388 -0.0663 -0.2380 -0.1292
  478TMC3    C6 7165   2.225   2.534  11.415  0.2072 -0.1081 -0.4709
  478TMC3     C 7166   2.524   2.304  11.589 -0.0753  0.0088 -0.5139
  478TMC3     O 7167   2.502   2.182  11.587 -0.1169  0.5866 -0.3380
  478TMC3     H 7168   2.522   2.570  11.576  0.2761  0.8431 -0.8842
  478TMC3    H1 7169   2.340   2.213  11.421 -0.5114  1.0315 -0.7197
  478TMC3    H2 7170   2.154   2.600  11.365  0.3139  0.9228  0.7379
  478TMC3    C7 7171   2.112   2.327  11.344 -0.7295  0.2749 -0.0462
  478TMC3    C8 7172   2.330   2.736  11.525  0.3028 -0.1758 -0.2245
  478TMC3    O1 7173   2.105   2.212  11.392 -0.4146  0.3288  0.6734
  478TMC3    O2 7174   2.414   2.786  11.599 -0.3269  0.0630  0.2307
  479MPD2     C 7175   1.405   3.408  15.817  0.0644 -0.6084 -0.0130
  479MPD2    C1 7176   1.384   3.476  15.703 -0.1861  0.7567 -0.0947
  479MPD2    C2 7177   1.429   3.609  15.700 -0.1064 -0.4489 -0.1228
  479MPD2    C3 7178   1.484   3.669  15.816  0.5313 -0.0454 -0.3022
  479MPD2    C4 7179   1.500   3.597  15.931  0.0161 -0.2814 -0.3932
  479MPD2    C5 7180   1.452   3.470  15.929  0.1339 -0.2603 -0.3949
  479MPD2     H 7181   1.427   3.662  15.606  1.1219 -0.0622  0.0623
  479MPD2    H1 7182   1.524   3.638  16.029 -0.1356 -0.6552 -0.1973
  479MPD2    H2 7183   1.384   3.302  15.829 -1.4347 -0.1488  1.3542
  479MPD2    H3 7184   1.466   3.404  16.014  2.2947  1.5240  0.6155
  479MPD2     N 7185   1.556   3.795  15.807 -0.6684 -0.2305  0.0136
  479MPD2    H5 7186   1.602   3.820  15.894 -0.8835  0.3876 -0.0531
  479MPD2    N1 7187   1.316   3.409  15.607 -0.1554  0.7072 -0.2831
  479MPD2    H7 7188   1.285   3.315  15.628 -2.4210  0.8506 -2.8861
  480TMC3    C1 7189   1.777   4.060  15.929  0.1825 -0.3541  0.0015
  480TMC3    C2 7190   1.882   4.091  15.840  0.3177 -0.7398  0.1529
  480TMC3    C3 7191   1.859   4.073  15.705  0.0302 -0.2877  0.1802
  480TMC3    C4 7192   1.658   4.009  15.881  0.2945 -0.5045  0.0563
  480TMC3    C5 7193   1.643   3.991  15.749  0.2754 -0.7825  0.0979
  480TMC3    C6 7194   1.737   4.039  15.659 -0.3682  0.0122 -0.3070
  480TMC3     C 7195   1.805   3.990  16.058  0.7119 -0.2731  0.0055
  480TMC3     O 7196   1.749   3.882  16.063  0.0398  0.5132 -0.1757
  480TMC3     H 7197   1.979   4.123  15.878 -0.3515  2.1684 -0.6027
  480TMC3    H1 7198   1.577   3.980  15.946 -0.7323 -1.1082 -1.4875
  480TMC3    H2 7199   1.715   4.012  15.557  0.0700  0.9229 -0.6421
  480TMC3    C7 7200   1.565   3.880  15.705  0.6227 -0.1472  0.1361
  480TMC3    C8 7201   1.959   4.122  15.615  1.1071 -0.4104 -0.1967
  480TMC3    O1 7202   1.529   3.878  15.589 -0.4288 -0.0229 -0.3665
  480TMC3    O2 7203   2.064   4.166  15.665  0.2980  0.5964 -0.2695
  481MPD2     C 7204   3.503   3.474  14.705  0.2187  0.4292  0.6256
  481MPD2    C1 7205   3.413   3.386  14.648 -0.1396 -0.3005  0.0067
  481MPD2    C2 7206   3.371   3.276  14.723 -0.3438 -0.1503 -0.1913
  481MPD2    C3 7207   3.429   3.259  14.856 -0.4993  0.0060  0.4388
  481MPD2    C4 7208   3.510   3.352  14.911  0.4323 -0.4772  0.0183
  481MPD2    C5 7209   3.553   3.457  14.835 -0.7718  0.1417 -0.3191
  481MPD2     H 7210   3.303   3.202  14.683  1.1521 -0.8703 -1.4036
  481MPD2    H1 7211   3.550   3.335  15.010  3.7175  0.7684 -1.0652
  481MPD2    H2 7212   3.538   3.558  14.647  1.1560  0.1866  0.8523
  481MPD2    H3 7213   3.620   3.530  14.878 -0.7043  0.0810 -0.3224
  481MPD2     N 7214   3.401   3.150  14.935  0.4647 -0.5578  0.4917
  481MPD2    H5 7215   3.430   3.160  15.032  0.4297  1.7790  0.2603
  481MPD2    N1 7216   3.369   3.410  14.515  0.3538  0.1821  0.1710
  481MPD2    H7 7217   3.395   3.500  14.476  0.0442  1.1629  2.2170
  482TMC3    C1 7218   3.241   3.392  14.318  0.1612 -0.5216 -0.6924
  482TMC3    C2 7219   3.143   3.322  14.256 -0.0023  0.0164 -0.8257
  482TMC3    C3 7220   3.102   3.358  14.135 -0.7465  0.7698  0.2389
  482TMC3    C4 7221   3.297   3.499  14.264 -0.0392  0.0215 -0.2085
  482TMC3    C5 7222   3.246   3.547  14.144  0.3018 -0.3636  0.4056
  482TMC3    C6 7223   3.144   3.477  14.079  0.1471  0.0268  0.3380
  482TMC3     C 7224   3.294   3.332  14.437  0.0245  0.5189 -0.5540
  482TMC3     O 7225   3.267   3.211  14.455 -0.4415 -0.7582 -0.0460
  482TMC3     H 7226   3.100   3.232  14.298  3.1034 -0.5951  1.1147
  482TMC3    H1 7227   3.381   3.542  14.316 -0.3452 -0.0475  0.3441
  482TMC3    H2 7228   3.112   3.509  13.981 -1.5495  0.7444  1.1342
  482TMC3    C7 7229   3.334   3.637  14.067  0.5197 -0.0194 -0.7530
  482TMC3    C8 7230   3.020   3.253  14.071 -0.7279 -0.5671  0.1852
  482TMC3    O1 7231   3.431   3.690  14.120 -0.3706  0.3219 -0.4671
  482TMC3    O2 7232   3.054   3.138  14.091 -0.7793 -0.0971  0.3800
  483TMC3    C1 7233   1.511   2.580   0.929  1.0404 -0.0877 -0.1104
  483TMC3    C2 7234   1.570   2.704   0.919 -0.9720  0.0259 -0.6902
  483TMC3    C3 7235   1.680   2.733   0.999  0.2358 -0.5304 -0.6741
  483TMC3    C4 7236   1.557   2.485   1.018 -0.2555 -0.5668 -0.9406
  483TMC3    C5 7237   1.664   2.522   1.096 -0.3343  0.2808  0.2035
  483TMC3    C6 7238   1.725   2.641   1.087  0.2899  0.6873  0.1091
  483TMC3     C 7239   1.403   2.543   0.839 -0.0360  0.1438  0.1402
  483TMC3     O 7240   1.339   2.629   0.777  0.0476  0.4823 -0.2780
  483TMC3     H 7241   1.516   2.776   0.858 -1.2453  0.4942  0.1089
  483TMC3    H1 7242   1.507   2.391   1.038  2.5387 -1.8818 -0.1543
  483TMC3    H2 7243   1.821   2.663   1.133 -0.7522 -1.5790  3.3491
  483TMC3    C7 7244   1.720   2.416   1.183 -0.2244  0.1022  0.7026
  483TMC3    C8 7245   1.776   2.822   0.936 -0.1075  0.4676 -0.0530
  483TMC3    O1 7246   1.679   2.306   1.152 -0.0976  0.2238 -0.5804
  483TMC3    O2 7247   1.765   2.839   0.817  0.4460 -0.4635 -0.8519
  484MPD2     C 7248   3.455   0.350  12.590  0.0349  0.1798 -0.0624
  484MPD2    C1 7249   3.512   0.348  12.720 -0.0400  0.0281 -0.0349
  484MPD2    C2 7250   3.635   0.410  12.742 -0.4980 -0.7296  0.0922
  484MPD2    C3 7251   3.710   0.456  12.634 -0.1912 -0.4707 -0.2165
  484MPD2    C4 7252   3.660   0.450  12.502 -0.0372  0.2545 -0.2102
  484MPD2    C5 7253   3.529   0.398  12.481 -0.1444 -0.4069  0.4156
  484MPD2     H 7254   3.682   0.405  12.839  0.5657  0.8708 -0.3518
  484MPD2    H1 7255   3.719   0.483  12.418  0.4765  0.4780  0.2372
  484MPD2    H2 7256   3.369   0.292  12.559 -1.1577  0.4512  2.7505
  484MPD2    H3 7257   3.489   0.401  12.380 -0.3411 -0.3689  0.4938
  484MPD2     N 7258   3.847   0.495  12.644  0.5079 -0.2883 -0.2908
  484MPD2    H5 7259   3.890   0.524  12.557  1.5817  1.6474  0.8899
  484MPD2    N1 7260   3.436   0.296  12.823 -0.2055 -0.0785 -0.4577
  484MPD2    H7 7261   3.357   0.239  12.797 -1.1025  0.7977  0.3404
  485TMC3    C1 7262   4.045   0.559  12.748 -0.5447 -0.9080 -0.2740
  485TMC3    C2 7263   4.143   0.526  12.843 -0.1112 -0.5625  0.3144
  485TMC3    C3 7264   4.244   0.616  12.856  0.1873 -0.1100  0.0016
  485TMC3    C4 7265   4.053   0.671  12.666 -0.7913  0.4038  0.4689
  485TMC3    C5 7266   4.165   0.751  12.672 -0.3712  0.3753 -0.1878
  485TMC3    C6 7267   4.257   0.730  12.775 -0.8086 -0.1475 -0.1091
  485TMC3     C 7268   3.912   0.513  12.765  0.0269  0.4731  0.3378
  485TMC3     O 7269   3.880   0.482  12.876 -0.2160 -0.3577  0.1847
  485TMC3     H 7270   4.124   0.437  12.901  2.4255 -1.9792 -1.0193
  485TMC3    H1 7271   3.976   0.700  12.596  0.2727  3.3733  0.5039
  485TMC3    H2 7272   4.342   0.795  12.786 -1.3262  1.0466 -3.1448
  485TMC3    C7 7273   4.221   0.797  12.541  0.3122  0.1641  0.0142
  485TMC3    C8 7274   4.374   0.566  12.898 -0.1538  0.7398 -0.7825
  485TMC3    O1 7275   4.151   0.781  12.443  0.7050 -0.1657  0.0962
  485TMC3    O2 7276   4.467   0.642  12.894 -0.4491  0.4155  0.0502
  486MPD2     C 7277   1.416   4.400  13.218  0.1259 -0.0760  0.1290
  486MPD2    C1 7278   1.348   4.337  13.118  0.0968 -0.3924 -0.2273
  486MPD2    C2 7279   1.210   4.365  13.101 -0.1637 -1.0591 -0.1384
  486MPD2    C3 7280   1.150   4.474  13.171  0.1163  0.7684  0.4553
  486MPD2    C4 7281   1.221   4.536  13.271 -0.8854  0.2328  0.1016
  486MPD2    C5 7282   1.353   4.506  13.280  0.0969  0.0136 -0.2311
  486MPD2     H 7283   1.150   4.319  13.023 -2.0554  2.2704 -0.6457
  486MPD2    H1 7284   1.175   4.611  13.334 -2.0278  1.5599 -2.2856
  486MPD2    H2 7285   1.520   4.377  13.238 -0.1881  0.6087  2.5723
  486MPD2    H3 7286   1.399   4.565  13.359  0.7657 -2.5087  1.2850
  486MPD2     N 7287   1.007   4.489  13.142 -0.2856 -0.3556  0.1818
  486MPD2    H5 7288   0.967   4.427  13.072  3.4421 -2.6964  0.1030
  486MPD2    N1 7289   1.412   4.220  13.061 -0.4605 -0.2569 -0.5989
  486MPD2    H7 7290   1.512   4.206  13.076 -0.6032  0.5224  1.1553
  487TMC3    C1 7291   1.409   4.000  12.978  0.0267 -0.2410 -0.0970
  487TMC3    C2 7292   1.333   3.899  12.916  0.3636 -0.1711  0.3805
  487TMC3    C3 7293   1.319   3.781  12.976  0.2554  0.0863 -0.0287
  487TMC3    C4 7294   1.479   3.973  13.089 -0.5440  0.2692  1.0859
  487TMC3    C5 7295   1.455   3.856  13.155 -0.4400 -0.1683  0.2888
  487TMC3    C6 7296   1.385   3.755  13.090 -0.1170  0.3654 -0.2138
  487TMC3     C 7297   1.349   4.131  12.973 -0.0434  0.6980  0.1601
  487TMC3     O 7298   1.243   4.144  12.916  0.1726 -0.2105  0.4306
  487TMC3     H 7299   1.278   3.927  12.827  1.7362  1.4524  0.0545
  487TMC3    H1 7300   1.553   4.040  13.131 -1.6472  2.8474 -1.0790
  487TMC3    H2 7301   1.350   3.675  13.154  0.1492 -0.5902 -1.2389
  487TMC3    C7 7302   1.427   3.876  13.294  0.2080  0.3047  0.2028
  487TMC3    C8 7303   1.196   3.716  12.978 -0.2739  1.0404  0.5793
  487TMC3    O1 7304   1.433   3.771  13.362 -0.0865  0.0517  0.2619
  487TMC3    O2 7305   1.095   3.784  12.958  0.5676  0.0811 -0.1442
  488MPD2     C 7306   1.328   0.687  16.302  0.4331  0.0250  0.0939
  488MPD2    C1 7307   1.337   0.819  16.336  0.2905 -0.7106  0.4436
  488MPD2    C2 7308   1.348   0.851  16.469 -0.2895  0.2041 -0.3847
  488MPD2    C3 7309   1.324   0.754  16.564  0.0150  0.1376  0.2995
  488MPD2    C4 7310   1.284   0.625  16.521  0.7857  0.0541  0.6101
  488MPD2    C5 7311   1.297   0.591  16.389  0.9821  0.2261 -0.3413
  488MPD2     H 7312   1.373   0.951  16.504  2.0411 -0.7426  0.6377
  488MPD2    H1 7313   1.259   0.541  16.585  3.3291 -0.8093  0.4667
  488MPD2    H2 7314   1.334   0.661  16.197  0.2394  0.8305 -0.1182
  488MPD2    H3 7315   1.276   0.490  16.357 -2.0254  0.8664 -0.4518
  488MPD2     N 7316   1.332   0.794  16.699  0.2280 -0.4433 -0.1520
  488MPD2    H5 7317   1.354   0.890  16.722  1.5312 -0.3672 -1.7237
  488MPD2    N1 7318   1.358   0.922  16.238 -0.1537 -0.4892 -0.4172
  488MPD2    H7 7319   1.375   1.012  16.281  0.3700 -0.3653 -0.8876
  489TMC3    C1 7320   1.348   0.778  16.938  0.2708 -0.9628  0.5130
  489TMC3    C2 7321   1.413   0.904  16.922  0.1951  0.0433 -0.2916
  489TMC3    C3 7322   1.470   0.953  17.032 -0.3632  0.2113 -0.0059
  489TMC3    C4 7323   1.335   0.707  17.047 -0.2470  0.0377 -0.4207
  489TMC3    C5 7324   1.408   0.763  17.152  0.2399 -0.6343  0.3403
  489TMC3    C6 7325   1.474   0.881  17.152  0.2633 -0.1895 -0.1683
  489TMC3     C 7326   1.319   0.708  16.810 -0.1409  0.0011 -0.7657
  489TMC3     O 7327   1.289   0.589  16.818 -0.1390 -0.2347  0.4857
  489TMC3     H 7328   1.416   0.960  16.829 -1.1715  0.0553 -0.3366
  489TMC3    H1 7329   1.303   0.603  17.042  0.0944 -0.0911  0.0412
  489TMC3    H2 7330   1.505   0.918  17.249 -1.3335 -0.2095  0.3579
  489TMC3    C7 7331   1.395   0.691  17.278 -0.1229 -0.6447 -0.3773
  489TMC3    C8 7332   1.531   1.085  17.023 -0.4209  0.4053 -0.6411
  489TMC3    O1 7333   1.471   0.721  17.372  0.6191 -0.2962 -0.1026
  489TMC3    O2 7334   1.570   1.120  16.911 -0.1130  0.1941 -0.0291
  490MPD2     C 7335   2.305   1.066  17.034 -0.0296  0.6972  0.0100
  490MPD2    C1 7336   2.322   0.959  17.118  0.3254 -0.0146  0.4526
  490MPD2    C2 7337   2.439   0.954  17.201 -0.4537 -0.0998  0.6340
  490MPD2    C3 7338   2.529   1.060  17.205 -0.0197 -0.4308 -0.9195
  490MPD2    C4 7339   2.510   1.171  17.125 -0.1577  0.5390 -0.2189
  490MPD2    C5 7340   2.397   1.172  17.044  0.0379  0.5576 -0.7223
  490MPD2     H 7341   2.442   0.872  17.272  1.9315  1.6233  2.5005
  490MPD2    H1 7342   2.571   1.260  17.133 -0.1032  0.3579  1.3217
  490MPD2    H2 7343   2.230   1.077  16.957 -1.1305 -1.5916  0.7417
  490MPD2    H3 7344   2.387   1.262  16.985 -1.4749  0.9613  0.1580
  490MPD2     N 7345   2.648   1.061  17.287  0.1803 -0.5023  0.2613
  490MPD2    H5 7346   2.708   1.143  17.284  1.2904 -1.2785  1.2100
  490MPD2    N1 7347   2.241   0.841  17.113  0.2404 -0.3143  0.0312
  490MPD2    H7 7348   2.276   0.773  17.180 -1.3988 -0.5061  0.6815
  491TMC3    C1 7349   2.109   0.659  17.027  0.3895  0.0561 -0.1578
  491TMC3    C2 7350   2.138   0.588  17.143  0.4778 -0.0760  0.5740
  491TMC3    C3 7351   2.097   0.457  17.155  0.2465 -0.2036 -0.0099
  491TMC3    C4 7352   2.041   0.608  16.924  0.2493 -0.0270 -0.2791
  491TMC3    C5 7353   1.998   0.482  16.944  1.0136  0.4368 -0.5495
  491TMC3    C6 7354   2.019   0.407  17.056 -0.0719 -0.3117  0.6295
  491TMC3     C 7355   2.158   0.796  17.010  0.0230  0.7124 -0.2626
  491TMC3     O 7356   2.118   0.853  16.909 -0.5255  0.0724 -0.0531
  491TMC3     H 7357   2.178   0.641  17.229  1.6224 -0.5634  0.3459
  491TMC3    H1 7358   2.010   0.662  16.835 -1.0219  2.0869  1.4385
  491TMC3    H2 7359   1.998   0.301  17.051 -1.8187  0.0512  0.2424
  491TMC3    C7 7360   1.929   0.422  16.829  0.2897  0.5106  0.3443
  491TMC3    C8 7361   2.104   0.376  17.273  0.4016  0.5317  0.0022
  491TMC3    O1 7362   1.855   0.325  16.847  0.5098  0.4559  0.1440
  491TMC3    O2 7363   2.036   0.276  17.274 -0.5280 -0.0278 -0.1006
  492MPD2     C 7364   2.363   0.545  11.721  0.8257  0.0732 -0.0851
  492MPD2    C1 7365   2.241   0.530  11.660 -0.5946 -1.1493 -0.0976
  492MPD2    C2 7366   2.131   0.465  11.718 -0.2448 -0.5155 -0.0592
  492MPD2    C3 7367   2.159   0.398  11.840  0.8912 -0.2403  0.0189
  492MPD2    C4 7368   2.287   0.407  11.898  0.0078 -0.0079  0.4108
  492MPD2    C5 7369   2.388   0.483  11.841  1.0066 -0.4069 -0.1180
  492MPD2     H 7370   2.030   0.468  11.679  0.6455 -0.1623 -2.3555
  492MPD2    H1 7371   2.311   0.362  11.994  1.6017  0.2420  0.1315
  492MPD2    H2 7372   2.442   0.609  11.684  0.4088  0.2224 -0.7007
  492MPD2    H3 7373   2.480   0.499  11.895  1.4757 -0.7085 -0.8279
  492MPD2     N 7374   2.062   0.333  11.920 -0.6453 -0.2904 -0.1546
  492MPD2    H5 7375   2.092   0.292  12.008 -2.9100  1.1918  1.2852
  492MPD2    N1 7376   2.226   0.614  11.544 -0.3216  0.4982  0.2810
  492MPD2    H7 7377   2.306   0.665  11.507  1.3581 -2.2926  0.0631
  493TMC3    C1 7378   2.121   0.703  11.353  0.4497 -0.0770  0.0563
  493TMC3    C2 7379   2.182   0.826  11.379  0.0226 -0.6119 -0.0842
  493TMC3    C3 7380   2.168   0.928  11.299  0.9797 -0.4024  0.5728
  493TMC3    C4 7381   2.036   0.684  11.247  1.1221  0.3429  0.0790
  493TMC3    C5 7382   2.029   0.792  11.162  0.3893 -0.7863  0.0896
  493TMC3    C6 7383   2.085   0.913  11.189  0.1786 -0.9126  0.2109
  493TMC3     C 7384   2.118   0.600  11.455  0.8829 -0.1196 -0.1652
  493TMC3     O 7385   2.018   0.529  11.463  0.5381  0.2202  0.4305
  493TMC3     H 7386   2.253   0.837  11.460  1.8878 -1.9040 -1.5476
  493TMC3    H1 7387   1.982   0.592  11.232  0.1798  0.7392  1.0027
  493TMC3    H2 7388   2.072   0.993  11.117  0.3435 -0.3452  0.8124
  493TMC3    C7 7389   1.945   0.796  11.040 -0.1988 -0.1146  0.6121
  493TMC3    C8 7390   2.247   1.050  11.321  0.6196  0.7798 -0.0074
  493TMC3    O1 7391   1.941   0.899  10.976  0.4575 -0.6136 -0.6657
  493TMC3    O2 7392   2.325   1.035  11.414  0.0396  0.0426 -0.3511
  494TMC3    C1 7393   2.952   2.493   0.455 -0.8170  0.0050 -0.4262
  494TMC3    C2 7394   2.909   2.367   0.421  0.3913  0.3322 -0.3962
  494TMC3    C3 7395   2.960   2.312   0.309 -0.2067 -0.2004 -0.0869
  494TMC3    C4 7396   3.051   2.558   0.397 -0.2453 -0.1197 -0.1335
  494TMC3    C5 7397   3.110   2.498   0.293 -0.0362 -0.8010  0.3477
  494TMC3    C6 7398   3.057   2.379   0.241 -0.8436 -0.0085 -0.7779
  494TMC3     C 7399   2.903   2.557   0.571  0.1042 -0.0990  1.0781
  494TMC3     O 7400   2.981   2.626   0.634 -0.0454 -0.4052  0.1701
  494TMC3     H 7401   2.837   2.322   0.489 -0.7527 -0.6123 -2.2284
  494TMC3    H1 7402   3.083   2.655   0.433  1.5094 -0.6991 -0.0878
  494TMC3    H2 7403   3.099   2.338   0.150  0.3549  0.4123 -0.4175
  494TMC3    C7 7404   3.213   2.562   0.213  0.3075 -0.2852  0.3508
  494TMC3    C8 7405   2.986   2.174   0.306 -0.0392  0.0710  0.1885
  494TMC3    O1 7406   3.233   2.510   0.104 -0.6385  0.4734  0.1170
  494TMC3    O2 7407   3.009   2.127   0.413 -0.5393 -0.5711  0.3002
  495TMC3    C1 7408   1.916   3.777  14.658 -0.5354 -0.1804 -0.3357
  495TMC3    C2 7409   1.943   3.871  14.569 -0.1475 -0.3076  0.2287
  495TMC3    C3 7410   1.956   4.000  14.610 -0.1455  0.1692 -0.4511
  495TMC3    C4 7411   1.918   3.804  14.793  0.7384  0.4510 -0.2402
  495TMC3    C5 7412   1.944   3.935  14.834 -0.2558  0.1321  1.1179
  495TMC3    C6 7413   1.962   4.035  14.746 -0.0543  0.4986 -0.0844
  495TMC3     C 7414   1.891   3.641  14.614 -0.1416 -0.1087 -0.0840
  495TMC3     O 7415   1.821   3.578  14.690 -0.1890  0.5176 -0.1041
  495TMC3     H 7416   1.912   3.848  14.467 -1.8600 -0.3705  0.7648
  495TMC3    H1 7417   1.896   3.724  14.862  2.4116 -0.3410 -0.6265
  495TMC3    H2 7418   1.962   4.141  14.772 -2.2961  0.5844 -0.3957
  495TMC3    C7 7419   1.946   3.971  14.974 -0.1312  0.2904  0.3900
  495TMC3    C8 7420   1.876   4.089  14.535  0.0828 -0.0342  0.2917
  495TMC3    O1 7421   1.893   3.890  15.045 -0.1490  0.4934  0.1872
  495TMC3    O2 7422   1.929   4.185  14.480 -0.2608 -0.6044 -0.5274
  496MPD2     C 7423   3.661   4.552  15.526 -0.2310  0.0441  0.5880
  496MPD2    C1 7424   3.699   4.419  15.553  0.8802 -0.0104  0.0068
  496MPD2    C2 7425   3.592   4.326  15.563 -1.1336  0.3511 -0.0680
  496MPD2    C3 7426   3.463   4.363  15.545  0.5434 -0.0971  0.3081
  496MPD2    C4 7427   3.434   4.484  15.495 -0.8200  0.1246 -0.1435
  496MPD2    C5 7428   3.534   4.582  15.492 -1.0020  0.0548  0.1141
  496MPD2     H 7429   3.614   4.223  15.590 -0.0958  0.3368 -0.9635
  496MPD2    H1 7430   3.329   4.506  15.479 -1.4742 -2.9869 -0.2529
  496MPD2    H2 7431   3.737   4.624  15.499 -2.3100  1.3234 -1.8884
  496MPD2    H3 7432   3.498   4.676  15.451  3.3602  1.5378 -0.3233
  496MPD2     N 7433   3.375   4.254  15.557  0.2251 -0.4385  1.0098
  496MPD2    H5 7434   3.419   4.169  15.591 -0.5207 -0.5016  1.8195
  496MPD2    N1 7435   3.834   4.379  15.559 -0.2861  0.1197  0.5574
  496MPD2    H7 7436   3.905   4.441  15.520  0.9090 -2.4631 -1.3934
  497TMC3    C1 7437   3.187   4.118  15.555  0.2102  0.1175 -0.1340
  497TMC3    C2 7438   3.121   4.053  15.448 -0.5227 -0.5150 -0.0605
  497TMC3    C3 7439   3.077   3.925  15.465  0.3104 -0.6147 -0.9310
  497TMC3    C4 7440   3.216   4.040  15.669  0.1637 -0.1664 -0.0228
  497TMC3    C5 7441   3.182   3.912  15.677 -0.0004  0.2162 -0.4302
  497TMC3    C6 7442   3.098   3.855  15.582  0.4436  0.0230  0.1823
  497TMC3     C 7443   3.246   4.249  15.517 -0.0174  0.3127 -0.0728
  497TMC3     O 7444   3.174   4.333  15.468 -0.4818  0.1533  0.3452
  497TMC3     H 7445   3.119   4.106  15.353 -2.7970  0.9167  0.7845
  497TMC3    H1 7446   3.282   4.079  15.745  0.4886 -2.9019  1.1021
  497TMC3    H2 7447   3.077   3.750  15.603 -0.8600  0.2922  0.2075
  497TMC3    C7 7448   3.213   3.835  15.801  0.5178 -0.2880  0.4734
  497TMC3    C8 7449   2.987   3.869  15.363  0.6651  0.5906  0.5571
  497TMC3    O1 7450   3.138   3.745  15.834  0.5937  0.0248  0.0622
  497TMC3    O2 7451   2.937   3.954  15.289  0.5824 -0.2413 -0.3179
  498MPD2     C 7452   4.263   0.159   9.936  0.6291  0.2795 -0.4381
  498MPD2    C1 7453   4.268   0.228  10.060  0.0388 -0.5771  0.0611
  498MPD2    C2 7454   4.186   0.180  10.156 -0.2922  0.0327 -0.5582
  498MPD2    C3 7455   4.113   0.063  10.142 -0.2610 -0.5511  0.0992
  498MPD2    C4 7456   4.104   0.007  10.022  0.7853 -0.0359 -0.3680
  498MPD2    C5 7457   4.175   0.055   9.912 -0.4394 -0.1083 -0.0396
  498MPD2     H 7458   4.176   0.246  10.241 -0.2196  1.2311 -1.4964
  498MPD2    H1 7459   4.042   4.655  10.008  0.0857  0.5501 -0.9721
  498MPD2    H2 7460   4.310   0.194   9.845  0.3783  2.0120  0.0855
  498MPD2    H3 7461   4.174   0.007   9.815  2.0112 -1.3614  0.5554
  498MPD2     N 7462   4.048   0.013  10.262 -0.3959  0.7446 -0.2714
  498MPD2    H5 7463   4.080   0.057  10.348  2.0986 -0.0036 -0.7962
  498MPD2    N1 7464   4.348   0.343  10.095 -0.1394 -0.3485  0.1699
  498MPD2    H7 7465   4.326   0.378  10.188 -2.4072  1.2398 -0.9616
  499TMC3    C1 7466   4.488   0.532  10.072 -0.4346 -0.3672  0.0373
  499TMC3    C2 7467   4.510   0.528  10.201  0.0712 -0.3636 -0.2580
  499TMC3    C3 7468   4.546   0.645  10.267 -0.4108  1.0213  0.3701
  499TMC3    C4 7469   4.524   0.636   9.996 -0.6894  0.4291 -0.5278
  499TMC3    C5 7470   4.572   0.747  10.057 -0.2480 -0.1331  0.0161
  499TMC3    C6 7471   4.576   0.761  10.199  0.2613 -0.2073 -0.0795
  499TMC3     C 7472   4.431   0.408  10.011 -0.0353  0.1772  0.7002
  499TMC3     O 7473   4.470   0.381   9.897  0.1344  0.2534  0.1178
  499TMC3     H 7474   4.491   0.437  10.256  1.1957 -0.1598  0.4902
  499TMC3    H1 7475   4.520   0.629   9.888 -0.7259  2.1861 -0.6401
  499TMC3    H2 7476   4.606   0.852  10.249  0.1653 -0.7791  1.0071
  499TMC3    C7 7477   4.605   0.868   9.984 -0.1257  0.1384 -0.4449
  499TMC3    C8 7478   4.577   0.638  10.405  0.4861  0.0227  0.4060
  499TMC3    O1 7479   4.683   0.945  10.037 -0.3312 -0.3698 -0.3065
  499TMC3    O2 7480   4.503   0.565  10.474 -0.1766  0.1228  0.6559
  500MPD2     C 7481   0.651   1.529  11.435 -0.0067  0.0495  0.2815
  500MPD2    C1 7482   0.713   1.578  11.327 -0.3424 -0.2567 -0.2074
  500MPD2    C2 7483   0.685   1.523  11.201  0.1150 -0.4858  0.6292
  500MPD2    C3 7484   0.598   1.418  11.184  0.6433 -0.3467 -0.2185
  500MPD2    C4 7485   0.525   1.381  11.295  0.6734  0.3607  0.3320
  500MPD2    C5 7486   0.556   1.433  11.416  0.1171 -0.5892 -0.3237
  500MPD2     H 7487   0.742   1.559  11.116 -2.8205 -0.8946 -1.5231
  500MPD2    H1 7488   0.443   1.310  11.291  0.3672  0.6950  0.6983
  500MPD2    H2 7489   0.673   1.563  11.536 -1.2624 -0.3293  0.6847
  500MPD2    H3 7490   0.495   1.401  11.500 -3.1826  0.5563 -2.2984
  500MPD2     N 7491   0.559   1.361  11.057  0.1563 -0.8075 -0.2889
  500MPD2    H5 7492   0.475   1.304  11.058 -0.3209 -0.1523 -2.2235
  500MPD2    N1 7493   0.798   1.690  11.333  0.1693  0.3091 -0.3017
  500MPD2    H7 7494   0.836   1.731  11.249 -1.8143 -1.0207 -1.8434
  501TMC3    C1 7495   0.960   1.836  11.411 -0.2764  0.2458 -0.3286
  501TMC3    C2 7496   0.931   1.935  11.318  0.4129  0.0184 -0.0890
  501TMC3    C3 7497   1.021   2.040  11.313  0.4448  0.5850 -0.7225
  501TMC3    C4 7498   1.061   1.841  11.503  0.0179 -0.1574 -0.3024
  501TMC3    C5 7499   1.135   1.947  11.509 -0.8056  0.0289  0.1195
  501TMC3    C6 7500   1.123   2.049  11.413 -0.4151  0.5081  0.4080
  501TMC3     C 7501   0.852   1.744  11.451 -0.1941  0.4037  0.1695
  501TMC3     O 7502   0.860   1.707  11.563 -0.0036 -1.0033  0.3861
  501TMC3     H 7503   0.844   1.942  11.254  1.5206  1.2844 -1.4520
  501TMC3    H1 7504   1.086   1.760  11.571 -2.7363 -2.2770 -1.8360
  501TMC3    H2 7505   1.197   2.128  11.402 -0.8372  0.4640 -2.7142
  501TMC3    C7 7506   1.273   1.922  11.554  0.1851  0.5401  0.5121
  501TMC3    C8 7507   1.035   2.123  11.199 -0.1034  0.4078  0.2074
  501TMC3    O1 7508   1.308   1.803  11.561  0.4540 -0.2767  0.5676
  501TMC3    O2 7509   1.112   2.218  11.205 -0.4194 -0.7898  0.2406
  502TMC3    C1 7510   0.855   0.047  14.500 -0.0345 -0.3006  0.5439
  502TMC3    C2 7511   0.905   0.133  14.415  0.1615 -0.2074 -0.0128
  502TMC3    C3 7512   0.860   0.265  14.426 -0.0003 -0.1814  0.1790
  502TMC3    C4 7513   0.755   0.080  14.584 -0.4158  0.0257 -0.1530
  502TMC3    C5 7514   0.707   0.205  14.602 -0.3078  0.2283  0.5934
  502TMC3    C6 7515   0.764   0.295  14.517 -0.9414 -0.3691  0.0352
  502TMC3     C 7516   0.954   4.700  14.562  0.2217 -0.4005  0.1911
  502TMC3     O 7517   0.986   4.589  14.515 -0.6111 -0.1329 -0.3149
  502TMC3     H 7518   0.989   0.099  14.355  0.5049 -1.7863  1.3482
  502TMC3    H1 7519   0.723   0.007  14.657  1.8370 -0.9830 -0.1783
  502TMC3    H2 7520   0.741   0.399  14.540  1.4803  0.0728  0.4523
  502TMC3    C7 7521   0.736   0.240  14.732 -0.1187  0.3041 -0.4126
  502TMC3    C8 7522   0.948   0.377  14.403  0.2896 -0.4276 -1.1656
  502TMC3    O1 7523   0.857   0.250  14.751 -0.2595 -0.2224 -1.1329
  502TMC3    O2 7524   0.909   0.491  14.395 -0.6780  0.3190  0.1616
  503MPD2     C 7525   3.404   1.389  17.005  0.3683  0.0030 -0.0153
  503MPD2    C1 7526   3.456   1.393  17.134  0.5656  0.2720 -0.2904
  503MPD2    C2 7527   3.518   1.277  17.183  0.0604 -0.6035 -0.1702
  503MPD2    C3 7528   3.516   1.155  17.115 -0.2098  0.1960  0.1597
  503MPD2    C4 7529   3.461   1.160  16.982  0.1837 -0.5892  0.0648
  503MPD2    C5 7530   3.415   1.274  16.931 -0.2206 -0.5506 -0.7982
  503MPD2     H 7531   3.566   1.289  17.279 -1.7372  0.9826  0.5332
  503MPD2    H1 7532   3.450   1.064  16.932 -0.1881 -0.8237  0.5918
  503MPD2    H2 7533   3.376   1.476  16.946 -0.7745  0.3879  1.0953
  503MPD2    H3 7534   3.377   1.279  16.830 -2.4213 -0.5554  0.0368
  503MPD2     N 7535   3.571   1.037  17.170 -0.0336 -0.4367 -0.2759
  503MPD2    H5 7536   3.590   0.961  17.106  0.4298 -0.9635  0.4842
  503MPD2    N1 7537   3.450   1.508  17.218 -0.3141  0.0934  0.6106
  503MPD2    H7 7538   3.488   1.505  17.312 -2.3403 -2.1954  1.3515
  504TMC3    C1 7539   3.661   0.890  17.342  0.0331  0.9036 -0.0624
  504TMC3    C2 7540   3.647   0.854  17.473 -0.3209  0.4897 -1.0835
  504TMC3    C3 7541   3.722   0.752  17.527  0.2979  0.3754 -0.0652
  504TMC3    C4 7542   3.747   0.831  17.253  0.5113 -0.0952  0.7001
  504TMC3    C5 7543   3.824   0.735  17.311 -0.8756 -0.0626 -0.0304
  504TMC3    C6 7544   3.812   0.697  17.443  0.2639  0.1740 -0.0657
  504TMC3     C 7545   3.600   1.024  17.302 -0.4479  0.2018 -0.2361
  504TMC3     O 7546   3.580   1.098  17.402  0.2546 -0.2519  0.3708
  504TMC3     H 7547   3.591   0.920  17.538 -0.8589 -0.1530 -0.8978
  504TMC3    H1 7548   3.773   0.849  17.149  1.5204  1.4470  1.2308
  504TMC3    H2 7549   3.861   0.607  17.477  2.6304  1.2491 -0.6237
  504TMC3    C7 7550   3.939   0.697  17.229 -0.2160  0.2764 -0.3573
  504TMC3    C8 7551   3.749   0.739  17.663  0.6979 -0.2039 -0.2783
  504TMC3    O1 7552   3.918   0.698  17.109  0.2248  0.2923 -0.4022
  504TMC3    O2 7553   3.859   0.699  17.705  0.0394 -0.4468  0.2559
  505MPD2     C 7554   3.400   0.040  11.194 -0.2141 -0.2053  0.1195
  505MPD2    C1 7555   3.431   4.693  11.299  0.6793  0.1587  0.5082
  505MPD2    C2 7556   3.533   4.728  11.391 -0.0138  0.5649 -0.3432
  505MPD2    C3 7557   3.609   0.105  11.376  0.2641  0.4154  0.5626
  505MPD2    C4 7558   3.568   0.192  11.272  0.2947  0.2499  0.3044
  505MPD2    C5 7559   3.466   0.161  11.186 -0.0150  0.3240 -0.4309
  505MPD2     H 7560   3.569   4.658  11.465  0.0773  2.0224  0.9826
  505MPD2    H1 7561   3.606   0.292  11.254  0.5459 -0.0731 -0.9283
  505MPD2    H2 7562   3.321   0.018  11.123 -0.6486  0.7689  0.2942
  505MPD2    H3 7563   3.445   0.226  11.102 -0.6908  0.0430 -0.4786
  505MPD2     N 7564   3.722   0.134  11.460 -0.3792  0.1516 -0.2584
  505MPD2    H5 7565   3.750   0.073  11.537 -0.3631 -1.7137 -1.7355
  505MPD2    N1 7566   3.358   4.578  11.304  0.1121  0.8282  0.0412
  505MPD2    H7 7567   3.295   4.569  11.225  0.3685 -3.0851  0.2831
  506TMC3    C1 7568   3.294   4.373  11.393 -0.4660 -0.8775  0.2407
  506TMC3    C2 7569   3.304   4.303  11.277 -0.0171 -0.4948  0.3898
  506TMC3    C3 7570   3.313   4.168  11.264 -0.5847 -0.1878 -0.3733
  506TMC3    C4 7571   3.302   4.297  11.505  0.5083 -0.3258 -0.5091
  506TMC3    C5 7572   3.326   4.165  11.500  0.3201 -0.1009 -0.7402
  506TMC3    C6 7573   3.320   4.098  11.382 -0.9533  0.0484 -0.0276
  506TMC3     C 7574   3.373   4.488  11.407 -0.2773  0.6573  0.4148
  506TMC3     O 7575   3.438   4.495  11.511  0.1204  0.7192 -0.1711
  506TMC3     H 7576   3.313   4.353  11.181  0.0987  0.7045  1.0230
  506TMC3    H1 7577   3.280   4.348  11.598 -1.3072  0.6643 -1.4835
  506TMC3    H2 7578   3.354   3.995  11.383 -1.8386 -0.2427  0.8943
  506TMC3    C7 7579   3.441   4.118  11.586 -0.6129 -0.1285 -0.4673
  506TMC3    C8 7580   3.366   4.101  11.151 -0.2403 -0.3619  1.2298
  506TMC3    O1 7581   3.478   4.003  11.574  0.0358 -0.2026 -0.1673
  506TMC3    O2 7582   3.345   3.981  11.135  0.1085  0.6731 -0.4536
  507TMC3    C1 7583   4.421   0.463  15.066  0.7278 -0.1183 -0.0812
  507TMC3    C2 7584   4.370   0.388  14.970 -0.1243 -0.0049  0.8775
  507TMC3    C3 7585   4.380   0.425  14.842 -0.7096  0.2192  0.3990
  507TMC3    C4 7586   4.482   0.585  15.048 -0.1246  0.0935  0.4129
  507TMC3    C5 7587   4.478   0.627  14.916 -0.5588 -0.5822 -0.3898
  507TMC3    C6 7588   4.439   0.546  14.811  0.3198 -0.0927  0.2445
  507TMC3     C 7589   4.314   0.474  15.164  0.3980 -0.2552 -0.2617
  507TMC3     O 7590   4.338   0.545  15.262  0.5722  0.1725  0.1471
  507TMC3     H 7591   4.344   0.286  14.997  3.3079 -1.4877 -1.4634
  507TMC3    H1 7592   4.489   0.644  15.139 -1.0847  1.3317 -0.3111
  507TMC3    H2 7593   4.445   0.577  14.708 -0.8114 -1.1176 -0.1250
  507TMC3    C7 7594   4.460   0.768  14.893  0.1487 -0.4246  0.1497
  507TMC3    C8 7595   4.259   0.402  14.772  0.0272  0.0253 -0.5990
  507TMC3    O1 7596   4.392   0.780  14.794  0.0556 -0.6682  0.1541
  507TMC3    O2 7597   4.193   0.312  14.819  0.2902  0.3325 -0.1419
  508MPD2     C 7598   0.538   3.013  16.068  0.4064  0.1053  0.6027
  508MPD2    C1 7599   0.639   3.108  16.069  0.0323  0.0749  0.5336
  508MPD2    C2 7600   0.684   3.149  15.951 -0.3578 -0.8729 -0.1312
  508MPD2    C3 7601   0.631   3.103  15.832  0.3573  0.2327  0.6863
  508MPD2    C4 7602   0.530   3.004  15.830  0.6395  0.0897 -0.3696
  508MPD2    C5 7603   0.484   2.965  15.952 -1.0502 -0.2165 -0.0090
  508MPD2     H 7604   0.760   3.226  15.944 -1.5281  0.4456  1.6609
  508MPD2    H1 7605   0.469   2.983  15.743 -1.0285  0.9163  0.5917
  508MPD2    H2 7606   0.492   2.982  16.161  1.7889 -0.8541  0.9811
  508MPD2    H3 7607   0.408   2.887  15.952 -1.7591  0.4774  0.1596
  508MPD2     N 7608   0.686   3.155  15.712  0.1557 -0.3886 -0.4319
  508MPD2    H5 7609   0.771   3.210  15.715  1.0504 -1.8504  1.2324
  508MPD2    N1 7610   0.694   3.153  16.193 -0.0957 -0.2490 -0.8001
  508MPD2    H7 7611   0.653   3.122  16.280  0.1335  1.4625 -0.0866
  509TMC3    C1 7612   0.604   3.502  15.488  0.2243  0.3576 -0.0927
  509TMC3    C2 7613   0.732   3.546  15.504  0.0130  0.7480  0.8256
  509TMC3    C3 7614   0.819   3.451  15.542 -0.2824  0.5482  0.2258
  509TMC3    C4 7615   0.564   3.370  15.496 -0.0724 -0.5423  0.3899
  509TMC3    C5 7616   0.663   3.278  15.518  0.2827 -0.1819  0.2434
  509TMC3    C6 7617   0.794   3.316  15.552  0.3364  0.3316 -0.5725
  509TMC3     C 7618   0.493   3.592  15.512 -0.2107 -0.3840 -0.9789
  509TMC3     O 7619   0.420   3.578  15.608  0.7802  0.8185  0.0162
  509TMC3     H 7620   0.750   3.653  15.499 -1.0580  0.8903 -0.0933
  509TMC3    H1 7621   0.462   3.346  15.470 -0.3339  1.0354 -0.0503
  509TMC3    H2 7622   0.864   3.239  15.582 -1.8734 -2.3638 -2.3429
  509TMC3    C7 7623   0.617   3.163  15.597  0.3617 -0.7417 -0.4427
  509TMC3    C8 7624   0.922   3.492  15.632 -0.0134  0.6009  0.5104
  509TMC3    O1 7625   0.504   3.135  15.569 -0.2170 -0.6904  0.2503
  509TMC3    O2 7626   0.955   3.400  15.707 -0.4124 -0.4045  0.2600
  510MPD2     C 7627   3.145   4.635  14.732  0.1604  0.1321 -0.2967
  510MPD2    C1 7628   3.183   4.506  14.765 -0.0861  0.3492 -0.3869
  510MPD2    C2 7629   3.308   4.462  14.733  0.0769 -0.0818  0.1215
  510MPD2    C3 7630   3.399   4.546  14.665 -0.2998 -0.0670 -0.8376
  510MPD2    C4 7631   3.361   4.678  14.644 -0.5635 -0.4238  0.0646
  510MPD2    C5 7632   3.233   4.723  14.685  0.2956  0.2986 -0.0605
  510MPD2     H 7633   3.343   4.367  14.770 -0.0445  0.0392  0.5488
  510MPD2    H1 7634   3.437   0.016  14.622  0.7551 -1.8683 -0.3295
  510MPD2    H2 7635   3.051   4.677  14.768  0.8105 -2.7329  4.7105
  510MPD2    H3 7636   3.204   0.091  14.682  0.2967  0.2271 -2.2635
  510MPD2     N 7637   3.526   4.500  14.633 -0.1676 -0.4273  0.1645
  510MPD2    H5 7638   3.555   4.410  14.671  0.2628  0.3132  1.5835
  510MPD2    N1 7639   3.089   4.416  14.820  0.3972  0.1867  0.6326
  510MPD2    H7 7640   3.001   4.457  14.850 -0.9790 -2.0694 -0.3321
  511TMC3    C1 7641   2.988   4.216  14.865 -0.2632  0.0410  0.2478
  511TMC3    C2 7642   2.906   4.287  14.946 -0.3145 -0.5543 -1.0051
  511TMC3    C3 7643   2.789   4.224  14.992 -0.2297  0.1335  0.6679
  511TMC3    C4 7644   2.958   4.087  14.813 -0.0215  0.4691  0.1561
  511TMC3    C5 7645   2.831   4.044  14.848  0.0722  0.0051 -0.0824
  511TMC3    C6 7646   2.749   4.094  14.946  0.0205  0.6339  0.1372
  511TMC3     C 7647   3.111   4.278  14.824  0.5136  0.4801  0.2272
  511TMC3     O 7648   3.212   4.205  14.816  0.5409 -0.4301 -0.8954
  511TMC3     H 7649   2.933   4.382  14.992 -1.1796  0.7158 -3.1484
  511TMC3    H1 7650   3.019   4.028  14.745 -1.7834 -0.5489 -0.5363
  511TMC3    H2 7651   2.651   4.056  14.972 -0.0523  0.5085 -0.3246
  511TMC3    C7 7652   2.797   3.917  14.789  0.4353 -0.4797  0.3853
  511TMC3    C8 7653   2.709   4.285  15.089 -0.0891  0.0282 -1.2428
  511TMC3    O1 7654   2.855   3.891  14.686 -0.1207 -0.2940 -0.2725
  511TMC3    O2 7655   2.699   4.407  15.080 -0.0504  0.2356 -0.3764
  512TMC3    C1 7656   1.882   3.887  13.440  0.6826 -0.0420 -0.3082
  512TMC3    C2 7657   1.959   3.885  13.555  0.5559  0.6183 -0.2148
  512TMC3    C3 7658   2.080   3.827  13.548 -0.4864 -0.2308  0.9294
  512TMC3    C4 7659   1.934   3.834  13.322  0.4759 -0.5045  0.2643
  512TMC3    C5 7660   2.055   3.773  13.319 -0.3369  0.2335  0.7281
  512TMC3    C6 7661   2.130   3.760  13.435  0.3062  0.1877  0.1512
  512TMC3     C 7662   1.776   3.987  13.426 -0.3492  0.3356  0.3997
  512TMC3     O 7663   1.757   4.029  13.314 -0.0857 -0.1981  0.4768
  512TMC3     H 7664   1.927   3.941  13.642 -0.2405 -2.2970  1.3553
  512TMC3    H1 7665   1.893   3.851  13.223 -1.3599 -0.0009  1.1227
  512TMC3    H2 7666   2.222   3.702  13.440  0.6640  0.6055 -1.5363
  512TMC3    C7 7667   2.124   3.783  13.198  0.5533  0.9986 -0.3695
  512TMC3    C8 7668   2.170   3.849  13.653  0.0101  0.5166 -0.6388
  512TMC3    O1 7669   2.092   3.864  13.112  0.0180 -0.2330  0.3914
  512TMC3    O2 7670   2.254   3.762  13.667 -0.6329 -0.3106 -0.2203
  513MPD2     C 7671   3.815   3.593  13.941  0.0366  0.0284 -0.7056
  513MPD2    C1 7672   3.913   3.655  13.866  0.0741 -0.1896 -0.0314
  513MPD2    C2 7673   4.027   3.704  13.931 -0.3419 -0.4011 -0.5659
  513MPD2    C3 7674   4.049   3.688  14.067 -0.7653  0.3339 -0.1798
  513MPD2    C4 7675   3.952   3.628  14.145  1.0418 -0.1419  0.3871
  513MPD2    C5 7676   3.838   3.585  14.081 -0.7994  0.6795  0.8699
  513MPD2     H 7677   4.108   3.758  13.884 -0.6242 -0.6309 -1.3144
  513MPD2    H1 7678   3.960   3.612  14.252 -0.9314 -0.1842  0.5305
  513MPD2    H2 7679   3.725   3.551  13.899 -0.4388 -0.1294  0.4636
  513MPD2    H3 7680   3.754   3.551  14.142 -0.5606  0.2453  0.9566
  513MPD2     N 7681   4.175   3.730  14.122  0.3464  0.2780  0.5220
  513MPD2    H5 7682   4.247   3.762  14.058 -1.1181 -0.1259 -1.3598
  513MPD2    N1 7683   3.898   3.659  13.726 -0.2350  0.1996  0.1936
  513MPD2    H7 7684   3.826   3.610  13.674  0.5841 -1.1525  0.3370
  514TMC3    C1 7685   3.949   3.690  13.499 -0.5766  1.2569 -0.2625
  514TMC3    C2 7686   3.897   3.799  13.440 -0.2713  0.1391  0.3067
  514TMC3    C3 7687   3.961   3.849  13.332 -0.3130  0.4771 -0.0756
  514TMC3    C4 7688   4.053   3.618  13.440  0.1811  0.6343 -0.4454
  514TMC3    C5 7689   4.115   3.675  13.332 -0.1314  0.1714  0.4632
  514TMC3    C6 7690   4.071   3.786  13.270 -0.3766  0.4692  0.3362
  514TMC3     C 7691   3.984   3.716  13.633 -0.1549  0.0377  0.0431
  514TMC3     O 7692   4.092   3.773  13.653 -0.9614 -0.2659 -0.5064
  514TMC3     H 7693   3.816   3.854  13.486 -0.5853 -0.7949  0.8747
  514TMC3    H1 7694   4.085   3.539  13.507  1.0952  0.0193 -1.5924
  514TMC3    H2 7695   4.136   3.825  13.192 -0.1683  1.2018  0.8735
  514TMC3    C7 7696   4.257   3.648  13.336 -0.4950 -0.0592  0.0350
  514TMC3    C8 7697   3.908   3.971  13.273 -0.1676 -0.3059  0.3132
  514TMC3    O1 7698   4.318   3.620  13.233  0.2120  0.2177 -0.1031
  514TMC3    O2 7699   3.831   4.034  13.350 -0.6716 -0.3025 -0.2858
  515MPD2     C 7700   1.800   1.323  14.672 -0.4068 -0.6436 -0.3274
  515MPD2    C1 7701   1.878   1.216  14.643 -0.9044 -0.4256 -0.2623
  515MPD2    C2 7702   2.000   1.192  14.711 -0.2245 -0.5860 -0.9442
  515MPD2    C3 7703   2.038   1.288  14.811  0.1769  0.0546  0.3140
  515MPD2    C4 7704   1.959   1.393  14.835  0.4654  0.7953  0.0578
  515MPD2    C5 7705   1.837   1.408  14.775  0.4179  0.0413 -0.7816
  515MPD2     H 7706   2.059   1.105  14.685  1.4482  0.7378 -1.5867
  515MPD2    H1 7707   1.987   1.459  14.916 -1.2061 -1.6947  2.6711
  515MPD2    H2 7708   1.705   1.341  14.623  1.3418  1.5259 -2.8746
  515MPD2    H3 7709   1.773   1.492  14.801  1.4819  1.0202 -1.2860
  515MPD2     N 7710   2.160   1.277  14.882 -0.1263 -0.2865 -0.1581
  515MPD2    H5 7711   2.178   1.341  14.959  1.1684 -0.3325 -0.4203
  515MPD2    N1 7712   1.842   1.120  14.551  0.2694 -1.5531 -0.2455
  515MPD2    H7 7713   1.907   1.042  14.548  1.5055 -0.6211  2.5684
  516TMC3    C1 7714   1.737   1.020  14.369 -0.0344 -0.2989 -0.4062
  516TMC3    C2 7715   1.691   1.033  14.241  0.0997  0.3654  0.6632
  516TMC3    C3 7716   1.669   0.906  14.177  0.3743  0.0864  0.4735
  516TMC3    C4 7717   1.755   0.896  14.437 -0.4702 -0.2317  0.6654
  516TMC3    C5 7718   1.749   0.786  14.368  0.7537 -0.0893  0.8570
  516TMC3    C6 7719   1.685   0.789  14.244  0.0131  0.3594  0.3338
  516TMC3     C 7720   1.753   1.140  14.448 -0.0001  0.2887  0.3320
  516TMC3     O 7721   1.690   1.239  14.412  0.1614  0.3451  0.2063
  516TMC3     H 7722   1.687   1.130  14.193  1.5901  0.8450  1.4671
  516TMC3    H1 7723   1.783   0.894  14.542  2.1216 -1.7184 -0.0540
  516TMC3    H2 7724   1.684   0.701  14.181 -1.0711  0.3908  0.3069
  516TMC3    C7 7725   1.780   0.661  14.443 -0.6856  0.3226  0.6134
  516TMC3    C8 7726   1.579   0.910  14.067 -0.3629 -0.0933 -0.7121
  516TMC3    O1 7727   1.837   0.674  14.550 -0.8482  0.4082  0.0329
  516TMC3    O2 7728   1.525   1.018  14.050  0.2512 -0.1385  0.1817
  517MPD2     C 7729   1.741   2.868  17.538  0.1850 -0.4268  1.0254
  517MPD2    C1 7730   1.843   2.808  17.607  0.1706  0.1860 -0.5933
  517MPD2    C2 7731   1.914   2.878  17.706 -0.5945  0.1077 -0.3188
  517MPD2    C3 7732   1.878   3.009  17.743  0.0076  0.4355 -0.3712
  517MPD2    C4 7733   1.782   3.070  17.668 -0.1426  0.3043  0.3697
  517MPD2    C5 7734   1.710   2.998  17.573 -0.2484 -0.5327 -0.2055
  517MPD2     H 7735   2.002   2.837   0.011 -1.2236  0.3904  1.1244
  517MPD2    H1 7736   1.748   3.169  17.695 -0.4055  0.6062 -1.0745
  517MPD2    H2 7737   1.676   2.818  17.467 -1.1723  0.8352  1.3557
  517MPD2    H3 7738   1.627   3.048  17.525 -2.1442 -2.9765  0.5085
  517MPD2     N 7739   1.941   3.084   0.098 -0.2191  0.2893  0.5407
  517MPD2    H5 7740   1.901   3.176   0.115 -0.8973 -0.3032  2.1899
  517MPD2    N1 7741   1.895   2.677  17.577  0.2837  0.7737  0.0144
  517MPD2    H7 7742   1.983   2.647  17.617  0.1511 -0.8361 -0.9274
  518TMC3    C1 7743   1.894   2.460  17.464  0.5184 -0.3029 -0.8920
  518TMC3    C2 7744   1.823   2.343  17.433  0.6297  0.9315 -0.1209
  518TMC3    C3 7745   1.902   2.240  17.401  0.4742 -0.4311 -0.0312
  518TMC3    C4 7746   2.030   2.467  17.466 -0.5257  0.1514 -0.4669
  518TMC3    C5 7747   2.095   2.349  17.452  0.6286 -0.3683 -0.4072
  518TMC3    C6 7748   2.033   2.231  17.403  0.3929  0.4043 -0.0398
  518TMC3     C 7749   1.816   2.584  17.509 -0.6380 -0.0947  0.2956
  518TMC3     O 7750   1.702   2.592  17.463 -0.2662  0.4021  0.0612
  518TMC3     H 7751   1.716   2.356  17.420  0.5159 -0.6116 -0.6966
  518TMC3    H1 7752   2.085   2.558  17.486 -0.5770  0.2690 -0.8751
  518TMC3    H2 7753   2.088   2.137  17.404  0.2197  0.2953 -0.5571
  518TMC3    C7 7754   2.241   2.369  17.444  0.1474 -0.4405 -0.0164
  518TMC3    C8 7755   1.836   2.113  17.423  0.8430  0.3081 -0.8555
  518TMC3    O1 7756   2.294   2.475  17.476  0.2099 -0.2308  0.0434
  518TMC3    O2 7757   1.733   2.119  17.486 -0.0184 -0.8848 -0.8965
  519MPD2     C 7758   3.326   0.727  14.543  0.5938 -0.1574  0.3246
  519MPD2    C1 7759   3.291   0.756  14.415 -0.6436  0.3095  0.5664
  519MPD2    C2 7760   3.360   0.691  14.310  0.8495 -0.6346  0.5825
  519MPD2    C3 7761   3.465   0.608  14.340  0.4104 -0.1869 -0.3242
  519MPD2    C4 7762   3.502   0.581  14.470  0.8474 -0.2613  0.2272
  519MPD2    C5 7763   3.430   0.638  14.571  0.4931 -1.0287 -0.2408
  519MPD2     H 7764   3.315   0.695  14.211  0.4103  1.3775  0.8706
  519MPD2    H1 7765   3.586   0.516  14.496  1.6175  0.4771 -0.4288
  519MPD2    H2 7766   3.275   0.767  14.630 -1.4984 -0.5661 -0.7227
  519MPD2    H3 7767   3.460   0.607  14.671  2.7916  2.6380  0.2301
  519MPD2     N 7768   3.543   0.547  14.235 -0.2134 -0.3501  0.3733
  519MPD2    H5 7769   3.625   0.496  14.267 -1.3750 -2.2393  0.3179
  519MPD2    N1 7770   3.178   0.832  14.396  0.9890  0.4196  0.0409
  519MPD2    H7 7771   3.123   0.846  14.480  2.9495 -0.0898  1.4053
  520TMC3    C1 7772   3.594   0.472  14.023 -0.1907  0.0621  0.8553
  520TMC3    C2 7773   3.562   0.477  13.893  0.8426 -0.0087  0.3967
  520TMC3    C3 7774   3.641   0.407  13.810 -0.0224  0.3335 -0.4740
  520TMC3    C4 7775   3.712   0.420  14.069  0.0367  0.2108 -0.7801
  520TMC3    C5 7776   3.789   0.341  13.982 -1.1407  0.6586  0.2898
  520TMC3    C6 7777   3.748   0.329  13.849  0.1490 -0.2674  0.0315
  520TMC3     C 7778   3.505   0.552  14.109 -0.0364 -0.9849  0.2724
  520TMC3     O 7779   3.413   0.593  14.044 -0.1954  0.3127  0.2484
  520TMC3     H 7780   3.481   0.540  13.858  2.5195  1.9796  0.1152
  520TMC3    H1 7781   3.748   0.420  14.171  2.3682  0.1896 -1.5885
  520TMC3    H2 7782   3.800   0.268  13.776 -0.4558 -1.6038  0.7165
  520TMC3    C7 7783   3.894   0.255  14.045 -0.0526  0.0491  1.1274
  520TMC3    C8 7784   3.588   0.372  13.675  0.6579  0.2280 -0.3148
  520TMC3    O1 7785   3.892   0.231  14.164 -0.1551 -0.0524  0.2142
  520TMC3    O2 7786   3.670   0.365  13.582 -0.2603 -0.1015 -0.4671
  521MPD2     C 7787   4.268   3.944  17.439 -0.0539  0.5082 -0.3908
  521MPD2    C1 7788   4.367   3.849  17.447  0.0458 -0.2320 -0.6113
  521MPD2    C2 7789   4.454   3.830  17.348  0.3398  0.4268  0.6909
  521MPD2    C3 7790   4.472   3.926  17.252 -0.5563 -0.0469  0.0105
  521MPD2    C4 7791   4.387   4.038  17.259 -0.2770 -0.4363  1.2350
  521MPD2    C5 7792   4.280   4.042  17.351 -0.1939 -0.0022  0.3248
  521MPD2     H 7793   4.522   3.745  17.347  0.5061  0.5977 -1.7180
  521MPD2    H1 7794   4.395   4.121  17.190 -1.5579  0.1330  1.7670
  521MPD2    H2 7795   4.190   3.943  17.514  1.8759  0.1952  1.6198
  521MPD2    H3 7796   4.221   4.133  17.358 -1.6628 -0.9906  0.8092
  521MPD2     N 7797   4.574   3.913  17.153 -0.6880 -0.4437 -0.5212
  521MPD2    H5 7798   4.646   3.845  17.174 -1.4764 -1.3884 -0.8337
  521MPD2    N1 7799   4.353   3.743  17.545 -0.0771  0.1752  0.8572
  521MPD2    H7 7800   4.263   3.730  17.590  0.0162 -0.4688  0.8678
  522TMC3    C1 7801   4.662   3.928  16.945 -0.1247 -0.4407 -0.5100
  522TMC3    C2 7802   0.058   3.932  16.983 -0.0593  0.0529  0.5931
  522TMC3    C3 7803   0.131   3.818  16.958  0.0130  0.7549 -0.5791
  522TMC3    C4 7804   4.608   3.814  16.897  0.0741  0.8094  0.0161
  522TMC3    C5 7805   4.687   3.709  16.848 -0.1047  0.6119  1.1319
  522TMC3    C6 7806   0.082   3.712  16.884  0.4549 -0.0573 -0.4815
  522TMC3     C 7807   4.583   3.991  17.042  0.0614  0.0463 -0.3751
  522TMC3     O 7808   4.499   4.059  16.989  0.4584 -0.0605 -0.6709
  522TMC3     H 7809   0.102   4.024  17.018 -0.9323  0.9728 -0.7249
  522TMC3    H1 7810   4.503   3.822  16.871  0.2388  0.0812 -0.9021
  522TMC3    H2 7811   0.142   3.624  16.862 -1.6373 -1.6196  0.0820
  522TMC3    C7 7812   4.626   3.580  16.831  0.5546 -0.9127  0.1988
  522TMC3    C8 7813   0.276   3.845  16.966 -0.6476  0.2507 -0.2052
  522TMC3    O1 7814   4.688   3.480  16.873  0.7777  0.8164 -0.0439
  522TMC3    O2 7815   0.317   3.938  17.035 -0.3540 -0.5457 -0.1004
  523MPD2     C 7816   1.500   3.544   9.871  0.0023 -0.4415  0.4268
  523MPD2    C1 7817   1.376   3.499   9.845 -0.2397 -0.8249 -0.3110
  523MPD2    C2 7818   1.290   3.577   9.764 -0.0253  0.6061 -0.0792
  523MPD2    C3 7819   1.331   3.700   9.718 -0.5398 -0.3805 -0.2175
  523MPD2    C4 7820   1.462   3.724   9.725  0.1247 -0.2545  0.0197
  523MPD2    C5 7821   1.546   3.663   9.809 -0.2546  0.1624 -0.2216
  523MPD2     H 7822   1.192   3.542   9.736  0.3718  0.4400 -1.2513
  523MPD2    H1 7823   1.507   3.812   9.680  0.1462 -0.7441 -0.9287
  523MPD2    H2 7824   1.569   3.479   9.924 -0.6777 -1.7899 -0.3377
  523MPD2    H3 7825   1.653   3.682   9.812 -0.1950 -0.2065  0.0587
  523MPD2     N 7826   1.244   3.789   9.647 -0.3460 -0.0183  0.1845
  523MPD2    H5 7827   1.296   3.870   9.615  0.3245  0.3537  2.1988
  523MPD2    N1 7828   1.349   3.377   9.904  0.0644 -0.3751 -0.3356
  523MPD2    H7 7829   1.416   3.342   9.972  0.2719  1.3521  0.3543
  524TMC3    C1 7830   1.046   3.899   9.606  0.5156  0.3830  0.1338
  524TMC3    C2 7831   0.922   3.879   9.548  0.1189 -0.0363 -0.6093
  524TMC3    C3 7832   0.874   3.997   9.493 -0.9966 -0.6556 -0.5548
  524TMC3    C4 7833   1.108   4.013   9.633  0.3943  0.3324  0.2594
  524TMC3    C5 7834   1.042   4.124   9.585  0.2999 -0.4256 -0.0596
  524TMC3    C6 7835   0.930   4.118   9.511  0.4222 -0.0968 -0.0360
  524TMC3     C 7836   1.111   3.777   9.641 -0.1160  0.3209 -0.0661
  524TMC3     O 7837   1.034   3.688   9.676  0.1495  0.7090 -0.0049
  524TMC3     H 7838   0.885   3.781   9.520  2.1607 -0.7404 -0.8446
  524TMC3    H1 7839   1.200   4.021   9.689 -0.0317 -0.7984  1.1238
  524TMC3    H2 7840   0.869   4.205   9.487 -1.6842 -1.6241 -0.2373
  524TMC3    C7 7841   1.118   4.248   9.598 -1.0034 -0.1653  0.5920
  524TMC3    C8 7842   0.757   3.974   9.406 -0.1655  0.7436  0.2513
  524TMC3    O1 7843   1.214   4.239   9.667  1.1280 -0.1624 -0.0222
  524TMC3    O2 7844   0.708   3.861   9.400  0.1283 -0.5078  0.3009
  525MPD2     C 7845   4.556   0.198  14.582  0.3254  0.9812  0.2085
  525MPD2    C1 7846   4.685   0.194  14.629  0.1915  0.1345  0.7478
  525MPD2    C2 7847   0.023   0.312  14.627 -0.2317  0.0452 -0.5996
  525MPD2    C3 7848   4.696   0.433  14.584  0.0535  0.0621  0.5657
  525MPD2    C4 7849   4.569   0.436  14.538  0.5267 -0.4992 -0.5277
  525MPD2    C5 7850   4.503   0.313  14.538  0.3190 -0.1116 -0.7029
  525MPD2     H 7851   0.126   0.316  14.659 -0.5942  0.1219  0.5650
  525MPD2    H1 7852   4.517   0.530  14.523 -0.2082 -1.1394 -1.9778
  525MPD2    H2 7853   4.499   0.107  14.567  1.5444  0.5223 -1.7055
  525MPD2    H3 7854   4.402   0.319  14.499  0.6424 -1.7454 -1.7612
  525MPD2     N 7855   0.024   0.558  14.593 -0.6137 -0.4800 -0.2620
  525MPD2    H5 7856   4.710   0.643  14.567 -1.0046  0.2071  2.8037
  525MPD2    N1 7857   0.010   0.079  14.675 -0.2536  0.1344  0.0756
  525MPD2    H7 7858   0.110   0.079  14.692 -0.4590 -0.2035  1.2899
  526TMC3    C1 7859   0.020   4.606  14.767 -0.5043  0.0793 -0.1389
  526TMC3    C2 7860   4.723   4.568  14.895 -0.5718  0.4150 -0.5251
  526TMC3    C3 7861   0.082   4.522  14.977 -0.3898  0.9221 -0.0706
  526TMC3    C4 7862   0.151   4.621  14.733 -0.3212 -0.7533  0.2854
  526TMC3    C5 7863   0.239   4.560  14.818  0.2021 -0.8428  0.6123
  526TMC3    C6 7864   0.207   4.512  14.939 -0.3559 -0.6128  0.3485
  526TMC3     C 7865   4.671   4.708  14.714  0.1535  0.6086 -0.0111
  526TMC3     O 7866   4.548   4.689  14.721 -0.3222  0.1946 -0.5585
  526TMC3     H 7867   4.621   4.561  14.932 -0.5093  1.6909 -0.1078
  526TMC3    H1 7868   0.187   4.641  14.632  1.1001 -2.3624  0.4654
  526TMC3    H2 7869   0.283   4.485  15.012  0.9807  1.2145 -0.3848
  526TMC3    C7 7870   0.376   4.594  14.797  0.5990 -0.1659 -0.1404
  526TMC3    C8 7871   0.071   4.529  15.125 -0.7781  0.6767  0.0883
  526TMC3    O1 7872   0.412   4.708  14.773  0.6736  0.3940  0.1430
  526TMC3    O2 7873   0.177   4.554  15.184 -0.0138  0.2463  0.5191
  527MPD2     C 7874   2.728   3.188   1.362 -0.0193 -0.4366 -0.0244
  527MPD2    C1 7875   2.766   3.123   1.249 -0.1231 -0.3108 -0.0762
  527MPD2    C2 7876   2.900   3.088   1.231  0.5290  0.3814  0.2979
  527MPD2    C3 7877   2.989   3.110   1.331  0.0316 -0.8649 -0.6693
  527MPD2    C4 7878   2.943   3.164   1.447 -0.2944 -0.9341  0.8097
  527MPD2    C5 7879   2.817   3.210   1.462 -0.0451  0.6097 -0.6374
  527MPD2     H 7880   2.940   3.057   1.136  0.1505  1.6090 -0.2667
  527MPD2    H1 7881   3.011   3.191   1.526 -0.7756  1.1302  0.5113
  527MPD2    H2 7882   2.623   3.210   1.376 -0.1871 -2.6016  1.9988
  527MPD2    H3 7883   2.782   3.243   1.559  3.1165 -0.8433  0.9826
  527MPD2     N 7884   3.126   3.082   1.298  0.2080  0.0593 -0.2991
  527MPD2    H5 7885   3.149   3.046   1.206 -0.4500  1.8896 -1.1825
  527MPD2    N1 7886   2.681   3.088   1.147 -0.1563 -0.1191 -0.0739
  527MPD2    H7 7887   2.727   3.035   1.073  0.3774 -1.3173  1.1419
  528TMC3    C1 7888   2.479   3.021   1.046  0.4785 -0.5136 -0.6053
  528TMC3    C2 7889   2.515   3.029   0.915  0.5204  0.5485 -0.3433
  528TMC3    C3 7890   2.448   2.957   0.820  0.1579  0.7842  1.0048
  528TMC3    C4 7891   2.368   2.951   1.083  0.7350  0.7061 -0.3277
  528TMC3    C5 7892   2.302   2.876   0.989 -0.2846 -0.2431 -0.1665
  528TMC3    C6 7893   2.341   2.878   0.856 -0.2797 -0.4247 -0.3318
  528TMC3     C 7894   2.550   3.108   1.142 -0.0818  0.0851  0.1573
  528TMC3     O 7895   2.476   3.170   1.214 -0.9155 -0.1786 -0.2701
  528TMC3     H 7896   2.594   3.103   0.903 -0.0873  1.4018  0.8563
  528TMC3    H1 7897   2.350   2.944   1.190  0.7078  0.7533 -0.3291
  528TMC3    H2 7898   2.308   2.796   0.793  0.6207 -1.4876  0.5802
  528TMC3    C7 7899   2.223   2.764   1.031 -1.6622 -0.5840 -0.1090
  528TMC3    C8 7900   2.524   2.922   0.705  0.6617 -0.2068 -1.0271
  528TMC3    O1 7901   2.237   2.729   1.147 -0.3311  0.4830  0.1364
  528TMC3    O2 7902   2.648   2.943   0.698  0.0699 -0.3989  0.6902
  529MPD2     C 7903   0.868   1.612   0.662 -0.8023  0.6685  0.5444
  529MPD2    C1 7904   0.896   1.489   0.602 -0.7316  0.6199 -0.5834
  529MPD2    C2 7905   0.892   1.484   0.467 -0.1906  0.1224 -0.1407
  529MPD2    C3 7906   0.858   1.598   0.389 -0.0389  0.8947 -0.0375
  529MPD2    C4 7907   0.826   1.718   0.448  0.1581  0.2267  0.4240
  529MPD2    C5 7908   0.820   1.719   0.585  0.0651 -0.0486  0.4039
  529MPD2     H 7909   0.932   1.399   0.412 -1.8126 -1.0671  0.4968
  529MPD2    H1 7910   0.797   1.803   0.388 -1.8515 -2.2351 -2.1031
  529MPD2    H2 7911   0.876   1.632   0.768 -0.0016 -2.4940  1.0896
  529MPD2    H3 7912   0.791   1.813   0.631  1.4422  1.0860 -1.0528
  529MPD2     N 7913   0.870   1.603   0.249  0.5208  0.4859 -0.1377
  529MPD2    H5 7914   0.859   1.693   0.205 -1.4978  0.1170 -0.4024
  529MPD2    N1 7915   0.943   1.375   0.669  0.5922  0.7307 -0.0354
  529MPD2    H7 7916   0.965   1.294   0.611  1.9031 -0.1345  1.6639
  530TMC3    C1 7917   1.014   1.243   0.857 -0.1103 -0.1288  0.5543
  530TMC3    C2 7918   1.093   1.252   0.972 -0.0978  0.1308  0.0454
  530TMC3    C3 7919   1.151   1.137   1.015  0.7558 -0.2655  0.2062
  530TMC3    C4 7920   0.991   1.127   0.788 -0.0229  0.0215  0.2650
  530TMC3    C5 7921   1.045   1.014   0.848  0.3960 -0.0516  0.3077
  530TMC3    C6 7922   1.114   1.020   0.963 -0.0077 -0.2100  0.3327
  530TMC3     C 7923   0.959   1.369   0.806 -0.4988  0.2631 -0.3245
  530TMC3     O 7924   0.953   1.459   0.889 -0.1156  0.2888 -0.1480
  530TMC3     H 7925   1.101   1.346   1.026 -0.1980 -0.1039  0.4641
  530TMC3    H1 7926   0.932   1.116   0.698  1.0524 -0.9667 -0.3255
  530TMC3    H2 7927   1.151   0.927   1.004 -0.5328  0.5672  2.5628
  530TMC3    C7 7928   0.974   0.890   0.835 -0.0467 -0.1837 -0.2868
  530TMC3    C8 7929   1.192   1.135   1.148 -0.1495 -0.0286  0.0154
  530TMC3    O1 7930   0.984   0.836   0.726  0.1002 -0.0190  0.2405
  530TMC3    O2 7931   1.145   1.224   1.223  0.3607  0.1058 -0.4931
  531MPD2     C 7932   4.655   3.609  13.665  0.2083 -0.3168 -0.4131
  531MPD2    C1 7933   4.542   3.648  13.733  0.4474  0.0522 -0.9213
  531MPD2    C2 7934   4.427   3.662  13.661  0.7600 -1.1540 -0.3601
  531MPD2    C3 7935   4.423   3.643  13.528 -0.2402 -0.2146  0.3624
  531MPD2    C4 7936   4.538   3.605  13.461  0.0111 -0.6203 -0.0864
  531MPD2    C5 7937   4.652   3.592  13.532  0.1066  0.5465  0.0396
  531MPD2     H 7938   4.331   3.687  13.704  1.8771  0.3249  1.2756
  531MPD2    H1 7939   4.544   3.587  13.354  0.3698  0.6285 -0.2739
  531MPD2    H2 7940   0.014   3.599  13.716  0.3788  1.1492 -0.4353
  531MPD2    H3 7941   0.006   3.569  13.476 -1.6898 -2.4245 -1.6341
  531MPD2     N 7942   4.298   3.654  13.468  0.0474 -0.3201  0.0550
  531MPD2    H5 7943   4.229   3.690  13.533  0.1978 -0.2417  0.1719
  531MPD2    N1 7944   4.565   3.684  13.868 -0.0324  0.0913  0.8478
  531MPD2    H7 7945   4.658   3.673  13.909  0.1194 -0.7444  0.2806
  532TMC3    C1 7946   4.510   3.751  14.083  0.0962  0.5705  0.3691
  532TMC3    C2 7947   4.405   3.799  14.156 -0.2252  0.1560 -0.0750
  532TMC3    C3 7948   4.354   3.735  14.267 -0.2964 -0.2243  0.1387
  532TMC3    C4 7949   4.579   3.647  14.139 -0.6005  0.3091 -1.0986
  532TMC3    C5 7950   4.536   3.593  14.255 -0.8300  0.0183 -0.3920
  532TMC3    C6 7951   4.430   3.642  14.323 -0.4488 -0.0463 -0.5453
  532TMC3     C 7952   4.473   3.738  13.951 -0.7772  0.2445  0.0625
  532TMC3     O 7953   4.361   3.786  13.921  0.4316  0.2053  0.0500
  532TMC3     H 7954   4.367   3.893  14.119 -0.9763 -0.1851 -0.1825
  532TMC3    H1 7955   4.657   3.599  14.082 -0.0560 -0.7237  0.4917
  532TMC3    H2 7956   4.394   3.599  14.416 -2.6430  2.2922 -0.2947
  532TMC3    C7 7957   4.610   3.468  14.301 -0.3902 -0.7778 -0.6334
  532TMC3    C8 7958   4.212   3.718  14.261 -0.0682 -0.0855 -0.6255
  532TMC3    O1 7959   4.653   3.450  14.415 -0.2893  0.0234  0.3525
  532TMC3    O2 7960   4.155   3.663  14.354  0.0061  0.5389 -0.2120
  533TMC3    C1 7961   0.177   0.716  14.637 -0.2175 -0.3416  0.6071
  533TMC3    C2 7962   0.306   0.750  14.634  0.5082 -0.2898 -0.2264
  533TMC3    C3 7963   0.360   0.825  14.738  0.3266  0.3068 -0.2019
  533TMC3    C4 7964   0.104   0.753  14.745 -0.2396 -0.7764 -0.7430
  533TMC3    C5 7965   0.157   0.818  14.854 -0.2467  0.5519 -0.3589
  533TMC3    C6 7966   0.291   0.854  14.850  0.1125  0.0220 -0.1795
  533TMC3     C 7967   0.158   0.574  14.621  0.4194  0.2088  0.5413
  533TMC3     O 7968   0.248   0.491  14.617 -0.3634 -0.0370 -0.4042
  533TMC3     H 7969   0.368   0.711  14.554  1.8294  0.8114  0.2535
  533TMC3    H1 7970   0.001   0.718  14.748 -0.6667  0.7540  1.8070
  533TMC3    H2 7971   0.343   0.919  14.921  1.1642 -0.4169 -0.5599
  533TMC3    C7 7972   0.090   0.781  14.975 -0.2544  0.7338 -0.0694
  533TMC3    C8 7973   0.481   0.908  14.716 -0.0775 -0.3325  0.5202
  533TMC3    O1 7974   0.038   0.671  14.971 -0.0113  0.1269  0.3961
  533TMC3    O2 7975   0.552   0.929  14.812 -0.0492 -0.1936  0.2689
  534MPD2     C 7976   3.139   1.581   2.008  0.0392 -0.3344  0.1578
  534MPD2    C1 7977   3.154   1.655   1.889 -0.5436  0.4541 -0.2317
  534MPD2    C2 7978   3.060   1.640   1.794 -0.3950 -0.4095  0.4185
  534MPD2    C3 7979   2.958   1.544   1.802 -0.4216 -0.6301  0.0974
  534MPD2    C4 7980   2.949   1.465   1.912 -0.2102  0.0409 -0.5461
  534MPD2    C5 7981   3.039   1.488   2.013 -0.4788  0.0530 -0.1954
  534MPD2     H 7982   3.069   1.704   1.707 -0.1386 -1.9657 -0.6827
  534MPD2    H1 7983   2.879   1.382   1.922  0.9909 -1.1876 -2.5594
  534MPD2    H2 7984   3.193   1.598   2.100  1.8267  0.4016 -1.0088
  534MPD2    H3 7985   3.026   1.425   2.101  1.0631  2.8139  1.9884
  534MPD2     N 7986   2.865   1.513   1.694  0.0568  0.3281 -0.7308
  534MPD2    H5 7987   2.809   1.429   1.706  2.3659 -1.2170 -0.9594
  534MPD2    N1 7988   3.237   1.771   1.876  0.1338 -0.1546 -0.4949
  534MPD2    H7 7989   3.238   1.825   1.789 -0.0421  0.7378  0.0555
  535TMC3    C1 7990   2.740   1.557   1.497 -0.2917 -0.4531  0.7421
  535TMC3    C2 7991   2.629   1.511   1.550 -0.6305  0.2733 -0.6200
  535TMC3    C3 7992   2.517   1.483   1.473  0.0159 -0.2436  0.0022
  535TMC3    C4 7993   2.749   1.585   1.362 -0.7996 -0.3436  0.2668
  535TMC3    C5 7994   2.634   1.580   1.289 -0.3874 -0.6712  0.5968
  535TMC3    C6 7995   2.519   1.526   1.344  0.0044  0.0503 -0.3918
  535TMC3     C 7996   2.860   1.584   1.580  0.6864 -0.0808  0.0508
  535TMC3     O 7997   2.943   1.662   1.534  0.5017  0.5552 -0.1177
  535TMC3     H 7998   2.627   1.497   1.658 -1.2582  0.0137 -0.6617
  535TMC3    H1 7999   2.825   1.648   1.317 -0.7059 -0.0393  0.8502
  535TMC3    H2 8000   2.428   1.506   1.287  0.6392 -0.0918 -1.3461
  535TMC3    C7 8001   2.642   1.613   1.150 -0.2463 -0.2684  0.1512
  535TMC3    C8 8002   2.395   1.432   1.535  0.8956  0.2583  1.0638
  535TMC3    O1 8003   2.749   1.595   1.099 -0.8420 -0.7086  0.3933
  535TMC3    O2 8004   2.297   1.410   1.462 -0.6968 -0.6341 -0.1423
  536MPD2     C 8005   1.694   0.032  15.807 -0.9272 -0.9114 -0.4502
  536MPD2    C1 8006   1.571   0.005  15.858 -0.5514 -0.3667 -0.5524
  536MPD2    C2 8007   1.460   4.733  15.775 -0.4037  0.2575  0.8134
  536MPD2    C3 8008   1.476   0.027  15.641 -0.0913  0.5750  0.6755
  536MPD2    C4 8009   1.603   0.047  15.593  0.3596 -0.0214  0.6632
  536MPD2    C5 8010   1.711   0.060  15.675  0.1312  0.7093 -0.0907
  536MPD2     H 8011   1.368   4.700  15.821  0.0274 -0.6958  0.9908
  536MPD2    H1 8012   1.621   0.065  15.487  1.4492 -1.3887  0.6015
  536MPD2    H2 8013   1.780   0.031  15.872 -0.5030 -0.5653 -1.0000
  536MPD2    H3 8014   1.805   0.066  15.622  0.1269 -1.9586 -0.3831
  536MPD2     N 8015   1.368   0.033  15.554 -0.3965 -0.2457  0.2907
  536MPD2    H5 8016   1.394   0.053  15.458 -0.1382 -3.4440 -0.3077
  536MPD2    N1 8017   1.562   4.712  15.998 -0.0271 -0.4815  0.4886
  536MPD2    H7 8018   1.647   0.008  16.043 -0.9659  0.9212  1.2886
  537TMC3    C1 8019   1.480   4.685  16.218  0.7874  0.2645 -0.3126
  537TMC3    C2 8020   1.604   0.003  16.262  0.5698 -0.1598 -0.1906
  537TMC3    C3 8021   1.641   4.718  16.385  0.9256 -0.5781 -0.2062
  537TMC3    C4 8022   1.390   4.629  16.308 -0.3800  0.1094  0.0676
  537TMC3    C5 8023   1.443   4.594  16.429  0.4266  0.1329 -0.0507
  537TMC3    C6 8024   1.572   4.636  16.468  0.0890 -0.0281  1.2527
  537TMC3     C 8025   1.446   4.680  16.076 -0.5630 -0.3303 -0.4623
  537TMC3     O 8026   1.339   4.630  16.039  0.2730  0.4443  0.0694
  537TMC3     H 8027   1.647   0.084  16.204  0.9060  0.6614  1.2135
  537TMC3    H1 8028   1.296   4.591  16.269  0.0955 -0.6499 -0.3618
  537TMC3    H2 8029   1.600   4.624  16.572 -0.9970 -0.5781  1.4770
  537TMC3    C7 8030   1.344   4.577  16.529 -0.3018  0.3649 -0.2610
  537TMC3    C8 8031   1.726   0.077  16.451  0.0046  0.2367  0.3789
  537TMC3    O1 8032   1.227   4.601  16.503  0.5364 -0.6192 -0.4526
  537TMC3    O2 8033   1.765   0.043  16.564  0.8757 -0.2944 -0.1757
  538TMC3    C1 8034   2.340   3.503  11.415 -0.9502 -0.3590 -1.1015
  538TMC3    C2 8035   2.480   3.492  11.413 -0.3696  0.0995  0.1695
  538TMC3    C3 8036   2.550   3.509  11.295 -1.0218 -0.0319  0.4924
  538TMC3    C4 8037   2.270   3.532  11.302  0.3873  0.3787 -0.2568
  538TMC3    C5 8038   2.344   3.549  11.184  0.4111 -0.2401  0.3924
  538TMC3    C6 8039   2.482   3.540  11.180 -0.3199  0.9956  0.3747
  538TMC3     C 8040   2.272   3.507  11.541  0.2461 -0.3441  0.5162
  538TMC3     O 8041   2.156   3.554  11.544 -0.3883  0.2092  0.3061
  538TMC3     H 8042   2.530   3.468  11.505  2.1986  0.0749 -1.2355
  538TMC3    H1 8043   2.162   3.523  11.307  0.6933 -1.5729  3.5237
  538TMC3    H2 8044   2.542   3.566  11.093 -1.2029 -1.9084 -1.1110
  538TMC3    C7 8045   2.256   3.550  11.065  0.4715 -0.1452  0.0650
  538TMC3    C8 8046   2.688   3.464  11.287  0.5641  0.6973  0.1576
  538TMC3    O1 8047   2.146   3.602  11.087  0.3051  0.5786  0.1830
  538TMC3    O2 8048   2.730   3.417  11.394 -0.1029 -0.3691  0.0543
  539MPD2     C 8049   2.196   2.970  11.645 -0.8654 -0.3016 -0.5580
  539MPD2    C1 8050   2.185   2.928  11.514  0.2485 -0.0099 -0.1052
  539MPD2    C2 8051   2.112   3.014  11.430 -0.4579  0.2382  0.5805
  539MPD2    C3 8052   2.063   3.135  11.479  0.6702  0.0763 -0.3231
  539MPD2    C4 8053   2.073   3.173  11.612 -0.6367  0.3645 -0.1979
  539MPD2    C5 8054   2.139   3.088  11.694 -0.0920  0.5321 -1.2551
  539MPD2     H 8055   2.087   2.968  11.335  0.5954 -1.3020  1.0561
  539MPD2    H1 8056   2.033   3.266  11.651  2.5442  1.3349  0.7668
  539MPD2    H2 8057   2.265   2.915  11.708 -0.2384  0.4425 -0.5935
  539MPD2    H3 8058   2.140   3.116  11.799 -1.4424 -2.9085 -0.3291
  539MPD2     N 8059   1.996   3.235  11.401 -0.0188  1.3563 -0.0579
  539MPD2    H5 8060   1.954   3.308  11.457 -1.6053  1.0413 -0.8410
  539MPD2    N1 8061   2.232   2.805  11.461 -0.7641  0.5872  0.4686
  539MPD2    H7 8062   2.182   2.767  11.381 -0.2919  0.4336  0.2485
  540TMC3    C1 8063   1.920   3.369  11.222  0.4010  0.2323 -0.3100
  540TMC3    C2 8064   1.868   3.371  11.098 -0.5248 -0.0492 -0.2068
  540TMC3    C3 8065   1.795   3.483  11.065 -0.0197  0.3500  0.5170
  540TMC3    C4 8066   1.896   3.470  11.306  0.6814  0.4684 -0.3275
  540TMC3    C5 8067   1.818   3.574  11.276  0.0841 -0.3831 -0.5851
  540TMC3    C6 8068   1.769   3.581  11.149 -0.3869 -0.3515 -0.3464
  540TMC3     C 8069   1.988   3.242  11.264 -0.6625 -0.2397  0.5203
  540TMC3     O 8070   2.006   3.159  11.181  0.1971 -0.1613  0.2012
  540TMC3     H 8071   1.900   3.297  11.025  0.2959  0.3936 -0.2922
  540TMC3    H1 8072   1.930   3.458  11.408  0.6486 -0.2743 -0.3996
  540TMC3    H2 8073   1.691   3.650  11.117  0.2120  1.4418  2.0754
  540TMC3    C7 8074   1.745   3.630  11.393  0.4040  0.0283  0.2258
  540TMC3    C8 8075   1.706   3.480  10.945  0.1797  0.1925  0.2970
  540TMC3    O1 8076   1.759   3.569  11.501  0.5301  0.1119  1.0075
  540TMC3    O2 8077   1.658   3.578  10.893 -0.0063 -0.3776 -0.3638
  541MPD2     C 8078   0.416   4.101  13.401  0.2169  0.1114 -0.7550
  541MPD2    C1 8079   0.516   4.037  13.327  0.5987  1.0059 -0.2652
  541MPD2    C2 8080   0.546   4.096  13.206  0.0323  0.6838  0.5266
  541MPD2    C3 8081   0.477   4.206  13.160 -0.2625 -0.0441 -0.0805
  541MPD2    C4 8082   0.381   4.265  13.232 -0.2405 -0.6627  0.3407
  541MPD2    C5 8083   0.347   4.211  13.352 -0.0467  0.4178  0.1375
  541MPD2     H 8084   0.625   4.051  13.146  1.4356  1.6821  1.6252
  541MPD2    H1 8085   0.318   4.348  13.204  2.0970  0.6145 -1.0249
  541MPD2    H2 8086   0.381   4.064  13.497 -0.9033  0.6447 -0.9558
  541MPD2    H3 8087   0.270   4.255  13.414 -0.4050  0.5378 -0.3977
  541MPD2     N 8088   0.502   4.256  13.031  0.2906  0.0640 -0.2832
  541MPD2    H5 8089   0.427   4.315  12.995  0.2188  0.6565  0.8443
  541MPD2    N1 8090   0.579   3.928  13.384  1.2679 -0.3552  0.5496
  541MPD2    H7 8091   0.652   3.887  13.327  0.1353 -0.9050 -0.5068
  542TMC3    C1 8092   0.576   4.248  12.810  0.8306 -1.0085 -0.0130
  542TMC3    C2 8093   0.652   4.184  12.713 -0.7965 -0.7010  0.5454
  542TMC3    C3 8094   0.616   4.198  12.580 -0.8283  0.6291 -0.1287
  542TMC3    C4 8095   0.476   4.333  12.773  0.2291  0.1259 -0.1857
  542TMC3    C5 8096   0.452   4.348  12.638 -0.1796 -0.3909  0.3576
  542TMC3    C6 8097   0.517   4.280  12.537  0.6412  0.7979  0.6773
  542TMC3     C 8098   0.594   4.202  12.943  0.2526  0.3238 -1.0892
  542TMC3     O 8099   0.685   4.123  12.955 -0.8056  0.1992  0.1352
  542TMC3     H 8100   0.743   4.129  12.736 -1.3560 -2.4537 -1.3930
  542TMC3    H1 8101   0.427   4.407  12.836  1.7268  1.5126 -0.6491
  542TMC3    H2 8102   0.494   4.284  12.431  2.2798 -0.2692  0.2652
  542TMC3    C7 8103   0.370   4.458  12.597 -0.0858  0.3164  1.0969
  542TMC3    C8 8104   0.681   4.120  12.476 -0.2074  0.7585 -0.4056
  542TMC3    O1 8105   0.365   4.556  12.672 -0.2120 -0.3454 -0.1724
  542TMC3    O2 8106   0.613   4.095  12.377 -0.5345 -0.0397  0.5237
  543TMC3    C1 8107   0.367   0.923  17.166 -0.6478 -0.0357 -0.2542
  543TMC3    C2 8108   0.437   0.880  17.279 -0.0947 -0.1179  0.2655
  543TMC3    C3 8109   0.378   0.915  17.395  0.0308  0.4521  0.2905
  543TMC3    C4 8110   0.253   1.000  17.168  0.4273  0.7454 -0.2956
  543TMC3    C5 8111   0.206   1.035  17.293 -0.0095  0.3366  0.1270
  543TMC3    C6 8112   0.264   0.985  17.408  0.0224  0.4737 -0.1869
  543TMC3     C 8113   0.401   0.850  17.040 -0.2624 -0.2584 -0.3531
  543TMC3     O 8114   0.519   0.818  17.020  0.1105  0.4681  0.2006
  543TMC3     H 8115   0.522   0.813  17.282 -0.3356 -0.4849 -1.2391
  543TMC3    H1 8116   0.211   1.048  17.080 -0.5114  1.3941  0.5059
  543TMC3    H2 8117   0.212   0.998  17.502 -0.5792  0.4186 -0.5067
  543TMC3    C7 8118   0.102   1.134  17.314 -0.4277  0.2751  0.3811
  543TMC3    C8 8119   0.437   0.856  17.511  0.2260  0.3140  0.1837
  543TMC3    O1 8120   0.042   1.125  17.421  0.1608  0.3465 -0.3957
  543TMC3    O2 8121   0.510   0.758  17.504  0.6505  0.1516 -0.1190
  544MPD2     C 8122   0.296   0.776   0.254 -0.2281 -1.1209  0.3985
  544MPD2    C1 8123   0.341   0.688   0.157  0.0472  0.5096 -0.0056
  544MPD2    C2 8124   0.374   0.740   0.035  0.0933 -0.1771 -0.4560
  544MPD2    C3 8125   0.369   0.874   0.010  0.1204  0.2681  0.3864
  544MPD2    C4 8126   0.327   0.956   0.110 -0.0492  0.4308  0.4570
  544MPD2    C5 8127   0.283   0.909   0.228 -0.0428 -0.4234 -0.4710
  544MPD2     H 8128   0.419   0.677  17.701  0.7037  1.1182 -1.1584
  544MPD2    H1 8129   0.327   1.063   0.096 -2.0744  0.5521  1.3517
  544MPD2    H2 8130   0.266   0.742   0.353  0.2867 -1.5210  0.4177
  544MPD2    H3 8131   0.246   0.969   0.310  1.5633 -1.5109  1.0556
  544MPD2     N 8132   0.402   0.924  17.624  0.1195  0.3664  0.1757
  544MPD2    H5 8133   0.384   1.023  17.613  0.8507  0.2742 -1.8789
  544MPD2    N1 8134   0.343   0.546   0.188  0.0503  0.7159 -0.3480
  544MPD2    H7 8135   0.308   0.525   0.281  2.1972 -1.0274  0.0751
  545TMC3    C1 8136   0.371   0.314   0.154 -0.7199 -0.2769 -0.1500
  545TMC3    C2 8137   0.386   0.202   0.068 -0.3429 -1.0935  0.0004
  545TMC3    C3 8138   0.419   0.077   0.129 -0.7264 -0.1772 -0.2822
  545TMC3    C4 8139   0.357   0.291   0.289  0.1069  0.2510  0.6985
  545TMC3    C5 8140   0.380   0.167   0.339  0.0379 -0.0984  0.1873
  545TMC3    C6 8141   0.417   0.057   0.266 -0.3554  0.4598 -0.2189
  545TMC3     C 8142   0.368   0.443   0.097  0.0269  0.0541 -0.0595
  545TMC3     O 8143   0.378   0.436  17.719  0.4075 -0.0521  0.5678
  545TMC3     H 8144   0.388   0.212  17.703 -1.5546  1.3366  0.2202
  545TMC3    H1 8145   0.349   0.375   0.357 -0.9461 -0.5504  1.5476
  545TMC3    H2 8146   0.426   4.693   0.306 -1.8300 -0.0651 -1.1928
  545TMC3    C7 8147   0.406   0.168   0.485  0.4046 -0.2671 -0.1493
  545TMC3    C8 8148   0.461   4.709   0.036  0.1045  0.4864  0.6211
  545TMC3    O1 8149   0.310   0.203   0.550 -0.1541  0.3094 -0.4287
  545TMC3    O2 8150   0.505   0.015  17.670 -0.3203 -0.2054 -0.5124
  546MPD2     C 8151   1.863   0.512  17.456  0.5095  0.9814 -0.3852
  546MPD2    C1 8152   1.802   0.540  17.339 -0.9894 -0.1883  0.5980
  546MPD2    C2 8153   1.828   0.669  17.292 -0.0030  0.7519  0.3443
  546MPD2    C3 8154   1.905   0.762  17.357 -0.3281  0.8355 -0.3536
  546MPD2    C4 8155   1.968   0.724  17.463 -0.0699 -0.3875  0.1658
  546MPD2    C5 8156   1.951   0.598  17.514  1.0374  0.4776  0.7723
  546MPD2     H 8157   1.770   0.703  17.207 -0.8953  0.5433  0.8713
  546MPD2    H1 8158   2.037   0.791  17.514  0.7032  1.3092 -3.0931
  546MPD2    H2 8159   1.844   0.417  17.505  2.5873 -1.0175 -3.4634
  546MPD2    H3 8160   2.013   0.566  17.597  1.5503  0.9494  0.5659
  546MPD2     N 8161   1.925   0.892  17.311  0.4703  0.4943  0.5394
  546MPD2    H5 8162   1.991   0.944  17.367  0.9880  0.3386  0.0673
  546MPD2    N1 8163   1.710   0.444  17.292  0.8687 -0.2855 -0.4268
  546MPD2    H7 8164   1.727   0.351  17.328  2.6414  0.1970 -0.0162
  547TMC3    C1 8165   1.541   0.346  17.165  0.0973  0.3037 -0.1487
  547TMC3    C2 8166   1.466   0.353  17.054  0.1783  0.4007 -0.1511
  547TMC3    C3 8167   1.365   0.260  17.039  0.6945  0.1633  0.0335
  547TMC3    C4 8168   1.523   0.253  17.271  0.6999 -0.7114 -0.0044
  547TMC3    C5 8169   1.418   0.165  17.248  0.5479  0.9909 -0.1548
  547TMC3    C6 8170   1.342   0.171  17.134  0.7187  0.2435 -0.1495
  547TMC3     C 8171   1.639   0.452  17.179  0.5575  0.0036  0.1783
  547TMC3     O 8172   1.646   0.536  17.093 -0.4105  0.6225  0.2965
  547TMC3     H 8173   1.469   0.436  16.984  3.1826 -0.6432 -1.2417
  547TMC3    H1 8174   1.568   0.256  17.369 -0.3053 -2.5828  0.5094
  547TMC3    H2 8175   1.256   0.107  17.114  0.4621  0.5920 -0.1580
  547TMC3    C7 8176   1.374   0.085  17.355  0.3915  0.5404 -0.0792
  547TMC3    C8 8177   1.269   0.267  16.930 -0.3754 -0.4462  0.1187
  547TMC3    O1 8178   1.255   0.058  17.374 -0.0033  0.9207 -0.1628
  547TMC3    O2 8179   1.152   0.248  16.961 -0.0711  0.5270  0.0046
  548MPD2     C 8180   1.010   1.257  12.656  0.1940  0.2838 -0.6354
  548MPD2    C1 8181   0.954   1.137  12.646 -0.0988  0.1469 -0.0191
  548MPD2    C2 8182   1.043   1.032  12.622 -0.1903 -0.0579 -0.3974
  548MPD2    C3 8183   1.174   1.053  12.580 -0.1269 -0.0262 -0.1155
  548MPD2    C4 8184   1.222   1.175  12.579 -0.0305 -0.6209  0.1977
  548MPD2    C5 8185   1.136   1.281  12.620 -0.7565 -0.3012 -0.8698
  548MPD2     H 8186   1.001   0.932  12.629 -1.6362  0.4754 -1.6728
  548MPD2    H1 8187   1.320   1.200  12.540 -0.3844  0.3456 -0.0927
  548MPD2    H2 8188   0.951   1.346  12.679  0.1345 -0.1085  0.7374
  548MPD2    H3 8189   1.178   1.379  12.639 -0.9494 -0.1414 -1.2595
  548MPD2     N 8190   1.253   0.943  12.542 -0.4799  0.1929  0.0479
  548MPD2    H5 8191   1.214   0.852  12.563  1.7674 -0.8056 -0.1375
  548MPD2    N1 8192   0.824   1.130  12.699  0.1152 -0.4834 -0.0677
  548MPD2    H7 8193   0.782   1.214  12.739 -1.3052 -0.4853 -1.5366
  549TMC3    C1 8194   0.653   1.024  12.820  0.3176 -0.0861  0.3265
  549TMC3    C2 8195   0.563   1.127  12.788 -0.2757  0.4307  0.3023
  549TMC3    C3 8196   0.432   1.108  12.822  0.0753 -0.5432 -0.2354
  549TMC3    C4 8197   0.616   0.916  12.897 -0.8222 -0.5755 -0.5137
  549TMC3    C5 8198   0.482   0.891  12.922  0.2595  0.4147 -0.2378
  549TMC3    C6 8199   0.392   0.991  12.875 -0.0726  0.0185 -0.4744
  549TMC3     C 8200   0.775   1.010  12.744  0.4071 -0.3237 -0.4407
  549TMC3     O 8201   0.792   0.901  12.688  0.1950 -0.1113 -0.2940
  549TMC3     H 8202   0.593   1.204  12.717 -0.8278 -0.5368 -0.9717
  549TMC3    H1 8203   0.688   0.839  12.924  0.4344  1.0616  0.7162
  549TMC3    H2 8204   0.288   0.971  12.897 -0.1597 -0.4597 -1.3556
  549TMC3    C7 8205   0.441   0.798  13.026 -0.2687  0.5856  0.6355
  549TMC3    C8 8206   0.332   1.204  12.794  0.4568 -0.6263 -0.0489
  549TMC3    O1 8207   0.331   0.819  13.077 -0.1213  0.3848 -0.4264
  549TMC3    O2 8208   0.218   1.157  12.776  0.3095 -1.0532  0.1481
  550TMC3    C1 8209   4.719   3.520  12.612  0.2502 -0.3257 -1.0407
  550TMC3    C2 8210   4.723   3.547  12.744 -0.4510 -0.4997 -0.3273
  550TMC3    C3 8211   0.058   3.648  12.789  0.2638 -0.5259  0.6004
  550TMC3    C4 8212   0.054   3.599  12.523  0.1021 -0.5530  0.3392
  550TMC3    C5 8213   0.106   3.714  12.572 -0.4920 -0.0155 -0.0840
  550TMC3    C6 8214   0.113   3.744  12.708  0.4113 -0.4450  0.5494
  550TMC3     C 8215   4.588   3.475  12.570 -0.0032  0.8822 -0.4970
  550TMC3     O 8216   4.527   3.406  12.647  0.6315 -0.4483  0.0218
  550TMC3     H 8217   4.664   3.500  12.822  1.3729  0.1431  1.4393
  550TMC3    H1 8218   0.056   3.583  12.416 -1.6844  0.3361  0.1702
  550TMC3    H2 8219   0.125   3.846  12.742 -1.4749  0.9638 -3.1107
  550TMC3    C7 8220   0.038   3.820  12.497 -0.6396  0.2512 -0.1443
  550TMC3    C8 8221   0.006   3.695  12.918 -0.0803  0.0292 -0.1095
  550TMC3    O1 8222   4.698   3.786  12.410  0.2530 -0.0147  0.0343
  550TMC3    O2 8223   0.028   3.639  13.024 -0.7800 -0.7504  0.0186
  551TMC3    C1 8224   2.326   1.549  13.329  0.3478 -0.1902 -0.6729
  551TMC3    C2 8225   2.446   1.551  13.268  0.5181  0.0844  0.0552
  551TMC3    C3 8226   2.555   1.562  13.348  0.2885  0.4295  0.2841
  551TMC3    C4 8227   2.298   1.580  13.458  0.4079  0.3492  0.1510
  551TMC3    C5 8228   2.411   1.576  13.536 -0.0417 -0.0232 -0.5050
  551TMC3    C6 8229   2.540   1.574  13.482  0.3142 -0.1791  0.2409
  551TMC3     C 8230   2.222   1.564  13.225 -0.0922 -0.1091 -0.6953
  551TMC3     O 8231   2.127   1.487  13.237  0.0750  0.1279  0.0185
  551TMC3     H 8232   2.465   1.544  13.162 -4.0592 -1.8944 -0.6435
  551TMC3    H1 8233   2.198   1.577  13.498 -0.3416  4.8087 -1.3991
  551TMC3    H2 8234   2.623   1.555  13.550  2.5363  0.1268 -2.3920
  551TMC3    C7 8235   2.407   1.581  13.682  0.6708  0.7166  0.3095
  551TMC3    C8 8236   2.678   1.603  13.285 -0.3747 -0.2023  0.4411
  551TMC3    O1 8237   2.511   1.576  13.746 -0.1534 -0.3974 -0.2782
  551TMC3    O2 8238   2.694   1.554  13.174  0.0959 -0.2182 -0.3147
  552MPD2     C 8239   4.306   3.228  14.797  0.3575 -0.6284  0.8035
  552MPD2    C1 8240   4.407   3.194  14.707  0.3495 -0.2678 -0.1462
  552MPD2    C2 8241   4.528   3.135  14.745 -0.1370 -0.2203  0.1010
  552MPD2    C3 8242   4.559   3.123  14.874 -1.1085  0.0944  0.0156
  552MPD2    C4 8243   4.463   3.146  14.969 -0.0563 -0.5613 -0.0222
  552MPD2    C5 8244   4.342   3.197  14.926 -0.1556 -0.2760  0.1732
  552MPD2     H 8245   4.603   3.110  14.671 -0.2564 -0.6282  0.1184
  552MPD2    H1 8246   4.478   3.132  15.076  0.3415 -0.8932 -0.1209
  552MPD2    H2 8247   4.211   3.278  14.778  0.0797 -1.5057 -0.0864
  552MPD2    H3 8248   4.275   3.227  15.005  0.6766  1.4566  0.2135
  552MPD2     N 8249   4.689   3.095  14.918 -0.0983  0.2746  0.2521
  552MPD2    H5 8250   4.712   3.084  15.016  2.2080  0.1482 -0.3113
  552MPD2    N1 8251   4.400   3.215  14.563  0.7788  0.4313  0.7425
  552MPD2    H7 8252   4.483   3.189  14.510  0.8041  1.9976  0.0138
  553TMC3    C1 8253   4.298   3.245  14.360  0.2868  0.5734 -0.4897
  553TMC3    C2 8254   4.246   3.335  14.274  0.4399 -0.1924 -0.0038
  553TMC3    C3 8255   4.209   3.300  14.145 -0.5267  0.0027 -0.1299
  553TMC3    C4 8256   4.336   3.118  14.318  0.2295 -0.0502 -0.3295
  553TMC3    C5 8257   4.296   3.081  14.191  0.0404 -0.0254  0.0716
  553TMC3    C6 8258   4.241   3.169  14.100 -0.2800 -0.2667  0.2768
  553TMC3     C 8259   4.305   3.281  14.497  0.2442 -0.0739  1.0924
  553TMC3     O 8260   4.210   3.345  14.538  0.1985  0.4139  0.4196
  553TMC3     H 8261   4.242   3.439  14.304  1.1943  0.0143 -0.6338
  553TMC3    H1 8262   4.366   3.034  14.381 -1.6958 -2.0874 -2.1353
  553TMC3    H2 8263   4.219   3.139  13.998 -0.2040 -1.2700  0.5542
  553TMC3    C7 8264   4.376   2.975  14.122 -0.1021 -0.5640  0.0089
  553TMC3    C8 8265   4.259   3.392  14.046 -0.2269  0.1763  0.5136
  553TMC3    O1 8266   4.338   2.929  14.016 -0.5902  0.5136 -0.2771
  553TMC3    O2 8267   4.380   3.413  14.058 -0.4267 -0.3317  0.3146
  554TMC3    C1 8268   1.513   3.140  11.500 -0.1448  0.3967  0.7951
  554TMC3    C2 8269   1.395   3.064  11.484 -1.0795  0.0060 -0.4833
  554TMC3    C3 8270   1.292   3.133  11.423 -0.4831  0.1449  0.0252
  554TMC3    C4 8271   1.518   3.270  11.454  0.2074 -0.2586  0.1074
  554TMC3    C5 8272   1.405   3.337  11.417  0.1439  0.1306  0.4844
  554TMC3    C6 8273   1.293   3.267  11.394  0.2285  0.0973 -0.1761
  554TMC3     C 8274   1.627   3.080  11.556 -0.3387 -0.1936  0.2901
  554TMC3     O 8275   1.740   3.125  11.529  0.0193  0.0058  0.3754
  554TMC3     H 8276   1.384   2.958  11.503  1.0172  0.0416  0.9289
  554TMC3    H1 8277   1.611   3.320  11.479  0.0415 -0.2229  0.6532
  554TMC3    H2 8278   1.206   3.319  11.356 -0.8447 -1.4283  0.2333
  554TMC3    C7 8279   1.428   3.436  11.314 -0.7230 -0.0963 -0.4596
  554TMC3    C8 8280   1.182   3.050  11.384  0.2095  0.5270  0.7030
  554TMC3    O1 8281   1.514   3.405  11.231  0.3557 -0.3409 -0.0701
  554TMC3    O2 8282   1.156   2.956  11.458 -0.0754  0.4145  0.1085
  555TMC3    C1 8283   0.562   2.237  15.341 -0.4338 -0.2468 -0.3223
  555TMC3    C2 8284   0.555   2.296  15.464  0.7687  0.5628  0.9214
  555TMC3    C3 8285   0.575   2.222  15.576 -0.1665  0.3266 -0.3244
  555TMC3    C4 8286   0.564   2.103  15.326 -0.6579  0.5291 -0.0521
  555TMC3    C5 8287   0.573   2.028  15.442 -0.1055  0.3229 -0.0775
  555TMC3    C6 8288   0.586   2.086  15.563 -0.4652 -0.1918  0.0975
  555TMC3     C 8289   0.507   2.311  15.221  0.4289 -0.5157  0.1650
  555TMC3     O 8290   0.420   2.253  15.154 -0.1780  0.2586 -0.5961
  555TMC3     H 8291   0.545   2.404  15.475 -2.4612  0.1492  1.9273
  555TMC3    H1 8292   0.557   2.062  15.226  2.2073  1.1674 -0.4968
  555TMC3    H2 8293   0.582   2.022  15.650  1.1629  0.7923  0.8811
  555TMC3    C7 8294   0.608   1.883  15.453  0.3943 -0.0481  0.0594
  555TMC3    C8 8295   0.501   2.261  15.690  0.1021 -0.7627  0.7056
  555TMC3    O1 8296   0.583   1.813  15.548 -0.4747 -0.2749  0.0176
  555TMC3    O2 8297   0.431   2.176  15.745 -0.0467  0.1024  0.5304
  556MPD2     C 8298   3.216   4.166  10.651 -0.4775 -0.0445  0.0835
  556MPD2    C1 8299   3.141   4.085  10.734 -1.0997  0.2105  0.0070
  556MPD2    C2 8300   3.110   3.961  10.694 -0.0860 -0.0768 -0.5895
  556MPD2    C3 8301   3.160   3.903  10.575 -0.3433  1.0174  0.6987
  556MPD2    C4 8302   3.243   3.981  10.503  0.5249  0.1554 -0.2109
  556MPD2    C5 8303   3.274   4.107  10.544  0.5160  0.8290  0.1684
  556MPD2     H 8304   3.066   3.897  10.769  2.1341 -1.6873 -0.6572
  556MPD2    H1 8305   3.299   3.952  10.414 -0.0002 -1.0382 -0.1587
  556MPD2    H2 8306   3.232   4.271  10.670 -1.2430 -0.4467  2.9682
  556MPD2    H3 8307   3.343   4.164  10.483 -0.9602  3.2078  0.6994
  556MPD2     N 8308   3.132   3.771  10.555 -0.3228 -0.1866  0.7050
  556MPD2    H5 8309   3.088   3.730  10.638 -0.7587 -0.5486  0.2959
  556MPD2    N1 8310   3.086   4.122  10.861  0.6171  0.0893 -0.1714
  556MPD2    H7 8311   3.032   4.055  10.915 -1.1121  0.8779 -0.8958
  557TMC3    C1 8312   3.106   3.565  10.467  0.6449 -0.0556  0.0901
  557TMC3    C2 8313   3.049   3.501  10.358  0.4821 -0.5296 -0.6959
  557TMC3    C3 8314   2.987   3.381  10.380  0.2432  0.0853  0.2700
  557TMC3    C4 8315   3.127   3.512  10.593 -0.3359 -0.0129 -0.5989
  557TMC3    C5 8316   3.070   3.389  10.608 -0.8496  0.2636 -0.2655
  557TMC3    C6 8317   3.000   3.328  10.506  0.3225  0.4051 -0.0361
  557TMC3     C 8318   3.166   3.692  10.447 -0.0310 -0.2085  0.5178
  557TMC3     O 8319   3.199   3.729  10.335  0.4380  0.0844 -0.2181
  557TMC3     H 8320   3.045   3.539  10.256 -1.9364  0.1420 -0.3474
  557TMC3    H1 8321   3.175   3.570  10.670  0.1696 -0.2177 -0.7609
  557TMC3    H2 8322   2.951   3.234  10.531  0.3181 -0.0106 -1.5697
  557TMC3    C7 8323   3.006   3.383  10.737 -0.1219  0.4423 -0.3278
  557TMC3    C8 8324   2.876   3.341  10.302 -0.0657 -0.1412 -0.0730
  557TMC3    O1 8325   2.887   3.362  10.733  0.2801 -0.2117  0.4610
  557TMC3    O2 8326   2.819   3.431  10.240 -0.4979 -0.1782 -0.0075
  558TMC3    C1 8327   0.550   1.368  10.825 -0.6319  0.1248 -0.6191
  558TMC3    C2 8328   0.415   1.388  10.838 -0.9623  0.2997 -0.4874
  558TMC3    C3 8329   0.355   1.421  10.719 -0.0078  0.3666 -0.1649
  558TMC3    C4 8330   0.613   1.391  10.703  0.0099 -0.0307 -0.0099
  558TMC3    C5 8331   0.541   1.436  10.591  0.2203 -0.1736  0.0842
  558TMC3    C6 8332   0.407   1.446  10.597 -0.5974  0.7856  0.8536
  558TMC3     C 8333   0.631   1.384  10.942  0.7988  0.4626  0.0753
  558TMC3     O 8334   0.748   1.420  10.930  0.2745 -0.3118 -0.6677
  558TMC3     H 8335   0.351   1.363  10.921  1.8611 -1.9917  1.0281
  558TMC3    H1 8336   0.721   1.384  10.696 -0.0108  0.2898 -0.6898
  558TMC3    H2 8337   0.341   1.486  10.521  0.1876  2.7735  1.2022
  558TMC3    C7 8338   0.618   1.446  10.470  1.1819  0.2278 -0.0875
  558TMC3    C8 8339   0.230   1.490  10.739 -0.6055 -0.7204 -0.2749
  558TMC3    O1 8340   0.740   1.443  10.477  0.0389 -0.4045 -0.0037
  558TMC3    O2 8341   0.137   1.457  10.675  0.8410 -0.1622  1.1322
  559MPD2     C 8342   0.932   2.673  10.615 -0.1604 -0.4415  0.0814
  559MPD2    C1 8343   0.844   2.577  10.663 -0.3115 -0.5003 -0.4665
  559MPD2    C2 8344   0.844   2.559  10.799 -0.1060  0.2322 -0.1996
  559MPD2    C3 8345   0.944   2.620  10.878  0.8906 -1.0064  0.2118
  559MPD2    C4 8346   1.035   2.701  10.816  0.1767  0.0919  0.0890
  559MPD2    C5 8347   1.020   2.744  10.688  0.3589 -0.3036 -0.1424
  559MPD2     H 8348   0.782   2.490  10.855 -0.8851  1.6214  0.6431
  559MPD2    H1 8349   1.119   2.750  10.864 -0.5360  1.7684 -0.3680
  559MPD2    H2 8350   0.923   2.684  10.507  2.0491  1.0725  0.0361
  559MPD2    H3 8351   1.091   2.813  10.644  2.1063 -2.1624 -0.2476
  559MPD2     N 8352   0.952   2.597  11.012 -0.5178 -0.0068  0.3876
  559MPD2    H5 8353   0.864   2.566  11.051  0.3762 -0.2433  2.2113
  559MPD2    N1 8354   0.760   2.509  10.567 -0.1587 -0.6590 -0.1931
  559MPD2    H7 8355   0.766   2.534  10.469 -1.0827 -0.8989 -0.3087
  560TMC3    C1 8356   1.032   2.610  11.232 -0.5251  0.0024 -0.4635
  560TMC3    C2 8357   0.940   2.518  11.279 -0.7821 -0.8708  0.7553
  560TMC3    C3 8358   0.959   2.466  11.408 -0.1588  0.5688  0.5504
  560TMC3    C4 8359   1.126   2.670  11.312 -0.7691 -0.2387  0.0788
  560TMC3    C5 8360   1.145   2.611  11.438  0.9372 -0.0804  0.1634
  560TMC3    C6 8361   1.060   2.508  11.487 -0.2743  0.7046  0.0581
  560TMC3     C 8362   1.053   2.635  11.092 -0.1141  0.1797 -0.9963
  560TMC3     O 8363   1.161   2.684  11.068  0.1693 -0.2126  0.4769
  560TMC3     H 8364   0.875   2.463  11.212 -1.1621  0.9572 -0.3795
  560TMC3    H1 8365   1.192   2.750  11.283  0.6051 -1.3153  0.2168
  560TMC3    H2 8366   1.080   2.480  11.589  0.5208  1.1537  0.0309
  560TMC3    C7 8367   1.280   2.588  11.475  0.0350 -0.2626  0.9055
  560TMC3    C8 8368   0.875   2.352  11.442 -0.4250  0.3639 -0.4735
  560TMC3    O1 8369   1.305   2.524  11.570  0.3579 -0.2939  0.4450
  560TMC3    O2 8370   0.775   2.342  11.378 -0.5097 -0.7953 -0.4241
  561TMC3    C1 8371   3.408   1.517  11.221  0.4746  0.2555 -0.5793
  561TMC3    C2 8372   3.324   1.452  11.301  0.1009 -0.4188  0.7383
  561TMC3    C3 8373   3.301   1.505  11.431  0.0859 -0.3095  0.3478
  561TMC3    C4 8374   3.484   1.627  11.269 -0.7146  0.0171  0.0896
  561TMC3    C5 8375   3.472   1.664  11.397 -0.2322  0.3999  0.4826
  561TMC3    C6 8376   3.376   1.603  11.476 -0.2826 -0.7171  0.1112
  561TMC3     C 8377   3.407   1.483  11.083 -0.2620  0.3794  0.1899
  561TMC3     O 8378   3.303   1.437  11.036  0.5205  0.7380 -0.1450
  561TMC3     H 8379   3.253   1.386  11.252 -0.7249  1.6023 -0.8100
  561TMC3    H1 8380   3.565   1.661  11.205 -0.6185 -0.6869 -0.1697
  561TMC3    H2 8381   3.368   1.644  11.576  1.2974 -1.1603  0.4142
  561TMC3    C7 8382   3.584   1.734  11.458 -0.8794 -0.1027  0.7544
  561TMC3    C8 8383   3.230   1.425  11.525  0.3348 -0.5693 -0.2090
  561TMC3    O1 8384   3.592   1.718  11.580  0.3135 -0.6245  0.8576
  561TMC3    O2 8385   3.239   1.306  11.494  0.5137  0.2452 -0.0571
  562TMC3    C1 8386   0.734   2.638  16.834  0.3871 -0.1008 -0.4515
  562TMC3    C2 8387   0.623   2.719  16.858  0.5242  0.0198 -0.7098
  562TMC3    C3 8388   0.536   2.744  16.750  0.6927 -0.1924  0.4068
  562TMC3    C4 8389   0.751   2.571  16.713  0.2175  0.0887 -0.5418
  562TMC3    C5 8390   0.666   2.596  16.612  0.0458 -0.3236  0.3782
  562TMC3    C6 8391   0.561   2.683  16.626  0.1376  0.2244  0.1137
  562TMC3     C 8392   0.822   2.619  16.945  0.1284  1.0070 -0.0585
  562TMC3     O 8393   0.776   2.660  17.047  0.4900 -0.2645  0.0075
  562TMC3     H 8394   0.601   2.761  16.956 -3.4551 -1.2261 -1.0381
  562TMC3    H1 8395   0.829   2.496  16.707  1.1287  0.9456  0.6946
  562TMC3    H2 8396   0.510   2.709  16.535 -0.3094 -2.1758 -0.3067
  562TMC3    C7 8397   0.663   2.525  16.483 -0.2624  1.1507  0.0020
  562TMC3    C8 8398   0.447   2.852  16.759 -0.0066 -0.2121 -0.4875
  562TMC3    O1 8399   0.558   2.471  16.454 -0.2978 -0.4489 -0.4932
  562TMC3    O2 8400   0.443   2.923  16.858 -0.0203 -0.0045  0.4162
  563MPD2     C 8401   2.327   3.648  15.569  0.1294  1.6096  0.1321
  563MPD2    C1 8402   2.385   3.761  15.629 -1.1317 -0.4177  0.3545
  563MPD2    C2 8403   2.525   3.760  15.649 -0.4295 -0.0028  0.2448
  563MPD2    C3 8404   2.594   3.640  15.627  0.2053 -0.1920 -0.1273
  563MPD2    C4 8405   2.528   3.528  15.574  0.0682 -0.5250 -0.3634
  563MPD2    C5 8406   2.401   3.541  15.536  0.4373  0.2162  0.1951
  563MPD2     H 8407   2.574   3.842  15.701  1.7181 -2.8738  2.7706
  563MPD2    H1 8408   2.581   3.436  15.552 -1.4917 -1.1138 -1.6341
  563MPD2    H2 8409   2.219   3.642  15.565  0.1336  1.1549  0.7482
  563MPD2    H3 8410   2.349   3.452  15.503  1.8998 -1.0945  1.4376
  563MPD2     N 8411   2.721   3.633  15.679  0.0802  0.3358 -0.1022
  563MPD2    H5 8412   2.750   3.718  15.726 -2.0914  0.5442  0.8787
  563MPD2    N1 8413   2.297   3.854  15.691  0.4729  0.1368 -0.1331
  563MPD2    H7 8414   2.197   3.840  15.681  0.5410  1.3179 -2.6147
  564TMC3    C1 8415   2.277   3.940  15.913 -0.4667 -0.1188 -1.2444
  564TMC3    C2 8416   2.159   3.881  15.911  0.4962  0.0134 -0.2680
  564TMC3    C3 8417   2.124   3.800  16.016 -0.6986  0.1577 -0.3162
  564TMC3    C4 8418   2.367   3.913  16.012  0.8343  0.6396 -0.9770
  564TMC3    C5 8419   2.338   3.839  16.116 -0.2839 -0.1414 -0.1537
  564TMC3    C6 8420   2.215   3.784  16.120  0.8000  0.0666  0.2775
  564TMC3     C 8421   2.338   3.949  15.782  0.4845  0.6078 -0.9677
  564TMC3     O 8422   2.443   4.011  15.775 -0.5917  0.5066 -0.1140
  564TMC3     H 8423   2.090   3.906  15.831  0.4748  0.7949 -0.0120
  564TMC3    H1 8424   2.466   3.958  16.010  0.8670  0.5481 -1.3955
  564TMC3    H2 8425   2.201   3.715  16.203  0.1821 -1.6921 -1.2843
  564TMC3    C7 8426   2.435   3.743  16.156  0.3431  0.3667 -0.0211
  564TMC3    C8 8427   2.049   3.677  15.991 -0.5826  0.7178  0.6615
  564TMC3    O1 8428   2.455   3.726  16.275  0.3659 -0.3189 -0.2540
  564TMC3    O2 8429   2.029   3.611  16.091  0.3232 -0.0673 -0.0813
  565TMC3    C1 8430   2.130   0.590  10.190 -0.9189  0.3881  0.3645
  565TMC3    C2 8431   2.177   0.469  10.239  0.2863 -0.0065 -0.7973
  565TMC3    C3 8432   2.108   0.355  10.219 -0.2319  0.3209 -0.1288
  565TMC3    C4 8433   2.020   0.589  10.112 -0.1477 -0.9716 -0.3626
  565TMC3    C5 8434   1.964   0.465  10.076  0.2869  0.1377 -0.5915
  565TMC3    C6 8435   2.005   0.344  10.124 -0.9204  0.7767 -0.2501
  565TMC3     C 8436   2.178   0.721  10.215  0.3583 -0.3995 -0.0752
  565TMC3     O 8437   2.172   0.806  10.124  0.1744 -0.0061 -0.3603
  565TMC3     H 8438   2.261   0.466  10.307  0.4814  1.0102 -0.9986
  565TMC3    H1 8439   1.969   0.677  10.073 -1.2856 -1.1664  0.7000
  565TMC3    H2 8440   1.933   0.264  10.133 -0.5434  0.7002  2.2027
  565TMC3    C7 8441   1.853   0.470   9.985  0.4178 -0.3439 -0.6655
  565TMC3    C8 8442   2.192   0.241  10.245 -0.0424  0.0729 -0.2767
  565TMC3    O1 8443   1.812   0.577   9.946 -0.0429  0.4926 -0.2644
  565TMC3    O2 8444   2.269   0.253  10.346 -0.1301 -0.0730 -0.3204
  566MPD2     C 8445   4.573   2.057  14.357 -1.0619  0.5664  0.0872
  566MPD2    C1 8446   4.570   2.156  14.257  0.0978  0.6027 -0.6189
  566MPD2    C2 8447   4.460   2.162  14.172  0.4016  0.3787  0.8040
  566MPD2    C3 8448   4.360   2.071  14.181  0.1959  0.0435  0.2237
  566MPD2    C4 8449   4.371   1.966  14.270 -0.2304  0.0002  0.3174
  566MPD2    C5 8450   4.474   1.966  14.358  0.2158  1.0530  0.1286
  566MPD2     H 8451   4.459   2.226  14.085 -1.0145 -1.5825 -0.6308
  566MPD2    H1 8452   4.293   1.891  14.275  0.4131 -0.6407  0.8098
  566MPD2    H2 8453   4.655   2.066  14.427 -1.8689 -2.5654  1.4286
  566MPD2    H3 8454   4.471   1.887  14.432 -2.1361 -0.8140 -1.9612
  566MPD2     N 8455   4.244   2.069  14.096  0.0448  0.9434 -0.1624
  566MPD2    H5 8456   4.190   1.983  14.101  0.5467  0.5383 -1.7142
  566MPD2    N1 8457   4.673   2.258  14.256  0.1079  0.3061 -0.1052
  566MPD2    H7 8458   0.015   2.245  14.319 -1.6349 -3.4570  1.3146
  567TMC3    C1 8459   0.050   2.433  14.168  0.1424  0.6053  0.3411
  567TMC3    C2 8460   0.091   2.453  14.040  0.2078  0.3329 -0.4398
  567TMC3    C3 8461   0.223   2.483  14.014 -0.0074 -0.2630 -0.9868
  567TMC3    C4 8462   0.133   2.445  14.277 -0.4976  0.2474  0.3425
  567TMC3    C5 8463   0.261   2.477  14.243 -0.6445  0.3904 -0.7538
  567TMC3    C6 8464   0.315   2.495  14.119  1.0991  0.5595 -1.2285
  567TMC3     C 8465   4.660   2.382  14.193  0.0452 -0.3262 -0.0919
  567TMC3     O 8466   4.568   2.426  14.123  0.0112  0.1225 -0.3027
  567TMC3     H 8467   0.016   2.439  13.963 -0.9170 -2.7139  1.1922
  567TMC3    H1 8468   0.095   2.425  14.376 -0.3436  2.5111  0.8512
  567TMC3    H2 8469   0.422   2.506  14.101  0.9887 -0.2261 -2.3686
  567TMC3    C7 8470   0.349   2.486  14.363  0.1852 -0.5791 -0.1508
  567TMC3    C8 8471   0.270   2.504  13.877 -0.1028 -0.3387 -0.1723
  567TMC3    O1 8472   0.464   2.511  14.343 -0.4780 -0.1518 -0.0850
  567TMC3    O2 8473   0.207   2.446  13.788  0.1414 -0.2433 -0.6999
  568MPD2     C 8474   2.474   2.269  16.571 -0.0291  0.0094  0.1898
  568MPD2    C1 8475   2.513   2.372  16.651 -0.3112 -0.8265  0.1996
  568MPD2    C2 8476   2.506   2.502  16.606 -0.0629 -0.3464 -0.0478
  568MPD2    C3 8477   2.458   2.526  16.480  0.3224  0.2312  0.2070
  568MPD2    C4 8478   2.421   2.418  16.400 -0.3857  0.5967 -0.5724
  568MPD2    C5 8479   2.419   2.293  16.453  0.1103  0.6202 -0.3734
  568MPD2     H 8480   2.530   2.592  16.663  0.6991 -1.3412  1.1882
  568MPD2    H1 8481   2.385   2.424  16.298  0.2080  0.2421 -0.7966
  568MPD2    H2 8482   2.462   2.174  16.621  0.4391 -0.1279  0.0465
  568MPD2    H3 8483   2.366   2.214  16.401 -0.2970  0.5518  0.1473
  568MPD2     N 8484   2.431   2.658  16.439  0.4741  0.1501 -0.6599
  568MPD2    H5 8485   2.421   2.727  16.513  1.3328  0.0432 -0.4391
  568MPD2    N1 8486   2.553   2.346  16.785  0.1005 -0.3653  0.4375
  568MPD2    H7 8487   2.507   2.272  16.838 -1.0835  0.3339  0.3909
  569TMC3    C1 8488   2.358   2.841  16.301  0.8894  0.3960 -0.1841
  569TMC3    C2 8489   2.258   2.874  16.390 -0.1236 -0.2451  0.2973
  569TMC3    C3 8490   2.216   3.002  16.370  0.1051 -0.5531 -0.6522
  569TMC3    C4 8491   2.387   2.907  16.182  0.7778 -0.3847  0.8196
  569TMC3    C5 8492   2.324   3.029  16.164  0.1461 -0.8344 -0.2235
  569TMC3    C6 8493   2.250   3.076  16.263  0.1395  0.1482 -0.0710
  569TMC3     C 8494   2.404   2.700  16.310  0.3268  0.3585 -0.5383
  569TMC3     O 8495   2.432   2.639  16.206 -0.2014  0.7435 -0.3669
  569TMC3     H 8496   2.230   2.821  16.480 -0.9807 -1.8109 -0.8786
  569TMC3    H1 8497   2.457   2.870  16.108  1.6480  0.3692  1.2639
  569TMC3    H2 8498   2.191   3.165  16.244 -1.6876 -0.9179  0.5975
  569TMC3    C7 8499   2.305   3.088  16.030 -1.0708  0.1662  0.0849
  569TMC3    C8 8500   2.182   3.082  16.486 -0.3789  0.2424 -0.0980
  569TMC3    O1 8501   2.322   3.014  15.933  0.3105 -0.8602 -0.0265
  569TMC3    O2 8502   2.100   3.042  16.565  1.1243 -0.1579  0.7724
  570TMC3    C1 8503   1.424   1.027  16.046  0.1424 -0.0820 -0.0462
  570TMC3    C2 8504   1.475   1.022  15.920 -0.8528 -0.2231  0.3223
  570TMC3    C3 8505   1.510   1.132  15.852 -0.1113  0.2829  1.0521
  570TMC3    C4 8506   1.383   1.147  16.097  0.4543  0.0929 -0.0428
  570TMC3    C5 8507   1.420   1.261  16.025  0.1422 -0.4918  0.0979
  570TMC3    C6 8508   1.488   1.264  15.901  0.7967  0.7446  0.7913
  570TMC3     C 8509   1.388   0.900  16.102  0.7077 -0.7142  0.4416
  570TMC3     O 8510   1.408   0.804  16.027 -0.2337 -0.5240 -0.5989
  570TMC3     H 8511   1.490   0.926  15.872  0.2447 -0.3106  0.8382
  570TMC3    H1 8512   1.329   1.150  16.191  1.0733 -0.3219  0.3232
  570TMC3    H2 8513   1.505   1.350  15.837 -0.6669  1.4922  1.3930
  570TMC3    C7 8514   1.415   1.388  16.095  0.3012 -0.4990 -0.9714
  570TMC3    C8 8515   1.583   1.117  15.731 -0.4979 -0.3263  0.8738
  570TMC3    O1 8516   1.384   1.375  16.216 -0.2940 -0.0701 -0.3218
  570TMC3    O2 8517   1.577   1.002  15.681 -0.6603  0.1900  0.2391
  571MPD2     C 8518   4.103   3.006   0.531  0.3800  0.4702 -0.1017
  571MPD2    C1 8519   4.170   3.040   0.414  0.0078  0.2433  0.0874
  571MPD2    C2 8520   4.183   3.176   0.383 -0.2832 -0.5539  0.2695
  571MPD2    C3 8521   4.124   3.273   0.460  0.8399  0.1414  0.3101
  571MPD2    C4 8522   4.047   3.232   0.571 -0.4229  0.3781 -0.1308
  571MPD2    C5 8523   4.043   3.096   0.608  0.3967  0.6027  0.0139
  571MPD2     H 8524   4.246   3.195   0.297  1.9736 -1.2718  1.7680
  571MPD2    H1 8525   4.010   3.303   0.644 -2.5803 -1.4623  0.5653
  571MPD2    H2 8526   4.090   2.903   0.564  0.6336 -0.1405 -1.8946
  571MPD2    H3 8527   4.009   3.076   0.709  0.6523 -0.0474 -0.0334
  571MPD2     N 8528   4.132   3.415   0.442  0.2828 -0.2052  0.5432
  571MPD2    H5 8529   4.080   3.477   0.503  0.8650  0.4280  0.4013
  571MPD2    N1 8530   4.229   2.931   0.349 -0.5569 -0.0254 -0.6397
  571MPD2    H7 8531   4.218   2.839   0.392 -1.5111 -0.6147 -2.1367
  572TMC3    C1 8532   4.197   3.623   0.373 -0.6482 -0.0769 -0.5749
  572TMC3    C2 8533   4.140   3.671   0.486 -0.4968 -0.4236  0.5827
  572TMC3    C3 8534   4.128   3.805   0.514  0.3403  0.3048  0.8124
  572TMC3    C4 8535   4.233   3.720   0.274  0.2286  0.8710  0.0528
  572TMC3    C5 8536   4.215   3.854   0.306 -0.5743  0.8309  0.7268
  572TMC3    C6 8537   4.155   3.898   0.416  0.4544  0.8562  0.2805
  572TMC3     C 8538   4.202   3.479   0.339  0.6052 -0.5413 -0.9693
  572TMC3     O 8539   4.272   3.428   0.246  0.1929  0.1862  0.3151
  572TMC3     H 8540   4.121   3.602   0.567 -1.8485 -1.2138 -0.3909
  572TMC3    H1 8541   4.283   3.689   0.183 -0.2395  0.6592 -0.1298
  572TMC3    H2 8542   4.154   4.006   0.428 -0.1096  0.7397  1.3501
  572TMC3    C7 8543   4.259   3.954   0.210  0.6155 -0.3080  0.3154
  572TMC3    C8 8544   4.090   3.869   0.641 -0.0082  0.7005  0.6294
  572TMC3    O1 8545   4.213   4.065   0.203 -0.1370  0.0492 -0.0686
  572TMC3    O2 8546   4.040   3.793   0.721 -0.1002 -0.8045  0.1747
  573MPD2     C 8547   1.455   3.870   1.373 -1.0023  0.1774 -0.3680
  573MPD2    C1 8548   1.392   3.985   1.412 -0.1031 -0.0648  0.2494
  573MPD2    C2 8549   1.312   4.045   1.317 -0.0370 -0.6514  0.2810
  573MPD2    C3 8550   1.291   3.994   1.188 -0.1739  0.8902 -0.3492
  573MPD2    C4 8551   1.349   3.876   1.158 -0.3089 -0.4036  0.2091
  573MPD2    C5 8552   1.433   3.817   1.254 -0.5612  0.1406  0.0661
  573MPD2     H 8553   1.275   4.145   1.336  3.4907  1.1591 -2.2472
  573MPD2    H1 8554   1.336   3.832   1.060  0.0209  0.1106 -0.0653
  573MPD2    H2 8555   1.530   3.826   1.437 -1.5948  0.1775  0.3229
  573MPD2    H3 8556   1.493   3.729   1.235 -1.3776 -0.2751 -0.5699
  573MPD2     N 8557   1.220   4.062   1.079  0.3265 -0.0508 -0.5955
  573MPD2    H5 8558   1.213   4.005   0.995  0.5972  0.2775 -0.8383
  573MPD2    N1 8559   1.415   4.037   1.545  0.4100 -0.2993 -0.2439
  573MPD2    H7 8560   1.473   3.979   1.604  1.5671  0.3529 -0.7323
  574TMC3    C1 8561   1.065   4.201   0.974  0.5639  0.5867 -0.7283
  574TMC3    C2 8562   0.967   4.295   0.984 -0.2338 -0.6891  0.0599
  574TMC3    C3 8563   0.890   4.322   0.873  0.0160  0.5469  0.6117
  574TMC3    C4 8564   1.097   4.153   0.855  0.6238 -0.8170 -0.7140
  574TMC3    C5 8565   1.007   4.171   0.750  0.1191  0.3215 -0.0790
  574TMC3    C6 8566   0.906   4.258   0.756  0.2540 -0.0826 -0.1641
  574TMC3     C 8567   1.133   4.164   1.098 -0.8227  0.3639  0.3350
  574TMC3     O 8568   1.104   4.221   1.204  0.3000 -0.5535  0.0445
  574TMC3     H 8569   0.943   4.330   1.084 -0.1526  0.7232 -0.4154
  574TMC3    H1 8570   1.176   4.079   0.845  0.4886 -1.0417 -0.0803
  574TMC3    H2 8571   0.839   4.277   0.672 -1.2752  0.3135  1.1376
  574TMC3    C7 8572   1.060   4.137   0.621 -0.6001 -0.5691 -0.0755
  574TMC3    C8 8573   0.763   4.394   0.878  0.0348  0.3547 -0.2707
  574TMC3    O1 8574   0.975   4.128   0.530 -0.0776  0.5705  0.4365
  574TMC3    O2 8575   0.698   4.357   0.974 -0.6638 -0.4231 -0.9251
  575TMC3    C1 8576   2.826   4.462  10.577  0.1977 -0.1432  0.4034
  575TMC3    C2 8577   2.829   4.499  10.708 -0.1350 -0.4851  0.2793
  575TMC3    C3 8578   2.719   4.563  10.767 -0.4395 -0.3366 -0.1354
  575TMC3    C4 8579   2.716   4.487  10.497 -0.3125  0.1871 -0.4198
  575TMC3    C5 8580   2.602   4.532  10.560 -0.0260 -0.2932 -0.2833
  575TMC3    C6 8581   2.604   4.566  10.694 -0.4773 -0.5233  0.0897
  575TMC3     C 8582   2.959   4.442  10.510  0.3369 -0.2808  0.0323
  575TMC3     O 8583   2.953   4.427  10.388 -0.0254  0.7922 -0.4676
  575TMC3     H 8584   2.909   4.468  10.774  0.4838 -0.1120 -0.3045
  575TMC3    H1 8585   2.723   4.467  10.391  0.1216  1.1833 -0.5838
  575TMC3    H2 8586   2.510   4.600  10.737 -0.9761 -1.4348 -0.2917
  575TMC3    C7 8587   2.499   4.589  10.481  0.1891  0.4215  0.2580
  575TMC3    C8 8588   2.722   4.615  10.908  0.3607  0.1536  0.2607
  575TMC3    O1 8589   2.444   4.685  10.531 -0.0014  0.5504  0.6595
  575TMC3    O2 8590   2.811   4.586  10.989  0.0325 -0.0616  0.3127
  576MPD2     C 8591   2.563   1.749  12.795  0.8714  0.4284 -0.5702
  576MPD2    C1 8592   2.599   1.858  12.722  0.5432 -0.1321  1.0348
  576MPD2    C2 8593   2.607   1.981  12.786 -0.3664 -0.0376  0.1976
  576MPD2    C3 8594   2.595   1.992  12.920 -0.3565  0.2443  0.8742
  576MPD2    C4 8595   2.562   1.877  12.994  0.2872  0.2546 -0.4794
  576MPD2    C5 8596   2.548   1.758  12.932 -0.6570  0.3130  0.2110
  576MPD2     H 8597   2.626   2.075  12.735 -4.1158 -0.0289 -1.1820
  576MPD2    H1 8598   2.546   1.880  13.101  0.5657  0.0086 -0.4318
  576MPD2    H2 8599   2.539   1.654  12.748 -0.2012  1.1694 -1.5217
  576MPD2    H3 8600   2.517   1.670  12.987  1.3835  0.3501  1.4267
  576MPD2     N 8601   2.606   2.124  12.977  0.2018  0.0586  0.0198
  576MPD2    H5 8602   2.613   2.197  12.907  1.0628  0.7108  0.7871
  576MPD2    N1 8603   2.617   1.855  12.579  0.2956 -0.5931 -0.2424
  576MPD2    H7 8604   2.633   1.943  12.532  1.2095 -0.4170  0.3995
  577TMC3    C1 8605   2.699   1.774  12.374  0.4190 -0.2466 -0.1941
  577TMC3    C2 8606   2.758   1.667  12.311 -0.3753  0.9007  0.5633
  577TMC3    C3 8607   2.779   1.675  12.178  0.6227  0.5603 -0.5397
  577TMC3    C4 8608   2.681   1.889  12.310  0.2316 -0.8122 -0.5603
  577TMC3    C5 8609   2.710   1.893  12.173  0.2349  0.1827  0.2108
  577TMC3    C6 8610   2.763   1.787  12.102  0.6545 -0.3421  0.0429
  577TMC3     C 8611   2.649   1.745  12.504  1.0412  0.0436 -0.0636
  577TMC3     O 8612   2.647   1.629  12.541  0.2742  0.4632  0.5606
  577TMC3     H 8613   2.761   1.567  12.352  0.3409  0.8179  0.3095
  577TMC3    H1 8614   2.659   1.977  12.369  1.3720  0.0503 -1.4278
  577TMC3    H2 8615   2.778   1.798  11.996 -0.0363 -0.7745 -0.1014
  577TMC3    C7 8616   2.746   2.027  12.127  0.4019  0.6501  0.0822
  577TMC3    C8 8617   2.817   1.547  12.112 -0.7301 -0.3392  0.3403
  577TMC3    O1 8618   2.778   2.110  12.207 -0.3394  0.0780 -0.8647
  577TMC3    O2 8619   2.779   1.439  12.163  0.2001  0.0177 -0.6305
  578MPD2     C 8620   1.160   1.635   1.283  0.1383 -0.0263 -0.1227
  578MPD2    C1 8621   1.243   1.577   1.188 -0.9725 -0.3259  0.3126
  578MPD2    C2 8622   1.332   1.476   1.238 -1.0173  0.7080 -0.2129
  578MPD2    C3 8623   1.337   1.432   1.374 -0.0181  0.4771  0.2229
  578MPD2    C4 8624   1.240   1.492   1.456  0.4786 -0.0283  0.2167
  578MPD2    C5 8625   1.164   1.596   1.414  0.9373 -0.2224 -0.2531
  578MPD2     H 8626   1.389   1.418   1.166 -0.5081 -0.4588  1.1314
  578MPD2    H1 8627   1.240   1.471   1.562  2.1437  0.2714  0.2755
  578MPD2    H2 8628   1.092   1.717   1.261 -0.0796 -0.7300 -2.0820
  578MPD2    H3 8629   1.108   1.647   1.492  1.3494 -0.8121  0.4340
  578MPD2     N 8630   1.432   1.337   1.423 -0.5146 -0.9572 -0.4468
  578MPD2    H5 8631   1.498   1.300   1.355 -0.5779  0.2202 -1.1361
  578MPD2    N1 8632   1.227   1.617   1.059  0.0190 -0.3895 -0.7353
  578MPD2    H7 8633   1.152   1.679   1.030  1.2446  1.9013  0.9718
  579TMC3    C1 8634   1.573   1.234   1.570 -0.3614 -0.3869  0.1171
  579TMC3    C2 8635   1.640   1.260   1.686  1.0386  0.0017 -0.0204
  579TMC3    C3 8636   1.753   1.186   1.701 -0.2502 -0.0912  0.5668
  579TMC3    C4 8637   1.608   1.150   1.473 -0.3908  0.2091  0.2467
  579TMC3    C5 8638   1.725   1.080   1.489  0.3017  0.4461 -0.4770
  579TMC3    C6 8639   1.801   1.097   1.603  0.6691  0.2970  0.3647
  579TMC3     C 8640   1.454   1.311   1.552  0.0466  0.2571  0.2027
  579TMC3     O 8641   1.406   1.357   1.655  0.0339 -0.2597 -0.1503
  579TMC3     H 8642   1.622   1.340   1.757 -0.6063  0.4256 -0.8954
  579TMC3    H1 8643   1.528   1.121   1.405  1.5184 -0.7204 -1.6136
  579TMC3    H2 8644   1.877   1.029   1.641  0.2554 -0.8233 -0.8123
  579TMC3    C7 8645   1.766   0.974   1.398  0.4699 -0.9129 -0.0160
  579TMC3    C8 8646   1.844   1.215   1.812 -0.0406  0.2872 -0.5539
  579TMC3    O1 8647   1.866   0.918   1.442  0.2176  0.0437  0.7812
  579TMC3    O2 8648   1.814   1.244   1.926 -0.0625 -0.3830  0.6776
  580TMC3    C1 8649   0.606   0.561  12.099  0.0586 -0.4100  0.1544
  580TMC3    C2 8650   0.561   0.529  11.967  0.2979 -0.2939  0.1787
  580TMC3    C3 8651   0.561   0.399  11.937  1.1419 -0.5322  0.1096
  580TMC3    C4 8652   0.650   0.473  12.189 -0.1361 -0.3142 -0.1132
  580TMC3    C5 8653   0.636   0.340  12.157 -0.3249  0.3108  0.6006
  580TMC3    C6 8654   0.596   0.300  12.031 -0.0748  0.6804  0.7307
  580TMC3     C 8655   0.595   0.702  12.140 -0.0492  0.8275  0.1220
  580TMC3     O 8656   0.574   0.779  12.046 -0.2606 -0.1374 -0.3222
  580TMC3     H 8657   0.513   0.599  11.899  3.9340 -1.1769 -3.3104
  580TMC3    H1 8658   0.680   0.506  12.287  0.6258  2.1638 -1.1795
  580TMC3    H2 8659   0.598   0.197  11.998  1.4339  0.4406  1.5393
  580TMC3    C7 8660   0.656   0.241  12.259 -0.7452  0.9307 -0.1373
  580TMC3    C8 8661   0.577   0.361  11.799  0.0498  0.3449  0.0948
  580TMC3    O1 8662   0.661   0.296  12.373 -0.4511 -0.2981 -0.3158
  580TMC3    O2 8663   0.549   0.245  11.775  0.2087 -0.4264 -0.6240
  581MPD2     C 8664   3.421   0.308  14.570 -0.0211  0.2524  0.2322
  581MPD2    C1 8665   3.391   0.313  14.704 -0.2334  0.3574  0.1505
  581MPD2    C2 8666   3.264   0.357  14.752  0.1343 -0.0354  0.2835
  581MPD2    C3 8667   3.159   0.376  14.657  0.8287 -0.5905 -0.4764
  581MPD2    C4 8668   3.194   0.356  14.526 -0.6205 -0.6160  0.2585
  581MPD2    C5 8669   3.320   0.333  14.485  0.8018 -0.3126 -0.5011
  581MPD2     H 8670   3.239   0.368  14.856  0.3306  0.3900  0.2870
  581MPD2    H1 8671   3.119   0.382  14.452  0.1530 -0.8819 -0.6188
  581MPD2    H2 8672   3.521   0.286  14.534  0.3786 -2.1303  2.7767
  581MPD2    H3 8673   3.344   0.335  14.380 -0.8407  3.2774 -0.8102
  581MPD2     N 8674   3.032   0.424  14.689  0.2626  0.2495 -0.3649
  581MPD2    H5 8675   3.014   0.448  14.786 -0.7915  0.7301 -0.6726
  581MPD2    N1 8676   3.495   0.278  14.790  0.0385 -0.5593  0.3707
  581MPD2    H7 8677   3.582   0.250  14.746  1.8433  2.6587  1.8962
  582TMC3    C1 8678   3.595   0.206  14.992  0.1568  0.1407 -0.4165
  582TMC3    C2 8679   3.604   0.221  15.129  0.3861 -0.2132  0.2531
  582TMC3    C3 8680   3.661   0.111  15.190  0.7530 -0.4699 -0.0466
  582TMC3    C4 8681   3.625   0.091  14.922 -0.2967 -0.1301  0.2860
  582TMC3    C5 8682   3.657   4.715  14.999  0.6671 -0.0163 -0.1365
  582TMC3    C6 8683   3.683   4.723  15.135 -0.1535  0.4314 -0.2778
  582TMC3     C 8684   3.497   0.290  14.931 -0.7361 -0.3653 -0.3006
  582TMC3     O 8685   3.418   0.345  15.007  0.3011 -0.0548 -0.4846
  582TMC3     H 8686   3.587   0.317  15.176  0.0817 -1.1394  2.0576
  582TMC3    H1 8687   3.615   0.081  14.815  3.8960  1.5048 -0.2657
  582TMC3    H2 8688   3.706   4.635  15.195  1.3982 -0.3473 -2.0159
  582TMC3    C7 8689   3.674   4.590  14.924 -0.5528 -0.2757  0.0046
  582TMC3    C8 8690   3.717   0.119  15.327 -0.4262 -0.0228 -0.8302
  582TMC3    O1 8691   3.787   4.596  14.874  0.9263 -0.3147 -0.0907
  582TMC3    O2 8692   3.807   0.040  15.341  0.5557 -0.0551  0.3531
  583MPD2     C 8693   3.521   2.015  16.791 -0.1361  0.4563 -0.0595
  583MPD2    C1 8694   3.579   2.134  16.751 -0.6078  0.1928 -0.6849
  583MPD2    C2 8695   3.598   2.238  16.840  0.9175 -0.0108  0.2881
  583MPD2    C3 8696   3.567   2.219  16.971 -0.1903 -0.1546 -0.6768
  583MPD2    C4 8697   3.506   2.101  17.015  0.2790  0.4265 -0.3990
  583MPD2    C5 8698   3.482   2.007  16.921 -0.5662 -0.2348 -0.6089
  583MPD2     H 8699   3.642   2.332  16.809  1.0878 -0.5694 -1.1681
  583MPD2    H1 8700   3.474   2.089  17.118 -0.2526  1.6846 -0.4126
  583MPD2    H2 8701   3.487   1.941  16.720 -0.2542  0.2988  0.1601
  583MPD2    H3 8702   3.417   1.925  16.946 -0.7122 -0.9062 -3.2177
  583MPD2     N 8703   3.586   2.326  17.060  0.7071 -0.3683 -0.2389
  583MPD2    H5 8704   3.597   2.419  17.021  0.9493 -1.3567 -2.5015
  583MPD2    N1 8705   3.616   2.165  16.618 -0.3139  0.4494 -0.1742
  583MPD2    H7 8706   3.655   2.259  16.611  0.7952 -0.1118 -1.5393
  584TMC3    C1 8707   3.623   2.441  17.266 -0.0620  0.1832 -0.3726
  584TMC3    C2 8708   3.730   2.512  17.208  0.4630  0.5953  0.3924
  584TMC3    C3 8709   3.810   2.585  17.296  0.4300  0.1331  0.1411
  584TMC3    C4 8710   3.596   2.451  17.400  0.2970  0.3028  0.4303
  584TMC3    C5 8711   3.669   2.530  17.486 -0.2601 -0.3092 -0.6387
  584TMC3    C6 8712   3.780   2.598  17.436  0.5176 -0.1770  0.3182
  584TMC3     C 8713   3.574   2.324  17.198 -0.5411 -0.2237 -0.2787
  584TMC3     O 8714   3.554   2.230  17.272 -0.1677 -0.1109  0.0037
  584TMC3     H 8715   3.759   2.505  17.103  1.2728  0.9403  0.5934
  584TMC3    H1 8716   3.518   2.391  17.446  0.6703 -0.5607 -0.0583
  584TMC3    H2 8717   3.841   2.653  17.507  0.1848  0.5260  0.0544
  584TMC3    C7 8718   3.630   2.547  17.623  0.2283  0.1467 -0.2251
  584TMC3    C8 8719   3.931   2.637  17.240 -0.5483 -0.7975  0.4643
  584TMC3    O1 8720   3.576   2.455  17.684 -0.0863 -0.2333 -0.2629
  584TMC3    O2 8721   3.964   2.599  17.129 -0.6317 -0.6739 -0.5245
  585MPD2     C 8722   2.832   0.986   0.483 -0.2817  0.0243 -0.5937
  585MPD2    C1 8723   2.897   1.083   0.402 -0.0614 -0.1263  0.3473
  585MPD2    C2 8724   2.917   1.045   0.273  0.4061  0.0365  0.1533
  585MPD2    C3 8725   2.871   0.931   0.219  0.0933  0.0659  0.1730
  585MPD2    C4 8726   2.806   0.839   0.294 -0.0418 -0.1380  0.0898
  585MPD2    C5 8727   2.791   0.868   0.425  0.1080  0.1922 -0.3033
  585MPD2     H 8728   2.960   1.113   0.200  0.7571 -0.4817 -0.1187
  585MPD2    H1 8729   2.782   0.747   0.241 -1.8566 -1.1229  2.6606
  585MPD2    H2 8730   2.829   0.999   0.590  0.6949  1.0554 -0.6900
  585MPD2    H3 8731   2.751   0.794   0.493 -0.8527  1.1152  0.1460
  585MPD2     N 8732   2.880   0.895   0.079 -0.8942 -0.2820  0.3154
  585MPD2    H5 8733   2.819   0.821   0.047 -1.0178 -0.5696  1.2002
  585MPD2    N1 8734   2.934   1.204   0.458 -0.0184 -1.3637  0.1441
  585MPD2    H7 8735   2.900   1.225   0.551  0.5856  0.6230 -0.0837
  586TMC3    C1 8736   2.944   0.907  17.601 -0.0768  0.0103 -0.2735
  586TMC3    C2 8737   3.045   0.912  17.512  0.2546  0.2797 -0.1475
  586TMC3    C3 8738   3.031   0.947  17.384  0.4569 -0.5231 -0.0855
  586TMC3    C4 8739   2.824   0.944  17.559  0.7172 -0.0030 -0.3187
  586TMC3    C5 8740   2.811   0.977  17.424  0.4805  0.4566 -0.0600
  586TMC3    C6 8741   2.909   0.988  17.330 -0.2240 -0.1827  0.1950
  586TMC3     C 8742   2.969   0.949  17.733 -1.1159 -0.4290 -0.4045
  586TMC3     O 8743   3.064   1.022   0.008  0.5537 -0.6490 -0.4155
  586TMC3     H 8744   3.150   0.914  17.541  0.4892  0.7586 -1.0526
  586TMC3    H1 8745   2.737   0.951  17.624  1.0798  1.4906  0.0161
  586TMC3    H2 8746   2.896   1.014  17.226 -0.7613 -1.5577 -0.0859
  586TMC3    C7 8747   2.682   0.959  17.371 -0.7179 -0.3627  0.2139
  586TMC3    C8 8748   3.131   0.906  17.295  0.1956  0.0299  0.5882
  586TMC3    O1 8749   2.607   0.875  17.411  0.0246  0.0642 -0.4401
  586TMC3    O2 8750   3.229   0.848  17.346  0.2209 -0.1442  0.1165
  587TMC3    C1 8751   0.076   4.492  16.029 -0.6922  0.5517 -0.1520
  587TMC3    C2 8752   0.112   4.608  16.099  0.1557 -0.5601  0.1555
  587TMC3    C3 8753   0.245   4.617  16.123  0.5188  0.4427  0.2986
  587TMC3    C4 8754   0.163   4.386  15.999 -0.5097  0.4136  0.4790
  587TMC3    C5 8755   0.294   4.403  16.037 -0.1874  0.0541  0.0241
  587TMC3    C6 8756   0.338   4.521  16.093  0.1729  0.4232  0.8709
  587TMC3     C 8757   4.685   4.496  15.958  0.3053  0.4376  0.0665
  587TMC3     O 8758   4.691   4.452  15.842 -0.1074 -0.0283 -0.5995
  587TMC3     H 8759   0.041   4.690  16.108  0.1982 -0.6199  0.9781
  587TMC3    H1 8760   0.134   4.296  15.946  1.6478  0.7760 -1.3168
  587TMC3    H2 8761   0.442   4.544  16.117  0.7362 -1.4578  0.2220
  587TMC3    C7 8762   0.393   4.307  16.000  0.7701  0.3605  0.2600
  587TMC3    C8 8763   0.298   0.005  16.172  0.1049 -0.1149  0.1823
  587TMC3    O1 8764   0.509   4.348  15.993  0.2741 -0.4881 -0.5357
  587TMC3    O2 8765   0.420   0.020  16.171  0.0996 -0.0210 -0.3575
  588TMC3    C1 8766   1.794   2.589  10.005 -0.3011  0.0549  0.4924
  588TMC3    C2 8767   1.758   2.468  10.044 -0.3019 -0.1117 -0.8285
  588TMC3    C3 8768   1.802   2.420  10.169 -0.3051  0.0667  0.7888
  588TMC3    C4 8769   1.869   2.673  10.083 -0.2610  0.0829  0.1268
  588TMC3    C5 8770   1.908   2.631  10.208  0.2264 -0.5106 -0.6184
  588TMC3    C6 8771   1.877   2.503  10.252 -0.0815 -0.1839  0.2631
  588TMC3     C 8772   1.764   2.629   9.866  0.1920 -0.1322  0.2428
  588TMC3     O 8773   1.681   2.574   9.799  0.3426  0.0362  0.0369
  588TMC3     H 8774   1.694   2.406   9.983 -2.4599  1.0722  0.2638
  588TMC3    H1 8775   1.882   2.779  10.063 -0.4238 -0.3676 -2.2578
  588TMC3    H2 8776   1.903   2.471  10.352 -0.1301 -1.8008 -0.2489
  588TMC3    C7 8777   1.995   2.715  10.288 -0.7597 -0.3292 -0.1126
  588TMC3    C8 8778   1.748   2.291  10.226 -0.4535 -0.0007  0.1759
  588TMC3    O1 8779   1.999   2.690  10.412 -0.3560  0.4311  0.2622
  588TMC3    O2 8780   1.660   2.224  10.172 -1.1622  0.3073 -0.2094
  589TMC3    C1 8781   2.057   4.460   1.278  0.7617  0.0754  0.4648
  589TMC3    C2 8782   2.161   4.537   1.317  0.0897 -0.5648  0.3690
  589TMC3    C3 8783   2.285   4.474   1.315 -0.2647  0.5206 -0.1291
  589TMC3    C4 8784   2.079   4.340   1.208 -0.1539  0.7125  0.0980
  589TMC3    C5 8785   2.205   4.288   1.202  0.3019 -0.7578 -0.1142
  589TMC3    C6 8786   2.307   4.353   1.262 -0.2761 -0.1085  0.3107
  589TMC3     C 8787   1.922   4.506   1.293 -0.2649  0.1093  0.3203
  589TMC3     O 8788   1.839   4.447   1.226  0.2084  0.2839 -0.3758
  589TMC3     H 8789   2.138   4.632   1.363  2.1700  0.2216 -0.2055
  589TMC3    H1 8790   1.996   4.281   1.171  0.4461  0.6082 -1.0962
  589TMC3    H2 8791   2.407   4.312   1.275 -1.3750 -2.9627 -0.3263
  589TMC3    C7 8792   2.223   4.147   1.166  0.0445  0.4208 -0.2660
  589TMC3    C8 8793   2.387   4.552   1.384 -0.7361  0.0221 -0.2591
  589TMC3    O1 8794   2.125   4.079   1.135  0.6636 -0.1826  0.1123
  589TMC3    O2 8795   2.343   4.647   1.452 -0.2768  0.1708  0.2084
  590MPD2     C 8796   1.260   3.265  16.879  0.3573  0.4814 -0.2197
  590MPD2    C1 8797   1.262   3.272  16.742  0.2461 -0.2418  0.3743
  590MPD2    C2 8798   1.384   3.271  16.681 -0.1667 -0.2997 -0.1626
  590MPD2    C3 8799   1.503   3.248  16.745  0.5196 -0.5531 -0.6671
  590MPD2    C4 8800   1.491   3.213  16.882 -1.1477  0.0001 -0.5087
  590MPD2    C5 8801   1.376   3.228  16.946 -0.0120 -0.1800 -0.4077
  590MPD2     H 8802   1.386   3.289  16.574  0.2201  0.8071  0.0300
  590MPD2    H1 8803   1.571   3.185  16.950 -2.0103  0.3861  0.6456
  590MPD2    H2 8804   1.165   3.283  16.927 -0.0680 -0.7925 -0.5808
  590MPD2    H3 8805   1.385   3.215  17.053 -1.6032 -0.6972 -0.3336
  590MPD2     N 8806   1.623   3.269  16.682  0.1339 -0.2050  0.0494
  590MPD2    H5 8807   1.612   3.305  16.587 -1.1762 -1.4631 -0.2752
  590MPD2    N1 8808   1.146   3.301  16.676 -0.4929 -0.0352  0.0915
  590MPD2    H7 8809   1.061   3.300  16.731  1.1738  3.1447  2.7136
  591TMC3    C1 8810   1.853   3.293  16.642 -0.8816  0.3442  0.0741
  591TMC3    C2 8811   1.838   3.231  16.523  0.4387  0.6585 -0.5498
  591TMC3    C3 8812   1.886   3.302  16.418  0.3188  0.1323 -0.2303
  591TMC3    C4 8813   1.911   3.414  16.662 -0.3159 -0.7897 -0.2428
  591TMC3    C5 8814   1.961   3.477  16.554  0.4956  0.1803 -0.0157
  591TMC3    C6 8815   1.956   3.421  16.430  0.1986  0.7992  0.5111
  591TMC3     C 8816   1.750   3.260  16.738 -0.4231  0.5112 -0.3377
  591TMC3     O 8817   1.780   3.243  16.855  0.5986 -0.5734 -0.3233
  591TMC3     H 8818   1.774   3.144  16.515 -1.1770  1.7698  0.0954
  591TMC3    H1 8819   1.921   3.451  16.763 -0.5362 -0.9517 -0.1613
  591TMC3    H2 8820   1.992   3.462  16.336 -1.2178 -0.6081 -0.6450
  591TMC3    C7 8821   1.982   3.620  16.571  0.0582 -0.3380  0.1604
  591TMC3    C8 8822   1.888   3.238  16.290  0.4907  0.1097  0.5419
  591TMC3    O1 8823   2.001   3.663  16.683 -0.3325 -0.1298 -0.0076
  591TMC3    O2 8824   1.896   3.118  16.283  0.3924 -0.7690  0.5723
  592MPD2     C 8825   1.469   0.291  11.400 -0.1092  0.1738 -0.7613
  592MPD2    C1 8826   1.491   0.300  11.542  0.5798  0.4433 -0.3095
  592MPD2    C2 8827   1.446   0.192  11.617  0.3230 -0.4042 -0.7380
  592MPD2    C3 8828   1.379   0.081  11.558  0.3662  0.1638  0.6645
  592MPD2    C4 8829   1.349   0.087  11.421  0.2447 -0.1139 -0.1451
  592MPD2    C5 8830   1.398   0.187  11.342  0.5369  0.3541 -0.2226
  592MPD2     H 8831   1.464   0.180  11.723  0.9519 -1.8750 -1.0062
  592MPD2    H1 8832   1.291   0.008  11.374  0.1913 -0.7953  1.0723
  592MPD2    H2 8833   1.512   0.368  11.338 -1.7888  0.9036 -1.0300
  592MPD2    H3 8834   1.387   0.184  11.234  1.7001  1.5840 -0.3732
  592MPD2     N 8835   1.331   4.725  11.651  0.0607 -0.2151 -0.2068
  592MPD2    H5 8836   1.351   4.734  11.750  0.9245 -1.7470 -0.2355
  592MPD2    N1 8837   1.577   0.399  11.592  0.2938 -0.1131  0.7062
  592MPD2    H7 8838   1.612   0.452  11.512  1.8222 -1.0623  0.7348
  593TMC3    C1 8839   1.687   0.547  11.741 -0.2377  0.9940 -0.4715
  593TMC3    C2 8840   1.680   0.611  11.863 -0.6931 -0.1423 -0.5854
  593TMC3    C3 8841   1.775   0.699  11.889 -0.1631  0.0175 -0.4750
  593TMC3    C4 8842   1.761   0.600  11.637 -0.1331  0.1338 -0.8478
  593TMC3    C5 8843   1.865   0.681  11.673  1.0089  0.5467 -0.2517
  593TMC3    C6 8844   1.883   0.714  11.805  0.5884 -0.0008  0.8811
  593TMC3     C 8845   1.603   0.427  11.720  0.0760  0.0008 -0.3293
  593TMC3     O 8846   1.560   0.366  11.816 -0.0846 -0.3643 -0.0854
  593TMC3     H 8847   1.605   0.577  11.934  0.1205  0.1040  0.3859
  593TMC3    H1 8848   1.781   0.539  11.550 -0.6282 -0.3148 -0.6409
  593TMC3    H2 8849   1.968   0.766  11.846 -1.2207  2.1820  1.7996
  593TMC3    C7 8850   1.870   0.797  11.596  0.0757  0.2276  0.1889
  593TMC3    C8 8851   1.719   0.824  11.937  0.2122 -0.8083  0.0082
  593TMC3    O1 8852   1.943   0.881  11.643 -0.2761 -0.2797 -0.2461
  593TMC3    O2 8853   1.600   0.843  11.915 -0.5886  0.1393 -0.0293
  594MPD2     C 8854   0.869   3.218  14.895  0.0980 -0.2124 -0.1611
  594MPD2    C1 8855   0.748   3.276  14.858 -0.2212 -0.5901  0.1304
  594MPD2    C2 8856   0.754   3.410  14.812 -0.0946 -0.1651 -0.0955
  594MPD2    C3 8857   0.877   3.475  14.800  0.0995  0.7975 -0.0606
  594MPD2    C4 8858   0.995   3.405  14.822 -0.4693  0.2907 -0.0461
  594MPD2    C5 8859   0.989   3.277  14.863  0.2231  0.0896  0.7701
  594MPD2     H 8860   0.661   3.461  14.786 -0.0684  1.4827  3.0445
  594MPD2    H1 8861   1.091   3.452  14.804  0.3919 -1.3486  0.3109
  594MPD2    H2 8862   0.875   3.113  14.923  2.5624  0.1312  0.5782
  594MPD2    H3 8863   1.082   3.221  14.866 -0.5324 -1.3309 -2.0314
  594MPD2     N 8864   0.867   3.612  14.758  0.2051  0.1290 -0.5209
  594MPD2    H5 8865   0.793   3.646  14.698  0.0403  0.0539 -0.3613
  594MPD2    N1 8866   0.630   3.204  14.871 -0.6911  0.3042 -0.0720
  594MPD2    H7 8867   0.639   3.112  14.914 -1.5904  0.3634  0.2550
  595TMC3    C1 8868   1.117   3.974  14.586 -0.1910  0.7828 -0.0510
  595TMC3    C2 8869   1.110   3.845  14.632 -0.1133  0.3766  0.3654
  595TMC3    C3 8870   0.988   3.803  14.675  0.0469 -0.2271  0.1089
  595TMC3    C4 8871   1.008   4.062  14.586  0.3803  0.1474  0.9428
  595TMC3    C5 8872   0.890   4.010  14.629  0.5292 -0.1964  0.2548
  595TMC3    C6 8873   0.872   3.878  14.658  0.0009  0.3045 -0.3116
  595TMC3     C 8874   1.250   4.034  14.578 -0.3167 -0.4793 -0.2308
  595TMC3     O 8875   1.325   4.003  14.670  0.2676 -0.0008 -0.9605
  595TMC3     H 8876   1.203   3.791  14.637 -0.2961  0.2610  2.3479
  595TMC3    H1 8877   1.024   4.165  14.553  0.3703  0.7787  2.9389
  595TMC3    H2 8878   0.776   3.845  14.694 -0.3420  0.0928 -1.4417
  595TMC3    C7 8879   0.792   4.106  14.662  0.2094  0.0494  0.4315
  595TMC3    C8 8880   0.982   3.685  14.761  0.9462  0.3806 -0.0592
  595TMC3    O1 8881   0.669   4.076  14.656 -0.6452  0.2657 -0.1895
  595TMC3    O2 8882   1.069   3.677  14.847 -0.4920  0.5412 -0.0114
  596MPD2     C 8883   4.305   1.842  16.757 -0.7130 -0.5592 -0.4272
  596MPD2    C1 8884   4.359   1.969  16.726 -0.8912  0.7404  0.0674
  596MPD2    C2 8885   4.402   1.991  16.595 -0.9024 -0.8618 -1.0398
  596MPD2    C3 8886   4.393   1.891  16.505  0.0838  0.5017 -0.1056
  596MPD2    C4 8887   4.340   1.763  16.538  0.3030  0.3156  0.4205
  596MPD2    C5 8888   4.299   1.739  16.666  0.4701  0.4928  1.1927
  596MPD2     H 8889   4.435   2.091  16.569 -0.0587 -0.8714  0.0299
  596MPD2    H1 8890   4.349   1.680  16.469 -0.3920  0.4762  0.1308
  596MPD2    H2 8891   4.261   1.820  16.854  0.0010  2.2751  0.5356
  596MPD2    H3 8892   4.265   1.646  16.712 -2.6389  1.4273  0.7476
  596MPD2     N 8893   4.439   1.899  16.373  0.3020  0.1904 -0.7472
  596MPD2    H5 8894   4.438   1.822  16.306 -1.4282  2.3959 -3.2450
  596MPD2    N1 8895   4.368   2.077  16.811  0.3645 -0.2894 -0.0049
  596MPD2    H7 8896   4.412   2.161  16.775  3.9377 -1.5695  1.3797
  597TMC3    C1 8897   4.280   2.217  16.984  0.2398 -0.8200 -0.0449
  597TMC3    C2 8898   4.298   2.322  16.894  0.6810 -0.5356  0.4912
  597TMC3    C3 8899   4.297   2.449  16.951  0.2750 -0.6480  0.6001
  597TMC3    C4 8900   4.260   2.238  17.119  0.4288  0.7531  0.1539
  597TMC3    C5 8901   4.246   2.373  17.159  0.4876  1.1432 -0.7426
  597TMC3    C6 8902   4.265   2.480  17.079  0.8297 -0.2866 -0.3869
  597TMC3     C 8903   4.303   2.082  16.934 -0.1389 -0.4245  0.4447
  597TMC3     O 8904   4.261   1.986  17.003  0.1280 -0.4719  0.0852
  597TMC3     H 8905   4.325   2.299  16.791 -0.0513 -3.6751  0.9841
  597TMC3    H1 8906   4.246   2.155  17.188 -1.4182  0.5011 -0.5238
  597TMC3    H2 8907   4.238   2.581  17.109  0.2167  0.6320 -4.0638
  597TMC3    C7 8908   4.213   2.399  17.303  0.2808 -0.2418 -0.1096
  597TMC3    C8 8909   4.313   2.558  16.858  0.2251  0.1218 -0.4945
  597TMC3    O1 8910   4.164   2.313  17.370  0.4800  0.0118  0.0207
  597TMC3    O2 8911   4.298   2.536  16.737 -0.6141 -0.5189 -0.2907
  598TMC3    C1 8912   2.404   3.196  15.322 -0.2214 -0.0356 -0.5923
  598TMC3    C2 8913   2.285   3.136  15.304  0.0029 -0.3491  0.2308
  598TMC3    C3 8914   2.197   3.179  15.208  0.2944 -0.1788 -0.7159
  598TMC3    C4 8915   2.436   3.298  15.231 -0.1490 -0.1733 -0.2663
  598TMC3    C5 8916   2.345   3.345  15.141 -0.3161 -0.2593 -0.2251
  598TMC3    C6 8917   2.221   3.289  15.129 -0.1188 -0.3447 -0.4263
  598TMC3     C 8918   2.519   3.117  15.374 -0.0576  1.0029 -0.3196
  598TMC3     O 8919   2.633   3.173  15.373  0.8793 -0.1388 -0.4869
  598TMC3     H 8920   2.265   3.039  15.347  0.6411 -1.5514 -2.2179
  598TMC3    H1 8921   2.533   3.347  15.239  0.3671 -1.2669  0.0881
  598TMC3    H2 8922   2.158   3.316  15.045  0.6940 -2.7359 -1.8095
  598TMC3    C7 8923   2.400   3.363  15.012  0.8536 -0.0192 -0.3051
  598TMC3    C8 8924   2.126   3.065  15.146 -0.3193  0.0361 -0.5012
  598TMC3    O1 8925   2.343   3.295  14.927  0.2461  0.2249  0.3621
  598TMC3    O2 8926   2.069   2.989  15.223 -0.2702 -0.2164 -0.1017
  599MPD2     C 8927   2.196   0.660  15.363 -0.0519 -0.0453  0.0652
  599MPD2    C1 8928   2.303   0.711  15.438  0.9967  0.1244 -0.3825
  599MPD2    C2 8929   2.281   0.812  15.528 -0.6667 -0.4072  0.3963
  599MPD2    C3 8930   2.147   0.841  15.567 -0.0363  0.2630 -0.2607
  599MPD2    C4 8931   2.043   0.777  15.498  0.2811  0.0436  0.0890
  599MPD2    C5 8932   2.070   0.694  15.397  0.0358  0.0140  0.2996
  599MPD2     H 8933   2.363   0.855  15.584 -0.2987  1.8654 -1.8669
  599MPD2    H1 8934   1.939   0.785  15.527  0.9155  1.4384  1.9912
  599MPD2    H2 8935   2.222   0.599  15.277 -0.6314 -0.4127  0.1478
  599MPD2    H3 8936   1.989   0.648  15.341  0.5978  1.0231 -1.3589
  599MPD2     N 8937   2.111   0.933  15.669 -0.0809 -0.0201  0.6469
  599MPD2    H5 8938   2.010   0.936  15.680 -0.2188  0.7427 -0.8103
  599MPD2    N1 8939   2.432   0.657  15.406  0.5850 -0.3774 -0.2585
  599MPD2    H7 8940   2.434   0.587  15.333  2.2175  1.3202 -1.8465
  600TMC3    C1 8941   2.121   1.061  15.864  0.5063  0.6030  0.3111
  600TMC3    C2 8942   2.009   1.006  15.911 -0.0655  0.1085 -0.2494
  600TMC3    C3 8943   1.954   1.060  16.022  0.2335 -0.2935 -0.6298
  600TMC3    C4 8944   2.171   1.179  15.910  0.5808 -0.2307 -0.6479
  600TMC3    C5 8945   2.112   1.230  16.023 -0.2842 -0.3812  0.0194
  600TMC3    C6 8946   2.007   1.170  16.087  0.3459  0.0819  0.0491
  600TMC3     C 8947   2.196   0.994  15.761 -0.3264  0.1755 -0.1467
  600TMC3     O 8948   2.321   0.992  15.771 -0.0840 -0.4143  0.1648
  600TMC3     H 8949   1.980   0.909  15.871  0.5830 -0.4779  0.7101
  600TMC3    H1 8950   2.263   1.216  15.868 -0.1526  2.8165  0.4193
  600TMC3    H2 8951   1.964   1.199  16.182  0.8421  0.2422  0.2219
  600TMC3    C7 8952   2.166   1.359  16.066 -0.0130 -1.0144 -0.3806
  600TMC3    C8 8953   1.891   0.969  16.119  0.4660  0.0131  0.1866
  600TMC3    O1 8954   2.239   1.416  15.987 -0.3269  0.4738  0.6563
  600TMC3    O2 8955   1.872   1.016  16.231  0.2466  0.3813 -0.3512
  601MPD2     C 8956   4.612   4.116  17.614 -0.3049 -0.0087  0.3397
  601MPD2    C1 8957   4.487   4.172  17.658 -0.2687 -0.5021  0.0717
  601MPD2    C2 8958   4.406   4.101  17.739 -0.0710 -0.8237  0.0687
  601MPD2    C3 8959   4.450   3.986   0.053  0.2839 -0.7417  0.2199
  601MPD2    C4 8960   4.573   3.933   0.012 -0.9767 -0.3909  0.0168
  601MPD2    C5 8961   4.651   3.995  17.661  0.2264  0.0942 -0.3237
  601MPD2     H 8962   4.303   4.133   0.005  0.7886  2.6411 -2.4517
  601MPD2    H1 8963   4.607   3.838   0.050  0.5980  0.4822  0.7744
  601MPD2    H2 8964   4.676   4.155  17.536 -2.4726 -0.5194 -1.6741
  601MPD2    H3 8965   0.013   3.958  17.632 -1.0249 -1.8400 -2.1101
  601MPD2     N 8966   4.376   3.912   0.151  0.0022 -0.2490 -0.3908
  601MPD2    H5 8967   4.407   3.819   0.180  1.7164  0.1329 -1.0191
  601MPD2    N1 8968   4.425   4.276  17.578 -0.6340 -0.0958  0.0525
  601MPD2    H7 8969   4.327   4.293  17.598 -0.4430 -0.2963  1.1644
  602TMC3    C1 8970   4.426   4.467  17.438 -0.4399  0.8140 -0.5982
  602TMC3    C2 8971   4.490   4.580  17.408  0.4129  0.2064 -0.1372
  602TMC3    C3 8972   4.428   4.677  17.326 -0.6985  0.0469  0.1349
  602TMC3    C4 8973   4.307   4.433  17.379 -0.5741 -0.2846 -0.6065
  602TMC3    C5 8974   4.246   4.520  17.287 -0.0390 -0.6984  0.0573
  602TMC3    C6 8975   4.308   4.637  17.259 -0.0483  0.0246 -0.1775
  602TMC3     C 8976   4.496   4.372  17.513 -0.6431  0.3456  0.0975
  602TMC3     O 8977   4.618   4.388  17.531 -0.5944  0.1927  0.2444
  602TMC3     H 8978   4.577   4.597  17.471  0.0850 -2.8360  1.1318
  602TMC3    H1 8979   4.252   4.343  17.401  1.2154 -1.7109 -1.9276
  602TMC3    H2 8980   4.257   4.707  17.194  1.4109  0.9760 -0.3034
  602TMC3    C7 8981   4.142   4.475  17.199 -0.8345 -0.0226  0.1392
  602TMC3    C8 8982   4.520   0.034  17.258  0.1589 -0.0704  0.0052
  602TMC3    O1 8983   4.089   4.365  17.225  0.0749  0.3492  0.6315
  602TMC3    O2 8984   4.637   0.030  17.283 -0.5329 -0.2414  0.2054
  603TMC3    C1 8985   2.367   4.417  10.968  0.1517  0.2066 -1.3519
  603TMC3    C2 8986   2.397   4.438  11.096  0.0606 -0.6472  0.6322
  603TMC3    C3 8987   2.343   4.547  11.157 -0.6640 -0.4225 -0.0532
  603TMC3    C4 8988   2.280   4.501  10.903 -0.3548  0.1765  0.8138
  603TMC3    C5 8989   2.229   4.612  10.962 -0.1210  0.4793 -0.8493
  603TMC3    C6 8990   2.253   4.628  11.096  0.7060  0.0257 -0.9533
  603TMC3     C 8991   2.455   4.327  10.897  0.5311  0.7368  1.4745
  603TMC3     O 8992   2.565   4.308  10.950  0.1228 -0.5571 -0.6199
  603TMC3     H 8993   2.481   4.385  11.139  1.2951  0.9414  0.1929
  603TMC3    H1 8994   2.262   4.482  10.798 -0.4782  2.0381  0.4979
  603TMC3    H2 8995   2.214   4.716  11.145  1.6587  0.1059 -0.3550
  603TMC3    C7 8996   2.161   4.723  10.889 -0.0909 -0.0939  0.9279
  603TMC3    C8 8997   2.371   4.547  11.301  0.0403  0.5792  0.5551
  603TMC3    O1 8998   2.159   0.093  10.945  0.1401  0.2824  0.1025
  603TMC3    O2 8999   2.435   4.451  11.345 -1.0146  0.3119 -0.3995
  604MPD2     C 9000   3.465   3.168  16.510  0.7547  0.0818  0.2124
  604MPD2    C1 9001   3.371   3.125  16.422 -0.3628 -0.4360 -0.3123
  604MPD2    C2 9002   3.409   3.111  16.293  0.0033  0.7454 -0.4293
  604MPD2    C3 9003   3.543   3.130  16.250 -0.5371 -0.8354 -0.3367
  604MPD2    C4 9004   3.633   3.168  16.343 -0.2575 -0.3368  0.5073
  604MPD2    C5 9005   3.594   3.184  16.471 -0.3458 -0.4950  0.0208
  604MPD2     H 9006   3.337   3.086  16.216  0.6133  0.4640 -0.9112
  604MPD2    H1 9007   3.736   3.189  16.318 -0.5444  0.8102  0.2961
  604MPD2    H2 9008   3.455   3.197  16.614  1.5835  3.6751 -0.7080
  604MPD2    H3 9009   3.671   3.212  16.543  0.6017  0.1779 -1.2536
  604MPD2     N 9010   3.572   3.116  16.112  0.3047  0.9538  0.0497
  604MPD2    H5 9011   3.493   3.089  16.055  0.2982 -1.5185  1.2042
  604MPD2    N1 9012   3.239   3.107  16.472 -0.4538 -0.0139 -0.0883
  604MPD2    H7 9013   3.222   3.131  16.570 -1.4343 -0.5773 -0.1248
  605TMC3    C1 9014   3.002   3.094  16.467  0.2645  0.1282 -0.5483
  605TMC3    C2 9015   3.025   3.130  16.596 -0.0843  0.1001  0.0838
  605TMC3    C3 9016   2.970   3.249  16.637  0.2591  0.2016 -0.1005
  605TMC3    C4 9017   2.911   3.160  16.387 -0.6538 -0.3674 -0.6796
  605TMC3    C5 9018   2.856   3.274  16.436 -0.1292  0.3614  0.3899
  605TMC3    C6 9019   2.889   3.319  16.557  0.0815  0.3914 -0.2106
  605TMC3     C 9020   3.129   3.066  16.397 -0.3097  0.6714 -0.1244
  605TMC3     O 9021   3.125   3.042  16.277  0.5929  0.7541 -0.2926
  605TMC3     H 9022   3.093   3.078  16.663  0.9968  1.9041  0.3837
  605TMC3    H1 9023   2.905   3.134  16.282 -0.2223  0.5011 -0.9117
  605TMC3    H2 9024   2.855   3.421  16.576  1.4534  1.2179 -2.2575
  605TMC3    C7 9025   2.770   3.359  16.358  0.3649  0.3450  0.1181
  605TMC3    C8 9026   3.082   3.335  16.674  0.0099 -0.1019 -0.5718
  605TMC3    O1 9027   2.736   3.468  16.405  0.0200 -0.2291 -0.0411
  605TMC3    O2 9028   3.112   3.419  16.592 -0.4134 -0.0298 -0.7285
  606TMC3    C1 9029   0.481   1.053  16.726  0.2925  0.2050 -0.0701
  606TMC3    C2 9030   0.576   1.075  16.820  0.1879  0.8307 -0.4262
  606TMC3    C3 9031   0.537   1.164  16.919 -0.2893 -0.3586  0.5946
  606TMC3    C4 9032   0.362   1.113  16.721  0.1466  0.2887  0.3148
  606TMC3    C5 9033   0.332   1.210  16.820  0.7192  0.4063  0.7020
  606TMC3    C6 9034   0.417   1.225  16.925 -0.5673  0.0477 -1.1261
  606TMC3     C 9035   0.529   0.981  16.611 -0.2305  0.6760 -0.6017
  606TMC3     O 9036   0.611   0.890  16.633  0.0545  0.3088  0.7125
  606TMC3     H 9037   0.666   1.016  16.827 -0.4976 -0.3608 -1.7966
  606TMC3    H1 9038   0.288   1.096  16.644  0.5568  0.6281 -0.1583
  606TMC3    H2 9039   0.398   1.284  17.013 -3.2162 -0.8790 -1.0917
  606TMC3    C7 9040   0.195   1.252  16.843 -0.0394 -0.9771  0.3013
  606TMC3    C8 9041   0.616   1.174  17.039 -0.8527  0.2117  0.2117
  606TMC3    O1 9042   0.162   1.256  16.959 -0.2510 -0.3219 -0.5386
  606TMC3    O2 9043   0.595   1.267  17.111 -0.2822 -0.9820 -0.2493
  607MPD2     C 9044   1.530   4.425  12.059 -0.3101  0.1737 -0.2784
  607MPD2    C1 9045   1.515   4.525  12.154  0.1693  0.2459 -0.0446
  607MPD2    C2 9046   1.479   4.485  12.285  0.5209 -0.8336 -0.4122
  607MPD2    C3 9047   1.463   4.353  12.320  0.6385  0.0426  1.2608
  607MPD2    C4 9048   1.464   4.256  12.218  0.3228 -0.2910  0.7535
  607MPD2    C5 9049   1.496   4.292  12.091  0.2456 -0.2144 -0.6598
  607MPD2     H 9050   1.487   4.566  12.356  1.3510  0.2047 -1.7038
  607MPD2    H1 9051   1.448   4.151  12.242  1.4614 -0.0641  2.5529
  607MPD2    H2 9052   1.566   4.441  11.957  0.9911  1.8139  0.4355
  607MPD2    H3 9053   1.497   4.212  12.018 -1.6920 -1.1354  0.3180
  607MPD2     N 9054   1.454   4.324  12.455  0.0709  1.1252 -0.1428
  607MPD2    H5 9055   1.463   4.402  12.519  0.1253  1.8213 -1.0012
  607MPD2    N1 9056   1.546   4.665  12.125 -0.5797 -0.4736  0.0182
  607MPD2    H7 9057   1.557   4.725  12.206  3.9548 -1.3685  0.0667
  608TMC3    C1 9058   1.662   0.113  12.030  0.2765  0.1572 -0.5984
  608TMC3    C2 9059   1.660   0.175  12.155 -0.5401 -0.3904  0.7336
  608TMC3    C3 9060   1.766   0.263  12.190  0.1207  0.0294 -0.2666
  608TMC3    C4 9061   1.765   0.135  11.947  0.4920 -0.7894 -0.0388
  608TMC3    C5 9062   1.863   0.229  11.980  0.0242  0.5255 -0.8088
  608TMC3    C6 9063   1.859   0.292  12.100  0.2292 -0.5219  0.0862
  608TMC3     C 9064   1.603   4.713  12.011  0.8449 -0.8616  0.4487
  608TMC3     O 9065   1.602   4.667  11.898  0.2644  0.1633 -0.5143
  608TMC3     H 9066   1.570   0.160  12.213 -1.2336 -1.7463 -0.6852
  608TMC3    H1 9067   1.784   0.092  11.849  2.1513 -1.3852  0.5437
  608TMC3    H2 9068   1.935   0.366  12.124 -1.4460  0.8803  1.0377
  608TMC3    C7 9069   1.943   0.288  11.874 -0.1222  0.3385 -0.2871
  608TMC3    C8 9070   1.794   0.278  12.334  0.3425  0.2749  0.5585
  608TMC3    O1 9071   1.893   0.289  11.762 -0.6929 -0.3844  0.3532
  608TMC3    O2 9072   1.870   0.363  12.379 -0.2184  0.7275  0.7108
  609TMC3    C1 9073   4.071   4.276  10.034 -0.0926  0.6922  0.3412
  609TMC3    C2 9074   3.946   4.268   9.981  0.0578 -0.2220 -0.3488
  609TMC3    C3 9075   3.924   4.220   9.856 -0.6573  0.3571 -0.5440
  609TMC3    C4 9076   4.182   4.234   9.961  0.0508  0.1380 -0.1610
  609TMC3    C5 9077   4.161   4.190   9.833 -0.5454 -0.3331 -0.0475
  609TMC3    C6 9078   4.030   4.181   9.780  0.1521  0.0353  0.0281
  609TMC3     C 9079   4.074   4.296  10.178 -0.1585  0.1469  0.1730
  609TMC3     O 9080   3.969   4.270  10.234 -0.1847 -0.0082  0.4733
  609TMC3     H 9081   3.858   4.293  10.040  0.2237  2.1736 -1.1147
  609TMC3    H1 9082   4.280   4.254  10.003 -0.2246  2.0840 -0.4345
  609TMC3    H2 9083   4.007   4.131   9.686  1.0040  0.6035 -0.4706
  609TMC3    C7 9084   4.282   4.165   9.755  0.4524  0.6834  0.5611
  609TMC3    C8 9085   3.799   4.233   9.776 -0.0337 -0.6578  0.1010
  609TMC3    O1 9086   4.387   4.162   9.817 -0.0172  0.1697  0.4057
  609TMC3    O2 9087   3.816   4.240   9.655  0.3177  0.0193  0.1664
  610TMC3    C1 9088   2.137   4.329  12.885  0.7941  0.2936  0.4327
  610TMC3    C2 9089   2.172   4.391  12.764  0.6001  0.4212 -0.2791
  610TMC3    C3 9090   2.289   4.344  12.709 -0.1057 -0.7726 -0.3849
  610TMC3    C4 9091   2.189   4.214  12.934  0.0109  0.3538 -0.5913
  610TMC3    C5 9092   2.306   4.173  12.876 -0.3217  0.2673  0.0237
  610TMC3    C6 9093   2.361   4.243  12.774 -0.1637  0.0463  0.9229
  610TMC3     C 9094   2.032   4.385  12.973 -0.3067  0.0943  0.4488
  610TMC3     O 9095   1.981   4.307  13.050  0.4698 -0.2617 -0.4303
  610TMC3     H 9096   2.122   4.484  12.739 -1.5252 -0.0058  2.3693
  610TMC3    H1 9097   2.149   4.159  13.019  0.5112 -0.3402 -0.8001
  610TMC3    H2 9098   2.459   4.217  12.738 -0.4438 -2.1974  1.7627
  610TMC3    C7 9099   2.394   4.083  12.956 -0.8346  0.4713  0.4937
  610TMC3    C8 9100   2.362   4.444  12.629  0.2302  0.0865 -0.2321
  610TMC3    O1 9101   2.505   4.072  12.904  0.1965  0.1392  0.2993
  610TMC3    O2 9102   2.328   4.562  12.618 -0.4047  0.1231 -0.4042
  611MPD2     C 9103   1.058   0.085   9.942  0.3403 -0.1466 -0.1410
  611MPD2    C1 9104   1.102   4.693   9.949 -0.0280  0.0848 -0.5341
  611MPD2    C2 9105   1.234   4.662   9.933  0.1377 -0.4036 -0.5951
  611MPD2    C3 9106   1.328   0.020   9.904  0.5849  0.3317  0.0138
  611MPD2    C4 9107   1.278   0.157   9.895 -0.6641  0.3772  0.0605
  611MPD2    C5 9108   1.149   0.178   9.920 -0.3672  0.3804 -0.0183
  611MPD2     H 9109   1.271   4.560   9.937 -1.6080 -0.9696  1.1212
  611MPD2    H1 9110   1.339   0.245   9.885  0.5849 -0.6608 -1.4200
  611MPD2    H2 9111   0.956   0.119   9.954  0.4382  0.0744  0.0402
  611MPD2    H3 9112   1.106   0.277   9.921  1.6207  1.2517 -0.0380
  611MPD2     N 9113   1.468   0.008   9.909  0.4293  0.4443  0.3110
  611MPD2    H5 9114   1.516   0.096   9.893  4.1845 -1.3996  1.5865
  611MPD2    N1 9115   1.005   4.599   9.987 -0.1349 -0.0963  0.1466
  611MPD2    H7 9116   0.910   4.632   9.999 -0.4886 -0.5728 -1.3967
  612TMC3    C1 9117   1.690   4.648   9.927 -0.2134  0.5241 -0.5910
  612TMC3    C2 9118   1.713   4.732  10.036  0.1135 -0.5469 -0.1113
  612TMC3    C3 9119   1.806   4.696  10.124 -0.7610 -0.3921  0.2845
  612TMC3    C4 9120   1.766   4.536   9.908 -0.1197  0.3108 -0.2944
  612TMC3    C5 9121   1.868   4.509  10.001  0.0760 -0.4187 -0.6409
  612TMC3    C6 9122   1.889   4.590  10.113 -0.1719 -0.0036  0.4352
  612TMC3     C 9123   1.545   4.629   9.904 -0.0642  0.0350  0.1193
  612TMC3     O 9124   1.497   4.516   9.889  0.3672  0.3571 -0.2057
  612TMC3     H 9125   1.654   0.085  10.051  2.9929  1.3950 -0.3945
  612TMC3    H1 9126   1.732   4.469   9.830 -0.1787  0.7468 -0.6427
  612TMC3    H2 9127   1.977   4.575  10.174  0.2192 -0.8236 -0.3266
  612TMC3    C7 9128   1.955   4.397   9.975  0.1495  0.3025  0.2245
  612TMC3    C8 9129   1.820   0.047  10.239 -0.0519  0.1777 -0.1758
  612TMC3    O1 9130   2.027   4.359  10.070 -0.2882 -0.2174 -0.1446
  612TMC3    O2 9131   1.758   0.151  10.230  0.1101  0.1179  0.1472
  613MPD2     C 9132   1.440   2.966  16.475 -0.1511  0.4201  0.6947
  613MPD2    C1 9133   1.330   2.885  16.469 -0.3155 -0.3326  0.3670
  613MPD2    C2 9134   1.351   2.744  16.452 -0.4717  0.0979 -0.3780
  613MPD2    C3 9135   1.479   2.693  16.457  0.6487  0.6906  0.1993
  613MPD2    C4 9136   1.582   2.776  16.458  0.0034 -0.0030 -0.6080
  613MPD2    C5 9137   1.564   2.908  16.470  0.2836  0.0361  0.0877
  613MPD2     H 9138   1.266   2.677  16.445 -0.4338  0.2083 -1.7993
  613MPD2    H1 9139   1.687   2.746  16.458 -0.7952 -2.7713 -0.3075
  613MPD2    H2 9140   1.428   3.073  16.480 -0.9344  0.3685 -0.2111
  613MPD2    H3 9141   1.648   2.972  16.494  1.7620 -1.4801 -1.0275
  613MPD2     N 9142   1.501   2.556  16.439  0.4278 -0.6975  0.6925
  613MPD2    H5 9143   1.596   2.524  16.425 -0.0848 -1.5039 -0.9659
  613MPD2    N1 9144   1.204   2.940  16.449 -0.2946 -0.2287  0.1402
  613MPD2    H7 9145   1.204   3.042  16.445  0.8877 -0.1543  1.8471
  614TMC3    C1 9146   1.003   2.939  16.330 -0.1274  0.2528  0.2450
  614TMC3    C2 9147   1.078   2.986  16.224  0.4527 -0.3579 -0.3882
  614TMC3    C3 9148   1.030   2.955  16.102 -0.0465 -0.3891  0.8043
  614TMC3    C4 9149   0.888   2.879  16.311 -0.0639  0.4374 -0.1970
  614TMC3    C5 9150   0.841   2.857  16.189 -0.6012  0.4326 -0.0543
  614TMC3    C6 9151   0.908   2.894  16.081 -0.2756  0.3482  0.7017
  614TMC3     C 9152   1.082   2.873  16.431 -0.3201  0.6093 -0.5189
  614TMC3     O 9153   1.051   2.755  16.452  0.1327 -0.4654  0.0829
  614TMC3     H 9154   1.181   3.020  16.228  0.0265  1.0677 -1.5869
  614TMC3    H1 9155   0.842   2.823  16.391  0.4253  0.5764  0.1801
  614TMC3    H2 9156   0.876   2.871  15.980  2.7934  1.1277 -0.4506
  614TMC3    C7 9157   0.733   2.767  16.177  0.2371  0.6295  0.3436
  614TMC3    C8 9158   1.137   2.893  16.021  0.0127 -0.4463 -0.0443
  614TMC3    O1 9159   0.645   2.768  16.259  0.0676 -0.4251  0.3068
  614TMC3    O2 9160   1.120   2.785  15.970 -0.3770 -0.2371  0.2826
  615MPD2     C 9161   0.715   3.563  16.081  0.0233  0.3736 -0.2884
  615MPD2    C1 9162   0.602   3.537  16.145 -0.5919  0.5806  0.0637
  615MPD2    C2 9163   0.497   3.462  16.083  0.4410  0.8955 -0.8188
  615MPD2    C3 9164   0.512   3.436  15.944 -0.1814  0.5396  0.5893
  615MPD2    C4 9165   0.626   3.470  15.880  0.5100 -0.1769 -0.2379
  615MPD2    C5 9166   0.724   3.526  15.951 -0.0699 -0.8312  0.1839
  615MPD2     H 9167   0.400   3.457  16.130  1.0087  2.9137  0.5650
  615MPD2    H1 9168   0.634   3.445  15.775  0.7624 -3.4317  0.5502
  615MPD2    H2 9169   0.798   3.615  16.127  0.5712 -3.1866  2.7473
  615MPD2    H3 9170   0.825   3.545  15.918 -1.0645  2.9614 -0.6832
  615MPD2     N 9171   0.401   3.392  15.863  0.9691  0.5869 -0.5085
  615MPD2    H5 9172   0.398   3.392  15.761 -0.9759 -0.0179 -0.4586
  615MPD2    N1 9173   0.567   3.617  16.264  0.6364 -0.3733  0.4125
  615MPD2    H7 9174   0.474   3.611  16.304 -0.5592 -1.5642 -2.5496
  616TMC3    C1 9175   0.576   3.789  16.420 -0.6242  0.8214  0.1615
  616TMC3    C2 9176   0.650   3.898  16.464 -0.3344 -0.4712 -0.0341
  616TMC3    C3 9177   0.591   4.001  16.530 -0.4243 -0.0654 -0.1064
  616TMC3    C4 9178   0.443   3.785  16.426  0.2968 -0.0156 -0.6531
  616TMC3    C5 9179   0.385   3.892  16.495  0.2108 -0.9697 -0.2443
  616TMC3    C6 9180   0.452   4.002  16.543 -0.6288 -0.0355  0.1331
  616TMC3     C 9181   0.654   3.689  16.342  1.5127  0.8292  0.6333
  616TMC3     O 9182   0.777   3.698  16.336 -0.2446  0.0611  0.0229
  616TMC3     H 9183   0.758   3.894  16.462 -0.2238  2.3090  0.0074
  616TMC3    H1 9184   0.377   3.717  16.373 -0.2872 -0.2221  0.3512
  616TMC3    H2 9185   0.408   4.075  16.610 -0.4773  0.6568 -0.5297
  616TMC3    C7 9186   0.243   3.876  16.517  0.0285 -0.2669 -0.5980
  616TMC3    C8 9187   0.665   4.081  16.628  0.1212 -0.0355  0.1305
  616TMC3    O1 9188   0.189   3.772  16.507  0.5577  0.2072 -0.0283
  616TMC3    O2 9189   0.612   4.133  16.722 -0.1202 -0.4686 -0.0799
  617MPD2     C 9190   3.056   1.690  13.652  0.5299 -0.2660  0.5940
  617MPD2    C1 9191   3.087   1.597  13.749 -1.1822  0.2478  0.0730
  617MPD2    C2 9192   2.992   1.543  13.834 -0.7891  1.0042 -0.0319
  617MPD2    C3 9193   2.859   1.575  13.813  0.6715 -0.7878 -0.7899
  617MPD2    C4 9194   2.825   1.672  13.718  0.3467  0.3586 -0.9363
  617MPD2    C5 9195   2.924   1.728  13.640  0.1698 -0.2083 -0.1496
  617MPD2     H 9196   3.026   1.469  13.906 -1.6619  1.1089  0.4990
  617MPD2    H1 9197   2.721   1.696  13.699 -0.3090 -0.9813  0.9979
  617MPD2    H2 9198   3.126   1.737  13.584 -0.8717 -0.2743 -0.8570
  617MPD2    H3 9199   2.894   1.802  13.567 -1.0493 -0.7231 -0.1665
  617MPD2     N 9200   2.754   1.503  13.870 -0.4948  0.0385  0.3843
  617MPD2    H5 9201   2.665   1.519  13.823  0.2756  0.5413 -0.8890
  617MPD2    N1 9202   3.227   1.563  13.753  0.2381 -0.0592  0.1574
  617MPD2    H7 9203   3.282   1.586  13.671 -0.9437 -0.3792 -0.7276
  618TMC3    C1 9204   3.405   1.437  13.822 -0.3063 -1.1868 -0.1351
  618TMC3    C2 9205   3.397   1.362  13.710 -0.5689  0.0603  0.2639
  618TMC3    C3 9206   3.512   1.293  13.665  0.2028  0.2073 -0.2322
  618TMC3    C4 9207   3.527   1.473  13.879  0.1221 -0.3029 -0.1704
  618TMC3    C5 9208   3.636   1.432  13.812  0.4931  0.4192 -0.1333
  618TMC3    C6 9209   3.631   1.335  13.714 -0.4094 -0.4905  0.5869
  618TMC3     C 9210   3.284   1.500  13.858 -0.6964 -0.0606  0.9714
  618TMC3     O 9211   3.268   1.515  13.975  0.4373  0.8373  0.3505
  618TMC3     H 9212   3.297   1.332  13.681 -0.5031 -0.0637  0.1650
  618TMC3    H1 9213   3.534   1.531  13.970 -0.3033 -0.9895  0.3007
  618TMC3    H2 9214   3.728   1.300  13.679 -0.4072 -1.3600  1.5041
  618TMC3    C7 9215   3.760   1.486  13.852  0.2779 -0.5061 -0.2628
  618TMC3    C8 9216   3.517   1.267  13.524  0.4462 -0.6254  0.4491
  618TMC3    O1 9217   3.794   1.461  13.968  0.0509 -0.0045  0.0540
  618TMC3    O2 9218   3.628   1.255  13.471  0.9959  0.3229 -0.2561
  619MPD2     C 9219   4.621   2.556  13.702  0.4010  0.1478 -0.0590
  619MPD2    C1 9220   4.550   2.675  13.688  0.3345  0.2376  0.0907
  619MPD2    C2 9221   4.426   2.687  13.742  0.1957  0.0130  0.2553
  619MPD2    C3 9222   4.376   2.584  13.819 -0.2655  0.2056 -0.3464
  619MPD2    C4 9223   4.457   2.474  13.846  0.8336 -0.2683  0.3670
  619MPD2    C5 9224   4.575   2.456  13.779 -0.6672  0.3241  0.3358
  619MPD2     H 9225   4.376   2.783  13.731 -0.2186 -0.3782 -1.3020
  619MPD2    H1 9226   4.421   2.397  13.913 -0.6619  0.8197  0.8010
  619MPD2    H2 9227   4.721   2.540  13.664  0.4633  0.1738  0.0911
  619MPD2    H3 9228   4.642   2.373  13.798  0.1889  0.3432 -2.5694
  619MPD2     N 9229   4.265   2.598  13.900  0.5911 -0.0308  0.0677
  619MPD2    H5 9230   4.252   2.527  13.972  1.9702 -0.4843 -0.1166
  619MPD2    N1 9231   4.606   2.791  13.625  0.6339 -0.4221 -0.4129
  619MPD2    H7 9232   4.542   2.869  13.617 -0.1091 -1.0701 -0.7403
  620TMC3    C1 9233   0.025   2.941  13.554  0.6485 -0.1077 -0.0770
  620TMC3    C2 9234   4.671   3.039  13.530 -0.4346  0.1369  0.3332
  620TMC3    C3 9235   4.709   3.169  13.566  0.4077  0.2863 -0.7063
  620TMC3    C4 9236   0.148   2.968  13.608  0.8629  0.6204  0.8308
  620TMC3    C5 9237   0.183   3.101  13.643  0.2492  0.3342 -0.1887
  620TMC3    C6 9238   0.093   3.198  13.619  0.2319  0.7754 -0.0508
  620TMC3     C 9239   4.725   2.803  13.564  0.4864  0.1067 -0.6070
  620TMC3     O 9240   0.075   2.717  13.552 -0.0209  0.1087  0.3974
  620TMC3     H 9241   4.572   3.024  13.487 -0.1951 -0.1934 -0.0928
  620TMC3    H1 9242   0.212   2.888  13.642  1.4677  1.0114  0.6232
  620TMC3    H2 9243   0.117   3.299  13.649 -1.4268  1.0478  0.3618
  620TMC3    C7 9244   0.237   3.115  13.772  0.1613 -0.8249  0.0192
  620TMC3    C8 9245   4.608   3.249  13.625  0.4779  0.3337  0.0415
  620TMC3    O1 9246   0.334   3.043  13.795 -0.1824 -0.0443  0.4717
  620TMC3    O2 9247   4.637   3.272  13.745 -0.9409  0.4418  0.0187
  621MPD2     C 9248   0.306   2.995  10.659 -0.0968 -0.5064 -0.1551
  621MPD2    C1 9249   0.178   3.008  10.614 -0.1252 -0.3741 -0.4020
  621MPD2    C2 9250   0.140   3.113  10.528  0.7894 -0.0182 -0.3711
  621MPD2    C3 9251   0.229   3.209  10.485  0.1404 -0.2423  0.3215
  621MPD2    C4 9252   0.355   3.202  10.536 -0.0648 -0.4910  0.3897
  621MPD2    C5 9253   0.393   3.097  10.614 -0.0284 -0.3248 -0.5240
  621MPD2     H 9254   0.041   3.126  10.486  0.8292  1.3431 -0.0630
  621MPD2    H1 9255   0.428   3.278  10.514 -0.5470  0.0384  0.6124
  621MPD2    H2 9256   0.340   2.925  10.735  2.7703 -0.2500 -1.2016
  621MPD2    H3 9257   0.488   3.118  10.661 -0.5186 -1.1542  0.8678
  621MPD2     N 9258   0.173   3.304  10.397 -0.6120  0.7138 -0.1322
  621MPD2    H5 9259   0.073   3.302  10.379 -0.6974 -3.8508  0.6301
  621MPD2    N1 9260   0.075   2.912  10.641 -0.2205  1.0418 -0.6855
  621MPD2    H7 9261   4.717   2.935  10.612  0.6323  2.1995 -2.5340
  622TMC3    C1 9262   4.714   2.705  10.675 -0.7991 -0.0350  0.0855
  622TMC3    C2 9263   4.596   2.773  10.651  0.4350 -0.3871 -0.9324
  622TMC3    C3 9264   4.502   2.705  10.573  0.4413 -0.3947  0.2523
  622TMC3    C4 9265   0.000   2.581  10.622 -0.3853  0.0150  0.0164
  622TMC3    C5 9266   4.634   2.518  10.556  0.4676  0.0333  0.0440
  622TMC3    C6 9267   4.519   2.581  10.522  0.7047 -0.2036 -0.5174
  622TMC3     C 9268   0.094   2.784  10.698 -0.0325 -0.1411  0.7512
  622TMC3     O 9269   0.197   2.730  10.735  0.1478  0.4489 -0.4555
  622TMC3     H 9270   4.569   2.863  10.703 -0.0716  0.0386 -1.9334
  622TMC3    H1 9271   0.092   2.528  10.645 -1.0510 -0.6715  1.0671
  622TMC3    H2 9272   4.454   2.530  10.452  0.9609 -1.7990  0.3976
  622TMC3    C7 9273   4.662   2.397  10.471  0.2824 -0.2229 -0.0540
  622TMC3    C8 9274   4.390   2.784  10.523 -0.3440  0.5185  0.6578
  622TMC3    O1 9275   0.047   2.372  10.469  0.2980 -0.2879  0.0485
  622TMC3    O2 9276   4.401   2.906  10.515 -0.3069  0.3500  0.6454
  623MPD2     C 9277   3.482   3.571  15.737  0.3010  0.3463  0.3077
  623MPD2    C1 9278   3.418   3.501  15.845  0.6071  0.7952  0.3595
  623MPD2    C2 9279   3.487   3.463  15.948 -0.3412 -0.0662  0.0677
  623MPD2    C3 9280   3.619   3.502  15.969 -0.0243 -0.1549 -0.0568
  623MPD2    C4 9281   3.683   3.571  15.867 -0.1613  0.6292  0.9291
  623MPD2    C5 9282   3.618   3.603  15.753 -0.0139 -0.2969 -0.2223
  623MPD2     H 9283   3.449   3.405  16.032  0.3101 -1.9768 -0.9617
  623MPD2    H1 9284   3.785   3.607  15.872 -0.4401  1.3866  1.1069
  623MPD2    H2 9285   3.430   3.614  15.651  1.8081  0.2307 -0.6594
  623MPD2    H3 9286   3.677   3.660  15.683  0.9609  1.3651  1.9260
  623MPD2     N 9287   3.669   3.484  16.098  0.2015  0.3011 -0.2348
  623MPD2    H5 9288   3.605   3.431  16.156 -0.8217  1.8276  0.0350
  623MPD2    N1 9289   3.279   3.464  15.817 -0.0151  0.4471 -0.1459
  623MPD2    H7 9290   3.234   3.535  15.761 -0.0428  0.0920 -0.5724
  624TMC3    C1 9291   3.931   3.525  16.466  0.4397 -0.2178 -0.0457
  624TMC3    C2 9292   3.824   3.503  16.553  0.7157 -0.1911 -0.0226
  624TMC3    C3 9293   3.697   3.495  16.495  0.9583 -0.3086 -0.0309
  624TMC3    C4 9294   3.918   3.529  16.332 -0.3908  0.1447 -0.0276
  624TMC3    C5 9295   3.789   3.523  16.285 -0.3649 -1.1696 -0.2805
  624TMC3    C6 9296   3.677   3.506  16.364  0.3304 -0.0630 -0.4143
  624TMC3     C 9297   4.061   3.519  16.517 -0.3644  0.5060 -0.6073
  624TMC3     O 9298   4.146   3.565  16.443 -0.1632 -0.6081 -0.1402
  624TMC3     H 9299   3.848   3.500  16.659 -2.0610 -0.2656  0.5835
  624TMC3    H1 9300   3.998   3.546  16.262  0.5761  1.3656  1.3829
  624TMC3    H2 9301   3.576   3.506  16.323  0.7141 -0.1338 -1.3748
  624TMC3    C7 9302   3.777   3.546  16.145 -1.2464 -0.3819 -0.0428
  624TMC3    C8 9303   3.577   3.491  16.578  0.1468 -0.1914  0.8266
  624TMC3    O1 9304   3.871   3.605  16.090 -0.0131 -0.1443  0.0703
  624TMC3    O2 9305   3.480   3.534  16.519  0.2860  0.4473  0.3109
  625MPD2     C 9306   4.431   0.280   0.645 -1.0330  0.1684 -1.0451
  625MPD2    C1 9307   4.454   0.406   0.704  0.0778 -0.5696  0.2522
  625MPD2    C2 9308   4.572   0.433   0.767  0.1204  0.5594  0.4094
  625MPD2    C3 9309   4.665   0.334   0.787  0.4289  0.3916 -0.6978
  625MPD2    C4 9310   4.633   0.202   0.749 -0.0117  0.5933 -0.3560
  625MPD2    C5 9311   4.524   0.179   0.668 -0.2415 -0.1820  0.6485
  625MPD2     H 9312   4.594   0.533   0.802 -2.3382  1.2823 -0.1412
  625MPD2    H1 9313   4.707   0.126   0.770 -0.4433  0.2222 -0.1925
  625MPD2    H2 9314   4.340   0.262   0.588  1.5701 -4.0935 -3.8352
  625MPD2    H3 9315   4.500   0.077   0.640 -1.0409  1.1424 -3.4274
  625MPD2     N 9316   0.039   0.371   0.862  0.6132 -0.2458 -0.0892
  625MPD2    H5 9317   0.045   0.472   0.864 -2.0059 -0.0574 -1.3755
  625MPD2    N1 9318   4.361   0.511   0.691  0.0819 -0.0190  0.6104
  625MPD2    H7 9319   4.391   0.602   0.723  1.0843  0.2568 -1.1072
  626TMC3    C1 9320   4.163   0.632   0.664 -0.2283 -0.8612 -0.4155
  626TMC3    C2 9321   4.062   0.666   0.583  0.2439 -0.4765 -0.4582
  626TMC3    C3 9322   3.971   0.756   0.636 -0.7407 -0.3920 -0.0388
  626TMC3    C4 9323   4.172   0.674   0.788 -0.3211  0.3389 -0.1252
  626TMC3    C5 9324   4.102   0.774   0.839  0.4366 -0.9706  0.1251
  626TMC3    C6 9325   4.000   0.817   0.763 -0.0344 -0.3269 -0.5301
  626TMC3     C 9326   4.235   0.506   0.634 -0.3991 -0.3959 -0.1131
  626TMC3     O 9327   4.183   0.422   0.558  0.6698 -0.4866  0.4224
  626TMC3     H 9328   4.054   0.630   0.481  1.6892 -1.0373 -0.3717
  626TMC3    H1 9329   4.241   0.634   0.861 -0.0128  0.3437 -0.4169
  626TMC3    H2 9330   3.933   0.900   0.781 -0.1946 -0.7148  0.6451
  626TMC3    C7 9331   4.153   0.854   0.948 -0.0505  0.0214  0.5715
  626TMC3    C8 9332   3.842   0.775   0.575 -0.1707  0.1674  0.0869
  626TMC3    O1 9333   4.258   0.821   1.007  0.2299  0.2426 -0.3320
  626TMC3    O2 9334   3.752   0.822   0.646  0.0491 -0.0023  0.3042
  627MPD2     C 9335   2.243   0.335  14.459  0.6830 -0.0996 -0.3416
  627MPD2    C1 9336   2.368   0.287  14.493  0.1111  0.1963 -0.1094
  627MPD2    C2 9337   2.402   0.158  14.450 -0.0374  0.1788  0.5790
  627MPD2    C3 9338   2.304   0.069  14.392 -0.5215  0.3213  0.1230
  627MPD2    C4 9339   2.178   0.118  14.360  0.2354  0.0195 -0.1346
  627MPD2    C5 9340   2.151   0.257  14.393  0.1789  0.4663  0.6714
  627MPD2     H 9341   2.496   0.114  14.481 -0.9650 -1.9958  0.2823
  627MPD2    H1 9342   2.097   0.060  14.318  0.2809  1.5484 -2.3075
  627MPD2    H2 9343   2.211   0.434  14.490  0.5952 -0.6667  1.3779
  627MPD2    H3 9344   2.053   0.293  14.364  0.2059  0.1090  0.1376
  627MPD2     N 9345   2.338   4.670  14.368 -0.1656  0.9081 -0.2757
  627MPD2    H5 9346   2.430   4.633  14.390 -0.6319 -0.5573 -0.8179
  627MPD2    N1 9347   2.462   0.366  14.560  0.6977  0.5293 -0.2236
  627MPD2    H7 9348   2.551   0.323  14.586 -0.1240 -1.9370 -1.5155
  628TMC3    C1 9349   2.580   0.528  14.648  0.3589 -0.4110 -0.1617
  628TMC3    C2 9350   2.686   0.450  14.601 -0.0053  0.0547  0.5430
  628TMC3    C3 9351   2.806   0.484  14.661  0.7794  0.3184  1.2264
  628TMC3    C4 9352   2.593   0.644  14.716  0.7155 -0.4803  0.3649
  628TMC3    C5 9353   2.716   0.672  14.763  0.7579 -0.0677 -0.8442
  628TMC3    C6 9354   2.819   0.586  14.748  0.1292 -0.1807  0.5820
  628TMC3     C 9355   2.453   0.493  14.599  0.2088 -0.1134 -0.3355
  628TMC3     O 9356   2.354   0.566  14.606  0.4184  0.3173 -0.3741
  628TMC3     H 9357   2.687   0.388  14.512 -0.3506  0.6925  0.0986
  628TMC3    H1 9358   2.510   0.712  14.732  0.2564 -0.2714 -2.8794
  628TMC3    H2 9359   2.914   0.623  14.784 -0.8144  0.9384  1.9086
  628TMC3    C7 9360   2.747   0.813  14.795  0.3337 -0.2620 -0.1825
  628TMC3    C8 9361   2.923   0.425  14.599 -0.4680 -0.1868 -0.7867
  628TMC3    O1 9362   2.832   0.833  14.881 -0.1161 -0.0504 -0.2399
  628TMC3    O2 9363   2.910   0.386  14.481  0.6451 -0.1554  0.0610
  629MPD2     C 9364   1.122   4.207  16.852  0.1869  0.4330 -0.1003
  629MPD2    C1 9365   1.140   4.163  16.723  0.3259 -0.1278  0.0793
  629MPD2    C2 9366   1.028   4.122  16.646  0.1781  0.5579  0.2916
  629MPD2    C3 9367   0.899   4.131  16.693  0.7449 -0.0782 -0.2553
  629MPD2    C4 9368   0.889   4.184  16.824 -0.3852  0.4738  0.6517
  629MPD2    C5 9369   0.995   4.221  16.899  0.3519 -0.5884  0.3711
  629MPD2     H 9370   1.036   4.095  16.542 -0.4183  0.6984  0.2138
  629MPD2    H1 9371   0.792   4.197  16.871 -0.7999  2.9431 -0.9066
  629MPD2    H2 9372   1.210   4.232  16.910 -0.4372 -0.0589  1.0606
  629MPD2    H3 9373   0.981   4.268  16.996 -1.5415  1.1877 -0.7607
  629MPD2     N 9374   0.799   4.081  16.605  0.6648  0.5374  0.8101
  629MPD2    H5 9375   0.821   4.041  16.514 -0.6430  2.1824 -0.2256
  629MPD2    N1 9376   1.269   4.145  16.677  0.2384  0.3108 -0.2185
  629MPD2    H7 9377   1.341   4.159  16.747 -0.1391  0.1095  0.2066
  630TMC3    C1 9378   1.428   4.055  16.530 -0.0852 -0.0007  0.5843
  630TMC3    C2 9379   1.501   4.097  16.425 -0.8951 -0.3188  0.5150
  630TMC3    C3 9380   1.638   4.083  16.440 -0.3861 -0.0757  0.5949
  630TMC3    C4 9381   1.484   3.983  16.633 -0.4257 -0.4162  0.3766
  630TMC3    C5 9382   1.618   3.942  16.627 -0.0276 -1.0660 -0.3194
  630TMC3    C6 9383   1.696   4.006  16.531  0.6460  0.7123  0.0569
  630TMC3     C 9384   1.296   4.115  16.541 -0.3346  0.0310  0.7305
  630TMC3     O 9385   1.234   4.139  16.435 -0.5246  0.4319 -0.5286
  630TMC3     H 9386   1.456   4.158  16.348  0.2618 -1.0847 -0.7551
  630TMC3    H1 9387   1.408   3.933  16.692 -0.5468 -1.3473 -0.5533
  630TMC3    H2 9388   1.804   4.003  16.538  0.6364  0.2066  0.0173
  630TMC3    C7 9389   1.672   3.892  16.752  0.1068  0.3003 -0.5213
  630TMC3    C8 9390   1.714   4.199  16.397  0.4674 -0.4841  0.3948
  630TMC3    O1 9391   1.592   3.872  16.842  0.0972 -0.0123  0.0333
  630TMC3    O2 9392   1.801   4.230  16.480 -0.1933  0.0208 -0.0361
  631MPD2     C 9393   4.204   3.681  15.900 -0.7564 -0.0308  0.0511
  631MPD2    C1 9394   4.277   3.728  15.792  0.2668  0.6210  0.7804
  631MPD2    C2 9395   4.380   3.652  15.744 -0.0513  0.1276  0.0456
  631MPD2    C3 9396   4.405   3.522  15.800  0.6495  0.0938 -0.5200
  631MPD2    C4 9397   4.325   3.475  15.905  0.0808  0.0630 -0.4449
  631MPD2    C5 9398   4.225   3.560  15.956  0.0202  0.0673 -0.4276
  631MPD2     H 9399   4.431   3.686  15.655  2.3488 -0.3220  1.2423
  631MPD2    H1 9400   4.336   3.375  15.945  1.3873  0.3468 -0.0804
  631MPD2    H2 9401   4.111   3.730  15.930 -0.1811  0.4692  1.0236
  631MPD2    H3 9402   4.153   3.517  16.025  0.6358 -0.2357  0.0307
  631MPD2     N 9403   4.522   3.453  15.752 -0.1805 -0.2060 -0.2915
  631MPD2    H5 9404   4.576   3.500  15.680  0.8225  1.7567  1.7505
  631MPD2    N1 9405   4.248   3.848  15.732 -0.2103 -0.4209 -0.2189
  631MPD2    H7 9406   4.296   3.874  15.646  0.6124  0.0963  0.3983
  632TMC3    C1 9407   4.161   4.066  15.695  0.1581 -0.2612 -0.3388
  632TMC3    C2 9408   4.051   4.146  15.724  0.3426  0.2408  0.6493
  632TMC3    C3 9409   4.015   4.241  15.629  0.2771  0.7508 -0.6303
  632TMC3    C4 9410   4.248   4.089  15.591 -0.3381 -0.2612 -0.3601
  632TMC3    C5 9411   4.208   4.188  15.507 -0.3428 -0.0380 -0.4996
  632TMC3    C6 9412   4.088   4.256  15.522  0.1427  0.6977  0.7286
  632TMC3     C 9413   4.166   3.946  15.777 -0.2853 -0.6568 -0.5695
  632TMC3     O 9414   4.101   3.959  15.878 -0.2869 -0.1648 -0.6012
  632TMC3     H 9415   4.005   4.146  15.822 -3.9557 -0.6880 -1.3848
  632TMC3    H1 9416   4.326   4.017  15.570 -1.2540 -1.0115 -1.1886
  632TMC3    H2 9417   4.059   4.316  15.436 -2.5217 -2.0869 -0.3300
  632TMC3    C7 9418   4.286   4.215  15.392  0.1778 -0.2956 -0.0897
  632TMC3    C8 9419   3.876   4.266  15.626  0.1262 -0.7506 -0.0173
  632TMC3    O1 9420   4.229   4.238  15.286 -0.2573  0.2813  0.0152
  632TMC3    O2 9421   3.811   4.200  15.706 -0.1770  0.5880 -0.2110
  633MPD2     C 9422   3.894   1.973  17.327 -0.8295 -0.7477  0.1304
  633MPD2    C1 9423   3.987   1.953  17.228  0.2366  0.0448  0.9263
  633MPD2    C2 9424   4.090   1.861  17.251  0.1297 -0.7378 -0.3951
  633MPD2    C3 9425   4.087   1.781  17.359 -1.2630  0.3557  0.0573
  633MPD2    C4 9426   3.996   1.804  17.463  0.0572  0.0361 -0.6049
  633MPD2    C5 9427   3.912   1.909  17.449 -0.7865 -0.5053 -0.1360
  633MPD2     H 9428   4.167   1.854  17.175  2.0652 -0.2068  1.5131
  633MPD2    H1 9429   3.992   1.745  17.554 -2.0728  0.2334 -0.5814
  633MPD2    H2 9430   3.814   2.045  17.315 -0.7479 -0.8363 -0.9482
  633MPD2    H3 9431   3.835   1.924  17.524  0.9428 -0.6630  1.6674
  633MPD2     N 9432   4.169   1.665  17.367  0.5787  0.0429  0.3061
  633MPD2    H5 9433   4.147   1.594  17.436 -3.3570  0.5140 -0.4695
  633MPD2    N1 9434   3.994   2.016  17.103  0.1599 -0.2609 -0.3060
  633MPD2    H7 9435   4.062   1.979  17.038  0.6636  1.5849 -0.8219
  634TMC3    C1 9436   3.947   2.169  16.942  0.2473 -0.1925  0.5397
  634TMC3    C2 9437   3.983   2.077  16.849  0.5037 -0.0847 -0.4838
  634TMC3    C3 9438   4.018   2.124  16.729  0.3927  1.1826  0.4060
  634TMC3    C4 9439   3.946   2.301  16.934 -0.5771  0.2328 -0.2615
  634TMC3    C5 9440   3.977   2.346  16.811  0.3278 -0.5554  0.6225
  634TMC3    C6 9441   4.009   2.259  16.709 -0.4060 -0.5279 -0.6802
  634TMC3     C 9442   3.927   2.125  17.077  0.8124 -0.7740 -0.0013
  634TMC3     O 9443   3.895   2.204  17.166  0.9150 -0.1257 -0.2009
  634TMC3     H 9444   3.967   1.970  16.866 -2.0123 -0.0554 -2.5655
  634TMC3    H1 9445   3.927   2.361  17.022  0.7726 -0.2222  0.3426
  634TMC3    H2 9446   4.032   2.291  16.608  0.6983  0.6030 -0.0697
  634TMC3    C7 9447   3.890   2.457  16.766  0.1754 -0.4580 -0.2719
  634TMC3    C8 9448   4.018   2.034  16.614  0.5179  0.4226 -0.4731
  634TMC3    O1 9449   3.838   2.426  16.659  0.5207 -0.3749  0.5525
  634TMC3    O2 9450   3.966   1.928  16.631 -0.0930 -0.1904 -0.1338
  635TMC3    C1 9451   4.377   2.828   0.203 -0.2000 -0.0175 -0.2807
  635TMC3    C2 9452   4.481   2.841   0.116 -0.5842 -0.0793  0.2333
  635TMC3    C3 9453   4.546   2.729   0.081  0.1645  0.4439  0.0610
  635TMC3    C4 9454   4.333   2.704   0.245  0.6246 -0.7184  0.3140
  635TMC3    C5 9455   4.404   2.593   0.210 -0.6678 -0.3279 -0.4907
  635TMC3    C6 9456   4.511   2.604   0.124 -1.0282 -0.5986  0.4720
  635TMC3     C 9457   4.300   2.948   0.233  0.0970  0.1522  0.4913
  635TMC3     O 9458   4.299   3.038   0.152  0.9658 -0.7683 -0.0049
  635TMC3     H 9459   4.511   2.943   0.096 -2.4880  1.0514  3.0280
  635TMC3    H1 9460   4.241   2.692   0.300  0.0528 -0.7871 -0.6463
  635TMC3    H2 9461   4.567   2.514   0.101  1.4427  1.1878 -0.4470
  635TMC3    C7 9462   4.334   2.471   0.217 -0.3319  0.1134 -0.4825
  635TMC3    C8 9463   4.635   2.743  17.715  1.1133  0.5475 -0.4431
  635TMC3    O1 9464   4.272   2.458   0.324  0.7265 -0.1858 -0.1622
  635TMC3    O2 9465   4.697   2.643  17.685  0.1685 -0.6274  0.2238
  636MPD2     C 9466   0.746   2.369  16.248 -0.3902 -0.6557  0.3337
  636MPD2    C1 9467   0.835   2.424  16.338 -0.5747 -0.4038 -0.1951
  636MPD2    C2 9468   0.969   2.413  16.315 -0.8972  0.0445 -0.2582
  636MPD2    C3 9469   1.010   2.328  16.214 -0.4567 -0.9622 -0.7709
  636MPD2    C4 9470   0.923   2.274  16.127 -0.2809 -0.7876 -0.0119
  636MPD2    C5 9471   0.787   2.301  16.139 -0.0611 -0.2294 -0.5554
  636MPD2     H 9472   1.039   2.457  16.386 -1.1536 -0.4449  0.2985
  636MPD2    H1 9473   0.959   2.210  16.048 -0.9761 -0.7482 -0.3617
  636MPD2    H2 9474   0.640   2.393  16.255 -0.9503 -2.1693 -3.0391
  636MPD2    H3 9475   0.713   2.260  16.071 -0.8564 -1.6913  1.2122
  636MPD2     N 9476   1.151   2.291  16.219 -0.6360  0.0180 -0.2474
  636MPD2    H5 9477   1.198   2.353  16.284 -1.1470  1.1777 -0.9806
  636MPD2    N1 9478   0.793   2.503  16.442 -0.3801 -0.2663  1.1568
  636MPD2    H7 9479   0.866   2.537  16.504  1.8589 -0.4707 -1.3607
  637TMC3    C1 9480   1.353   2.217  16.187  0.0778 -0.5341 -0.4382
  637TMC3    C2 9481   1.368   2.257  16.319  0.6859  0.2690 -0.1925
  637TMC3    C3 9482   1.469   2.344  16.349 -0.4525  0.4227 -0.4219
  637TMC3    C4 9483   1.435   2.267  16.089 -0.0624 -0.2139  0.6663
  637TMC3    C5 9484   1.525   2.362  16.117  0.3806  0.4923  0.5399
  637TMC3    C6 9485   1.558   2.386  16.250  0.7421 -0.2249  0.1892
  637TMC3     C 9486   1.220   2.208  16.137  0.4815 -0.0311 -0.7161
  637TMC3     O 9487   1.200   2.161  16.028  0.4746  0.0948  0.3211
  637TMC3     H 9488   1.304   2.217  16.397 -0.8281  0.1799 -1.4826
  637TMC3    H1 9489   1.416   2.242  15.985  1.4241  0.9844  0.1010
  637TMC3    H2 9490   1.647   2.438  16.283  0.8802  1.1696 -2.4394
  637TMC3    C7 9491   1.491   2.478  16.033  0.2420 -0.1583 -0.3553
  637TMC3    C8 9492   1.409   2.454  16.424  0.1110 -0.1431 -0.5425
  637TMC3    O1 9493   1.384   2.462  15.977 -0.6763  0.4274 -0.1609
  637TMC3    O2 9494   1.289   2.453  16.446  0.3469  0.1701  0.2752
  638MPD2     C 9495   0.096   0.916  15.316 -0.1420  0.3664  0.3630
  638MPD2    C1 9496   0.103   0.824  15.214  0.0912 -0.2792  0.4518
  638MPD2    C2 9497   0.105   0.688  15.243 -0.3821 -0.1588  0.6580
  638MPD2    C3 9498   0.088   0.640  15.374 -0.4218 -0.0054 -0.5010
  638MPD2    C4 9499   0.083   0.736  15.471 -0.0037 -0.6639  0.3928
  638MPD2    C5 9500   0.086   0.873  15.445 -0.2121  0.2199  0.4419
  638MPD2     H 9501   0.136   0.620  15.164  2.1764  2.1461 -0.3246
  638MPD2    H1 9502   0.068   0.707  15.574 -0.5451 -0.5176  0.3563
  638MPD2    H2 9503   0.103   1.022  15.296 -2.0831  0.3689 -0.2921
  638MPD2    H3 9504   0.094   0.949  15.522  0.0764 -1.0376  1.6581
  638MPD2     N 9505   0.075   0.500  15.389 -0.0311 -0.3004 -0.4630
  638MPD2    H5 9506   0.055   0.438  15.311  0.8504 -3.0434  1.4936
  638MPD2    N1 9507   0.107   0.869  15.079 -0.1866 -0.0451 -0.3529
  638MPD2    H7 9508   0.123   0.967  15.056  0.1037  0.0361  0.1815
  639TMC3    C1 9509   0.061   0.296  15.478  0.3501  0.2665  0.5074
  639TMC3    C2 9510   4.699   0.275  15.380 -0.2801 -0.1138  1.4973
  639TMC3    C3 9511   4.730   0.188  15.276  0.3803 -0.4872 -0.1607
  639TMC3    C4 9512   0.182   0.232  15.460 -0.2204 -0.3092  0.4120
  639TMC3    C5 9513   0.202   0.151  15.353 -0.2087 -0.6975  0.5485
  639TMC3    C6 9514   0.114   0.133  15.253 -0.2885  0.2006  0.4429
  639TMC3     C 9515   0.070   0.432  15.508 -0.0178 -0.0328  0.0567
  639TMC3     O 9516   0.112   0.464  15.615  0.5827  0.3348  0.6045
  639TMC3     H 9517   4.601   0.317  15.402 -0.4407  0.5457 -0.5295
  639TMC3    H1 9518   0.260   0.246  15.535  0.3294  1.3358 -0.4607
  639TMC3    H2 9519   0.129   0.072  15.165 -3.3466  1.8552 -1.2242
  639TMC3    C7 9520   0.339   0.107  15.341  0.5210 -0.1139  0.0939
  639TMC3    C8 9521   4.625   0.157  15.180 -0.5120 -0.7057 -0.6724
  639TMC3    O1 9522   0.406   0.082  15.438 -0.2830  0.0398 -0.3741
  639TMC3    O2 9523   4.666   0.145  15.062 -0.2236  0.0205 -0.5674
  640MPD2     C 9524   0.217   0.746   9.602 -0.6339  0.3453 -0.2350
  640MPD2    C1 9525   0.337   0.687   9.650  0.2059  0.7519  0.0500
  640MPD2    C2 9526   0.369   0.731   9.776 -0.5798  0.2464  0.1532
  640MPD2    C3 9527   0.288   0.810   9.856  0.1119 -0.9413  0.3640
  640MPD2    C4 9528   0.170   0.847   9.803  0.2249  0.3087 -0.2550
  640MPD2    C5 9529   0.139   0.829   9.676 -0.0206 -0.0988  0.1976
  640MPD2     H 9530   0.456   0.690   9.826 -0.5380  1.2006  0.8759
  640MPD2    H1 9531   0.096   0.904   9.857  0.6098  0.3814  0.1940
  640MPD2    H2 9532   0.188   0.725   9.500  0.7812 -1.7479 -0.2158
  640MPD2    H3 9533   0.052   0.876   9.631  0.9554 -0.5358 -2.1355
  640MPD2     N 9534   0.306   0.822   9.992 -0.0399 -0.2537  0.0279
  640MPD2    H5 9535   0.221   0.842  10.044  1.5106  1.5769  1.8483
  640MPD2    N1 9536   0.412   0.593   9.569 -0.2286  0.1431 -0.3916
  640MPD2    H7 9537   0.378   0.576   9.475  2.1256  0.1319 -1.2493
  641TMC3    C1 9538   0.546   0.420   9.493  0.5804 -0.0670 -0.1852
  641TMC3    C2 9539   0.577   0.291   9.534 -0.1855 -0.0915  0.4283
  641TMC3    C3 9540   0.546   0.177   9.453  0.2261  0.5039 -0.1864
  641TMC3    C4 9541   0.475   0.436   9.377 -0.2689 -0.4787  0.3323
  641TMC3    C5 9542   0.445   0.323   9.303 -0.1389 -0.5253  0.3706
  641TMC3    C6 9543   0.481   0.198   9.334 -0.2857  0.3834  0.4051
  641TMC3     C 9544   0.520   0.518   9.602  0.6346 -0.1574  0.0895
  641TMC3     O 9545   0.589   0.514   9.703  0.0759  0.4085  0.1244
  641TMC3     H 9546   0.609   0.277   9.637  1.3994 -2.3377 -0.3807
  641TMC3    H1 9547   0.467   0.536   9.337  0.9957 -0.8235 -0.8122
  641TMC3    H2 9548   0.454   0.112   9.273  1.2285  0.2799 -0.1116
  641TMC3    C7 9549   0.396   0.342   9.166 -0.3335 -0.4902  0.1490
  641TMC3    C8 9550   0.528   0.045   9.516  0.1855 -0.0853  0.3088
  641TMC3    O1 9551   0.445   0.280   9.077 -0.7048 -1.3686 -0.2868
  641TMC3    O2 9552   0.428   4.717   9.480 -0.0942 -0.1416 -0.6216
  642TMC3    C1 9553   1.415   0.812  12.429  0.3307  0.9071  0.0304
  642TMC3    C2 9554   1.545   0.798  12.389  0.2379 -0.7535  0.6548
  642TMC3    C3 9555   1.576   0.685  12.320  0.4388  0.1222 -0.3660
  642TMC3    C4 9556   1.320   0.718  12.409  0.3903  0.0943 -0.0587
  642TMC3    C5 9557   1.359   0.605  12.346  0.5611 -1.0526  0.4985
  642TMC3    C6 9558   1.484   0.588  12.290 -0.1705  0.4388 -0.3300
  642TMC3     C 9559   1.380   0.935  12.491  0.3910  0.0719 -0.2260
  642TMC3     O 9560   1.473   1.021  12.498  0.2211  0.0904 -0.0376
  642TMC3     H 9561   1.611   0.884  12.381 -1.2600  0.5082  1.8447
  642TMC3    H1 9562   1.220   0.717  12.450  1.6438 -1.9903  2.8934
  642TMC3    H2 9563   1.520   0.495  12.249 -2.5789 -0.8967  0.6099
  642TMC3    C7 9564   1.287   0.486  12.390 -0.7618  0.1994 -0.0325
  642TMC3    C8 9565   1.716   0.666  12.284 -0.2754 -0.3621  0.1632
  642TMC3    O1 9566   1.222   0.500  12.493 -0.5045  0.6088 -0.1954
  642TMC3    O2 9567   1.741   0.580  12.203  0.1779  0.6045 -0.6117
  643TMC3    C1 9568   1.036   4.543   0.414  0.1239 -0.1228  0.1102
  643TMC3    C2 9569   0.905   4.560   0.387  0.4750 -0.2455 -0.1368
  643TMC3    C3 9570   0.873   4.588   0.255 -0.6536  0.4571 -0.6253
  643TMC3    C4 9571   1.134   4.531   0.311  0.5376  0.2742  0.2431
  643TMC3    C5 9572   1.093   4.547   0.183  0.6534 -0.3151  0.9328
  643TMC3    C6 9573   0.966   4.578   0.155  0.1919  0.0617  0.2990
  643TMC3     C 9574   1.071   4.513   0.552 -0.1747  0.7043  0.3722
  643TMC3     O 9575   0.986   4.523   0.638 -0.3384  0.3263  0.1182
  643TMC3     H 9576   0.829   4.553   0.464  0.4454  1.5116  0.0002
  643TMC3    H1 9577   1.237   4.499   0.316  0.3355 -0.1452  1.7467
  643TMC3    H2 9578   0.942   4.595   0.050  1.3066 -0.7066 -0.0829
  643TMC3    C7 9579   1.190   4.598   0.091  0.2892 -0.3238 -0.3891
  643TMC3    C8 9580   0.793   4.714   0.238 -0.1380 -0.3711  0.0229
  643TMC3    O1 9581   1.164   4.702   0.035 -0.4384  0.6202 -0.2074
  643TMC3    O2 9582   0.720   0.013   0.333  0.4980  0.2897 -0.1094
  644MPD2     C 9583   0.474   0.735   9.050  0.3856  0.1675 -1.1530
  644MPD2    C1 9584   0.567   0.697   9.146  0.6740  0.5100  0.5035
  644MPD2    C2 9585   0.574   0.779   9.263 -0.1615 -0.4634 -0.2922
  644MPD2    C3 9586   0.493   0.895   9.275 -0.7261 -0.5969  0.0722
  644MPD2    C4 9587   0.403   0.926   9.177 -0.0816  0.3379 -0.0338
  644MPD2    C5 9588   0.396   0.847   9.066  0.5184  0.3980  0.0094
  644MPD2     H 9589   0.642   0.756   9.344 -0.4774 -1.4006 -0.2995
  644MPD2    H1 9590   0.347   1.019   9.181  3.5403  2.5175  0.6178
  644MPD2    H2 9591   0.484   0.683   8.956  1.6193  2.0403 -2.0618
  644MPD2    H3 9592   0.329   0.864   8.983  2.6695  0.3039 -1.7473
  644MPD2     N 9593   0.510   0.975   9.393 -0.7554  0.2270 -0.8150
  644MPD2    H5 9594   0.583   0.950   9.459 -2.5275  0.6015  1.2543
  644MPD2    N1 9595   0.666   0.604   9.107  0.4362 -0.4219  0.0378
  644MPD2    H7 9596   0.672   0.580   9.009  0.9358  1.5281 -0.3993
  645TMC3    C1 9597   0.467   1.134   9.561 -0.2107  0.6106 -0.7242
  645TMC3    C2 9598   0.599   1.142   9.587 -0.3171  0.8379  0.2168
  645TMC3    C3 9599   0.633   1.170   9.713 -0.6162 -0.9408 -0.0619
  645TMC3    C4 9600   0.376   1.141   9.662  0.7407  0.5779 -0.9142
  645TMC3    C5 9601   0.417   1.167   9.789  0.3030  0.6460  0.2924
  645TMC3    C6 9602   0.547   1.181   9.821 -0.1887 -0.0551  0.1920
  645TMC3     C 9603   0.437   1.092   9.427  0.2750  0.6180  0.5295
  645TMC3     O 9604   0.330   1.136   9.382 -0.0813  0.4526 -0.1565
  645TMC3     H 9605   0.661   1.144   9.497  1.7747 -0.4123  1.6384
  645TMC3    H1 9606   0.272   1.114   9.644  1.6635 -2.9821 -0.7026
  645TMC3    H2 9607   0.583   1.217   9.916 -1.3388  1.4689  0.0515
  645TMC3    C7 9608   0.317   1.168   9.897 -0.1599 -0.1250 -0.0164
  645TMC3    C8 9609   0.775   1.201   9.728 -0.5133  0.3484  0.3097
  645TMC3    O1 9610   0.201   1.195   9.872 -0.3850 -0.3490 -0.0527
  645TMC3    O2 9611   0.834   1.196   9.619 -0.5547  0.0541 -0.5716
  646MPD2     C 9612   0.352   4.207  14.519 -0.9427 -0.3720 -0.0811
  646MPD2    C1 9613   0.286   4.210  14.643  0.7172  0.0274 -0.0320
  646MPD2    C2 9614   0.154   4.267  14.646  0.0597  0.4025  0.1648
  646MPD2    C3 9615   0.088   4.316  14.536  0.0270 -0.2342 -0.0559
  646MPD2    C4 9616   0.160   4.315  14.416  0.3491 -0.4754 -0.5420
  646MPD2    C5 9617   0.282   4.258  14.413 -0.0192 -0.6927  0.1203
  646MPD2     H 9618   0.115   4.280  14.746 -1.1859 -4.5416  0.3351
  646MPD2    H1 9619   0.115   4.347  14.322  2.9893  0.5242 -1.4729
  646MPD2    H2 9620   0.447   4.157  14.505  0.3696  1.5507  1.8844
  646MPD2    H3 9621   0.321   4.239  14.313 -1.9781 -1.9917 -0.4013
  646MPD2     N 9622   4.686   4.344  14.527 -0.2681 -0.7854  0.2625
  646MPD2    H5 9623   4.656   4.384  14.439 -0.8991  1.7495  1.6076
  646MPD2    N1 9624   0.356   4.152  14.755 -0.2414  0.1352 -0.9711
  646MPD2    H7 9625   0.445   4.117  14.722  0.1540  1.9412 -1.8547
  647TMC3    C1 9626   0.451   4.136  14.968  0.2665  0.3904 -0.3866
  647TMC3    C2 9627   0.492   4.215  15.065 -0.5748  0.4345 -0.4276
  647TMC3    C3 9628   0.615   4.195  15.114  0.7937 -0.4136  0.4190
  647TMC3    C4 9629   0.526   4.027  14.920  0.1302  0.8835 -0.2042
  647TMC3    C5 9630   0.660   4.024  14.961 -0.5596 -0.4336  0.6581
  647TMC3    C6 9631   0.701   4.106  15.062 -0.1323  0.1493 -0.0839
  647TMC3     C 9632   0.333   4.174  14.891 -0.8983  0.1074 -0.4209
  647TMC3     O 9633   0.248   4.240  14.947 -0.0055 -0.1793  0.0694
  647TMC3     H 9634   0.432   4.300  15.095 -0.6063  0.4653 -0.5804
  647TMC3    H1 9635   0.496   3.945  14.855  2.7823 -0.9783  0.9604
  647TMC3    H2 9636   0.803   4.091  15.095 -0.4269 -1.0815  0.2721
  647TMC3    C7 9637   0.707   3.888  14.987  0.0755 -0.2132  0.6166
  647TMC3    C8 9638   0.613   4.168  15.257 -0.1259  0.3370 -0.0046
  647TMC3    O1 9639   0.830   3.877  14.995  0.5030  0.5079 -0.0221
  647TMC3    O2 9640   0.714   4.110  15.295  0.0560 -0.4055  0.3779
  648TMC3    C1 9641   4.539   2.001  16.182 -0.4766  0.4730 -1.1326
  648TMC3    C2 9642   4.573   1.875  16.146  0.3934 -0.6599 -0.2035
  648TMC3    C3 9643   4.561   1.851  16.012  0.0470 -0.1320  1.0548
  648TMC3    C4 9644   4.489   2.100  16.102 -0.2475  0.1792 -0.3375
  648TMC3    C5 9645   4.480   2.064  15.966 -0.2055  0.6644  0.3039
  648TMC3    C6 9646   4.515   1.942  15.924  0.8789  0.1140  0.5133
  648TMC3     C 9647   4.490   2.016  16.315 -0.1369  0.8361 -0.3177
  648TMC3     O 9648   4.473   2.129  16.353 -0.1291 -0.7148  0.1926
  648TMC3     H 9649   4.623   1.809  16.217  2.5644  0.3104 -0.8265
  648TMC3    H1 9650   4.476   2.200  16.142  1.6776  1.0486 -1.8829
  648TMC3    H2 9651   4.509   1.925  15.817  1.3743  1.5502  0.2533
  648TMC3    C7 9652   4.401   2.154  15.877  0.5716  0.6844 -0.1398
  648TMC3    C8 9653   4.616   1.727  15.961 -0.3728 -0.1336 -0.3322
  648TMC3    O1 9654   4.393   2.124  15.756  0.6242 -0.3033  0.1401
  648TMC3    O2 9655   4.663   1.732  15.842  0.4547  0.0194  0.0523
  649TMC3    C1 9656   3.487   3.028  13.149 -0.4793 -0.2916  0.6230
  649TMC3    C2 9657   3.606   3.072  13.196 -0.3497 -0.2078 -0.7564
  649TMC3    C3 9658   3.623   3.055  13.331  0.0860 -0.0984  0.5188
  649TMC3    C4 9659   3.393   2.969  13.223 -0.2711  0.6385 -0.0781
  649TMC3    C5 9660   3.415   2.951  13.354  0.8747 -0.5557 -1.1655
  649TMC3    C6 9661   3.528   3.002  13.417  0.3088 -0.5503 -0.1557
  649TMC3     C 9662   3.451   3.059  13.015  0.5419  0.5681  0.5501
  649TMC3     O 9663   3.336   3.053  12.986  0.4307  0.0111 -0.8116
  649TMC3     H 9664   3.649   3.160  13.149 -0.4719 -1.0312 -2.4060
  649TMC3    H1 9665   3.302   2.935  13.174 -0.1162  2.0653 -1.3546
  649TMC3    H2 9666   3.524   3.010  13.525  3.6194 -1.4726  0.0494
  649TMC3    C7 9667   3.328   2.855  13.417 -0.5553  0.1798 -0.3694
  649TMC3    C8 9668   3.757   3.046  13.387  0.0765  0.9860  0.2299
  649TMC3    O1 9669   3.216   2.854  13.374 -0.0017  0.2558  0.0828
  649TMC3    O2 9670   3.765   3.033  13.511 -0.4233  0.6773  0.4777
  650TMC3    C1 9671   0.811   4.611  13.101 -0.0732 -0.9168 -0.5946
  650TMC3    C2 9672   0.739   4.729  13.119  0.9844  0.2063 -0.1485
  650TMC3    C3 9673   0.663   0.035  13.017 -0.4239  0.2464  0.2919
  650TMC3    C4 9674   0.803   4.545  12.981  0.1801 -0.1176  0.2192
  650TMC3    C5 9675   0.740   4.604  12.874  1.0280  0.1651 -0.7565
  650TMC3    C6 9676   0.675   4.719  12.892 -0.1078  0.0124 -0.6674
  650TMC3     C 9677   0.927   4.589  13.191  0.4605 -0.2802  0.4286
  650TMC3     O 9678   0.951   4.667  13.281  0.2439  0.0891  0.0735
  650TMC3     H 9679   0.748   0.046  13.213 -0.9730  2.1232 -1.0607
  650TMC3    H1 9680   0.860   4.455  12.962 -0.0230 -0.4466  1.1907
  650TMC3    H2 9681   0.633   0.038  12.809  0.7636  1.6343 -0.0321
  650TMC3    C7 9682   0.766   4.549  12.743  0.1043  1.2398  0.2179
  650TMC3    C8 9683   0.620   0.178  13.023 -0.0216  0.3675 -0.0199
  650TMC3    O1 9684   0.806   4.434  12.732  0.0143 -1.0871 -0.0827
  650TMC3    O2 9685   0.626   0.231  12.912  0.0985 -0.2269  0.0017
  651MPD2     C 9686   4.690   1.888  10.723 -0.3572 -0.5261 -0.3584
  651MPD2    C1 9687   4.660   2.023  10.714 -0.0530 -0.1049  0.5251
  651MPD2    C2 9688   0.012   2.108  10.648 -0.4561 -0.8973  0.3110
  651MPD2    C3 9689   0.130   2.070  10.593 -0.2648  0.1586 -0.7402
  651MPD2    C4 9690   0.158   1.931  10.595 -0.2707 -0.5886 -0.2767
  651MPD2    C5 9691   0.069   1.845  10.655  0.2978 -0.2239  0.0800
  651MPD2     H 9692   4.732   2.215  10.647 -0.2136 -0.8708 -1.1798
  651MPD2    H1 9693   0.240   1.886  10.541 -0.1250  2.4812 -2.6660
  651MPD2    H2 9694   4.639   1.806  10.772  0.0703 -1.3851 -1.3507
  651MPD2    H3 9695   0.099   1.741  10.658  1.5486  0.1729  1.1620
  651MPD2     N 9696   0.214   2.165  10.535  0.2141 -0.0847  0.3380
  651MPD2    H5 9697   0.179   2.259  10.517 -1.4685 -0.8466 -0.3970
  651MPD2    N1 9698   4.558   2.081  10.789 -0.5022 -0.2395  0.0449
  651MPD2    H7 9699   4.552   2.182  10.798  0.1631 -0.3079  1.3091
  652TMC3    C1 9700   0.580   2.381  10.489  0.3282 -1.7933  0.0387
  652TMC3    C2 9701   0.524   2.254  10.483  0.5939 -0.4528 -0.2716
  652TMC3    C3 9702   0.398   2.248  10.432  0.1174 -0.6183 -0.3448
  652TMC3    C4 9703   0.521   2.496  10.443 -0.3129 -0.2801 -0.4383
  652TMC3    C5 9704   0.391   2.481  10.398 -0.1128  0.1571  0.1467
  652TMC3    C6 9705   0.330   2.362  10.387 -0.7029 -0.2195 -0.0460
  652TMC3     C 9706   0.679   2.401  10.595 -0.4637  0.2417 -0.4788
  652TMC3     O 9707   0.676   2.326  10.693 -0.2383  0.8130 -0.4360
  652TMC3     H 9708   0.572   2.166  10.523  0.2581 -1.3666 -1.8706
  652TMC3    H1 9709   0.557   2.597  10.457  1.5106 -1.0557  0.3630
  652TMC3    H2 9710   0.234   2.351  10.339 -1.8848  0.4591  2.1451
  652TMC3    C7 9711   0.327   2.599  10.340  0.3204 -0.8427  0.1520
  652TMC3    C8 9712   0.336   2.131  10.483  0.1893  0.2365  0.5356
  652TMC3    O1 9713   0.404   2.693  10.305  0.3324  0.5412  0.1298
  652TMC3    O2 9714   0.401   2.031  10.475 -0.0091 -0.0833  0.5938
  653MPD2     C 9715   3.768   1.963   0.292  0.5196 -0.3486  1.0645
  653MPD2    C1 9716   3.766   2.063   0.201  0.3041  1.1649 -0.3896
  653MPD2    C2 9717   3.712   2.049   0.080 -0.5834 -0.3243 -0.2149
  653MPD2    C3 9718   3.647   1.935   0.041 -0.3767  0.0004  0.3541
  653MPD2    C4 9719   3.642   1.830   0.134  0.4995  0.1769  0.3762
  653MPD2    C5 9720   3.705   1.846   0.256  0.6053  0.3206 -0.1239
  653MPD2     H 9721   3.725   2.127   0.007  3.5941 -0.5215  0.3345
  653MPD2    H1 9722   3.599   1.735   0.105  0.8018  0.4131 -0.8535
  653MPD2    H2 9723   3.817   1.969   0.388 -1.1236  2.6072  1.7108
  653MPD2    H3 9724   3.702   1.763   0.325  2.3560  0.0102 -0.4387
  653MPD2     N 9725   3.602   1.926  17.652 -0.1483  0.0558  1.0721
  653MPD2    H5 9726   3.600   2.010  17.595 -0.6056 -0.4479  0.3409
  653MPD2    N1 9727   3.811   2.199   0.232 -0.3693 -0.3224 -0.5004
  653MPD2    H7 9728   3.827   2.254   0.148  1.6098  1.1806  0.8744
  654TMC3    C1 9729   3.479   1.823  17.473  0.0586 -0.4138  0.0109
  654TMC3    C2 9730   3.406   1.936  17.458  0.3451  0.1729  0.4215
  654TMC3    C3 9731   3.326   1.946  17.347  0.2924 -0.0101  0.3219
  654TMC3    C4 9732   3.478   1.714  17.388  0.9880 -0.5403  0.3006
  654TMC3    C5 9733   3.395   1.724  17.279  0.2610 -0.1472 -0.6099
  654TMC3    C6 9734   3.327   1.839  17.259 -0.2677  0.2840 -0.2185
  654TMC3     C 9735   3.553   1.808  17.591  0.3031  0.0708  0.5919
  654TMC3     O 9736   3.564   1.691  17.628 -0.0344  0.0646 -0.0158
  654TMC3     H 9737   3.402   2.009  17.539  0.5091 -1.0400  1.5316
  654TMC3    H1 9738   3.546   1.631  17.405  0.3654 -1.1624 -0.2118
  654TMC3    H2 9739   3.247   1.842  17.186  0.8268 -0.5936 -1.4445
  654TMC3    C7 9740   3.384   1.622  17.180  0.4910 -0.3439 -0.2821
  654TMC3    C8 9741   3.238   2.061  17.325 -0.5258  0.2610 -0.2877
  654TMC3    O1 9742   3.314   1.649  17.082  0.5313 -0.0015 -0.0803
  654TMC3    O2 9743   3.170   2.061  17.220  0.0605 -0.0775 -0.1669
  655MPD2     C 9744   0.106   2.054  15.865  0.2510 -0.0055  0.1749
  655MPD2    C1 9745   0.094   2.156  15.783 -0.0106 -0.8284  0.2336
  655MPD2    C2 9746   0.116   2.142  15.653 -0.1143 -0.2590  0.1558
  655MPD2    C3 9747   0.164   2.022  15.600 -0.8309  0.7516  0.1769
  655MPD2    C4 9748   0.186   1.918  15.681 -0.0898  0.4951 -0.4772
  655MPD2    C5 9749   0.151   1.934  15.813  0.0566  0.3796 -0.1679
  655MPD2     H 9750   0.099   2.229  15.590  0.1451  0.1456  0.6438
  655MPD2    H1 9751   0.225   1.820  15.655  1.9326  1.1342  0.1547
  655MPD2    H2 9752   0.087   2.067  15.971 -1.8559 -3.1108  0.1686
  655MPD2    H3 9753   0.164   1.856  15.886  0.7705  0.5089 -0.1584
  655MPD2     N 9754   0.180   2.003  15.462 -0.2124  0.5881 -0.1029
  655MPD2    H5 9755   0.195   1.907  15.432  1.8675  0.5017  1.1603
  655MPD2    N1 9756   0.050   2.281  15.830 -0.6866 -0.1973  0.0006
  655MPD2    H7 9757   0.033   2.357  15.765  1.3597  0.2792  0.0167
  656TMC3    C1 9758   4.716   2.453  15.986 -0.3067 -0.2979  0.4865
  656TMC3    C2 9759   4.649   2.455  16.109 -0.2464  0.6311  0.5278
  656TMC3    C3 9760   4.543   2.545  16.114  0.6101  0.2142  0.6401
  656TMC3    C4 9761   4.683   2.525  15.875  0.0556  0.3537 -0.7330
  656TMC3    C5 9762   4.580   2.612  15.884 -0.6171  0.3194  0.7469
  656TMC3    C6 9763   4.514   2.627  16.003  0.2295  0.0101  0.4969
  656TMC3     C 9764   0.047   2.327  15.960 -0.2460  0.6139  0.1120
  656TMC3     O 9765   0.093   2.276  16.063  0.8246 -0.4062  0.2912
  656TMC3     H 9766   4.673   2.391  16.192  0.9664  0.7945  0.3039
  656TMC3    H1 9767   0.019   2.544  15.797  1.6591  0.2216  0.7266
  656TMC3    H2 9768   4.431   2.696  16.014 -0.3614 -0.8731  1.5398
  656TMC3    C7 9769   4.540   2.686  15.761 -0.4488 -0.0102  0.0021
  656TMC3    C8 9770   4.436   2.515  16.200 -0.4078 -0.1595 -0.3767
  656TMC3    O1 9771   4.620   2.697  15.670  0.4826  0.2094  0.0881
  656TMC3    O2 9772   4.401   2.401  16.220 -0.7089  0.4413  0.6054
  657TMC3    C1 9773   3.766   1.283  15.367 -0.3763 -0.0231  0.0558
  657TMC3    C2 9774   3.746   1.259  15.503  0.4799  1.3836  0.2352
  657TMC3    C3 9775   3.656   1.346  15.568 -0.3381  0.2028 -0.5458
  657TMC3    C4 9776   3.698   1.375  15.290  0.3265  0.1459 -0.6853
  657TMC3    C5 9777   3.616   1.453  15.363  0.6477 -0.4320 -0.1594
  657TMC3    C6 9778   3.592   1.447  15.496 -0.3041 -0.0726 -0.6004
  657TMC3     C 9779   3.803   1.165  15.296 -0.6790  0.2779  0.2591
  657TMC3     O 9780   3.759   1.158  15.182 -0.4327  0.0528 -0.5899
  657TMC3     H 9781   3.794   1.180  15.559  0.6875 -0.3130 -2.3495
  657TMC3    H1 9782   3.717   1.394  15.185  1.4748 -0.7717 -0.6304
  657TMC3    H2 9783   3.511   1.503  15.540  0.2161 -0.2123  0.5414
  657TMC3    C7 9784   3.535   1.552  15.298 -0.4210  0.4107  0.2899
  657TMC3    C8 9785   3.619   1.309  15.703 -0.1353  0.1356 -0.2713
  657TMC3    O1 9786   3.494   1.648  15.358  0.2699  0.0827 -0.2500
  657TMC3    O2 9787   3.623   1.193  15.740  0.1563 -0.2423 -0.0633
  658MPD2     C 9788   0.443   2.381  14.843 -0.0110 -0.7092 -0.5883
  658MPD2    C1 9789   0.332   2.317  14.805  0.1137 -0.4779 -0.2249
  658MPD2    C2 9790   0.281   2.342  14.685  0.6123 -0.8227  0.7878
  658MPD2    C3 9791   0.348   2.429  14.603  0.1079  0.1139  0.3660
  658MPD2    C4 9792   0.457   2.503  14.632 -0.1171  0.0783  0.1337
  658MPD2    C5 9793   0.501   2.478  14.761  0.0980 -0.4172 -0.1440
  658MPD2     H 9794   0.203   2.279  14.642 -1.6079  1.4205  1.5208
  658MPD2    H1 9795   0.506   2.578  14.570  1.5079 -0.9015  0.2320
  658MPD2    H2 9796   0.485   2.373  14.943  1.5724 -0.1863 -1.2162
  658MPD2    H3 9797   0.582   2.541  14.795 -0.8047  1.1014 -0.8026
  658MPD2     N 9798   0.290   2.432  14.476 -0.5827 -0.0862  0.5526
  658MPD2    H5 9799   0.197   2.393  14.469  0.3108 -1.9596 -0.8358
  658MPD2    N1 9800   0.283   2.231  14.900  0.2107  0.4699 -0.1548
  658MPD2    H7 9801   0.326   2.242  14.991 -0.4113  0.7156  0.1121
  659TMC3    C1 9802   0.136   2.082  15.004 -1.1882 -0.4189 -0.3715
  659TMC3    C2 9803   0.171   2.127  15.127  0.3816  0.2061 -0.4544
  659TMC3    C3 9804   0.168   2.047  15.232  0.1808 -0.3048  0.1299
  659TMC3    C4 9805   0.096   1.953  14.980 -0.3557  0.2465 -0.1904
  659TMC3    C5 9806   0.090   1.871  15.093  0.5452  0.1470  1.2455
  659TMC3    C6 9807   0.122   1.919  15.217 -0.1259  0.5341 -0.4924
  659TMC3     C 9808   0.170   2.157  14.883 -0.0587 -0.5064  0.5251
  659TMC3     O 9809   0.110   2.127  14.782  0.4432 -0.1395  0.2502
  659TMC3     H 9810   0.192   2.233  15.142 -0.1976 -0.0713  2.1955
  659TMC3    H1 9811   0.057   1.920  14.884 -0.6140 -1.1281  0.3880
  659TMC3    H2 9812   0.100   1.850  15.297  2.3138 -0.1557 -0.4315
  659TMC3    C7 9813   4.709   1.798  15.103  0.5768 -0.4875  0.0718
  659TMC3    C8 9814   0.190   2.098  15.365  0.2168  0.2455 -0.1606
  659TMC3    O1 9815   4.644   1.813  15.209  0.2402 -0.3045 -0.0663
  659TMC3    O2 9816   0.197   2.221  15.375 -0.2829 -0.4541 -0.6974
  660MPD2     C 9817   2.521   1.280  12.889  0.1151 -0.0561 -0.0809
  660MPD2    C1 9818   2.453   1.210  12.788 -0.4711  0.1333  0.1748
  660MPD2    C2 9819   2.419   1.079  12.819  0.4296  0.0017  0.3292
  660MPD2    C3 9820   2.456   1.015  12.936 -0.4882 -0.3637 -0.3339
  660MPD2    C4 9821   2.529   1.086  13.030  0.0288  0.1092  0.1904
  660MPD2    C5 9822   2.556   1.214  13.006  0.1416  0.3827 -0.4370
  660MPD2     H 9823   2.350   1.025  12.755  2.8932 -3.2086  0.4137
  660MPD2    H1 9824   2.562   1.045  13.125  1.6632  0.7475 -0.1024
  660MPD2    H2 9825   2.559   1.381  12.877 -0.5058  0.0432 -1.1884
  660MPD2    H3 9826   2.617   1.265  13.079  0.6803 -2.9726  1.4514
  660MPD2     N 9827   2.413   0.883  12.974  0.6141 -0.4115  0.0089
  660MPD2    H5 9828   2.424   0.855  13.070  0.0901 -2.8174 -0.6353
  660MPD2    N1 9829   2.403   1.284  12.681 -0.4811  0.4141  0.7058
  660MPD2    H7 9830   2.404   1.385  12.692  1.3228  0.4317  0.3363
  661TMC3    C1 9831   2.293   1.332  12.489 -0.3135  0.2861  1.1679
  661TMC3    C2 9832   2.378   1.441  12.468  0.8467  0.2278 -0.2665
  661TMC3    C3 9833   2.334   1.541  12.384 -0.6290 -0.2446  0.0043
  661TMC3    C4 9834   2.174   1.320  12.424 -0.3081  0.6850 -0.2440
  661TMC3    C5 9835   2.136   1.425  12.350  0.0515 -1.2314 -0.1104
  661TMC3    C6 9836   2.213   1.538  12.328 -1.0737  0.2632 -0.1928
  661TMC3     C 9837   2.333   1.231  12.578  0.4343  0.1646 -0.6378
  661TMC3     O 9838   2.282   1.119  12.570 -0.3989  0.0990 -0.5981
  661TMC3     H 9839   2.475   1.444  12.515  0.7552 -2.2880  0.0682
  661TMC3    H1 9840   2.099   1.247  12.451  0.2419  0.8514  1.6714
  661TMC3    H2 9841   2.176   1.620  12.268  1.7377  2.9238  1.7169
  661TMC3    C7 9842   2.010   1.407  12.289 -0.1877 -0.1689  0.7037
  661TMC3    C8 9843   2.428   1.573  12.279  0.5124  0.0190  0.7207
  661TMC3    O1 9844   1.941   1.507  12.277  0.4010  0.1159 -0.5215
  661TMC3    O2 9845   2.503   1.484  12.239 -0.2079 -0.0056  1.1722
  662MPD2     C 9846   3.286   0.761  16.828 -0.4412  0.7182  0.3140
  662MPD2    C1 9847   3.294   0.688  16.945  0.3753 -0.1843 -0.9275
  662MPD2    C2 9848   3.253   0.751  17.062  0.4061  0.9707 -0.6083
  662MPD2    C3 9849   3.189   0.871  17.055  0.0124  0.0619 -1.0795
  662MPD2    C4 9850   3.181   0.937  16.933 -0.7626 -0.4567  0.4606
  662MPD2    C5 9851   3.236   0.885  16.824  0.6780 -0.4449  0.0683
  662MPD2     H 9852   3.264   0.697  17.156 -0.1329  0.5510 -0.7884
  662MPD2    H1 9853   3.138   1.037  16.932 -0.2643 -0.2615 -1.2596
  662MPD2    H2 9854   3.316   0.722  16.731 -1.5763 -0.5693  0.4865
  662MPD2    H3 9855   3.226   0.934  16.728 -0.1493  0.3508  0.5580
  662MPD2     N 9856   3.113   0.933  17.160 -0.5790  0.4447  0.1493
  662MPD2    H5 9857   3.046   1.004  17.133 -2.2595 -0.2909  2.3795
  662MPD2    N1 9858   3.354   0.566  16.962 -0.1787 -0.5159 -0.4197
  662MPD2    H7 9859   3.360   0.530  17.057 -0.8865  0.8286  0.1288
  663TMC3    C1 9860   3.434   0.350  16.907  0.3174 -0.0581 -1.3213
  663TMC3    C2 9861   3.512   0.355  17.020 -0.2923  0.2198 -0.0651
  663TMC3    C3 9862   3.588   0.240  17.047 -0.0876 -0.4432 -0.3483
  663TMC3    C4 9863   3.450   0.247  16.815  0.2648  0.3937  0.3076
  663TMC3    C5 9864   3.520   0.134  16.852 -0.3656 -0.8441 -0.6429
  663TMC3    C6 9865   3.580   0.130  16.974  0.1093 -0.2297  0.3046
  663TMC3     C 9866   3.379   0.477  16.858 -0.7042  0.2088  0.2231
  663TMC3     O 9867   3.354   0.485  16.739  0.8354  0.1108 -0.0541
  663TMC3     H 9868   3.519   0.443  17.082  1.3678  1.4121 -1.9667
  663TMC3    H1 9869   3.383   0.244  16.730 -2.3651  0.6413  2.3835
  663TMC3    H2 9870   3.654   0.058  17.006 -1.7166 -0.5016  3.9078
  663TMC3    C7 9871   3.491   0.012  16.779 -0.3879  0.1434 -1.1150
  663TMC3    C8 9872   3.688   0.251  17.144  0.4740 -0.0509  0.4018
  663TMC3    O1 9873   3.460   0.025  16.660  0.7764 -0.5158 -0.9207
  663TMC3    O2 9874   3.804   0.217  17.116 -0.2175 -0.2143 -0.0640
  664MPD2     C 9875   1.232   3.844  17.554 -0.1564  0.4753  0.6297
  664MPD2    C1 9876   1.327   3.909  17.622 -0.4877 -0.4545  0.1197
  664MPD2    C2 9877   1.346   3.887   0.016  0.1222 -0.0152  0.0023
  664MPD2    C3 9878   1.263   3.806   0.086  0.4798  0.3498  0.7136
  664MPD2    C4 9879   1.165   3.731   0.015  0.4658 -1.0131 -0.3904
  664MPD2    C5 9880   1.139   3.759  17.619 -0.3282 -0.4484  0.3828
  664MPD2     H 9881   1.433   3.937   0.057 -0.3392  1.1663 -0.4524
  664MPD2    H1 9882   1.100   3.664   0.070  0.0748 -0.5258 -0.2479
  664MPD2    H2 9883   1.218   3.851  17.447  1.0390 -0.2225  0.4244
  664MPD2    H3 9884   1.061   3.706  17.566  1.3592 -0.3956 -2.1478
  664MPD2     N 9885   1.276   3.800   0.229  0.4086 -0.0073  0.3724
  664MPD2    H5 9886   1.338   3.870   0.268 -1.0228  0.6166  1.5225
  664MPD2    N1 9887   1.412   4.009  17.561 -0.1036 -0.4650 -0.0253
  664MPD2    H7 9888   1.487   4.047  17.618 -0.8297  0.7491  0.1211
  665TMC3    C1 9889   1.230   3.768   0.456 -0.2359 -0.0632 -0.1373
  665TMC3    C2 9890   1.140   3.736   0.557  1.1971 -0.3349 -0.3695
  665TMC3    C3 9891   1.186   3.760   0.684 -0.1556 -0.1695  0.3825
  665TMC3    C4 9892   1.361   3.817   0.471 -0.4310  0.0439 -0.0313
  665TMC3    C5 9893   1.405   3.813   0.603 -0.0511 -0.0054 -0.3430
  665TMC3    C6 9894   1.324   3.781   0.712  0.1363  0.4648 -0.8571
  665TMC3     C 9895   1.196   3.744   0.317  0.5821 -0.5882 -0.8783
  665TMC3     O 9896   1.094   3.690   0.290  0.4696  0.1349 -0.2472
  665TMC3     H 9897   1.043   3.703   0.522  0.0037  2.1224  0.6092
  665TMC3    H1 9898   1.441   3.810   0.398  0.0668  2.8559  0.2385
  665TMC3    H2 9899   1.348   3.775   0.817 -0.9719  1.6877 -0.5418
  665TMC3    C7 9900   1.540   3.844   0.630  0.6816 -0.2521  0.0400
  665TMC3    C8 9901   1.095   3.794   0.788  0.3579 -0.0458 -1.1744
  665TMC3    O1 9902   1.614   3.838   0.532  0.2556  0.7484 -0.0054
  665TMC3    O2 9903   1.138   3.808   0.898  0.4322 -0.2539 -0.1142
  666TMC3    C1 9904   0.162   3.481  10.250  0.6790  0.4869 -0.2747
  666TMC3    C2 9905   0.081   3.407  10.173  0.3918 -0.2577 -0.0365
  666TMC3    C3 9906   4.720   3.484  10.109  0.3438  0.1468 -0.4332
  666TMC3    C4 9907   0.175   3.612  10.258 -0.7654  0.0069  0.3076
  666TMC3    C5 9908   0.076   3.687  10.192 -0.0191  0.0255  0.3576
  666TMC3    C6 9909   4.719   3.624  10.122 -0.2392 -0.2662 -0.2277
  666TMC3     C 9910   0.242   3.412  10.351 -0.2514  0.5339  0.3504
  666TMC3     O 9911   0.350   3.457  10.387  0.0261 -0.8022  0.5256
  666TMC3     H 9912   0.079   3.299  10.160  1.3528 -0.4692  1.6002
  666TMC3    H1 9913   0.248   3.661  10.322 -0.1065  1.3553 -1.4555
  666TMC3    H2 9914   4.646   3.673  10.059 -1.6785 -0.6951  1.0991
  666TMC3    C7 9915   0.067   3.824  10.222  0.4337 -0.0337 -0.0978
  666TMC3    C8 9916   4.603   3.411  10.054  0.0811  0.4444  0.3797
  666TMC3    O1 9917   0.126   3.859  10.323 -0.0757  0.0300 -0.2833
  666TMC3    O2 9918   4.615   3.289  10.066 -0.2950 -0.4422 -0.0587
  667MPD2     C 9919   2.294   3.058  14.416  0.7651 -1.2757  0.5238
  667MPD2    C1 9920   2.165   3.094  14.436 -0.3714 -0.4862  0.2168
  667MPD2    C2 9921   2.069   3.021  14.367 -0.0549  0.0541  0.4432
  667MPD2    C3 9922   2.104   2.900  14.299  0.6621 -0.1660  0.2039
  667MPD2    C4 9923   2.233   2.855  14.302  0.6323  0.2711  0.0009
  667MPD2    C5 9924   2.329   2.935  14.359  0.5709 -0.1301 -0.0631
  667MPD2     H 9925   1.968   3.061  14.375  0.7201  1.6347  2.3859
  667MPD2    H1 9926   2.263   2.758  14.266  0.6373  0.4730 -0.5287
  667MPD2    H2 9927   2.380   3.112  14.454 -0.4016 -0.6186  2.2210
  667MPD2    H3 9928   2.432   2.901  14.357 -0.1138 -2.0388 -4.0588
  667MPD2     N 9929   2.007   2.814  14.244  0.9080 -0.7827 -0.0183
  667MPD2    H5 9930   2.038   2.720  14.219  0.9954 -0.4160 -1.2887
  667MPD2    N1 9931   2.116   3.195  14.519 -0.2666 -0.0539  0.4179
  667MPD2    H7 9932   2.015   3.197  14.531 -0.3404 -0.6911 -0.0907
  668TMC3    C1 9933   2.132   3.367  14.673  0.3986 -0.0348 -0.6539
  668TMC3    C2 9934   2.184   3.489  14.707  0.2957  0.0369  0.1665
  668TMC3    C3 9935   2.141   3.555  14.822  0.2692  0.1404 -0.1404
  668TMC3    C4 9936   2.030   3.309  14.747 -0.2257 -0.5490  0.1620
  668TMC3    C5 9937   1.990   3.380  14.863  0.6498  0.4496 -0.0798
  668TMC3    C6 9938   2.044   3.500  14.906  0.1142  0.3754 -0.2060
  668TMC3     C 9939   2.200   3.284  14.574 -0.8627  0.4983 -0.0664
  668TMC3     O 9940   2.318   3.306  14.557 -0.1758 -0.5231 -0.4357
  668TMC3     H 9941   2.270   3.524  14.650  1.4589 -0.1713  1.7764
  668TMC3    H1 9942   1.989   3.212  14.724  0.5732 -0.2295 -2.7282
  668TMC3    H2 9943   2.023   3.550  15.000 -2.8735 -0.6483 -0.3183
  668TMC3    C7 9944   1.889   3.323  14.948 -0.1284 -0.1775  0.2631
  668TMC3    C8 9945   2.208   3.677  14.869 -0.6260 -0.0029 -0.4121
  668TMC3    O1 9946   1.872   3.381  15.054 -0.4278  0.0659  0.2137
  668TMC3    O2 9947   2.199   3.697  14.990  0.2332  0.0135 -0.6562
  669TMC3    C1 9948   0.326   3.075  15.095  0.0333  0.5163  0.1750
  669TMC3    C2 9949   0.198   3.067  15.037  0.1731  0.0983 -0.6758
  669TMC3    C3 9950   0.187   3.113  14.907 -0.4737 -0.0432 -0.0857
  669TMC3    C4 9951   0.436   3.138  15.034 -0.4381  0.0206 -0.0481
  669TMC3    C5 9952   0.410   3.174  14.902  0.4080 -0.1766  0.0007
  669TMC3    C6 9953   0.295   3.162  14.838 -0.5458  0.9886 -0.0743
  669TMC3     C 9954   0.354   2.985  15.200 -0.4418 -0.1497  0.1550
  669TMC3     O 9955   0.471   2.958  15.218  0.2012 -0.6518  0.3450
  669TMC3     H 9956   0.133   2.986  15.067  1.0370 -0.7986 -1.2592
  669TMC3    H1 9957   0.531   3.163  15.079  0.3893 -0.8657 -1.2885
  669TMC3    H2 9958   0.283   3.195  14.735  2.8438 -0.3800 -0.8905
  669TMC3    C7 9959   0.508   3.239  14.825 -0.1534 -0.5202 -0.9829
  669TMC3    C8 9960   0.062   3.099  14.831 -0.3398  0.1191 -0.3078
  669TMC3    O1 9961   0.478   3.319  14.736 -0.1467  0.1243 -1.0901
  669TMC3    O2 9962   0.080   3.128  14.712  0.4544  0.1293  0.3700
  670MPD2     C 9963   2.777   1.261  13.504  0.2051 -1.3721  0.0168
  670MPD2    C1 9964   2.898   1.295  13.557 -0.1946 -0.0995 -0.9876
  670MPD2    C2 9965   2.927   1.252  13.691  0.4691 -0.4788 -0.0190
  670MPD2    C3 9966   2.857   1.159  13.754  0.0321 -0.0858 -0.0971
  670MPD2    C4 9967   2.751   1.108  13.687  0.4787  0.1942 -0.3593
  670MPD2    C5 9968   2.706   1.166  13.573  1.0728 -0.2863 -1.0133
  670MPD2     H 9969   3.011   1.299  13.740  1.7364 -0.6339 -2.0231
  670MPD2    H1 9970   2.689   1.026  13.723 -0.6909  1.3135  0.1451
  670MPD2    H2 9971   2.743   1.304  13.410  0.6752  1.4226  1.1475
  670MPD2    H3 9972   2.618   1.122  13.528 -1.0056  2.0516  0.7814
  670MPD2     N 9973   2.895   1.124  13.883 -0.0009  0.2115 -0.2634
  670MPD2    H5 9974   2.979   1.165  13.921  1.0670 -1.9555 -0.2974
  670MPD2    N1 9975   2.995   1.368  13.487  0.1220 -0.8456  0.5668
  670MPD2    H7 9976   3.074   1.400  13.543  1.3329  0.5698 -1.9588
  671TMC3    C1 9977   2.864   1.026  14.104 -0.3293  0.7175  1.3207
  671TMC3    C2 9978   2.996   1.023  14.148 -0.3424  0.1451 -0.0556
  671TMC3    C3 9979   3.016   0.955  14.268 -0.5093 -0.7585  0.8286
  671TMC3    C4 9980   2.759   0.997  14.188 -0.3490 -0.3476 -0.0851
  671TMC3    C5 9981   2.784   0.935  14.304 -0.1972 -0.3952 -0.2003
  671TMC3    C6 9982   2.913   0.904  14.343 -0.4094  0.1062 -0.0700
  671TMC3     C 9983   2.832   1.021  13.962 -0.0145 -0.9574  0.2336
  671TMC3     O 9984   2.723   0.975  13.941  0.4087 -0.0461  0.0296
  671TMC3     H 9985   3.070   1.032  14.069  2.3875 -4.0756  2.0169
  671TMC3    H1 9986   2.656   1.010  14.156  0.6400  3.1890 -1.7519
  671TMC3    H2 9987   2.918   0.840  14.429 -1.1550  1.7116  1.1701
  671TMC3    C7 9988   2.706   0.814  14.306  0.2399  0.1080 -0.0216
  671TMC3    C8 9989   3.142   0.884  14.273 -0.3154 -0.2002  0.4204
  671TMC3    O1 9990   2.667   0.773  14.416  0.0368 -0.0992 -0.3262
  671TMC3    O2 9991   3.212   0.884  14.171 -0.3056 -0.8041 -0.4483
  672MPD2     C 9992   3.353   1.757   0.983 -0.6598  0.4608  0.1058
  672MPD2    C1 9993   3.487   1.762   0.941 -0.1548 -0.0538 -0.1273
  672MPD2    C2 9994   3.581   1.823   1.030 -0.2066 -0.0310 -0.3647
  672MPD2    C3 9995   3.540   1.871   1.156 -0.7609 -0.1442 -0.0284
  672MPD2    C4 9996   3.407   1.871   1.193  1.2164  0.5848  0.6404
  672MPD2    C5 9997   3.315   1.817   1.102 -0.4093  0.0399  0.0114
  672MPD2     H 9998   3.683   1.825   0.993  0.3439  1.6939  1.2782
  672MPD2    H1 9999   3.372   1.906   1.289  1.2297 -0.1022  0.8951
  672MPD2    H210000   3.275   1.712   0.922 -1.6913  0.8972  1.1058
  672MPD2    H310001   3.211   1.802   1.130  0.1487 -0.2879  1.8922
  672MPD2     N10002   3.635   1.923   1.250 -0.4392  0.2095  0.3075
  672MPD2    H510003   3.606   1.943   1.345  0.1591 -1.2459  0.7964
  672MPD2    N110004   3.531   1.726   0.810  0.0433 -0.1957  0.2039
  672MPD2    H710005   3.627   1.750   0.789 -0.3422  0.7967 -0.4086
  673TMC3    C110006   3.519   1.659   0.595 -0.7180  0.4790  0.2651
  673TMC3    C210007   3.634   1.587   0.578  0.1912  0.0808  0.9545
  673TMC3    C310008   3.659   1.526   0.460  0.2281  0.2098  0.0133
  673TMC3    C410009   3.431   1.682   0.491  0.6095 -0.2317 -0.4847
  673TMC3    C510010   3.455   1.617   0.375 -0.6209  0.2085  0.3883
  673TMC3    C610011   3.562   1.530   0.357  0.6468 -0.6415 -0.6337
  673TMC3     C10012   3.451   1.659   0.722 -0.6680  0.7565 -0.2937
  673TMC3     O10013   3.338   1.616   0.729 -0.6303 -0.1600 -0.0768
  673TMC3     H10014   3.699   1.566   0.663  2.7378  2.2891 -0.4774
  673TMC3    H110015   3.334   1.727   0.507  0.4265  0.2219 -2.8398
  673TMC3    H210016   3.577   1.466   0.271  0.5405 -1.8911  0.2785
  673TMC3    C710017   3.372   1.651   0.259 -0.4304  0.4079 -0.5494
  673TMC3    C810018   3.720   1.395   0.463 -0.8345  0.6704 -0.8591
  673TMC3    O110019   3.377   1.582   0.157  0.1765 -0.1428  0.3932
  673TMC3    O210020   3.658   1.305   0.410  0.0262 -0.3593  0.1032
  674MPD2     C10021   3.263   1.333  17.480 -0.2191 -0.1678 -0.0866
  674MPD2    C110022   3.268   1.256  17.592 -0.0158  0.4572  0.0318
  674MPD2    C210023   3.203   1.297  17.713  0.6956 -0.2751 -0.3586
  674MPD2    C310024   3.137   1.416  17.717  0.0199  0.6592  0.7495
  674MPD2    C410025   3.137   1.493  17.603  0.2829 -0.7076 -0.1871
  674MPD2    C510026   3.188   1.448  17.485 -0.5234 -0.5169 -0.0685
  674MPD2     H10027   3.203   1.239   0.062  0.6053  1.5892  0.8160
  674MPD2    H110028   3.072   1.580  17.601 -0.2159 -1.0908 -0.5626
  674MPD2    H210029   3.302   1.307  17.382  1.5479  0.9810  0.2953
  674MPD2    H310030   3.172   1.501  17.392  0.3846 -0.1309 -0.0083
  674MPD2     N10031   3.077   1.458   0.093  0.0850 -0.4597 -0.1008
  674MPD2    H510032   3.101   1.406   0.178  1.7315  0.0740 -0.2249
  674MPD2    N110033   3.326   1.132  17.574  0.1858  0.1861 -0.3126
  674MPD2    H710034   3.357   1.094  17.485 -1.0322  1.4522 -1.2722
  675TMC3    C110035   3.403   1.109   0.052  0.5647  0.5643 -0.6395
  675TMC3    C210036   3.351   1.071   0.170  0.3736  0.4300 -0.1858
  675TMC3    C310037   3.438   1.066   0.280 -0.4173  0.2618  0.6736
  675TMC3    C410038   3.537   1.128   0.039  0.1209 -0.0084  0.4479
  675TMC3    C510039   3.617   1.113   0.151  0.2473  0.2399 -0.8332
  675TMC3    C610040   3.571   1.077   0.273  0.0093 -0.2480  0.0127
  675TMC3     C10041   3.353   1.051  17.676 -0.3392 -0.3762  0.1879
  675TMC3     O10042   3.388   0.933  17.662  0.4812 -0.1479  0.2160
  675TMC3     H10043   3.244   1.056   0.167  0.3444  0.6384 -0.1789
  675TMC3    H110044   3.576   1.152  17.684 -0.2592  0.2257  0.3562
  675TMC3    H210045   3.630   1.055   0.362 -0.3880  0.6540  0.4949
  675TMC3    C710046   3.750   1.162   0.140  1.2174  0.2502 -0.2616
  675TMC3    C810047   3.368   1.063   0.406 -0.3657  0.2113 -0.3420
  675TMC3    O110048   3.845   1.086   0.171 -0.2116 -0.3537  0.1659
  675TMC3    O210049   3.290   0.975   0.423  0.5025 -0.6982  0.3667
  676MPD2     C10050   0.664   4.507  11.090 -0.5467  0.4823  0.1764
  676MPD2    C110051   0.623   4.437  11.201 -0.3656  0.5981  0.8505
  676MPD2    C210052   0.644   4.299  11.195 -0.1402  0.6620 -0.5021
  676MPD2    C310053   0.697   4.232  11.084 -0.1645 -0.5890  0.9067
  676MPD2    C410054   0.748   4.311  10.977  0.2509  0.2530 -0.4512
  676MPD2    C510055   0.731   4.448  10.988  0.1082  0.4787 -0.1891
  676MPD2     H10056   0.638   4.240  11.285  1.6692  0.4420 -0.5199
  676MPD2    H110057   0.779   4.265  10.884 -2.8476  1.8129 -2.2421
  676MPD2    H210058   0.653   4.615  11.098 -0.3228  0.6088 -1.1857
  676MPD2    H310059   0.759   4.506  10.901 -2.0768  0.2564 -1.0569
  676MPD2     N10060   0.696   4.088  11.080 -0.0087 -0.3341  0.3714
  676MPD2    H510061   0.733   4.063  10.989  0.1987 -3.1638  1.2359
  676MPD2    N110062   0.589   4.495  11.323 -0.1917  0.6871  0.0483
  676MPD2    H710063   0.576   4.429  11.399  2.3624  1.2514  0.9995
  677TMC3    C110064   0.578   4.651  11.499 -0.6164 -0.2301 -0.0575
  677TMC3    C210065   0.480   4.572  11.552 -0.2930 -0.3913 -0.2060
  677TMC3    C310066   0.467   4.576  11.687 -0.4494 -0.3634  0.0017
  677TMC3    C410067   0.677   4.706  11.575  0.6099  0.1437 -0.3024
  677TMC3    C510068   0.654   4.709  11.709 -0.1308  0.2904 -1.1692
  677TMC3    C610069   0.546   4.652  11.766  0.2212  0.0041  0.0143
  677TMC3     C10070   0.610   4.629  11.357 -0.4512  0.1808  0.1302
  677TMC3     O10071   0.668   4.718  11.294  0.2734  0.1703  0.0351
  677TMC3     H10072   0.403   4.534  11.486 -0.1989 -1.9857  0.6030
  677TMC3    H110073   0.758   0.022  11.525 -0.5812  0.6597 -1.6909
  677TMC3    H210074   0.527   4.668  11.872  0.5510  0.6481 -0.0217
  677TMC3    C710075   0.758   0.013  11.807  0.3442  0.0701  0.5015
  677TMC3    C810076   0.344   4.521  11.738 -0.1646  0.2549  0.2862
  677TMC3    O110077   0.725   4.735  11.927 -0.0940 -0.0676 -0.1249
  677TMC3    O210078   0.241   4.551  11.669 -0.1341  0.0136 -0.0606
  678MPD2     C10079   2.871   4.710   1.414 -0.3952 -0.3302  0.2497
  678MPD2    C110080   2.862   4.601   1.331 -0.1836 -1.0977 -0.4445
  678MPD2    C210081   2.740   4.549   1.302 -0.4222 -0.5621  0.3557
  678MPD2    C310082   2.632   4.581   1.377 -0.4574 -0.3410 -0.1470
  678MPD2    C410083   2.635   4.697   1.457  0.1580  0.7748 -0.4230
  678MPD2    C510084   2.757   0.026   1.473  0.0391 -0.5400 -0.4118
  678MPD2     H10085   2.739   4.478   1.220 -1.6182 -0.8725  0.6391
  678MPD2    H110086   2.551   4.727   1.518 -1.8037  0.7164 -3.0573
  678MPD2    H210087   2.961   0.022   1.451  1.4612 -2.2144 -1.8790
  678MPD2    H310088   2.759   0.116   1.534  1.8955 -0.4623 -0.6112
  678MPD2     N10089   2.511   4.516   1.344 -0.3484  0.5723 -0.0016
  678MPD2    H510090   2.520   4.432   1.288  1.3907  0.6116  0.1949
  678MPD2    N110091   2.971   4.550   1.258 -0.5015  0.8660 -1.1545
  678MPD2    H710092   2.950   4.482   1.185  1.7642  1.0567 -1.9852
  679TMC3    C110093   3.285   4.355   1.092  0.0520 -0.1922  0.0334
  679TMC3    C210094   3.183   4.408   1.164  0.1750 -0.4874  0.3786
  679TMC3    C310095   3.173   4.542   1.160  0.4733  0.4745  0.3679
  679TMC3    C410096   3.380   4.432   1.020 -0.3567  0.8683  0.1202
  679TMC3    C510097   3.373   4.567   1.035  0.4579 -0.1680  0.8188
  679TMC3    C610098   3.268   4.625   1.107 -0.2099 -0.3044 -0.5321
  679TMC3     C10099   3.309   4.217   1.083  0.3587 -0.3930 -0.4544
  679TMC3     O10100   3.364   4.176   0.983 -0.5808 -0.0863 -0.6069
  679TMC3     H10101   3.105   4.349   1.210 -0.5974  0.5108  0.3526
  679TMC3    H110102   3.454   4.376   0.963 -0.9432  0.3440 -0.1206
  679TMC3    H210103   3.257   4.732   1.114  0.8272 -0.1244 -1.5938
  679TMC3    C710104   3.441   4.651   0.934  0.1224  0.5816  0.6524
  679TMC3    C810105   3.093   4.603   1.261 -0.7326  0.0859 -0.4139
  679TMC3    O110106   3.405   0.031   0.926 -0.0102  0.3856  0.0503
  679TMC3    O210107   3.129   4.703   1.318  0.2857  0.1273 -0.1464
  680MPD2     C10108   2.599   3.080  13.807  0.1537 -0.1662 -0.7362
  680MPD2    C110109   2.704   3.011  13.868  0.3444 -0.2592 -0.1848
  680MPD2    C210110   2.814   3.078  13.920  0.0233  0.2529  0.3079
  680MPD2    C310111   2.822   3.217  13.925  0.3473 -0.1919 -0.0189
  680MPD2    C410112   2.713   3.282  13.856 -0.1541  0.5017 -0.4755
  680MPD2    C510113   2.609   3.214  13.798  0.3797  0.9344 -0.0910
  680MPD2     H10114   2.883   3.014  13.975  0.3525 -1.6584 -2.2910
  680MPD2    H110115   2.705   3.390  13.859  2.0362  0.7096 -1.9537
  680MPD2    H210116   2.521   3.033  13.748  0.2373 -1.0955 -0.0911
  680MPD2    H310117   2.530   3.272  13.752 -0.2091 -0.9240 -1.3829
  680MPD2     N10118   2.924   3.296  13.984  0.0488 -0.1541  0.2054
  680MPD2    H510119   2.910   3.395  13.966  0.9840 -0.6127 -2.9813
  680MPD2    N110120   2.706   2.870  13.872 -0.1376 -0.0406  0.1640
  680MPD2    H710121   2.787   2.821  13.907 -0.9240  1.0620  3.5420
  681TMC3    C110122   2.629   2.650  13.798  0.1140 -0.5747 -0.1659
  681TMC3    C210123   2.551   2.559  13.862 -0.3582 -0.1436  0.6356
  681TMC3    C310124   2.593   2.428  13.885  0.4368 -0.1068 -0.0536
  681TMC3    C410125   2.752   2.614  13.757 -0.4008  0.3361 -0.1319
  681TMC3    C510126   2.797   2.489  13.785 -0.0363  0.2463 -0.0751
  681TMC3    C610127   2.712   2.391  13.839  0.0755 -0.1456  0.1631
  681TMC3     C10128   2.602   2.791  13.824  0.2987 -0.1075  1.7711
  681TMC3     O10129   2.484   2.820  13.795 -0.3157  0.4011 -0.6795
  681TMC3     H10130   2.453   2.589  13.896  0.1235  0.5723  1.4024
  681TMC3    H110131   2.801   2.684  13.690 -0.8910  1.9647  1.2215
  681TMC3    H210132   2.749   2.296  13.876 -0.0783 -0.1516  0.3022
  681TMC3    C710133   2.940   2.471  13.794 -0.3093 -0.4835 -0.6952
  681TMC3    C810134   2.512   2.333  13.964  0.0103  0.0416  0.5707
  681TMC3    O110135   2.989   2.401  13.880 -0.3717  0.0694 -0.4803
  681TMC3    O210136   2.491   2.224  13.922  0.5969 -0.0686  0.1294
  682MPD2     C10137   4.726   0.187  10.977 -0.4970  0.5306 -0.2882
  682MPD2    C110138   4.657   0.087  11.041 -0.1311  0.0969 -0.5469
  682MPD2    C210139   4.631   0.097  11.176 -0.0807  0.8210 -0.1903
  682MPD2    C310140   4.658   0.215  11.235  0.1609 -0.1774  0.0263
  682MPD2    C410141   4.727   0.315  11.173 -0.8253  1.0946 -0.3478
  682MPD2    C510142   0.016   0.296  11.047  0.0182 -0.0716 -0.6122
  682MPD2     H10143   4.591   0.010  11.226  2.8462 -0.2740  0.2543
  682MPD2    H110144   0.011   0.409  11.223 -0.7623  0.8181  0.1434
  682MPD2    H210145   0.008   0.192  10.871 -0.8904 -1.5765 -0.4448
  682MPD2    H310146   0.052   0.382  10.993 -0.1468 -0.4989 -1.3977
  682MPD2     N10147   4.609   0.244  11.363 -0.0755  0.0607  0.2077
  682MPD2    H510148   4.652   0.326  11.406 -1.5663  1.5243 -1.1013
  682MPD2    N110149   4.612   4.704  10.968 -0.1992 -0.3347  0.7481
  682MPD2    H710150   4.546   4.646  11.020 -1.8811  0.4406 -0.5001
  683TMC3    C110151   4.586   0.300  11.759 -0.2868 -0.0101 -0.0985
  683TMC3    C210152   4.455   0.309  11.799 -0.4430 -0.4278 -0.1542
  683TMC3    C310153   4.355   0.257  11.728  0.1669  0.1569 -0.0581
  683TMC3    C410154   4.610   0.245  11.638 -0.2508 -0.0230 -0.1128
  683TMC3    C510155   4.506   0.196  11.569 -0.2430 -0.0623  0.1841
  683TMC3    C610156   4.376   0.195  11.608 -0.7691  0.0494  0.1410
  683TMC3     C10157   4.690   0.327  11.856 -0.1558  0.2352  0.1128
  683TMC3     O10158   4.664   0.411  11.937  0.2782 -0.3373  0.5652
  683TMC3     H10159   4.434   0.341  11.900 -1.0224 -0.1181 -0.3752
  683TMC3    H110160   4.713   0.230  11.606  0.2155  1.5656  0.6308
  683TMC3    H210161   4.293   0.144  11.559 -0.3938 -0.4923  0.0672
  683TMC3    C710162   4.513   0.164  11.430  0.2531  0.4066 -1.1717
  683TMC3    C810163   4.233   0.226  11.794 -0.1298 -0.4555  0.1834
  683TMC3    O110164   4.425   0.102  11.374  0.2921 -0.4432  0.4592
  683TMC3    O210165   4.140   0.304  11.785 -0.3050 -0.5742 -0.2583
  684MPD2     C10166   2.989   3.888  16.304  0.1932  0.6958  0.2268
  684MPD2    C110167   2.992   3.892  16.161  0.0689 -0.1804  0.3493
  684MPD2    C210168   3.046   3.999  16.090 -0.9429  0.0786  0.8686
  684MPD2    C310169   3.115   4.095  16.163 -0.2514 -0.3467 -0.9139
  684MPD2    C410170   3.105   4.090  16.302 -0.4874 -0.2415  0.1775
  684MPD2    C510171   3.054   3.988  16.371 -0.4925 -0.0267  0.5969
  684MPD2     H10172   3.052   3.984  15.983  4.0712  0.1824  1.1623
  684MPD2    H110173   3.148   4.168  16.364 -1.6161  2.0572 -1.8832
  684MPD2    H210174   2.929   3.819  16.361 -0.8351  0.7366 -0.8119
  684MPD2    H310175   3.057   3.995  16.479 -0.9090  0.9731  0.5383
  684MPD2     N10176   3.188   4.210  16.113  0.3522 -0.0134  0.3382
  684MPD2    H510177   3.233   4.272  16.179 -0.8764  1.2544 -0.0069
  684MPD2    N110178   2.950   3.781  16.084 -0.3891 -0.3830 -0.1881
  684MPD2    H710179   2.979   3.786  15.987  0.3941  1.5400  0.1408
  685TMC3    C110180   2.921   3.561  16.027  0.0460  0.2629  0.0279
  685TMC3    C210181   2.852   3.601  15.912  0.0995 -0.3549 -0.5227
  685TMC3    C310182   2.887   3.537  15.797  0.0003  0.8896 -0.2218
  685TMC3    C410183   3.028   3.475  16.023  0.3074 -0.0804 -0.6095
  685TMC3    C510184   3.066   3.425  15.904 -0.8545 -0.0782  0.4615
  685TMC3    C610185   2.995   3.455  15.788  0.0280  1.0243 -0.1522
  685TMC3     C10186   2.929   3.655  16.139  0.0541  0.3171  0.1044
  685TMC3     O10187   2.962   3.619  16.250 -0.4897 -0.0436 -0.3473
  685TMC3     H10188   2.764   3.663  15.923 -0.1397 -0.8892  0.6114
  685TMC3    H110189   3.089   3.446  16.108 -0.5964 -0.3838 -0.0591
  685TMC3    H210190   3.041   3.434  15.692  1.9254 -0.1461  1.0163
  685TMC3    C710191   3.201   3.381  15.899  0.1952  0.1755  0.1928
  685TMC3    C810192   2.789   3.523  15.693  0.1404  0.1239  0.2760
  685TMC3    O110193   3.227   3.306  15.995  0.2822 -0.5377 -0.0073
  685TMC3    O210194   2.784   3.423  15.623  0.1523  0.0001  0.3829
  686MPD2     C10195   4.681   3.856  15.538  0.0855 -0.1590  0.5316
  686MPD2    C110196   4.728   3.761  15.625  0.1465  0.1348 -0.5125
  686MPD2    C210197   0.064   3.650  15.581 -0.4167  0.6024 -0.0383
  686MPD2    C310198   0.078   3.623  15.447 -0.6664  0.1166 -0.2543
  686MPD2    C410199   0.046   3.723  15.357 -0.1262 -0.6605 -0.1814
  686MPD2    C510200   4.708   3.830  15.401  0.0814 -0.5174 -0.8654
  686MPD2     H10201   0.103   3.583  15.656  2.5978  0.1864 -2.0055
  686MPD2    H110202   0.039   3.707  15.250  1.1472 -0.7743 -0.2542
  686MPD2    H210203   4.642   3.952  15.569  1.1590 -0.1088  1.7227
  686MPD2    H310204   4.662   3.901  15.333  0.4781 -1.7944 -2.4711
  686MPD2     N10205   0.133   3.502  15.394  0.8781  0.4468  0.2699
  686MPD2    H510206   0.134   3.509  15.293  0.8377 -0.1464  0.2251
  686MPD2    N110207   4.702   3.788  15.760  0.0335 -0.0764 -0.5244
  686MPD2    H710208   4.639   3.866  15.776 -0.2783 -0.6245  0.9314
  687TMC3    C110209   0.133   3.352  15.592  0.3474  0.4262 -0.5096
  687TMC3    C210210   0.000   3.354  15.626 -0.2084 -0.5405  0.5024
  687TMC3    C310211   4.710   3.323  15.762  0.2516  0.1155 -0.2627
  687TMC3    C410212   0.237   3.322  15.679  0.4358  0.3037 -0.1095
  687TMC3    C510213   0.206   3.295  15.813 -0.1965 -0.2452 -0.5981
  687TMC3    C610214   0.071   3.294  15.857  0.5389 -0.5630  0.4223
  687TMC3     C10215   0.168   3.380  15.456  0.0217 -0.2679 -0.3210
  687TMC3     O10216   0.227   3.287  15.410 -0.1648 -0.0939  0.6727
  687TMC3     H10217   4.659   3.360  15.550  1.3263 -1.8203 -1.1632
  687TMC3    H110218   0.336   3.310  15.637  0.8570  3.0873  0.1303
  687TMC3    H210219   0.038   3.271  15.957  0.6109 -1.2397  0.2902
  687TMC3    C710220   0.300   3.324  15.917 -0.4029  0.5016  0.4378
  687TMC3    C810221   4.575   3.341  15.810  0.1561  0.2203  0.2955
  687TMC3    O110222   0.258   3.305  16.027 -0.2433  0.0961 -0.2031
  687TMC3    O210223   4.535   3.275  15.912  0.2624  0.3478 -0.3934
  688MPD2     C10224   4.187   2.739  17.677 -0.0814  0.2034  0.7975
  688MPD2    C110225   4.115   2.617  17.670 -0.1663  0.3932  0.7331
  688MPD2    C210226   4.139   2.543  17.549  0.2716 -0.1997  0.1673
  688MPD2    C310227   4.238   2.587  17.458 -0.3479  0.1620 -0.5605
  688MPD2    C410228   4.316   2.699  17.487 -0.0721 -0.8643  0.1772
  688MPD2    C510229   4.285   2.777  17.594 -0.3867  0.1458  0.6964
  688MPD2     H10230   4.094   2.445  17.545  0.0790 -0.0556 -1.2598
  688MPD2    H110231   4.402   2.735  17.432  0.0757  0.4124  1.2603
  688MPD2    H210232   4.171   2.808   0.017  0.9979 -0.6411  1.7102
  688MPD2    H310233   4.346   2.865  17.605  0.8303 -0.9048  2.4412
  688MPD2     N10234   4.270   2.514  17.341 -0.3991 -0.7047  0.3469
  688MPD2    H510235   4.344   2.540  17.277 -0.7424  0.8197  0.5695
  688MPD2    N110236   4.025   2.569   0.031  0.7930 -0.1404 -0.2557
  688MPD2    H710237   3.983   2.477   0.023  0.9182 -0.1885 -0.3782
  689TMC3    C110238   3.877   2.568   0.209  0.2036  0.1769  0.1141
  689TMC3    C210239   3.813   2.648   0.307 -0.0190 -0.2192  0.1101
  689TMC3    C310240   3.786   2.597   0.428  0.4453  0.1055  0.4079
  689TMC3    C410241   3.908   2.436   0.234 -0.0001 -0.5585 -0.2299
  689TMC3    C510242   3.869   2.384   0.357  0.1958  0.4715 -0.0894
  689TMC3    C610243   3.805   2.464   0.452 -0.5909 -0.6083 -0.0113
  689TMC3     C10244   3.969   2.644   0.127  0.0001  0.4943 -0.3960
  689TMC3     O10245   3.970   2.766   0.136 -0.4872  0.1232 -0.5145
  689TMC3     H10246   3.783   2.750   0.286  2.0606  0.1736 -0.9353
  689TMC3    H110247   3.976   2.375   0.177 -1.5156 -1.2422 -1.2914
  689TMC3    H210248   3.762   2.417   0.540 -1.9754  0.5747 -0.0717
  689TMC3    C710249   3.834   2.247   0.356 -0.3395 -0.1488  0.0323
  689TMC3    C810250   3.761   2.690   0.540 -0.1107  0.2151 -0.1415
  689TMC3    O110251   3.798   2.204   0.462  0.7825  0.6099  0.3556
  689TMC3    O210252   3.753   2.630   0.646 -0.4207 -0.3268 -0.4373
  690MPD2     C10253   1.894   4.453  15.579 -0.2385 -0.2906  0.0391
  690MPD2    C110254   1.795   4.463  15.480  0.7939  0.0951 -0.4339
  690MPD2    C210255   1.832   4.502  15.353 -0.0408 -0.2306  0.1814
  690MPD2    C310256   1.964   4.544  15.321 -0.4902 -0.3651  0.2055
  690MPD2    C410257   2.049   4.558  15.431 -0.0334 -0.7050 -1.0654
  690MPD2    C510258   2.020   4.501  15.551 -0.3259 -0.2165 -0.2198
  690MPD2     H10259   1.769   4.506  15.265 -0.7217 -0.1747  0.6748
  690MPD2    H110260   2.149   4.595  15.414  0.4132 -1.8101 -0.8393
  690MPD2    H210261   1.871   4.418  15.679  0.1758 -0.4017  0.0946
  690MPD2    H310262   2.089   4.511  15.634  1.3039  1.3295 -1.7667
  690MPD2     N10263   1.996   4.591  15.189 -0.0721 -0.0360 -0.0115
  690MPD2    H510264   1.924   4.588  15.118  0.2735 -0.0591 -0.3658
  690MPD2    N110265   1.660   4.422  15.507 -0.0852 -0.2347 -0.5113
  690MPD2    H710266   1.603   4.438  15.424  0.9505  1.1286 -0.9662
  691TMC3    C110267   1.457   4.353  15.616 -0.6976 -0.1162  0.1007
  691TMC3    C210268   1.374   4.374  15.508 -0.3629 -0.8497 -0.0276
  691TMC3    C310269   1.240   4.350  15.524  0.0433 -0.2993  0.0604
  691TMC3    C410270   1.413   4.268  15.717 -0.6622 -0.4247 -0.5165
  691TMC3    C510271   1.286   4.222  15.719 -0.2202  0.1765  0.5310
  691TMC3    C610272   1.199   4.257  15.621 -0.0375  0.5084  0.1006
  691TMC3     C10273   1.601   4.386  15.626 -0.5643  1.2096 -0.4445
  691TMC3     O10274   1.660   4.358  15.730  0.1392  0.1663 -0.2503
  691TMC3     H10275   1.408   4.446  15.434  1.8632 -1.9028 -0.0432
  691TMC3    H110276   1.475   4.260  15.805 -2.0520 -0.7141  0.4480
  691TMC3    H210277   1.093   4.233  15.622 -0.2584  1.4836  0.7782
  691TMC3    C710278   1.251   4.116  15.811 -0.3902  0.3852  0.0788
  691TMC3    C810279   1.143   4.430  15.453  0.7427 -0.2124 -0.2748
  691TMC3    O110280   1.345   4.097  15.890 -0.8563 -0.0443 -0.9192
  691TMC3    O210281   1.182   4.475  15.345 -0.0231 -0.2919 -0.0389
  692TMC3    C110282   2.661   0.627  15.445 -0.1481  0.5691  0.3861
  692TMC3    C210283   2.777   0.676  15.494 -0.1229  0.3310 -0.2448
  692TMC3    C310284   2.891   0.595  15.498  0.1067  0.1631 -0.7506
  692TMC3    C410285   2.652   0.499  15.400 -0.0917 -0.0151  0.0614
  692TMC3    C510286   2.763   0.419  15.422 -0.2962  1.1387 -0.6409
  692TMC3    C610287   2.876   0.462  15.478  0.1960 -0.0178  0.7450
  692TMC3     C10288   2.541   0.703  15.469  0.5235  0.4377  0.9512
  692TMC3     O10289   2.560   0.779  15.559  0.5578 -0.2058 -0.2023
  692TMC3     H10290   2.786   0.784  15.502  0.6700  0.3032 -0.7136
  692TMC3    H110291   2.564   0.457  15.354 -0.7970  0.7779  0.6933
  692TMC3    H210292   2.971   0.411  15.471  1.3075  1.9044  1.5844
  692TMC3    C710293   2.745   0.279  15.397 -0.1474 -0.5726 -0.0667
  692TMC3    C810294   2.984   0.627  15.608  0.4379 -0.4466 -0.1946
  692TMC3    O110295   2.656   0.238  15.326 -0.0680  0.2217  0.0913
  692TMC3    O210296   3.061   0.545  15.657  0.6000 -0.1503  0.0120
  693MPD2     C10297   2.139   3.540  10.564  0.2586 -0.0841  0.3379
  693MPD2    C110298   2.067   3.597  10.669  0.6363  0.4798 -0.4145
  693MPD2    C210299   2.116   3.582  10.796  0.2970  0.1364  0.2563
  693MPD2    C310300   2.244   3.536  10.819 -0.9136  0.0698  0.2890
  693MPD2    C410301   2.320   3.497  10.704 -0.4896 -0.5042  0.5902
  693MPD2    C510302   2.261   3.488  10.579 -0.3717 -0.3699  0.1227
  693MPD2     H10303   2.054   3.615  10.879 -0.9719 -0.7915 -0.3119
  693MPD2    H110304   2.425   3.472  10.711 -0.4918 -0.9143 -0.8168
  693MPD2    H210305   2.112   3.548  10.459  1.4427 -0.1860  0.0221
  693MPD2    H310306   2.319   3.455  10.493  0.3092 -1.7807  1.1178
  693MPD2     N10307   2.311   3.524  10.945 -0.5083  0.2030  0.0510
  693MPD2    H510308   2.408   3.493  10.936  0.0689  1.9276  0.4260
  693MPD2    N110309   1.955   3.683  10.637  0.2583  0.1141  0.9398
  693MPD2    H710310   1.927   3.687  10.539 -0.7248 -1.5981  1.1555
  694TMC3    C110311   1.766   3.833  10.664  0.0057  0.1724  0.4369
  694TMC3    C210312   1.719   3.796  10.540 -0.4858  0.1392  0.2507
  694TMC3    C310313   1.579   3.798  10.521 -0.0213 -0.9314 -0.7574
  694TMC3    C410314   1.679   3.874  10.758 -0.3874  0.5574  0.1954
  694TMC3    C510315   1.549   3.872  10.739  0.4072  0.2474  0.9195
  694TMC3    C610316   1.488   3.829  10.625  0.0046 -0.0352  0.4888
  694TMC3     C10317   1.886   3.768  10.721  0.5326  0.1013 -0.1192
  694TMC3     O10318   1.914   3.796  10.837 -0.2452 -0.8092  0.3710
  694TMC3     H10319   1.780   3.739  10.471 -1.1785 -1.3402  0.8598
  694TMC3    H110320   1.717   3.902  10.856 -0.5971 -2.1208  1.0376
  694TMC3    H210321   1.383   3.841  10.601  0.2009  1.9123  0.6400
  694TMC3    C710322   1.466   3.898  10.854 -0.4713  0.1281 -0.0555
  694TMC3    C810323   1.532   3.733  10.395  0.3376  0.4494  0.2112
  694TMC3    O110324   1.362   3.959  10.833  0.1448  0.2227  0.5234
  694TMC3    O210325   1.609   3.740  10.300  0.3880  0.2952 -0.0428
  695MPD2     C10326   3.446   0.434  13.428 -0.3105  0.2269  0.8463
  695MPD2    C110327   3.381   0.423  13.550 -0.6811 -0.3597  0.2071
  695MPD2    C210328   3.248   0.441  13.563  0.1435 -0.3906  0.5303
  695MPD2    C310329   3.169   0.480  13.457 -0.3647  0.1027 -0.4009
  695MPD2    C410330   3.237   0.516  13.340  0.1131  0.3220 -0.8980
  695MPD2    C510331   3.374   0.494  13.331  0.2667  0.0744  0.0166
  695MPD2     H10332   3.208   0.406  13.657 -0.4101 -4.6054 -1.2798
  695MPD2    H110333   3.186   0.544  13.249  0.8735  2.9140 -0.5334
  695MPD2    H210334   3.551   0.422  13.407 -0.3660  1.9768 -0.4901
  695MPD2    H310335   3.428   0.511  13.239  0.7528  3.5592  0.9326
  695MPD2     N10336   3.027   0.496  13.472 -0.5974  0.4308  0.0124
  695MPD2    H510337   2.989   0.467  13.562  1.0956  1.5869  1.0981
  695MPD2    N110338   3.449   0.386  13.669 -0.1847 -0.0458 -0.1355
  695MPD2    H710339   3.401   0.381  13.758 -0.3490  0.6569 -0.1864
  696TMC3    C110340   2.797   0.543  13.446  0.1209 -0.0173  1.2211
  696TMC3    C210341   2.777   0.473  13.562  0.7181 -0.0938  0.2940
  696TMC3    C310342   2.658   0.491  13.628 -0.1345 -0.0665  0.9010
  696TMC3    C410343   2.700   0.629  13.392  0.0894  0.9453 -0.9957
  696TMC3    C510344   2.588   0.644  13.462 -0.7352 -0.0831 -0.1267
  696TMC3    C610345   2.563   0.583  13.582  0.3916 -0.2710 -0.7182
  696TMC3     C10346   2.934   0.555  13.389 -0.6925 -0.3275  0.1735
  696TMC3     O10347   2.944   0.620  13.285 -0.2411  0.2341 -0.7203
  696TMC3     H10348   2.842   0.396  13.603  0.3873 -0.2712  0.4932
  696TMC3    H110349   2.715   0.689  13.304  0.0106  1.2339 -0.8106
  696TMC3    H210350   2.480   0.613  13.644 -0.9694  0.8043 -3.0719
  696TMC3    C710351   2.499   0.747  13.416 -0.2898 -0.2990  0.0873
  696TMC3    C810352   2.656   0.472  13.771 -0.6013 -0.2186 -0.4268
  696TMC3    O110353   2.503   0.764  13.298 -0.4464  0.4120 -0.3507
  696TMC3    O210354   2.765   0.465  13.819  0.2559 -0.2880 -0.2587
  697MPD2     C10355   2.182   2.207  15.771  0.1665 -1.0991 -0.6120
  697MPD2    C110356   2.196   2.141  15.647  0.2740  0.1889 -0.3359
  697MPD2    C210357   2.207   2.216  15.530 -0.4805  0.3903  0.6494
  697MPD2    C310358   2.201   2.350  15.539 -0.1179  0.2056 -0.6281
  697MPD2    C410359   2.200   2.414  15.663  0.3869 -0.2401 -0.2335
  697MPD2    C510360   2.189   2.340  15.776 -0.5713  0.2152  0.8587
  697MPD2     H10361   2.214   2.168  15.434  0.3538 -1.3839  1.5995
  697MPD2    H110362   2.195   2.522  15.674  1.1004 -0.4270  1.8072
  697MPD2    H210363   2.159   2.156  15.863 -0.2162 -1.1203 -0.7195
  697MPD2    H310364   2.178   2.388  15.873  0.7730  0.1437  1.0451
  697MPD2     N10365   2.200   2.419  15.406  0.4601  0.2837  0.1240
  697MPD2    H510366   2.208   2.359  15.325 -0.8678 -2.3776  1.9616
  697MPD2    N110367   2.224   2.003  15.646  0.1490  0.6752 -0.2185
  697MPD2    H710368   2.212   1.957  15.736  0.0271 -0.3088 -0.7441
  698TMC3    C110369   2.211   2.575  15.245 -0.2562 -0.0868 -0.4925
  698TMC3    C210370   2.279   2.685  15.220  0.6854  0.1233  0.0959
  698TMC3    C310371   2.296   2.737  15.097 -0.4088  0.7647  0.6646
  698TMC3    C410372   2.149   2.498  15.151  0.2518 -0.4129 -0.4152
  698TMC3    C510373   2.168   2.551  15.023 -0.2746 -0.6158  0.2298
  698TMC3    C610374   2.245   2.668  14.991  0.1433  0.1666 -0.0397
  698TMC3     C10375   2.200   2.552  15.384  1.1273 -0.1571  0.5143
  698TMC3     O10376   2.201   2.641  15.471  0.1832 -0.3388  0.0134
  698TMC3     H10377   2.319   2.743  15.302 -1.2292  1.0133  0.4230
  698TMC3    H110378   2.091   2.409  15.171 -1.5788  0.9509  0.2872
  698TMC3    H210379   2.262   2.702  14.890  0.3744 -0.4516 -0.2074
  698TMC3    C710380   2.112   2.487  14.904  0.1380  0.1698  0.2352
  698TMC3    C810381   2.408   2.821  15.074  0.1495  0.6579  0.1152
  698TMC3    O110382   2.156   2.524  14.796  0.0413  0.3873 -0.3498
  698TMC3    O210383   2.468   2.854  15.178  0.0377 -0.2932  0.2917
  699TMC3    C110384   2.289   0.678  12.961 -1.3174 -0.0166  0.5618
  699TMC3    C210385   2.353   0.630  13.074 -0.5386 -0.2705 -0.2981
  699TMC3    C310386   2.275   0.549  13.156 -0.2183 -0.2262 -0.4982
  699TMC3    C410387   2.165   0.642  12.933 -0.3986  0.4622 -0.1777
  699TMC3    C510388   2.092   0.561  13.020 -1.0753 -0.7651 -0.0909
  699TMC3    C610389   2.150   0.509  13.125  0.6041  0.1547 -0.0214
  699TMC3     C10390   2.341   0.796  12.892 -0.1234 -0.2695 -0.6907
  699TMC3     O10391   2.331   0.798  12.770  0.0348  0.1406  0.0389
  699TMC3     H10392   2.449   0.671  13.104  0.0727 -0.3937 -2.1097
  699TMC3    H110393   2.113   0.691  12.851  1.8272  0.2056 -1.7495
  699TMC3    H210394   2.091   0.457  13.200  0.1627 -0.0417 -0.5054
  699TMC3    C710395   1.947   0.558  13.017  0.1509 -0.0332  0.3889
  699TMC3    C810396   2.338   0.448  13.245  0.5295 -0.5041 -0.1609
  699TMC3    O110397   1.897   0.544  13.124  0.1509 -0.7309 -0.2278
  699TMC3    O210398   2.260   0.374  13.304  0.1444  0.4958 -0.0979
  700TMC3    C110399   1.872   3.400  17.515  0.5083 -0.4417 -0.2850
  700TMC3    C210400   1.907   3.270  17.467 -0.4310 -0.2128 -0.1936
  700TMC3    C310401   2.041   3.235  17.471  0.2048  0.3150 -0.6280
  700TMC3    C410402   1.962   3.489  17.565  0.6716 -0.3551 -0.1127
  700TMC3    C510403   2.088   3.446  17.579 -0.1180  0.0282  0.7311
  700TMC3    C610404   2.132   3.320  17.534 -0.1733  1.0136 -1.1085
  700TMC3     C10405   1.735   3.446  17.512  1.1679  0.3585  0.3023
  700TMC3     O10406   1.686   3.431  17.622 -0.2784  0.5416 -0.0301
  700TMC3     H10407   1.836   3.209  17.412  0.0990  0.2912 -1.4306
  700TMC3    H110408   1.924   3.582  17.605  1.6711  0.3254 -0.7704
  700TMC3    H210409   2.238   3.305  17.521 -0.3319 -0.7937 -0.3011
  700TMC3    C710410   2.192   3.536  17.616  0.4105  0.5327 -0.0090
  700TMC3    C810411   2.089   3.107  17.425 -0.1672 -0.2075 -0.1454
  700TMC3    O110412   2.300   3.500  17.655 -0.1982 -0.2086 -0.4630
  700TMC3    O210413   2.207   3.089  17.449 -0.3542  0.3557 -0.1279
  701TMC3    C110414   1.611   1.645  15.495 -0.1226 -0.0822 -0.3889
  701TMC3    C210415   1.602   1.651  15.356 -0.1977 -0.7700 -0.5227
  701TMC3    C310416   1.711   1.716  15.295 -0.9896  0.1098  0.7216
  701TMC3    C410417   1.703   1.715  15.566 -0.1385  0.1810  0.6251
  701TMC3    C510418   1.800   1.788  15.495  0.6880 -0.3083 -0.3311
  701TMC3    C610419   1.813   1.785  15.363 -0.2520 -0.2302  0.6411
  701TMC3     C10420   1.487   1.614  15.571  0.2347 -0.6017  0.5682
  701TMC3     O10421   1.487   1.656  15.686  0.3019 -0.3394  0.2178
  701TMC3     H10422   1.517   1.608  15.304  0.4288  0.0953 -2.2562
  701TMC3    H110423   1.697   1.723  15.674  2.6220  2.3672  0.6077
  701TMC3    H210424   1.880   1.845  15.301 -0.7836  0.4208  0.6918
  701TMC3    C710425   1.849   1.913  15.555 -0.1917  0.3622  0.2172
  701TMC3    C810426   1.700   1.751  15.156  0.6158 -0.2702 -0.1833
  701TMC3    O110427   1.891   1.995  15.480 -0.2672 -0.1943 -0.0309
  701TMC3    O210428   1.761   1.841  15.109 -0.1773  0.2701  0.1831
  702MPD2     C10429   0.757   3.697  10.538  0.1078  0.1548  1.1194
  702MPD2    C110430   0.688   3.807  10.590  0.0301 -0.4451 -0.3196
  702MPD2    C210431   0.678   3.925  10.521  0.0660 -0.0598 -0.1801
  702MPD2    C310432   0.741   3.941  10.394  0.3048  0.1693  0.7286
  702MPD2    C410433   0.811   3.834  10.346  0.2346  0.1171 -0.4956
  702MPD2    C510434   0.818   3.717  10.413 -0.6028  0.6191 -0.2316
  702MPD2     H10435   0.627   4.015  10.554  0.3911 -0.9849  2.8385
  702MPD2    H110436   0.847   3.838  10.244  2.3274 -1.7630  0.1737
  702MPD2    H210437   0.774   3.606  10.593  2.4483 -0.1381 -0.0853
  702MPD2    H310438   0.873   3.634  10.370 -0.6590 -0.6309  2.1249
  702MPD2     N10439   0.745   4.069  10.335  0.3066  0.3750 -0.5507
  702MPD2    H510440   0.703   4.149  10.383  0.3944  0.5766 -0.8126
  702MPD2    N110441   0.642   3.807  10.724 -0.1244  0.2118 -0.0815
  702MPD2    H710442   0.608   3.897  10.757 -1.2947  0.4521 -1.9539
  703TMC3    C110443   0.829   4.243  10.211  0.1193 -0.2116 -0.4477
  703TMC3    C210444   0.705   4.297  10.200  0.4256  0.1375  0.1020
  703TMC3    C310445   0.682   4.417  10.143  0.0452 -0.0208 -0.2469
  703TMC3    C410446   0.936   4.304  10.163  0.0518 -0.1205  0.0155
  703TMC3    C510447   0.914   4.417  10.090 -1.0572 -0.4941 -0.1727
  703TMC3    C610448   0.789   4.474  10.076 -0.7749  0.1067  0.3160
  703TMC3     C10449   0.840   4.101  10.240 -0.3108 -0.3806 -0.0486
  703TMC3     O10450   0.945   4.050  10.209  0.0123  0.0314  0.3286
  703TMC3     H10451   0.621   4.230  10.220  1.9397 -1.6412  0.5107
  703TMC3    H110452   1.030   4.249  10.164 -0.4548 -0.9542  1.7602
  703TMC3    H210453   0.773   4.562  10.015  1.3128  1.1743  1.3087
  703TMC3    C710454   1.032   4.475  10.031 -0.4857 -0.2115  0.1819
  703TMC3    C810455   0.561   4.493  10.162 -0.1445  0.9650 -0.2394
  703TMC3    O110456   1.130   4.402  10.032  0.0338 -0.1070  0.7811
  703TMC3    O210457   0.528   4.579  10.078  0.7750 -0.0581 -0.1331
  704TMC3    C110458   3.986   2.505  12.499 -0.5311  1.3151  0.9261
  704TMC3    C210459   3.984   2.510  12.364 -0.2679  0.5771 -0.3563
  704TMC3    C310460   4.097   2.486  12.292 -0.6903  0.4846 -0.0307
  704TMC3    C410461   4.094   2.462  12.567  0.0473  0.2946  0.2744
  704TMC3    C510462   4.198   2.406  12.489  0.1634  0.2738  0.3373
  704TMC3    C610463   4.205   2.431  12.355 -0.1509 -0.2104 -0.4706
  704TMC3     C10464   3.858   2.494  12.565  0.0235  0.0192 -0.6456
  704TMC3     O10465   3.852   2.501  12.689  0.4231 -0.5470  0.0210
  704TMC3     H10466   3.901   2.551  12.307 -1.6463  0.8505  1.8358
  704TMC3    H110467   4.087   2.435  12.672 -2.4327 -0.2345 -0.0312
  704TMC3    H210468   4.288   2.386  12.302 -1.3612 -2.2791 -0.5835
  704TMC3    C710469   4.328   2.382  12.543 -0.3510  0.1519 -0.0988
  704TMC3    C810470   4.072   2.444  12.151  0.3078 -0.2629  0.2250
  704TMC3    O110471   4.415   2.447  12.485 -0.3502  0.3471  0.1416
  704TMC3    O210472   3.960   2.462  12.102  0.3111  0.1715 -0.2629
  705MPD2     C10473   2.804   0.135  16.331  0.3474  0.2350 -0.0349
  705MPD2    C110474   2.836   0.267  16.330  0.8017  1.4321 -0.0070
  705MPD2    C210475   2.735   0.361  16.321 -0.5299  0.0861  0.4198
  705MPD2    C310476   2.602   0.315  16.306 -0.3993 -0.1548 -0.1431
  705MPD2    C410477   2.573   0.182  16.293 -0.6155 -1.1129 -0.4713
  705MPD2    C510478   2.678   0.093  16.303 -0.3260  0.4192  0.4601
  705MPD2     H10479   2.742   0.469  16.315 -0.9239  0.1572  1.2080
  705MPD2    H110480   2.472   0.144  16.282 -2.0804  1.9328  2.5482
  705MPD2    H210481   2.881   0.058  16.336 -0.6795 -0.7213  0.8750
  705MPD2    H310482   2.659   4.723  16.295 -0.4953  0.4453  0.5261
  705MPD2     N10483   2.497   0.401  16.272 -0.0602 -0.0380  0.7303
  705MPD2    H510484   2.408   0.355  16.254  0.5525 -0.8096 -0.3192
  705MPD2    N110485   2.968   0.319  16.327  0.1032 -0.3891 -0.2325
  705MPD2    H710486   2.978   0.420  16.336 -1.0549 -0.2472 -0.5960
  706TMC3    C110487   3.335   0.292  16.039 -0.2257  0.1795 -0.0184
  706TMC3    C210488   3.352   0.427  16.041 -0.3536  0.7369 -0.1727
  706TMC3    C310489   3.278   0.503  16.129 -0.4040 -0.0738  0.3735
  706TMC3    C410490   3.260   0.237  16.138  0.2559 -0.1857  0.3412
  706TMC3    C510491   3.193   0.312  16.231 -0.1483  0.3334 -0.4924
  706TMC3    C610492   3.194   0.449  16.221  0.0708  0.3449  0.1738
  706TMC3     C10493   3.436   0.216  15.968 -0.1357 -0.4164  0.1248
  706TMC3     O10494   3.500   0.138  16.038  0.2765 -0.7887 -0.0961
  706TMC3     H10495   3.413   0.482  15.969 -0.5240  1.8832  0.5612
  706TMC3    H110496   3.251   0.129  16.137 -0.9618 -0.0951  1.1308
  706TMC3    H210497   3.134   0.517  16.281 -2.1436 -0.7354 -0.8028
  706TMC3    C710498   3.074   0.243  16.280 -0.4119  0.1017 -0.3205
  706TMC3    C810499   3.299   0.645  16.115  0.6111  0.5603 -0.7480
  706TMC3    O110500   3.076   0.122  16.263 -0.2947 -0.1651 -0.0203
  706TMC3    O210501   3.327   0.693  16.004 -0.0002 -1.0512 -0.1351
  707TMC3    C110502   0.859   0.129   2.091  0.2052 -0.0077  0.3443
  707TMC3    C210503   0.754   0.057   2.035 -0.8047  0.5390  0.0027
  707TMC3    C310504   0.667   0.127   1.949 -0.1805 -0.6648  0.3731
  707TMC3    C410505   0.878   0.261   2.050  0.0009 -0.0566  0.5148
  707TMC3    C510506   0.789   0.321   1.967  0.0305 -0.0972 -0.6568
  707TMC3    C610507   0.686   0.258   1.911 -0.0395  0.2643  0.8774
  707TMC3     C10508   0.969   0.046   2.116  0.2246 -0.4115  0.3655
  707TMC3     O10509   0.948   4.660   2.102  0.2168 -0.0552  0.6826
  707TMC3     H10510   0.736   4.692   2.067  2.3248  0.2397  0.8411
  707TMC3    H110511   0.962   0.310   2.099 -0.0431  0.2748  0.2565
  707TMC3    H210512   0.615   0.297   1.838 -0.4377  0.3275  1.3004
  707TMC3    C710513   0.846   0.432   1.900  0.4183 -0.0021 -0.6275
  707TMC3    C810514   0.569   0.055   1.875 -0.1798  0.4805  0.0501
  707TMC3    O110515   0.919   0.517   1.956 -0.0529 -0.1677 -0.1751
  707TMC3    O210516   0.458   0.103   1.868 -0.2003  0.1084 -0.0925
  708MPD2     C10517   1.672   3.377  13.951  0.1108 -0.2290  0.6223
  708MPD2    C110518   1.598   3.418  14.060  0.7598  0.2152 -0.1205
  708MPD2    C210519   1.537   3.328  14.141 -0.0718 -0.0494  0.0964
  708MPD2    C310520   1.544   3.191  14.121  0.1063 -0.1907 -0.2540
  708MPD2    C410521   1.623   3.157  14.017  0.7897  0.5728 -0.5061
  708MPD2    C510522   1.682   3.245  13.929  0.1006 -0.9770 -0.0451
  708MPD2     H10523   1.510   3.372  14.237 -0.0062 -0.3709  0.2624
  708MPD2    H110524   1.632   3.050  13.997  0.4499  0.4295  0.1115
  708MPD2    H210525   1.727   3.442  13.884 -1.8056 -2.3585 -3.0356
  708MPD2    H310526   1.739   3.200  13.849  0.3928  2.4331 -1.7597
  708MPD2     N10527   1.476   3.091  14.200  0.0515 -0.3037  0.4065
  708MPD2    H510528   1.490   2.992  14.183 -0.5525 -0.5487  1.3558
  708MPD2    N110529   1.599   3.552  14.100 -0.1378 -0.3605 -0.0919
  708MPD2    H710530   1.546   3.567  14.185 -1.3470 -0.3962 -0.8429
  709TMC3    C110531   1.589   3.775  14.076  0.9958  0.1953 -0.2652
  709TMC3    C210532   1.527   3.853  13.984 -0.0947 -0.4762 -0.6602
  709TMC3    C310533   1.410   3.911  14.030  0.2672 -0.2005 -0.1263
  709TMC3    C410534   1.544   3.764  14.208 -0.1128 -0.3159 -1.1681
  709TMC3    C510535   1.420   3.803  14.232 -0.1024 -0.5457  0.3632
  709TMC3    C610536   1.347   3.876  14.147  0.0375 -0.2480 -0.3020
  709TMC3     C10537   1.638   3.652  14.020  0.1667  0.1601  0.6136
  709TMC3     O10538   1.674   3.659  13.904  0.7085 -0.2595 -0.0182
  709TMC3     H10539   1.557   3.871  13.881  0.6374  0.1262 -0.3391
  709TMC3    H110540   1.592   3.700  14.281 -2.2923 -1.5773 -0.8259
  709TMC3    H210541   1.248   3.914  14.168 -0.3580 -0.2961 -2.1363
  709TMC3    C710542   1.360   3.736  14.344  0.0783  0.3532  0.0911
  709TMC3    C810543   1.329   3.995  13.943  0.2599  0.0361  0.2165
  709TMC3    O110544   1.441   3.692  14.427  0.3198  0.2904 -0.4965
  709TMC3    O210545   1.287   4.105  13.982 -0.1844 -0.1295 -0.6386
  710TMC3    C110546   3.365   0.469   0.303 -0.3732 -0.1596 -0.2261
  710TMC3    C210547   3.452   0.447   0.194 -0.3288 -0.0719 -0.6482
  710TMC3    C310548   3.570   0.396   0.226  0.3364 -0.0875  0.8309
  710TMC3    C410549   3.402   0.443   0.434 -0.3752  0.9365  0.4567
  710TMC3    C510550   3.528   0.393   0.454 -0.2259  0.4534  0.0875
  710TMC3    C610551   3.619   0.374   0.354  0.4065  0.2988 -0.4723
  710TMC3     C10552   3.225   0.479   0.266  0.1070 -0.0716  0.1200
  710TMC3     O10553   3.200   0.467   0.147  0.1089  0.6267 -0.1414
  710TMC3     H10554   3.409   0.456   0.095 -2.2586 -0.9726  0.0997
  710TMC3    H110555   3.330   0.448   0.516 -0.7157 -1.3756  0.3200
  710TMC3    H210556   3.718   0.335   0.370  0.2558  1.4720  3.3636
  710TMC3    C710557   3.531   0.302   0.561 -0.5265 -0.0609 -0.2699
  710TMC3    C810558   3.660   0.368   0.118 -0.6101  0.4429  0.0935
  710TMC3    O110559   3.423   0.270   0.611  0.2639  0.6136 -0.8190
  710TMC3    O210560   3.775   0.340   0.147  0.4480 -0.2368 -1.0997
  711TMC3    C110561   2.351   1.159  14.966 -0.8070 -0.3053 -0.5890
  711TMC3    C210562   2.354   1.234  15.078  0.0440  0.6192  0.6384
  711TMC3    C310563   2.426   1.195  15.182 -0.7210  0.1887  0.1662
  711TMC3    C410564   2.425   1.040  14.953  0.3309 -0.0198 -0.1224
  711TMC3    C510565   2.492   1.005  15.064  0.0838 -0.2271  0.2501
  711TMC3    C610566   2.498   1.081  15.180  0.2189  0.1574 -0.1199
  711TMC3     C10567   2.247   1.172  14.866 -0.3036 -0.1970  0.1457
  711TMC3     O10568   2.261   1.102  14.767 -0.4852  0.5566 -0.6297
  711TMC3     H10569   2.315   1.335  15.083  0.0150  0.6195  0.3761
  711TMC3    H110570   2.426   0.973  14.868  1.4215  2.1383 -1.8143
  711TMC3    H210571   2.547   1.055  15.273 -0.2924  0.4288  0.2289
  711TMC3    C710572   2.532   0.867  15.077 -0.0626  0.6351 -0.1304
  711TMC3    C810573   2.396   1.267  15.304 -0.3436 -0.9234 -0.2368
  711TMC3    O110574   2.617   0.856  15.160 -0.0228 -0.4169  0.0864
  711TMC3    O210575   2.276   1.296  15.316  0.5531  0.2279  0.4124
  712MPD2     C10576   3.820   1.954  14.119  0.2550  0.3290  0.2804
  712MPD2    C110577   3.745   2.019  14.023  0.1774 -0.2871 -0.9858
  712MPD2    C210578   3.759   2.155  14.003  0.8239 -0.2728  0.7773
  712MPD2    C310579   3.849   2.227  14.082 -0.4707  0.2198  0.4183
  712MPD2    C410580   3.926   2.157  14.176  0.5015 -0.1072  0.5008
  712MPD2    C510581   3.910   2.024  14.194 -0.5018  0.1630 -0.0906
  712MPD2     H10582   3.701   2.203  13.925 -0.6726 -0.5915  1.7019
  712MPD2    H110583   4.005   2.201  14.236 -0.1067  1.6588 -0.0006
  712MPD2    H210584   3.809   1.851  14.151  0.6523  0.8172  2.0189
  712MPD2    H310585   3.974   1.979  14.268 -1.0011 -1.4889 -0.6621
  712MPD2     N10586   3.876   2.360  14.064 -0.3191  0.4265 -0.5312
  712MPD2    H510587   3.951   2.403  14.118 -0.2315 -0.8861  0.3904
  712MPD2    N110588   3.661   1.954  13.939 -0.5034  0.7918  0.0664
  712MPD2    H710589   3.621   2.006  13.861 -0.2923  2.4576  1.0778
  713TMC3    C110590   3.875   2.568  13.975  0.0045  0.3357 -0.0782
  713TMC3    C210591   4.011   2.568  13.995 -0.0746  0.0839  0.0942
  713TMC3    C310592   4.071   2.692  13.999  0.4462  0.1396  0.3093
  713TMC3    C410593   3.793   2.681  13.966  0.4488  0.1544 -0.5152
  713TMC3    C510594   3.863   2.800  13.975 -0.1045 -0.2259 -0.2802
  713TMC3    C610595   3.996   2.807  13.987  0.1735 -0.0402 -0.8019
  713TMC3     C10596   3.798   2.452  13.995  0.2711 -0.9960  0.2143
  713TMC3     O10597   3.679   2.448  13.975  0.3078  0.2306  0.3023
  713TMC3     H10598   4.076   2.487  14.025 -2.4174 -0.8708  2.5781
  713TMC3    H110599   3.689   2.669  13.996  0.6949  2.0597  1.0843
  713TMC3    H210600   4.040   2.906  13.989 -0.7388  0.3547  0.7364
  713TMC3    C710601   3.797   2.918  14.021 -0.1943 -0.1157  0.4694
  713TMC3    C810602   4.174   2.700  13.899 -0.8999 -0.8665  0.6558
  713TMC3    O110603   3.866   3.006  14.070 -0.1707  0.1074 -0.2188
  713TMC3    O210604   4.165   2.792  13.818  0.0252 -0.5686 -0.3905
  714MPD2     C10605   1.345   0.898   1.573  0.0020 -0.4589 -0.7643
  714MPD2    C110606   1.378   0.819   1.462  0.1376  0.6850  0.9318
  714MPD2    C210607   1.347   0.860   1.332 -0.9225  0.5886  0.4276
  714MPD2    C310608   1.284   0.980   1.315 -0.2744 -0.0245  0.0667
  714MPD2    C410609   1.252   1.058   1.422  0.0872  0.1008 -0.9594
  714MPD2    C510610   1.268   1.009   1.551 -0.4177 -0.4073  0.1169
  714MPD2     H10611   1.359   0.793   1.248 -0.1757  1.2008  0.0429
  714MPD2    H110612   1.191   1.148   1.426  0.9259  0.6821 -1.1795
  714MPD2    H210613   1.376   0.872   1.674 -0.4728  0.1178 -0.4755
  714MPD2    H310614   1.224   1.072   1.627 -0.8120 -1.9541  1.1577
  714MPD2     N10615   1.266   1.018   1.181  1.0125  0.2582 -0.0501
  714MPD2    H510616   1.300   0.957   1.108  0.1780  0.4833 -0.6316
  714MPD2    N110617   1.467   0.719   1.493 -0.5897  0.4323  0.1327
  714MPD2    H710618   1.493   0.694   1.587  3.9975  1.0444 -0.9905
  715TMC3    C110619   1.634   0.569   1.451  0.0752 -0.1238 -0.1930
  715TMC3    C210620   1.671   0.452   1.391  0.0745 -0.4503 -0.6793
  715TMC3    C310621   1.801   0.404   1.412 -0.0822 -0.0516  0.6656
  715TMC3    C410622   1.720   0.638   1.536  0.3176 -0.4560  0.4185
  715TMC3    C510623   1.844   0.585   1.545  0.1289  0.0025  0.0168
  715TMC3    C610624   1.888   0.471   1.489  0.5212 -0.4544 -1.3268
  715TMC3     C10625   1.506   0.621   1.402  0.2413  0.3558 -0.4041
  715TMC3     O10626   1.459   0.591   1.293 -0.4508 -0.5910  0.2297
  715TMC3     H10627   1.596   0.396   1.335  0.4098  1.0251 -2.6256
  715TMC3    H110628   1.703   0.741   1.563  0.6872 -0.3425  0.2145
  715TMC3    H210629   1.993   0.448   1.504  0.5046  1.5788  2.0672
  715TMC3    C710630   1.928   0.650   1.640 -0.7154 -0.3040  0.2933
  715TMC3    C810631   1.847   0.308   1.306  1.0102  0.8065 -0.6392
  715TMC3    O110632   2.049   0.636   1.623 -0.5320  0.6343 -0.2729
  715TMC3    O210633   1.778   0.279   1.211 -0.3699  0.5747 -0.4125
  716MPD2     C10634   0.779   4.588   9.690 -0.0987  0.3680 -0.3339
  716MPD2    C110635   0.652   4.606   9.638  0.4135  0.3281 -0.3625
  716MPD2    C210636   0.564   4.496   9.621 -0.0957  0.5967  0.1184
  716MPD2    C310637   0.598   4.372   9.671  0.6016  0.1446 -0.0472
  716MPD2    C410638   0.724   4.357   9.722 -0.3715 -0.0374 -0.1723
  716MPD2    C510639   0.811   4.460   9.727  0.0099 -0.0437  0.3158
  716MPD2     H10640   0.467   4.516   9.578 -0.9622 -0.2688  1.6602
  716MPD2    H110641   0.758   4.263   9.763  1.7378  1.3029  1.1939
  716MPD2    H210642   0.845   4.670   9.713 -0.2065  1.1914 -2.9307
  716MPD2    H310643   0.914   4.442   9.756  0.9448 -0.2997 -3.2024
  716MPD2     N10644   0.501   4.265   9.658  0.4327  0.2016  0.0386
  716MPD2    H510645   0.414   4.286   9.609  0.3581  1.0580  0.5311
  716MPD2    N110646   0.637   0.004   9.591 -0.2798 -0.4111 -0.1632
  716MPD2    H710647   0.717   0.066   9.600  0.2773 -1.2434  0.7535
  717TMC3    C110648   0.411   4.050   9.639 -0.2916 -0.0786  0.4302
  717TMC3    C210649   0.285   4.101   9.645  0.5799 -0.2650  0.1715
  717TMC3    C310650   0.193   4.051   9.554  0.4034 -0.4601  0.0577
  717TMC3    C410651   0.447   3.946   9.563  0.0107 -0.1547  0.2324
  717TMC3    C510652   0.347   3.887   9.485 -0.1811  0.5179  0.2699
  717TMC3    C610653   0.221   3.936   9.480 -0.8395 -0.5949  1.2909
  717TMC3     C10654   0.524   4.137   9.684 -0.1114 -0.5692 -0.3614
  717TMC3     O10655   0.627   4.081   9.726 -0.1535 -0.1081 -0.0624
  717TMC3     H10656   0.254   4.179   9.714  1.4103  0.1640  0.0563
  717TMC3    H110657   0.539   3.893   9.582  0.0302 -0.0832  0.3408
  717TMC3    H210658   0.146   3.893   9.416 -0.9604  3.2512 -1.1533
  717TMC3    C710659   0.363   3.759   9.421 -0.0097 -0.4292  0.1757
  717TMC3    C810660   0.056   4.098   9.568 -0.7180  1.1403 -0.0920
  717TMC3    O110661   0.254   3.706   9.394 -0.2940 -0.0460  0.0961
  717TMC3    O210662   0.023   4.165   9.665  0.2861 -0.4914 -0.4242
  718MPD2     C10663   1.048   2.648  13.242 -0.3290  0.5539  0.4034
  718MPD2    C110664   0.962   2.723  13.165  0.3844  0.4420 -0.0071
  718MPD2    C210665   0.830   2.699  13.174  0.5961  0.0701  0.0734
  718MPD2    C310666   0.783   2.603  13.261  0.4868  0.2867 -0.1879
  718MPD2    C410667   0.871   2.528  13.343 -0.0179 -0.2608 -0.3561
  718MPD2    C510668   1.004   2.560  13.337  0.8180 -0.4016 -0.2545
  718MPD2     H10669   0.759   2.750  13.109 -1.1243 -0.3141  1.6504
  718MPD2    H110670   0.829   2.463  13.419  1.0683 -0.3889  0.1340
  718MPD2    H210671   1.155   2.666  13.240  0.0672 -1.7607  1.1369
  718MPD2    H310672   1.069   2.497  13.396  0.9351 -0.1721 -0.1389
  718MPD2     N10673   0.648   2.568  13.227  0.5803 -0.2956 -0.3852
  718MPD2    H510674   0.597   2.625  13.161  0.2680  1.8560  1.7212
  718MPD2    N110675   1.014   2.811  13.068 -0.5004 -0.5080  0.8542
  718MPD2    H710676   1.113   2.802  13.050 -0.5208 -0.0159  0.4830
  719TMC3    C110677   1.019   2.946  12.890  0.0704  0.0466  0.7822
  719TMC3    C210678   1.012   2.841  12.810 -0.1032  0.1288  0.3498
  719TMC3    C310679   0.959   2.854  12.688  0.0085  0.2694  0.6346
  719TMC3    C410680   0.978   3.067  12.843 -0.2496  0.7761  0.6675
  719TMC3    C510681   0.937   3.079  12.717  0.0606 -0.0722  0.6148
  719TMC3    C610682   0.922   2.975  12.630 -0.4894  0.7059  0.1832
  719TMC3     C10683   0.950   2.914  13.012  0.2992 -0.2025 -0.1709
  719TMC3     O10684   0.834   2.958  13.025  0.1973 -0.4626 -0.6712
  719TMC3     H10685   1.047   2.746  12.849 -0.1050  0.9365  2.3315
  719TMC3    H110686   0.981   3.156  12.905 -1.3088  1.0491  0.3367
  719TMC3    H210687   0.905   2.986  12.524 -0.7060 -1.2286  0.0171
  719TMC3    C710688   0.973   3.204  12.648 -0.5533  0.3751 -0.6187
  719TMC3    C810689   0.873   2.740  12.650  0.2994  0.3764 -0.0442
  719TMC3    O110690   0.931   3.228  12.536 -0.1012  0.3900  1.2940
  719TMC3    O210691   0.897   2.630  12.701 -0.1242  0.4799  0.2311
  720MPD2     C10692   3.786   3.978  14.340  0.0741 -0.4054  0.5389
  720MPD2    C110693   3.895   3.999  14.249  0.1635 -0.3167  0.1171
  720MPD2    C210694   4.022   4.016  14.290 -0.8592  0.4197 -0.5422
  720MPD2    C310695   4.054   3.991  14.426 -0.6352  0.2883 -0.1419
  720MPD2    C410696   3.947   3.986  14.517  0.0560  0.5291 -0.4308
  720MPD2    C510697   3.819   3.980  14.472 -0.0505 -0.8298 -0.3428
  720MPD2     H10698   4.108   4.035  14.227  0.1366 -0.0354  0.6789
  720MPD2    H110699   3.965   3.988  14.624 -1.2369 -0.6155 -0.2002
  720MPD2    H210700   3.683   3.968  14.308  0.0615 -1.6357  0.9632
  720MPD2    H310701   3.733   3.969  14.538 -0.8308 -0.9067 -1.3804
  720MPD2     N10702   4.194   4.007  14.459  0.1897 -0.4676 -0.1341
  720MPD2    H510703   4.255   4.038  14.384 -1.9655  0.9587 -1.3305
  720MPD2    N110704   3.873   4.008  14.111 -1.0663  0.1536 -0.0890
  720MPD2    H710705   3.775   3.996  14.086 -0.2791 -0.3059 -2.8823
  721TMC3    C110706   4.387   4.017  14.589 -0.2716 -0.0981 -0.7063
  721TMC3    C210707   4.446   4.026  14.715 -0.1065 -0.7562  0.1438
  721TMC3    C310708   4.578   4.027  14.729 -0.6283 -0.1818  0.2175
  721TMC3    C410709   4.467   4.012  14.479  0.4740  0.1128  0.4508
  721TMC3    C510710   4.606   4.004  14.496  0.3952 -0.1082  0.2910
  721TMC3    C610711   4.661   4.007  14.621  0.5943  0.1407  0.0801
  721TMC3     C10712   4.248   3.993  14.585  0.2607 -0.0839 -0.4076
  721TMC3     O10713   4.196   3.932  14.679  0.3609 -0.0168  0.1626
  721TMC3     H10714   4.377   4.046  14.796 -0.4798  3.6228 -1.2209
  721TMC3    H110715   4.441   4.007  14.373 -1.5220 -1.1500  1.0077
  721TMC3    H210716   0.033   4.018  14.632  0.3421  0.1031  2.4977
  721TMC3    C710717   4.699   3.992  14.388 -0.0777  0.0164  0.1654
  721TMC3    C810718   4.641   4.048  14.860  0.5570  0.2189  0.9738
  721TMC3    O110719   4.689   4.055  14.283  0.1489  0.5880 -0.1814
  721TMC3    O210720   0.011   3.989  14.881  0.2136 -0.7921 -0.2652
  722MPD2     C10721   2.667   2.862  13.472 -0.3227 -0.3808  0.1960
  722MPD2    C110722   2.748   2.890  13.363 -0.4056 -0.4469 -0.1162
  722MPD2    C210723   2.686   2.895  13.237  0.6272  0.1669  0.4484
  722MPD2    C310724   2.555   2.873  13.216  0.3470 -0.4250  0.4402
  722MPD2    C410725   2.479   2.851  13.329 -0.4495 -0.7371  0.0021
  722MPD2    C510726   2.536   2.842  13.453 -0.0068  0.1911  0.7905
  722MPD2     H10727   2.746   2.933  13.155 -1.8697 -1.4086 -2.0824
  722MPD2    H110728   2.373   2.834  13.342  0.1893 -3.0473  2.0784
  722MPD2    H210729   2.705   2.850  13.573  1.3819  1.0703 -0.2664
  722MPD2    H310730   2.469   2.843  13.538 -0.7207  1.7608  0.2003
  722MPD2     N10731   2.500   2.894  13.089 -0.0329 -0.4951  0.4373
  722MPD2    H510732   2.559   2.933  13.017 -0.3922 -1.3357 -0.3145
  722MPD2    N110733   2.883   2.936  13.379  1.2259  0.1298  0.2663
  722MPD2    H710734   2.936   2.982  13.306 -1.2412  2.5590 -0.0159
  723TMC3    C110735   2.325   2.940  12.944 -0.3933  0.7207  0.0591
  723TMC3    C210736   2.228   2.877  12.873 -0.2769  0.1197 -0.2711
  723TMC3    C310737   2.200   2.945  12.755 -0.5537  0.6583  0.1520
  723TMC3    C410738   2.399   3.050  12.907 -1.1095 -0.1668  0.6776
  723TMC3    C510739   2.361   3.108  12.793 -0.5876  0.6324  0.8666
  723TMC3    C610740   2.272   3.051  12.712 -0.6737 -0.3965 -0.0003
  723TMC3     C10741   2.367   2.872  13.061 -0.1774 -0.6497 -0.6721
  723TMC3     O10742   2.286   2.802  13.118  0.0746  0.0002 -0.2162
  723TMC3     H10743   2.173   2.791  12.910  3.1983 -0.9543  2.3651
  723TMC3    H110744   2.470   3.100  12.971 -0.8050  0.8602 -0.4838
  723TMC3    H210745   2.247   3.089  12.613 -0.5032 -0.6541 -0.1447
  723TMC3    C710746   2.367   3.249  12.790 -0.4945  0.5721 -0.2350
  723TMC3    C810747   2.067   2.935  12.712  0.3051  0.0213  0.6685
  723TMC3    O110748   2.336   3.305  12.685 -0.4563  0.1140  0.2904
  723TMC3    O210749   2.022   3.041  12.670  0.0678  0.8254  0.1755
  724TMC3    C110750   1.845   0.846  10.370 -0.4254 -0.3702  0.1049
  724TMC3    C210751   1.841   0.953  10.285  0.1471  0.9307 -0.0184
  724TMC3    C310752   1.902   1.072  10.325  0.4983  0.3303 -0.3191
  724TMC3    C410753   1.929   0.851  10.472  0.6450  0.0774  0.5810
  724TMC3    C510754   1.982   0.972  10.519 -0.2972  0.2880 -0.4052
  724TMC3    C610755   1.967   1.085  10.445  0.3225 -0.0819  0.0978
  724TMC3     C10756   1.787   0.721  10.331 -0.2471 -0.0149  0.3240
  724TMC3     O10757   1.828   0.621  10.387  0.6080  0.3926 -0.5915
  724TMC3     H10758   1.777   0.948  10.197 -0.1533  2.1985  0.1233
  724TMC3    H110759   1.925   0.766  10.539 -1.4433  1.0449  1.6973
  724TMC3    H210760   1.975   1.183  10.490 -1.4048  0.7034 -1.3152
  724TMC3    C710761   2.075   0.986  10.627 -0.4622  0.1431  0.0415
  724TMC3    C810762   1.869   1.192  10.245 -0.0942  0.9842  0.0878
  724TMC3    O110763   2.100   1.100  10.661 -0.0661  0.1646 -0.2503
  724TMC3    O210764   1.806   1.166  10.144 -0.2144  0.1049 -0.3019
  725TMC3    C110765   4.160   4.509  12.943 -0.4105  0.2380 -0.1432
  725TMC3    C210766   4.118   4.544  12.816  0.0576 -0.1547  0.1527
  725TMC3    C310767   4.113   4.449  12.723  0.1691 -0.3511  0.7742
  725TMC3    C410768   4.199   4.374  12.973  0.2676 -0.1619 -0.2319
  725TMC3    C510769   4.202   4.284  12.872  0.0917  0.2442  0.4369
  725TMC3    C610770   4.149   4.321  12.754 -0.7914 -0.2151  0.1640
  725TMC3     C10771   4.187   4.609  13.039  0.0323  0.5951 -0.2457
  725TMC3     O10772   4.217   4.718  12.994  0.0345 -0.1300  0.5056
  725TMC3     H10773   4.092   4.649  12.803 -2.0378 -0.4983  1.5789
  725TMC3    H110774   4.258   4.360  13.062  0.3510 -1.4821 -0.4952
  725TMC3    H210775   4.145   4.245  12.677  0.4843 -0.3012  0.1732
  725TMC3    C710776   4.278   4.157  12.873  0.0415 -0.3389  0.2100
  725TMC3    C810777   4.028   4.466  12.600 -0.9642 -0.5856  0.7859
  725TMC3    O110778   4.280   4.087  12.774  0.4495 -0.1549 -0.0528
  725TMC3    O210779   3.947   4.376  12.579  0.2174  0.0651  0.1709
  726MPD2     C10780   2.082   1.967  11.128  0.4055 -0.4989  0.6612
  726MPD2    C110781   1.967   2.024  11.067  0.3815  0.1791 -0.0383
  726MPD2    C210782   1.838   1.966  11.089  0.4291  0.3474 -0.4274
  726MPD2    C310783   1.828   1.847  11.170 -0.2795  0.3221  0.2577
  726MPD2    C410784   1.943   1.797  11.222 -0.9521 -0.2944 -0.5644
  726MPD2    C510785   2.067   1.852  11.194  0.3201  0.3742 -0.1079
  726MPD2     H10786   1.758   1.998  11.022 -2.1566 -2.0637  1.5004
  726MPD2    H110787   1.934   1.698  11.266  1.6632 -0.8199 -1.2398
  726MPD2    H210788   2.183   1.992  11.099 -0.6222  1.6660 -1.0306
  726MPD2    H310789   2.152   1.797  11.233 -1.2259 -2.1626 -0.3158
  726MPD2     N10790   1.703   1.788  11.198 -0.1965 -0.2755  0.0050
  726MPD2    H510791   1.697   1.699  11.246  3.3678 -0.1891  0.6399
  726MPD2    N110792   1.969   2.142  10.990  0.0934 -0.7981 -0.1492
  726MPD2    H710793   1.882   2.178  10.952 -0.9063 -1.4036  1.5530
  727TMC3    C110794   2.043   2.351  10.903 -0.2742  0.2325  0.4265
  727TMC3    C210795   2.150   2.432  10.881  0.3392 -0.7249  0.5023
  727TMC3    C310796   2.136   2.525  10.778 -0.1985 -0.0347  1.4532
  727TMC3    C410797   1.920   2.357  10.837 -0.7185  0.0892  0.1727
  727TMC3    C510798   1.914   2.452  10.739  0.1598 -0.3008  0.2986
  727TMC3    C610799   2.019   2.536  10.706 -0.8863 -0.0101 -0.9723
  727TMC3     C10800   2.074   2.230  10.978  0.2761 -0.1333  0.4566
  727TMC3     O10801   2.193   2.205  10.990  0.4723  0.1481 -0.4945
  727TMC3     H10802   2.249   2.420  10.921 -0.2184 -0.9551  1.8025
  727TMC3    H110803   1.848   2.276  10.838 -0.7106  0.0835  0.3003
  727TMC3    H210804   2.016   2.600  10.618  1.8449  1.6242  0.1233
  727TMC3    C710805   1.793   2.454  10.658 -0.4155  0.2970 -0.5920
  727TMC3    C810806   2.249   2.608  10.746  0.1076 -0.3266 -0.0498
  727TMC3    O110807   1.721   2.354  10.664  0.6195  0.0655  0.4718
  727TMC3    O210808   2.330   2.612  10.839 -0.6274 -0.1297  0.3433
  728TMC3    C110809   2.131   4.662  15.003 -0.3304  0.5354 -0.0355
  728TMC3    C210810   2.256   4.676  14.960  0.4116  0.1325 -0.0116
  728TMC3    C310811   2.277   0.027  14.860 -0.3901  0.4812 -0.0294
  728TMC3    C410812   2.022   4.721  14.951 -0.1486  0.0004  0.0275
  728TMC3    C510813   2.048   0.079  14.855  0.1548 -0.8426  0.4657
  728TMC3    C610814   2.174   0.100  14.805  0.0438  0.7332 -0.0440
  728TMC3     C10815   2.122   4.612  15.141  0.0026  1.0084 -0.0669
  728TMC3     O10816   2.227   4.598  15.199  0.3576 -0.1525 -0.1125
  728TMC3     H10817   2.344   4.635  15.007  1.2844  1.1437 -0.7446
  728TMC3    H110818   1.922   4.711  14.993 -0.1338  1.5098  0.4226
  728TMC3    H210819   2.191   0.161  14.717  1.6929 -0.8038 -0.7976
  728TMC3    C710820   1.933   0.106  14.768  0.4623 -0.0861 -0.1544
  728TMC3    C810821   2.406   0.044  14.802 -0.2357  0.5168 -0.4260
  728TMC3    O110822   1.856   0.011  14.760  0.1297  0.1573 -0.3476
  728TMC3    O210823   2.425   0.152  14.761 -0.6991 -0.2325 -0.0146
  729MPD2     C10824   3.585   1.598  16.724 -0.6685  0.5078  0.1184
  729MPD2    C110825   3.672   1.511  16.675 -0.0858  0.7154 -1.2770
  729MPD2    C210826   3.764   1.445  16.756  0.0742  0.2950 -0.1049
  729MPD2    C310827   3.768   1.467  16.892  0.4175  1.3154 -0.0532
  729MPD2    C410828   3.678   1.556  16.942  0.5491  0.1101  0.1184
  729MPD2    C510829   3.584   1.615  16.857  0.4914  0.0700 -0.0539
  729MPD2     H10830   3.853   1.404  16.710  0.4751 -2.3202  3.0024
  729MPD2    H110831   3.671   1.584  17.047  2.4761 -0.3665  0.3813
  729MPD2    H210832   3.518   1.651  16.657 -0.5741 -1.0650 -1.2305
  729MPD2    H310833   3.523   1.697  16.893 -0.0889 -0.4595  0.1697
  729MPD2     N10834   3.879   1.417  16.969 -0.2044 -0.0931 -0.4298
  729MPD2    H510835   3.946   1.363  16.914  0.4681 -0.4908  0.7862
  729MPD2    N110836   3.670   1.483  16.535  0.1703 -0.5400 -0.1202
  729MPD2    H710837   3.618   1.546  16.475 -0.6036 -2.0448 -1.0263
  730TMC3    C110838   4.040   1.394  17.136  0.7709 -0.0429  0.1400
  730TMC3    C210839   4.118   1.338  17.037 -0.0462 -0.6045  0.0133
  730TMC3    C310840   4.247   1.367  17.042 -0.2865 -0.0965 -0.4887
  730TMC3    C410841   4.092   1.465  17.236  0.1943  0.2293  0.4464
  730TMC3    C510842   4.225   1.494  17.228  0.2762 -0.5441  0.2851
  730TMC3    C610843   4.306   1.449  17.129  0.3874 -0.0792  0.0136
  730TMC3     C10844   3.900   1.428  17.103 -0.1153 -0.5535  0.1516
  730TMC3     O10845   3.831   1.479  17.187 -0.1281 -0.3185 -0.1070
  730TMC3     H10846   4.074   1.273  16.962 -1.0788  0.4533 -0.3053
  730TMC3    H110847   4.020   1.510  17.303 -0.1689  1.2027 -0.5961
  730TMC3    H210848   4.409   1.479  17.115  0.7887 -0.2759  2.5036
  730TMC3    C710849   4.255   1.632  17.271  0.3026  0.6008  0.2748
  730TMC3    C810850   4.290   1.380  16.900  0.0128  0.0613  0.2211
  730TMC3    O110851   4.321   1.699  17.194 -0.3562  1.0028  0.2895
  730TMC3    O210852   4.211   1.377  16.804  0.2846  0.0238  0.1444
  731MPD2     C10853   3.819   4.250  12.852  0.0332 -0.3753 -0.4534
  731MPD2    C110854   3.866   4.125  12.813  0.5677  0.4701 -0.0687
  731MPD2    C210855   3.906   4.037  12.917  0.2821 -0.3006  0.2595
  731MPD2    C310856   3.883   4.068  13.045  0.0327 -0.0094  0.3624
  731MPD2    C410857   3.812   4.182  13.078 -0.4160  0.8562 -0.0527
  731MPD2    C510858   3.780   4.267  12.978  0.7767 -0.0486 -0.2224
  731MPD2     H10859   3.939   3.935  12.900  2.7763  0.6513 -0.6176
  731MPD2    H110860   3.779   4.211  13.178  1.6528  0.1283  0.8287
  731MPD2    H210861   3.795   4.323  12.776 -1.1833 -0.1481  0.1470
  731MPD2    H310862   3.738   4.364  12.999 -0.2942 -0.8298  1.2182
  731MPD2     N10863   3.922   3.968  13.135  0.4038  0.6815 -0.3778
  731MPD2    H510864   3.953   3.881  13.094  0.3219  0.5926 -0.2485
  731MPD2    N110865   3.895   4.105  12.677 -0.2614  0.2244  0.2527
  731MPD2    H710866   3.864   4.177  12.613  1.0003  0.4665 -0.0951
  732TMC3    C110867   3.979   4.016  12.494 -0.4459  0.3300  0.8402
  732TMC3    C210868   3.882   4.073  12.415 -0.0531  0.1387  0.5971
  732TMC3    C310869   3.921   4.180  12.337 -0.1543 -0.2107  1.1150
  732TMC3    C410870   4.111   4.051  12.485 -0.8464 -0.0602  0.9010
  732TMC3    C510871   4.144   4.166  12.411 -0.5249  0.2226 -0.4894
  732TMC3    C610872   4.048   4.240  12.342 -0.6202  0.1478 -0.2531
  732TMC3     C10873   3.933   3.987  12.624  0.1598 -0.4718  0.0361
  732TMC3     O10874   3.972   3.884  12.679  0.2316 -0.3461  0.8393
  732TMC3     H10875   3.778   4.044  12.432 -0.1468  2.0895  3.3121
  732TMC3    H110876   4.179   4.005  12.556  0.5370  0.3851 -0.1350
  732TMC3    H210877   4.066   4.332  12.287 -2.0097  0.6825  0.2039
  732TMC3    C710878   4.269   4.230  12.444 -0.1643 -0.3606  0.2298
  732TMC3    C810879   3.837   4.223  12.228  0.7466  0.6257 -0.3012
  732TMC3    O110880   4.269   4.353  12.439  0.1426 -0.1558 -0.5491
  732TMC3    O210881   3.884   4.311  12.159 -0.2150 -0.2553  0.7205
  733TMC3    C110882   0.270   2.300  13.182  0.2492  0.2685  0.9873
  733TMC3    C210883   0.372   2.345  13.258 -0.1911 -0.1998  0.2597
  733TMC3    C310884   0.461   2.429  13.209  0.2986 -0.2385 -1.4992
  733TMC3    C410885   0.250   2.348  13.057 -0.3308  0.1382  0.3142
  733TMC3    C510886   0.346   2.430  13.007 -0.2678 -0.3316  0.1678
  733TMC3    C610887   0.451   2.474  13.080 -0.6576  0.0383  0.5432
  733TMC3     C10888   0.181   2.211  13.256 -0.0143  0.3616  0.8773
  733TMC3     O10889   0.221   2.150  13.351  0.0901  0.2660 -0.2302
  733TMC3     H10890   0.387   2.309  13.359  0.0802  0.1758  0.3511
  733TMC3    H110891   0.176   2.297  12.996  0.2485 -1.0656  0.6173
  733TMC3    H210892   0.519   2.546  13.036 -1.8281  2.7881  3.2856
  733TMC3    C710893   0.344   2.468  12.863  0.7183  0.6338  0.0187
  733TMC3    C810894   0.582   2.459  13.279 -0.1902 -0.2539  0.1205
  733TMC3    O110895   0.237   2.485  12.809 -0.1743  0.2613 -0.1956
  733TMC3    O210896   0.616   2.391  13.378 -0.2722 -0.3048  0.6114
  734MPD2     C10897   1.741   0.110  12.812  0.5148  0.3187 -0.3514
  734MPD2    C110898   1.673   0.026  12.733 -0.7879  0.2810 -0.0205
  734MPD2    C210899   1.671   0.053  12.598  0.1924 -0.1308 -0.3763
  734MPD2    C310900   1.729   0.169  12.543 -0.0894 -0.3273 -0.0140
  734MPD2    C410901   1.783   0.267  12.632  0.2755  0.7531 -0.3273
  734MPD2    C510902   1.777   0.234  12.769  0.0636  0.1040 -0.1971
  734MPD2     H10903   1.616   4.722  12.534  0.6554 -0.2487 -0.6520
  734MPD2    H110904   1.831   0.358  12.599  3.3480 -1.4068 -1.7730
  734MPD2    H210905   1.752   0.092  12.918  0.1470  0.2317 -0.3310
  734MPD2    H310906   1.835   0.298  12.835  1.0914  0.2835 -1.2708
  734MPD2     N10907   1.729   0.180  12.403  0.4211 -0.2326 -0.1560
  734MPD2    H510908   1.696   0.099  12.351  2.5022 -0.2404 -1.4547
  734MPD2    N110909   1.615   4.645  12.784  0.5197  0.4404 -0.2604
  734MPD2    H710910   1.632   4.617  12.880  0.4222  2.1011  0.2423
  735TMC3    C110911   1.536   4.420  12.777  0.1760 -0.1920  0.1015
  735TMC3    C210912   1.449   4.340  12.705  0.1646 -0.5772 -0.2792
  735TMC3    C310913   1.485   4.215  12.653  0.1406 -0.2037 -0.2210
  735TMC3    C410914   1.666   4.379  12.790  0.2793 -0.2661  0.2018
  735TMC3    C510915   1.695   4.254  12.749 -0.2658  0.2118  0.4473
  735TMC3    C610916   1.603   4.171  12.690 -0.0032 -0.1763  0.6921
  735TMC3     C10917   1.537   4.556  12.720 -0.0171 -0.7823  0.8079
  735TMC3     O10918   1.463   4.562  12.623 -0.6643 -0.0995 -0.0901
  735TMC3     H10919   1.347   4.375  12.690  0.8517  1.9724  1.0336
  735TMC3    H110920   1.744   4.446  12.822  1.2484 -0.7129 -1.2273
  735TMC3    H210921   1.633   4.079  12.642  1.3124  2.1389 -2.9689
  735TMC3    C710922   1.832   4.233  12.702 -0.5099  0.9303 -0.1129
  735TMC3    C810923   1.460   4.202  12.512 -0.0786  0.1200 -0.5840
  735TMC3    O110924   1.879   4.332  12.650  0.2400 -0.1828  0.7835
  735TMC3    O210925   1.490   4.099  12.453  0.5512  0.3164 -0.2319
  736MPD2     C10926   2.051   3.935  12.715  0.0190 -0.0428  0.7185
  736MPD2    C110927   2.001   4.057  12.670  0.0136  0.7680 -0.1835
  736MPD2    C210928   2.068   4.121  12.570 -0.4862  0.1223  0.7918
  736MPD2    C310929   2.178   4.063  12.512  0.0259 -0.1802  0.0789
  736MPD2    C410930   2.231   3.950  12.566  0.8871  0.2936  0.6807
  736MPD2    C510931   2.168   3.889  12.666 -0.4044 -0.1876 -0.3038
  736MPD2     H10932   2.037   4.217  12.530  0.1627 -0.1825 -0.4639
  736MPD2    H110933   2.329   3.919  12.533 -0.6402  0.1499 -3.6793
  736MPD2    H210934   2.011   3.877  12.797 -0.5578  0.3321  0.6956
  736MPD2    H310935   2.210   3.799  12.709 -1.7233 -0.4574  0.4351
  736MPD2     N10936   2.253   4.108  12.398 -0.2970  0.1416  0.3554
  736MPD2    H510937   2.338   4.059  12.372 -0.2854  0.0564  0.5533
  736MPD2    N110938   1.882   4.111  12.733 -0.3584 -0.6258 -0.6539
  736MPD2    H710939   1.828   4.056  12.798  0.4840 -0.3477  0.2817
  737TMC3    C110940   2.291   4.229  12.197 -0.1387  0.2741 -0.5593
  737TMC3    C210941   2.269   4.343  12.130 -0.0987 -0.1300  0.1238
  737TMC3    C310942   2.341   4.363  12.016 -0.0140 -0.1317  0.2105
  737TMC3    C410943   2.370   4.127  12.141  0.3926 -0.3547 -0.1531
  737TMC3    C510944   2.435   4.153  12.025  0.8037  0.1796  0.0489
  737TMC3    C610945   2.424   4.275  11.964 -0.1789  0.6075 -0.2995
  737TMC3     C10946   2.223   4.221  12.324  0.2455 -0.0054  0.2381
  737TMC3     O10947   2.150   4.312  12.353  0.0942 -0.4781 -0.1844
  737TMC3     H10948   2.206   4.424  12.165  0.2848 -0.1172  0.7739
  737TMC3    H110949   2.379   4.026  12.181 -1.6941 -0.6407 -0.3926
  737TMC3    H210950   2.489   4.308  11.885  2.1478  0.6923  1.6423
  737TMC3    C710951   2.529   4.055  11.973 -0.0278  1.3581  0.0177
  737TMC3    C810952   2.331   4.500  11.957  0.7354  0.3104  0.8789
  737TMC3    O110953   2.563   3.958  12.039  0.0386 -0.1144 -0.0440
  737TMC3    O210954   2.305   4.593  12.030 -0.5163  0.3588  0.2858
  738MPD2     C10955   2.508   3.026  14.799  0.1087 -0.1902 -0.1898
  738MPD2    C110956   2.527   2.960  14.916 -0.1425  0.2348  0.1211
  738MPD2    C210957   2.646   2.962  14.981 -0.0077 -0.2814  0.2671
  738MPD2    C310958   2.746   3.038  14.932  0.5676 -0.6727 -0.3135
  738MPD2    C410959   2.727   3.118  14.819 -0.3402 -0.6354 -0.3170
  738MPD2    C510960   2.608   3.107  14.747  0.2757  0.6611 -0.4732
  738MPD2     H10961   2.662   2.896  15.064 -1.3144 -1.7977 -0.6934
  738MPD2    H110962   2.803   3.185  14.781 -1.0776 -0.3651 -1.3385
  738MPD2    H210963   2.421   3.015  14.735 -0.9155  0.9755  0.9914
  738MPD2    H310964   2.615   3.160  14.653  2.5549 -1.1252 -1.3185
  738MPD2     N10965   2.877   3.036  14.980 -0.1123 -0.0505  0.7197
  738MPD2    H510966   2.946   3.093  14.932 -0.8153 -1.0140 -1.4059
  738MPD2    N110967   2.417   2.878  14.951  0.3305 -0.3037  0.8296
  738MPD2    H710968   2.342   2.869  14.883  1.3867  2.0516 -0.6291
  739TMC3    C110969   3.059   2.972  15.114 -0.2679  0.0631 -0.1463
  739TMC3    C210970   3.131   2.969  14.998  0.5259  0.2332 -0.4528
  739TMC3    C310971   3.263   2.992  15.011 -0.4096  0.2236  0.0667
  739TMC3    C410972   3.110   2.961  15.239 -0.3318  0.9043 -0.0831
  739TMC3    C510973   3.244   2.953  15.248  0.0426  0.8291  0.0543
  739TMC3    C610974   3.322   2.994  15.136 -0.2073 -0.2183  0.2248
  739TMC3     C10975   2.913   2.975  15.100  0.6545 -0.3354  0.2600
  739TMC3     O10976   2.855   2.891  15.167 -0.1171 -0.7048  0.1685
  739TMC3     H10977   3.088   2.979  14.900 -0.2922 -1.3889 -0.2495
  739TMC3    H110978   3.047   2.964  15.328  2.0979 -0.8579  1.6979
  739TMC3    H210979   3.430   2.992  15.135 -0.2472 -1.1401 -1.6636
  739TMC3    C710980   3.304   2.900  15.371  0.2317 -0.3097  0.6625
  739TMC3    C810981   3.330   3.041  14.897  1.3021  0.0841  0.4264
  739TMC3    O110982   3.226   2.832  15.438  1.3327 -0.5744 -0.1352
  739TMC3    O210983   3.283   3.003  14.793  0.2869 -0.3434  0.0053
  740TMC3    C110984   3.742   4.482  14.544  0.3475 -0.5805  0.0672
  740TMC3    C210985   3.799   4.411  14.653 -0.5731 -0.7359  0.5450
  740TMC3    C310986   3.924   4.369  14.636 -0.1941  0.5903 -0.2511
  740TMC3    C410987   3.811   4.502  14.431  0.0638 -0.8022  0.1274
  740TMC3    C510988   3.932   4.444  14.415  0.1671 -0.3806  0.9142
  740TMC3    C610989   3.992   4.381  14.521 -0.0866 -0.0923 -0.2869
  740TMC3     C10990   3.620   4.568  14.559 -0.8156  0.4194 -0.3151
  740TMC3     O10991   3.594   4.649  14.472  0.1189  0.0331  0.4095
  740TMC3     H10992   3.738   4.396  14.741 -3.5916  0.1353 -1.4138
  740TMC3    H110993   3.759   4.560  14.355 -0.8787 -1.2115  0.4654
  740TMC3    H210994   4.086   4.327  14.520  0.0267  0.0804  0.7711
  740TMC3    C710995   3.994   4.419  14.287  0.4311  0.2598 -0.4963
  740TMC3    C810996   3.988   4.299  14.746 -0.6097  0.4767  0.8031
  740TMC3    O110997   4.089   4.338  14.287 -0.0010 -0.4178  0.1759
  740TMC3    O210998   4.070   4.210  14.734 -0.4218  0.4682 -0.0231
  741TMC3    C110999   3.055   3.769  14.411  0.5719 -0.5268  0.9645
  741TMC3    C211000   2.954   3.684  14.362 -0.1335  0.6267 -0.1979
  741TMC3    C311001   2.917   3.569  14.419 -0.5515  0.0230 -0.2658
  741TMC3    C411002   3.120   3.726  14.519 -0.4526  0.6149  0.5304
  741TMC3    C511003   3.059   3.630  14.599 -0.1420 -0.4453 -0.2495
  741TMC3    C611004   2.959   3.547  14.543 -0.6938 -0.1667  0.3711
  741TMC3     C11005   3.144   3.830  14.321 -0.6233 -0.0170  0.2553
  741TMC3     O11006   3.262   3.805  14.330 -0.0734 -0.3210 -0.0707
  741TMC3     H11007   2.943   3.696  14.255 -0.3074 -2.0182 -0.4873
  741TMC3    H111008   3.207   3.786  14.541  0.6141 -1.1346  1.0936
  741TMC3    H211009   2.912   3.468  14.602 -0.3007  1.5708  3.0362
  741TMC3    C711010   3.113   3.597  14.730 -0.1389  0.0427  0.3517
  741TMC3    C811011   2.823   3.483  14.352  0.3309 -0.4610  0.2009
  741TMC3    O111012   3.081   3.492  14.788 -0.4974  0.3422 -0.0109
  741TMC3    O211013   2.782   3.525  14.246 -0.0144  0.7378  0.0785
  742TMC3    C111014   2.984   1.993  15.520 -0.0284  0.3948 -0.0077
  742TMC3    C211015   2.890   2.008  15.418  0.2956  0.3006  0.5773
  742TMC3    C311016   2.946   2.054  15.298 -0.3210 -0.6848  0.8868
  742TMC3    C411017   3.116   2.024  15.520 -0.2186 -0.4864 -0.2923
  742TMC3    C511018   3.166   2.073  15.401  0.0123  0.7962 -0.4071
  742TMC3    C611019   3.084   2.073  15.285  0.9763 -0.2780  0.4731
  742TMC3     C11020   2.928   1.965  15.652 -0.4898  1.3258  0.5374
  742TMC3     O11021   2.987   2.017  15.744  0.2727 -0.0612  0.1194
  742TMC3     H11022   2.786   2.028  15.438  0.1800  0.1554  0.1187
  742TMC3    H111023   3.180   2.027  15.608  0.8866  2.9187 -1.2016
  742TMC3    H211024   3.138   2.083  15.191 -0.5189 -0.9523 -0.4657
  742TMC3    C711025   3.311   2.063  15.370  0.5102 -0.8188 -0.1015
  742TMC3    C811026   2.863   2.059  15.181 -0.1721 -0.4201 -0.2778
  742TMC3    O111027   3.350   1.996  15.277 -0.3627 -0.0337  0.9499
  742TMC3    O211028   2.919   2.103  15.080  0.2967 -0.1489 -0.7658
  743MPD2     C11029   1.234   4.025   2.059 -0.3552 -0.1574 -0.7605
  743MPD2    C111030   1.250   3.960   1.938  0.2074 -0.5116 -0.5497
  743MPD2    C211031   1.359   3.873   1.917  0.3142 -0.3137 -0.7757
  743MPD2    C311032   1.451   3.861   2.012  0.2540  0.0056  0.1470
  743MPD2    C411033   1.436   3.926   2.130 -0.1896 -0.5668 -0.3746
  743MPD2    C511034   1.330   4.018   2.148  0.1801 -0.2270  0.6078
  743MPD2     H11035   1.377   3.823   1.822 -0.6945  0.3232 -1.2981
  743MPD2    H111036   1.506   3.929   2.213 -1.7671  1.1264  0.8768
  743MPD2    H211037   1.146   4.075   2.098 -0.6204  0.0715 -1.6343
  743MPD2    H311038   1.322   4.065   2.245  0.0851  0.5650  0.2206
  743MPD2     N11039   1.562   3.781   1.988 -0.3126  0.1785 -0.2751
  743MPD2    H511040   1.556   3.734   1.898  2.2331  0.2180 -0.4451
  743MPD2    N111041   1.149   3.975   1.841 -0.3780 -0.4972 -0.8136
  743MPD2    H711042   1.090   4.053   1.865 -1.3368 -2.2602  2.4824
  744TMC3    C111043   1.028   3.962   1.636  0.6066 -0.0947  0.2033
  744TMC3    C211044   0.925   4.039   1.692  0.5386 -0.3550 -0.0757
  744TMC3    C311045   0.823   4.087   1.612 -0.4187 -0.3620 -0.1052
  744TMC3    C411046   1.029   3.938   1.503 -0.7057  0.2838  0.1502
  744TMC3    C511047   0.934   3.994   1.421  0.4371  0.5089  0.3346
  744TMC3    C611048   0.834   4.067   1.478  0.2442 -0.4517 -0.0312
  744TMC3     C11049   1.142   3.913   1.718 -0.0548 -0.0488 -0.2664
  744TMC3     O11050   1.208   3.818   1.681 -0.0685  0.1306  0.2322
  744TMC3     H11051   0.914   4.049   1.800  2.3843  2.1985 -0.1183
  744TMC3    H111052   1.120   3.896   1.460 -0.9070 -0.2389  0.2290
  744TMC3    H211053   0.747   4.101   1.423  0.3518  0.9140  0.6506
  744TMC3    C711054   0.936   3.946   1.283 -0.1759  0.6242  0.5543
  744TMC3    C811055   0.773   4.211   1.662 -0.3448 -0.2501 -0.7950
  744TMC3    O111056   1.004   3.849   1.258 -0.0715  0.4091  0.2098
  744TMC3    O211057   0.844   4.269   1.747  0.3240 -0.3655 -0.3873
  745TMC3    C111058   3.499   1.798  13.879 -0.6530 -0.3657  0.0347
  745TMC3    C211059   3.393   1.804  13.959  0.1915 -0.2124 -0.0726
  745TMC3    C311060   3.277   1.854  13.907  0.1442 -0.1354  0.0622
  745TMC3    C411061   3.498   1.863  13.759  0.4380 -0.0151  0.5069
  745TMC3    C511062   3.383   1.918  13.710  0.2178  0.5630 -0.5143
  745TMC3    C611063   3.268   1.896  13.783  0.5923 -0.3081 -0.3961
  745TMC3     C11064   3.613   1.825  13.957 -0.5249 -0.9902  0.7869
  745TMC3     O11065   3.631   1.746  14.049 -0.3041  0.5910  0.8007
  745TMC3     H11066   3.399   1.758  14.057 -0.2991  0.8180  0.4359
  745TMC3    H111067   3.586   1.857  13.696  0.8913 -0.5517  1.1872
  745TMC3    H211068   3.177   1.946  13.753  0.5845 -0.2259 -0.2314
  745TMC3    C711069   3.373   1.970  13.575  0.5973  0.9715 -0.9052
  745TMC3    C811070   3.175   1.895  13.996  0.3675  0.4663 -0.7604
  745TMC3    O111071   3.256   1.983  13.533  0.2048 -0.3360 -0.3972
  745TMC3    O211072   3.070   1.930  13.951  0.0128 -0.2016  0.3789
  746TMC3    C111073   0.681   3.859  11.124  0.2957 -0.1528  0.0334
  746TMC3    C211074   0.677   3.838  10.993 -0.1743  0.4056 -0.2880
  746TMC3    C311075   0.623   3.723  10.947 -0.1865 -0.1369  0.0876
  746TMC3    C411076   0.634   3.764  11.214  0.6652  0.3632  0.6915
  746TMC3    C511077   0.571   3.658  11.161  0.1193  0.2329  0.0651
  746TMC3    C611078   0.571   3.631  11.030 -0.3999  0.8721  0.1904
  746TMC3     C11079   0.670   3.999  11.173  0.8645  0.0522  0.2623
  746TMC3     O11080   0.638   4.017  11.293  0.5854 -0.6278 -0.1372
  746TMC3     H11081   0.745   3.883  10.923  0.0387 -2.8397 -2.1857
  746TMC3    H111082   0.610   3.795  11.315 -0.1683  1.6292  0.1077
  746TMC3    H211083   0.520   3.546  10.986  0.5646  0.5930 -0.3891
  746TMC3    C711084   0.448   3.621  11.233  0.4695 -0.0110 -0.5697
  746TMC3    C811085   0.630   3.695  10.804  0.0558 -0.0877 -0.2949
  746TMC3    O111086   0.347   3.608  11.164  0.4860  0.1945  0.3022
  746TMC3    O211087   0.633   3.582  10.764 -0.2672  0.3485 -0.1536
  747TMC3    C111088   3.025   4.268  11.052 -0.4328  0.5747  0.1477
  747TMC3    C211089   3.002   4.160  11.138 -0.2790  1.4561 -0.0470
  747TMC3    C311090   2.954   4.186  11.264 -0.6378  0.4186 -0.0779
  747TMC3    C411091   3.002   4.396  11.093 -0.4626  0.2038 -0.5612
  747TMC3    C511092   2.954   4.421  11.222 -0.6608 -0.1496  0.2621
  747TMC3    C611093   2.938   4.316  11.307  0.2691  0.5416  0.9600
  747TMC3     C11094   3.084   4.251  10.915 -0.0115 -0.0679  0.1237
  747TMC3     O11095   3.133   4.353  10.868  0.4325 -0.1610  0.3984
  747TMC3     H11096   3.038   4.059  11.120 -3.1190  0.0906  1.7483
  747TMC3    H111097   3.021   4.482  11.029 -0.8098 -0.6694 -1.8427
  747TMC3    H211098   2.916   4.338  11.411  0.2231 -0.5481  1.1809
  747TMC3    C711099   3.004   4.545  11.289  1.3103 -0.1395  0.5029
  747TMC3    C811100   2.936   4.079  11.348 -0.4245 -0.3252 -0.3651
  747TMC3    O111101   3.050   4.525  11.401  0.3398  0.4715  0.1757
  747TMC3    O211102   2.985   3.970  11.332 -0.2666 -0.0052  0.3916
  748MPD2     C11103   0.263   0.004   1.431  0.4144 -0.1426 -0.7430
  748MPD2    C111104   0.335   4.680   1.334  1.3035  0.0697 -0.2787
  748MPD2    C211105   0.474   4.705   1.333 -0.6665  0.1400  0.6265
  748MPD2    C311106   0.542   0.043   1.433  0.1871  0.0414 -1.7297
  748MPD2    C411107   0.460   0.115   1.520 -0.1032  0.2213 -0.8502
  748MPD2    C511108   0.327   0.087   1.521  0.1055 -0.9865  0.1177
  748MPD2     H11109   0.529   4.654   1.255 -0.5977 -0.9241  1.3675
  748MPD2    H111110   0.496   0.169   1.607  0.4486  0.0528 -0.9749
  748MPD2    H211111   0.157   4.722   1.425  0.3560 -0.0304 -0.0658
  748MPD2    H311112   0.268   0.131   1.601 -0.0626 -0.5895 -0.2221
  748MPD2     N11113   0.684   0.057   1.435  0.2226 -0.0434 -0.5666
  748MPD2    H511114   0.738   4.734   1.372  0.2219  0.3600 -0.9438
  748MPD2    N111115   0.264   4.590   1.251 -0.0239  0.0712 -0.2355
  748MPD2    H711116   0.164   4.600   1.256  0.1647  2.3438 -1.1901
  749TMC3    C111117   0.900   0.112   1.490 -0.1997 -0.5179  0.3102
  749TMC3    C211118   0.984   0.115   1.592  0.4085  0.3564 -0.1652
  749TMC3    C311119   1.120   0.096   1.573  0.1283 -0.2353  0.5503
  749TMC3    C411120   0.940   0.099   1.360  0.8288  0.1858  0.5199
  749TMC3    C511121   1.073   0.076   1.341  0.3438 -0.6910 -0.1602
  749TMC3    C611122   1.157   0.074   1.446  0.4835 -0.0897  0.5750
  749TMC3     C11123   0.759   0.129   1.523 -0.9599  0.3107  0.3182
  749TMC3     O11124   0.737   0.201   1.614 -0.2632 -0.0863  0.7297
  749TMC3     H11125   0.950   0.140   1.692  2.6031 -0.7306  0.8601
  749TMC3    H111126   0.885   0.129   1.272  0.9226 -1.3943 -0.0731
  749TMC3    H211127   1.263   0.091   1.434 -0.1637  2.2811 -1.8639
  749TMC3    C711128   1.134   0.102   1.209  0.1371  0.4070 -1.5776
  749TMC3    C811129   1.211   0.077   1.686  0.3256 -0.1494 -0.3260
  749TMC3    O111130   1.237   0.166   1.206 -0.1834  0.1874 -0.2259
  749TMC3    O211131   1.191   0.138   1.788  0.2758  0.0683 -0.5482
  750MPD2     C11132   0.915   1.385  11.607  0.2146 -0.2578  0.8111
  750MPD2    C111133   0.808   1.303  11.647  0.3090  0.1816  0.2691
  750MPD2    C211134   0.783   1.187  11.572  0.0186 -0.5806  0.0157
  750MPD2    C311135   0.860   1.150  11.461  0.3193 -0.2939 -0.1642
  750MPD2    C411136   0.968   1.231  11.423 -0.1189  0.3069  0.3006
  750MPD2    C511137   0.998   1.344  11.504  0.3494 -0.0068  1.5303
  750MPD2     H11138   0.705   1.121  11.609  2.7566 -2.7516  1.8857
  750MPD2    H111139   1.030   1.208  11.337 -0.3062 -1.1383  0.5587
  750MPD2    H211140   0.940   1.481  11.652 -0.1559  0.6242 -0.8478
  750MPD2    H311141   1.070   1.416  11.469 -0.3595  0.0147  0.1241
  750MPD2     N11142   0.844   1.032  11.389  0.6245  0.3874  0.0958
  750MPD2    H511143   0.898   1.019  11.304  0.0145 -1.4827 -0.0113
  750MPD2    N111144   0.725   1.349  11.753  0.0250 -0.6691  0.0061
  750MPD2    H711145   0.750   1.437  11.799  2.7565 -0.5279 -1.7032
  751TMC3    C111146   0.747   0.820  11.322 -0.2259  0.5114  0.4809
  751TMC3    C211147   0.650   0.724  11.345  0.0406 -0.0339  0.9571
  751TMC3    C311148   0.631   0.626  11.253 -0.6503  0.4683 -0.1268
  751TMC3    C411149   0.829   0.822  11.210  0.4135  0.1320 -0.1920
  751TMC3    C511150   0.793   0.731  11.111  0.1346  0.2774  0.8310
  751TMC3    C611151   0.702   0.630  11.134 -0.1249 -0.3463  0.3284
  751TMC3     C11152   0.763   0.924  11.421  0.6303 -0.7071  0.3962
  751TMC3     O11153   0.696   0.906  11.524  0.0789 -0.3218  0.0545
  751TMC3     H11154   0.596   0.718  11.439 -3.0867 -2.0206 -0.9531
  751TMC3    H111155   0.892   0.905  11.180 -0.2459  0.1279 -1.5511
  751TMC3    H211156   0.680   0.558  11.057 -1.2030 -0.9400  1.1897
  751TMC3    C711157   0.874   0.720  10.995 -0.2597  0.4854 -0.0365
  751TMC3    C811158   0.521   0.532  11.262 -0.6579 -0.6577 -0.4852
  751TMC3    O111159   0.993   0.752  11.012 -0.6682  0.0761 -0.8475
  751TMC3    O211160   0.496   0.475  11.153  0.5106 -0.4839 -1.0954
  752TMC3    C111161   4.429   0.999  16.837  0.1155 -0.2405  0.0024
  752TMC3    C211162   4.539   0.969  16.904 -0.9451 -0.0244 -0.1897
  752TMC3    C311163   4.533   0.922  17.031 -0.6829  0.4448  0.0540
  752TMC3    C411164   4.308   1.007  16.903 -0.0681  1.0213  0.0442
  752TMC3    C511165   4.297   0.942  17.024  0.5004 -0.3361 -0.2566
  752TMC3    C611166   4.412   0.909  17.097 -0.3115  0.1983 -0.4330
  752TMC3     C11167   4.450   1.027  16.693 -0.4259 -0.2274  0.2048
  752TMC3     O11168   4.550   0.993  16.634 -0.1182 -0.3158  0.0202
  752TMC3     H11169   4.631   0.972  16.846  0.2116 -0.9703  1.5939
  752TMC3    H111170   4.218   1.054  16.865  0.9815  3.6218  0.7774
  752TMC3    H211171   4.401   0.842  17.182  0.9747 -0.6297 -0.9161
  752TMC3    C711172   4.173   0.982  17.087 -0.5894 -0.5466 -0.0301
  752TMC3    C811173   4.648   0.855  17.084  0.1518  0.2868 -0.1195
  752TMC3    O111174   4.078   1.025  17.021 -0.1148  0.8804  0.7266
  752TMC3    O211175   0.012   0.869  17.014 -0.7235 -0.1428  0.2756
  753TMC3    C111176   1.826   1.800  13.123 -0.5842 -0.9396  0.7299
  753TMC3    C211177   1.871   1.759  13.242  0.2736 -0.1414 -0.3320
  753TMC3    C311178   1.834   1.633  13.281 -0.0077 -0.1648 -0.4304
  753TMC3    C411179   1.741   1.725  13.045  0.4367 -0.0697 -0.0367
  753TMC3    C511180   1.726   1.596  13.078  0.1575 -0.1668 -0.3283
  753TMC3    C611181   1.770   1.544  13.198  0.4749  0.3008 -0.1913
  753TMC3     C11182   1.851   1.936  13.090 -0.8537  0.3957 -0.3852
  753TMC3     O11183   1.773   1.987  13.014  0.5624  0.2335 -0.0213
  753TMC3     H11184   1.940   1.815  13.303 -0.2120 -0.7367  0.7734
  753TMC3    H111185   1.727   1.750  12.940  0.1193  1.9641  0.4933
  753TMC3    H211186   1.752   1.443  13.234 -0.7548  0.2552 -0.9104
  753TMC3    C711187   1.660   1.498  12.992 -0.5887  0.0322  0.0840
  753TMC3    C811188   1.832   1.610  13.423 -0.1402  0.3014 -0.2486
  753TMC3    O111189   1.572   1.534  12.913 -0.5592  0.2675  0.6212
  753TMC3    O211190   1.806   1.497  13.457  0.0732  0.0168  0.4703
  754MPD2     C11191   0.365   0.722  13.782 -0.2221  0.8090 -0.4355
  754MPD2    C111192   0.300   0.589  13.785  0.4187 -0.4675 -0.9813
  754MPD2    C211193   0.210   0.564  13.683  0.4913 -0.0026 -0.3058
  754MPD2    C311194   0.162   0.662  13.598  0.4136 -0.1492  0.1520
  754MPD2    C411195   0.221   0.786  13.602 -0.2318 -0.2675  0.2381
  754MPD2    C511196   0.326   0.815  13.690  0.0409  0.1647  0.2602
  754MPD2     H11197   0.165   0.466  13.676 -0.2349  0.3413 -0.4427
  754MPD2    H111198   0.188   0.862  13.533  0.3986 -0.7229 -0.5696
  754MPD2    H211199   0.436   0.752  13.858  1.5216  0.0729 -1.7672
  754MPD2    H311200   0.357   0.919  13.686  0.7356 -0.0584 -0.1339
  754MPD2     N11201   0.046   0.649  13.511 -0.0334 -0.4098  0.4565
  754MPD2    H511202   0.007   0.732  13.466 -1.1000 -1.1072  0.0929
  754MPD2    N111203   0.335   0.502  13.896 -0.2921  0.0430  0.5848
  754MPD2    H711204   0.423   0.525  13.941 -0.6029  1.5984  0.4067
  755MPD2     C11205   4.361   1.298  13.183  0.1233 -0.0570 -0.0977
  755MPD2    C111206   4.265   1.203  13.148  0.3102 -0.3849  0.3119
  755MPD2    C211207   4.283   1.076  13.191 -0.1526  0.0637  0.1735
  755MPD2    C311208   4.408   1.040  13.253 -0.4212 -0.5179  0.1305
  755MPD2    C411209   4.490   1.138  13.289 -0.8374 -0.2064  0.1656
  755MPD2    C511210   4.462   1.268  13.261  0.8283  0.1143  0.3145
  755MPD2     H11211   4.213   0.997  13.169  0.9191 -0.5469 -1.0646
  755MPD2    H111212   4.582   1.118  13.344 -1.4628 -1.0129  0.9240
  755MPD2    H211213   4.359   1.402  13.150 -3.3617 -0.4054 -0.9999
  755MPD2    H311214   4.528   1.344  13.300 -0.2009  2.5664 -2.6777
  755MPD2     N11215   4.460   0.908  13.274  0.3614 -0.8005 -0.2505
  755MPD2    H511216   4.550   0.890  13.317 -0.0588 -0.3771  0.8084
  755MPD2    N111217   4.152   1.234  13.069  0.1709  0.7401  0.4179
  755MPD2    H711218   4.086   1.168  13.031  1.8525 -1.1451  0.7791
  756MPD2     C11219   0.716   1.497  10.194 -0.2290  0.3019 -0.5372
  756MPD2    C111220   0.582   1.485  10.229  0.2136  0.3283 -0.0769
  756MPD2    C211221   0.491   1.496  10.123 -0.0336 -0.2932 -0.2133
  756MPD2    C311222   0.524   1.517   9.986 -0.5629 -0.8621  0.7049
  756MPD2    C411223   0.655   1.521   9.954  0.3368  0.1876 -0.1502
  756MPD2    C511224   0.744   1.514  10.057  0.0053 -0.5562  0.0183
  756MPD2     H11225   0.385   1.487  10.145  0.0359  1.2473  0.7780
  756MPD2    H111226   0.698   1.537   9.856  0.6395 -0.7855 -0.1773
  756MPD2    H211227   0.798   1.506  10.263 -0.5579 -0.0738 -0.0966
  756MPD2    H311228   0.849   1.518  10.030 -0.3958 -1.3914 -1.6598
  756MPD2     N11229   0.405   1.523   9.900  0.4329  0.5172  0.2515
  756MPD2    H511230   0.320   1.536   9.954 -0.4545 -1.1629 -0.7735
  756MPD2    N111231   0.543   1.470  10.359 -0.2468  0.5720  0.5909
  756MPD2    H711232   0.443   1.461  10.372  0.0567  1.5207  3.5777
  757MPD2     C11233   4.478   0.962   9.637  0.2418  0.4607  0.0257
  757MPD2    C111234   4.561   0.972   9.754  0.4158 -0.3609 -0.2304
  757MPD2    C211235   4.649   1.083   9.768  0.1958 -0.0241  0.3609
  757MPD2    C311236   4.649   1.177   9.664 -0.3019 -0.0954 -0.3123
  757MPD2    C411237   4.578   1.157   9.552  0.5245 -0.2558 -0.5401
  757MPD2    C511238   4.489   1.057   9.538 -1.0148  0.5110 -0.3447
  757MPD2     H11239   4.714   1.100   9.853 -0.0527 -0.9434  0.7321
  757MPD2    H111240   4.583   1.226   9.469  1.1446  0.0267 -0.2708
  757MPD2    H211241   4.418   0.876   9.609  0.0582  0.9601 -1.0923
  757MPD2    H311242   4.428   1.042   9.450 -0.2282 -2.3775 -0.4031
  757MPD2     N11243   4.733   1.296   9.675  0.1296 -0.2081  0.0137
  757MPD2    H511244   0.058   1.294   9.756 -1.1664 -0.7760  0.9897
  757MPD2    N111245   4.548   0.868   9.854 -0.0019 -0.1053  0.3663
  757MPD2    H711246   4.480   0.795   9.835 -0.5087 -0.0961  2.1167
  758MPD2     C11247   0.830   0.605  15.637  0.1758 -0.5938 -0.4163
  758MPD2    C111248   0.822   0.469  15.656  0.7093 -0.7658 -0.4306
  758MPD2    C211249   0.763   0.423  15.779  0.3815 -0.2683 -0.8891
  758MPD2    C311250   0.719   0.517  15.874  0.4911 -0.0236  0.4862
  758MPD2    C411251   0.726   0.651  15.846 -0.3284  0.0967  0.5115
  758MPD2    C511252   0.780   0.693  15.731  0.4057 -0.2367  0.2581
  758MPD2     H11253   0.743   0.317  15.794  0.7772 -0.4179 -1.4148
  758MPD2    H111254   0.703   0.734  15.912 -1.7947  1.5673 -1.8495
  758MPD2    H211255   0.880   0.637  15.546 -0.2433 -0.9946 -0.7932
  758MPD2    H311256   0.792   0.797  15.705 -0.0054 -0.7941 -2.1457
  758MPD2     N11257   0.672   0.491  16.001 -0.2717 -0.1496 -0.0930
  758MPD2    H511258   0.630   0.567  16.053  0.1967 -0.8288  1.3027
  758MPD2    N111259   0.875   0.386  15.564  0.0611  0.8021 -0.2308
  758MPD2    H711260   0.924   0.427  15.485  1.0082 -2.6092 -1.4319
  759MPD2     C11261   3.677   3.576  10.894 -0.2569 -0.4628 -0.0548
  759MPD2    C111262   3.782   3.619  10.818  0.2776  0.4316 -0.1011
  759MPD2    C211263   3.861   3.726  10.861 -0.5735  0.3063 -0.5264
  759MPD2    C311264   3.816   3.805  10.967 -0.1020 -0.0239  0.0727
  759MPD2    C411265   3.704   3.762  11.036  0.0355  0.1936  0.5617
  759MPD2    C511266   3.639   3.646  11.005 -0.0661 -0.4813  0.0360
  759MPD2     H11267   3.946   3.758  10.802  0.4535 -1.0315  0.2313
  759MPD2    H111268   3.659   3.817  11.118 -1.9153  2.5481 -2.1011
  759MPD2    H211269   3.615   3.494  10.861 -1.7616  1.0252 -0.9668
  759MPD2    H311270   3.556   3.616  11.067 -0.3214 -0.6905 -0.4059
  759MPD2     N11271   3.873   3.935  10.994  0.1048 -0.6825 -0.4267
  759MPD2    H511272   3.953   3.964  10.939 -0.0268  0.6586  0.1041
  759MPD2    N111273   3.818   3.561  10.693  0.4053 -0.1641  0.1756
  759MPD2    H711274   3.897   3.604  10.644 -0.1723 -0.2598 -0.8418
  760MPD2     C11275   3.347   1.047  11.931  0.1338 -0.5564  0.2986
  760MPD2    C111276   3.473   1.043  11.863  0.0210  0.0270 -0.2395
  760MPD2    C211277   3.557   0.934  11.877 -0.0534  0.6323 -0.0662
  760MPD2    C311278   3.529   0.836  11.970  0.0505 -0.0234 -0.5169
  760MPD2    C411279   3.405   0.835  12.027  0.6900 -0.4609 -0.2151
  760MPD2    C511280   3.325   0.942  12.013 -0.6174  0.2861 -0.3595
  760MPD2     H11281   3.647   0.938  11.817  0.6442 -0.8376  0.8841
  760MPD2    H111282   3.364   0.756  12.088  1.2874 -0.9980 -0.5141
  760MPD2    H211283   3.270   1.123  11.928 -3.8530 -4.6841 -1.7180
  760MPD2    H311284   3.228   0.938  12.062  1.2930 -2.5131  3.2170
  760MPD2     N11285   3.613   0.732  12.008 -0.3092 -0.2227 -0.1395
  760MPD2    H511286   3.573   0.671  12.078  0.9354 -0.2824  0.5204
  760MPD2    N111287   3.508   1.147  11.775  0.1509 -0.2769 -0.0540
  760MPD2    H711288   3.593   1.132  11.720 -0.5157 -1.1506 -0.8333
  761MPD2     C11289   0.257   0.164  11.491 -0.6948 -0.2886  0.5107
  761MPD2    C111290   0.286   0.185  11.354 -0.3567  0.6741 -0.6887
  761MPD2    C211291   0.343   0.301  11.316  0.4321 -0.2556  0.2207
  761MPD2    C311292   0.379   0.393  11.414 -0.1622 -0.0702  0.1669
  761MPD2    C411293   0.339   0.382  11.547  0.7448 -0.0351  0.4062
  761MPD2    C511294   0.278   0.265  11.580 -0.0779 -0.0796 -0.3343
  761MPD2     H11295   0.348   0.327  11.211  1.4219 -0.6629  0.1575
  761MPD2    H111296   0.351   0.458  11.623  1.4278  0.3110 -0.0476
  761MPD2    H211297   0.221   0.066  11.523  0.6474 -0.7482  0.6142
  761MPD2    H311298   0.255   0.253  11.685 -0.3780  3.2394 -0.0243
  761MPD2     N11299   0.460   0.510  11.387  0.3360 -0.5515  0.2672
  761MPD2    H511300   0.481   0.579  11.459 -0.0230  0.2557 -0.4031
  761MPD2    N111301   0.258   0.067  11.269 -0.2222 -0.4018  0.1513
  761MPD2    H711302   0.213   4.723  11.312  2.0344 -2.1379 -0.8016
  762MPD2     C11303   0.194   4.664  10.482  0.1446 -0.2660  0.4637
  762MPD2    C111304   0.271   4.566  10.552  0.2376  0.1247  0.1805
  762MPD2    C211305   0.365   4.498  10.484  0.2316  0.5055  0.3820
  762MPD2    C311306   0.393   4.523  10.351 -0.4238 -0.1277  0.3027
  762MPD2    C411307   0.316   4.614  10.282  0.1573  0.0333 -1.0325
  762MPD2    C511308   0.224   4.689  10.348 -0.5945  0.1228  0.0076
  762MPD2     H11309   0.424   4.423  10.535 -0.7141  0.8027  1.9231
  762MPD2    H111310   0.322   4.630  10.175 -1.4501 -2.5115 -1.4972
  762MPD2    H211311   0.120   4.725  10.532  0.5245  0.3523  0.2755
  762MPD2    H311312   0.177   0.025  10.282 -0.5580  1.4733  1.4632
  762MPD2     N11313   0.507   4.458  10.289 -0.3874  0.3837  0.2536
  762MPD2    H511314   0.559   4.397  10.351  0.0569 -0.7313 -1.2165
  762MPD2    N111315   0.256   4.562  10.694 -0.6846 -0.5414 -0.3444
  762MPD2    H711316   0.189   4.627  10.735 -1.4280 -1.5434  0.0326
  763MPD2     C11317   2.663   0.475  15.931 -0.1908 -0.1226 -0.3202
  763MPD2    C111318   2.578   0.511  15.832  0.8581 -0.4180 -0.2469
  763MPD2    C211319   2.534   0.642  15.828 -0.0592 -0.2408 -0.1099
  763MPD2    C311320   2.577   0.729  15.921 -0.9975 -0.2817  0.0482
  763MPD2    C411321   2.673   0.695  16.016 -0.6163  0.8387 -0.1647
  763MPD2    C511322   2.712   0.567  16.015  0.1635  0.2811  0.0653
  763MPD2     H11323   2.446   0.670  15.772 -0.7282  1.9823  2.0401
  763MPD2    H111324   2.712   0.765  16.089 -2.6498 -0.0744  1.8228
  763MPD2    H211325   2.688   0.370  15.941 -2.9013 -0.9253 -2.0456
  763MPD2    H311326   2.774   0.539  16.099  1.3590  0.6545 -0.6936
  763MPD2     N11327   2.508   0.856  15.931 -0.1014  0.4054 -0.6409
  763MPD2    H511328   2.456   0.895  15.853 -0.7394  0.2115 -0.3155
  763MPD2    N111329   2.512   0.417  15.749  0.9916  0.4528  0.6530
  763MPD2    H711330   2.456   0.455  15.673 -0.3335 -0.7812  1.0187
  764MPD2     C11331   1.031   2.154  17.191 -0.1569 -0.5953 -0.3054
  764MPD2    C111332   0.976   2.039  17.139  0.1805 -1.1811  0.1142
  764MPD2    C211333   0.966   1.925  17.216  1.0202 -0.0196 -0.0798
  764MPD2    C311334   1.001   1.929  17.354 -0.3255 -0.5555 -0.6476
  764MPD2    C411335   1.049   2.050  17.407  0.3208  0.3500  0.1639
  764MPD2    C511336   1.070   2.154  17.325  0.2857  0.2015  0.4480
  764MPD2     H11337   0.936   1.830  17.175 -0.3385  1.0188 -1.4827
  764MPD2    H111338   1.074   2.073  17.510 -0.2821  1.2862  0.0930
  764MPD2    H211339   1.045   2.243  17.131 -1.3106 -0.4695 -0.4013
  764MPD2    H311340   1.106   2.241  17.378 -0.3132  0.2607  0.7563
  764MPD2     N11341   0.986   1.813  17.426 -0.3216  0.2272  0.2671
  764MPD2    H511342   0.927   1.744  17.381  1.4471 -1.8181  1.0832
  764MPD2    N111343   0.915   2.029  17.005 -0.3353  0.5833 -0.0692
  764MPD2    H711344   0.874   1.943  16.971  1.2186  0.8307 -2.5332
  765MPD2     C11345   0.646   4.576  15.406  0.5737  0.2142  0.2209
  765MPD2    C111346   0.684   4.570  15.538 -0.3006 -0.0233 -0.4614
  765MPD2    C211347   0.813   4.526  15.570 -0.8803  0.2166  0.0922
  765MPD2    C311348   0.911   4.504  15.478 -0.6428  0.9297 -0.5495
  765MPD2    C411349   0.873   4.516  15.348 -0.0833 -0.0846 -0.4118
  765MPD2    C511350   0.742   4.557  15.315 -0.2288  0.1648 -0.2530
  765MPD2     H11351   0.848   4.526  15.672  0.1497  2.0773 -0.2601
  765MPD2    H111352   0.945   4.499  15.269 -0.7670  0.7817 -1.2125
  765MPD2    H211353   0.544   4.588  15.373  0.6603  1.0614  0.2776
  765MPD2    H311354   0.721   4.555  15.209 -0.1808  0.3636 -0.2656
  765MPD2     N11355   1.036   4.462  15.531  0.2812 -0.4001 -0.0341
  765MPD2    H511356   1.039   4.443  15.631  0.8621  0.8426  0.1845
  765MPD2    N111357   0.584   4.602  15.637  0.3176 -0.2029 -0.3524
  765MPD2    H711358   0.491   4.617  15.601  0.2573  0.7669  0.2099
  766MPD2     C11359   4.576   4.658  15.564  0.2487 -0.6614  0.2888
  766MPD2    C111360   4.706   4.650  15.533 -0.2592 -0.9576  0.1559
  766MPD2    C211361   0.005   4.594  15.411 -0.1577 -0.5569 -0.3692
  766MPD2    C311362   4.645   4.562  15.310  0.6716  0.7423 -0.4029
  766MPD2    C411363   4.511   4.565  15.344  0.4498 -0.0570  0.6685
  766MPD2    C511364   4.479   4.624  15.468 -0.6724 -0.3530 -0.1721
  766MPD2     H11365   0.110   4.587  15.387  0.1750 -1.0196  1.2487
  766MPD2    H111366   4.443   4.550  15.261  0.7857  0.1343  0.3568
  766MPD2    H211367   4.548   4.695  15.662  2.4896  0.1417  0.6375
  766MPD2    H311368   4.374   4.648  15.487 -0.1343 -0.0090  2.4773
  766MPD2     N11369   4.676   4.526  15.175 -0.4556  0.6121 -0.8328
  766MPD2    H511370   4.601   4.485  15.121  1.3472 -3.8998  0.1015
  766MPD2    N111371   0.066   4.699  15.632 -0.0039  0.2036 -0.4868
  766MPD2    H711372   0.042   0.003  15.722 -0.4224  1.3004 -1.0937
  767MPD2     C11373   4.259   0.107  15.226 -0.3133 -0.3796  0.1983
  767MPD2    C111374   4.386   0.092  15.170 -0.4361 -0.1102 -0.3078
  767MPD2    C211375   4.393   0.033  15.047 -0.0177 -0.0242 -0.1021
  767MPD2    C311376   4.291   4.716  14.972 -0.0441  0.2102 -0.6095
  767MPD2    C411377   4.165   0.002  15.032  0.0087 -0.8343 -0.1396
  767MPD2    C511378   4.152   0.058  15.157  0.6596 -0.0698 -0.3696
  767MPD2     H11379   4.489   0.033  14.996  0.9114  0.6975  1.6483
  767MPD2    H111380   4.070   4.701  14.995 -0.5541  0.4589  0.0326
  767MPD2    H211381   4.246   0.142  15.328  0.5527 -1.0293  0.5341
  767MPD2    H311382   4.056   0.062  15.209  0.7253  1.2981 -0.3696
  767MPD2     N11383   4.314   4.651  14.850  0.2340 -0.2569 -0.5093
  767MPD2    H511384   4.409   4.637  14.816  1.5127  2.2715  2.0149
  767MPD2    N111385   4.500   0.140  15.239  0.3352  0.3464 -0.4604
  767MPD2    H711386   4.484   0.165  15.336 -2.8837 -1.8404 -0.4361
  768MPD2     C11387   0.008   3.371  10.960 -0.6345  0.1060 -0.3888
  768MPD2    C111388   0.037   3.385  11.096  0.0195  0.0690  0.0788
  768MPD2    C211389   0.155   3.344  11.152 -0.2860  0.0344 -0.1295
  768MPD2    C311390   0.257   3.295  11.072  0.4934  0.4108  0.2144
  768MPD2    C411391   0.233   3.281  10.937  0.0287  1.3438 -0.8784
  768MPD2    C511392   0.111   3.318  10.884 -0.4065  0.0544 -0.5477
  768MPD2     H11393   0.168   3.360  11.259 -1.2484 -0.7269  0.0991
  768MPD2    H111394   0.302   3.232  10.869 -0.1541  0.4688 -0.4355
  768MPD2    H211395   4.652   3.410  10.917 -0.8680  1.9849  1.8216
  768MPD2    H311396   0.089   3.295  10.780 -1.1618 -0.3079 -0.3116
  768MPD2     N11397   0.389   3.268  11.122 -0.0335 -0.1832 -0.2468
  768MPD2    H511398   0.462   3.236  11.059 -0.9941  0.2052 -1.5602
  768MPD2    N111399   4.675   3.438  11.183 -0.0108  0.1695 -0.0608
  768MPD2    H711400   4.692   3.433  11.283 -3.6187 -0.2705  0.5184
  769MPD2     C11401   1.501   1.662  14.688 -0.3246  0.0652 -0.5247
  769MPD2    C111402   1.472   1.547  14.771  0.8089 -0.3530  0.0172
  769MPD2    C211403   1.515   1.547  14.902  0.3102  0.3055 -1.0208
  769MPD2    C311404   1.573   1.662  14.957  0.3424 -0.3376  0.4598
  769MPD2    C411405   1.601   1.766  14.877  0.2589  0.6782  0.0468
  769MPD2    C511406   1.566   1.764  14.743  0.8203  0.6876  0.0740
  769MPD2     H11407   1.511   1.457  14.964  2.2663  0.6396 -0.4285
  769MPD2    H111408   1.659   1.854  14.903 -0.1368  0.6824  0.9279
  769MPD2    H211409   1.477   1.655  14.582 -0.8824  1.7039 -0.5066
  769MPD2    H311410   1.598   1.841  14.673 -1.9025  1.9303  0.2012
  769MPD2     N11411   1.612   1.662  15.094  0.2353 -0.0015 -0.1902
  769MPD2    H511412   1.586   1.577  15.144 -0.9019 -0.6046 -1.8111
  769MPD2    N111413   1.427   1.430  14.710 -0.2812  0.7134  0.0593
  769MPD2    H711414   1.411   1.427  14.610  2.5705  2.2349 -0.4569
  770MPD2     C11415   1.307   0.364  14.499 -0.3280  0.1378  0.4404
  770MPD2    C111416   1.185   0.420  14.467  0.1094  0.0204  0.1540
  770MPD2    C211417   1.178   0.559  14.482 -0.0098  0.6010  0.1478
  770MPD2    C311418   1.288   0.632  14.528  0.0800 -0.1338  0.3540
  770MPD2    C411419   1.405   0.572  14.535  0.2319  0.0395 -0.2618
  770MPD2    C511420   1.418   0.437  14.523  0.0419  0.6181 -0.9308
  770MPD2     H11421   1.082   0.609  14.471  0.3397  1.2867  0.2421
  770MPD2    H111422   1.495   0.627  14.561  0.7558 -1.3067  0.7424
  770MPD2    H211423   1.313   0.256  14.503 -0.7400  0.1721  2.2179
  770MPD2    H311424   1.514   0.392  14.547 -0.2833 -0.7640 -2.1799
  770MPD2     N11425   1.281   0.771  14.555 -0.0083  0.9227  0.1289
  770MPD2    H511426   1.197   0.822  14.532  0.8561  2.0497 -0.5258
  770MPD2    N111427   1.073   0.336  14.436 -0.0647 -0.1070 -0.0561
  770MPD2    H711428   1.098   0.238  14.438  1.2276  0.1987 -1.3709
  771MPD2     C11429   2.446   4.131  13.981  0.3849  0.6387 -0.2779
  771MPD2    C111430   2.372   4.214  13.904  0.7754 -0.6597  0.2540
  771MPD2    C211431   2.286   4.163  13.817  0.2513 -0.1262  0.1155
  771MPD2    C311432   2.268   4.024  13.799  0.0828 -0.0449  0.6751
  771MPD2    C411433   2.354   3.940  13.869 -0.5007  0.2124  0.4932
  771MPD2    C511434   2.441   3.995  13.956 -0.0056 -0.0533 -0.4868
  771MPD2     H11435   2.224   4.233  13.761 -0.9087 -0.7998  0.5536
  771MPD2    H111436   2.340   3.833  13.860  0.4879  0.1161  0.1283
  771MPD2    H211437   2.516   4.173  14.052 -0.7156  1.1373  0.5096
  771MPD2    H311438   2.499   3.929  14.019 -0.7600  1.0412  1.3612
  771MPD2     N11439   2.166   3.973  13.708 -0.2303  0.2839  0.3949
  771MPD2    H511440   2.109   4.037  13.654  0.3204 -0.0601 -0.5897
  771MPD2    N111441   2.390   4.359  13.915 -0.0328  0.2356  0.1268
  771MPD2    H711442   2.324   4.419  13.866 -1.0635 -1.9759 -1.1690
  772MPD2     C11443   2.005   0.231  13.964  0.0866 -0.0509 -0.4045
  772MPD2    C111444   2.043   0.109  14.026  0.1408 -0.2309 -0.1965
  772MPD2    C211445   1.946   0.036  14.093  0.7316  0.2891  0.4101
  772MPD2    C311446   1.817   0.072  14.084 -0.3108 -0.0479 -0.2560
  772MPD2    C411447   1.778   0.188  14.025 -0.4237  0.3803 -0.4244
  772MPD2    C511448   1.876   0.263  13.962 -0.7608 -0.2355  0.3849
  772MPD2     H11449   1.971   4.679  14.142 -0.6026 -0.8375 -1.0739
  772MPD2    H111450   1.677   0.225  14.014  0.0386  2.1203  1.1148
  772MPD2    H211451   2.081   0.297  13.923  0.5923 -0.9406 -0.9104
  772MPD2    H311452   1.841   0.357  13.921 -2.0314 -1.9329 -2.4458
  772MPD2     N11453   1.707   4.727  14.131  0.4144  0.4721 -0.3090
  772MPD2    H511454   1.611   0.017  14.112 -0.0528 -0.6674  0.4462
  772MPD2    N111455   2.178   0.060  14.025 -0.2043  0.1739 -0.7417
  772MPD2    H711456   2.198   4.711  14.077  1.9075  0.8501 -0.4516
  773MPD2     C11457   1.519   0.592   0.368 -0.3770 -0.0065  0.6562
  773MPD2    C111458   1.497   0.506   0.264 -0.2816 -0.3299  0.3127
  773MPD2    C211459   1.551   0.378   0.256 -1.1034 -0.0839 -0.3982
  773MPD2    C311460   1.633   0.337   0.355  0.8965  0.9104 -0.1944
  773MPD2    C411461   1.629   0.411   0.471  0.6006 -0.4702  0.4150
  773MPD2    C511462   1.579   0.538   0.478  1.1542  0.1678  0.1441
  773MPD2     H11463   1.557   0.328   0.159 -3.6310 -1.9899  0.4228
  773MPD2    H111464   1.662   0.377   0.568  1.9514  2.9814  1.1861
  773MPD2    H211465   1.517   0.700   0.365 -0.1084 -0.0040  0.5573
  773MPD2    H311466   1.600   0.600   0.565 -1.0257 -0.5548  1.1971
  773MPD2     N11467   1.714   0.223   0.340  0.8868 -0.6262  0.2484
  773MPD2    H511468   1.700   0.172   0.253  1.6398 -0.1004 -0.1767
  773MPD2    N111469   1.431   0.562   0.154  0.2103 -0.3463  0.6544
  773MPD2    H711470   1.389   0.491   0.094  1.0432 -0.9008  0.7268
  774MPD2     C11471   4.699   4.310  13.708 -0.1411  0.0143 -0.0961
  774MPD2    C111472   0.084   4.360  13.751 -0.3693  0.5127 -0.4575
  774MPD2    C211473   0.091   4.491  13.790  0.2254  0.2353  0.2143
  774MPD2    C311474   4.731   4.582  13.769  0.4983 -0.8613  0.2510
  774MPD2    C411475   4.600   4.534  13.733  0.2355  0.0753 -0.5679
  774MPD2    C511476   4.591   4.396  13.706  0.1407  1.0244 -0.3981
  774MPD2     H11477   0.180   4.529  13.839  1.0746  0.8609 -1.8429
  774MPD2    H111478   4.508   4.590  13.738 -0.6309 -1.4819  0.7412
  774MPD2    H211479   4.683   4.203  13.699  0.1971 -0.1511  1.2295
  774MPD2    H311480   4.494   4.352  13.684  0.8627 -0.6929 -0.1888
  774MPD2     N11481   0.024   4.716  13.789 -0.3678  0.2758 -0.5191
  774MPD2    H511482   0.118   0.005  13.818  0.4014 -2.1115 -0.9746
  774MPD2    N111483   0.196   4.277  13.742 -0.2012  0.2514 -0.5488
  774MPD2    H711484   0.169   4.179  13.731  2.0621 -0.2609 -1.5821
  775MPD2     C11485   1.795   1.087  15.526 -0.0431 -0.3715 -0.0792
  775MPD2    C111486   1.777   1.203  15.604 -0.9262  0.8090  0.7740
  775MPD2    C211487   1.865   1.307  15.590 -0.4196  0.1109  0.1912
  775MPD2    C311488   1.971   1.298  15.500 -0.5784  0.1181  0.0885
  775MPD2    C411489   2.000   1.181  15.436  0.5639  0.0476 -0.2630
  775MPD2    C511490   1.908   1.077  15.446  0.6348  0.0425  0.1566
  775MPD2     H11491   1.849   1.395  15.651  1.0788  0.3987  0.1681
  775MPD2    H111492   2.082   1.174  15.366  0.9034 -0.1336  0.1599
  775MPD2    H211493   1.730   1.001  15.522 -1.8290  0.8925  2.1720
  775MPD2    H311494   1.939   0.988  15.391 -0.5719  0.1846 -0.7589
  775MPD2     N11495   2.056   1.406  15.467 -0.4261  0.0683 -0.0496
  775MPD2    H511496   2.129   1.379  15.402  0.6318  1.9730  0.3673
  775MPD2    N111497   1.684   1.207  15.709  0.3432 -0.8463 -0.1720
  775MPD2    H711498   1.688   1.287  15.771  1.0763  0.4054 -1.8364
  776MPD2     C11499   0.622   1.963  12.235  0.0346  0.4249  0.0533
  776MPD2    C111500   0.554   1.928  12.117  0.1668 -0.0428  0.2535
  776MPD2    C211501   0.509   2.029  12.029 -0.1688  0.2443 -0.5437
  776MPD2    C311502   0.534   2.163  12.062  0.4211 -0.5758 -0.2903
  776MPD2    C411503   0.608   2.199  12.174  0.2736 -0.3306  0.6199
  776MPD2    C511504   0.650   2.094  12.256 -0.4604  0.7788 -0.5036
  776MPD2     H11505   0.450   2.004  11.941  0.0872 -2.1057 -0.0417
  776MPD2    H111506   0.633   2.301  12.198 -0.8574  0.1480 -0.2243
  776MPD2    H211507   0.666   1.890  12.302  1.6852 -1.0271 -2.6417
  776MPD2    H311508   0.697   2.113  12.352 -1.6257  0.8017  0.0663
  776MPD2     N11509   0.503   2.256  11.968 -0.0996  0.1011  0.2792
  776MPD2    H511510   0.556   2.342  11.976  0.3026  0.2667 -4.4486
  776MPD2    N111511   0.539   1.790  12.092 -0.3649  0.1231 -0.3198
  776MPD2    H711512   0.557   1.727  12.170  3.1539 -0.8132 -1.8779
  777MPD2     C11513   1.943   3.928   0.921  0.3611 -0.3717 -0.2039
  777MPD2    C111514   1.832   3.957   0.999 -0.2824 -0.5192 -0.5196
  777MPD2    C211515   1.709   3.936   0.941  0.3000 -0.5508  0.5575
  777MPD2    C311516   1.699   3.884   0.817  0.0756  0.4224 -0.2023
  777MPD2    C411517   1.811   3.850   0.746  0.2106 -0.3425  0.9951
  777MPD2    C511518   1.934   3.873   0.795 -0.1275 -0.4352  0.6790
  777MPD2     H11519   1.616   3.960   0.991 -0.9826 -1.0854 -1.5564
  777MPD2    H111520   1.809   3.816   0.644 -1.3079 -1.4786  1.4080
  777MPD2    H211521   2.046   3.945   0.951 -0.7321  0.1272  3.1908
  777MPD2    H311522   2.026   3.842   0.747 -0.5200 -0.7146  0.1140
  777MPD2     N11523   1.570   3.873   0.758  0.2334 -0.0844  0.3747
  777MPD2    H511524   1.494   3.891   0.824  0.8726 -1.3921  1.4622
  777MPD2    N111525   1.857   4.011   1.127 -0.8028 -0.4868  0.0089
  777MPD2    H711526   1.956   4.030   1.143 -0.7807 -2.6038  2.2414
  778MPD2     C11527   2.360   3.926  14.902  0.1555 -0.3323 -0.4548
  778MPD2    C111528   2.344   3.859  14.784  0.0728 -0.3592 -0.1503
  778MPD2    C211529   2.409   3.901  14.671 -0.1405 -1.2401  0.1252
  778MPD2    C311530   2.483   4.020  14.671 -0.3071 -0.2014  0.4932
  778MPD2    C411531   2.486   4.100  14.788 -0.9857 -0.1827 -0.1719
  778MPD2    C511532   2.421   4.045  14.894  0.0383  0.2398 -0.7254
  778MPD2     H11533   2.388   3.849  14.578  0.1893  0.1513 -0.7324
  778MPD2    H111534   2.531   4.197  14.805 -3.5099  1.3230 -2.0485
  778MPD2    H211535   2.307   3.895  14.991  1.1622 -1.4211 -0.2366
  778MPD2    H311536   2.426   4.108  14.981 -1.3240 -0.8741  0.1602
  778MPD2     N11537   2.562   4.053  14.559 -0.4798  0.1973 -0.6866
  778MPD2    H511538   2.575   3.975  14.496 -1.2193  0.4149 -1.1068
  778MPD2    N111539   2.265   3.744  14.767 -0.3835  0.6273  0.2371
  778MPD2    H711540   2.252   3.695  14.679  1.1318 -1.0951  0.9871
  779MPD2     C11541   1.845   2.643  13.822  0.3524  0.1312 -0.0867
  779MPD2    C111542   1.967   2.639  13.890  0.3031 -0.2053  0.0874
  779MPD2    C211543   2.035   2.757  13.919 -0.0661 -0.6405  0.7797
  779MPD2    C311544   1.981   2.873  13.873 -0.2216 -0.2963  0.5685
  779MPD2    C411545   1.872   2.872  13.793 -0.2005 -0.3944 -0.1495
  779MPD2    C511546   1.799   2.760  13.779  0.0421 -0.2006  0.1655
  779MPD2     H11547   2.133   2.749  13.964 -0.4656  2.0995  2.1133
  779MPD2    H111548   1.827   2.965  13.761  0.9945 -0.4590 -1.9940
  779MPD2    H211549   1.783   2.556  13.807 -1.7736  1.4970  0.8912
  779MPD2    H311550   1.710   2.759  13.716  1.1010  0.7601 -1.3439
  779MPD2     N11551   2.058   2.992  13.884 -0.0424 -0.7302  0.1979
  779MPD2    H511552   2.140   2.987  13.943  0.9536  3.6999 -0.8024
  779MPD2    N111553   2.015   2.517  13.941  1.0833  0.3282  0.1729
  779MPD2    H711554   1.968   2.433  13.907 -1.5331  1.5520  0.8216
  780MPD2     C11555   2.029   3.053   1.074  0.2140  0.0246 -0.2358
  780MPD2    C111556   1.962   2.980   0.979 -0.3050 -0.0382 -0.0183
  780MPD2    C211557   2.002   2.996   0.842 -0.1813  0.0789  0.2220
  780MPD2    C311558   2.090   3.095   0.804 -0.5951  0.1782  0.6910
  780MPD2    C411559   2.150   3.172   0.907  0.5626  0.1286  0.4548
  780MPD2    C511560   2.126   3.148   1.039  0.2516 -0.7002  0.1873
  780MPD2     H11561   1.956   2.942   0.760 -0.3718  1.0423 -0.3040
  780MPD2    H111562   2.227   3.244   0.881  0.7961 -0.2654  0.0504
  780MPD2    H211563   2.001   3.039   1.178  2.2109  1.8030  0.5367
  780MPD2    H311564   2.179   3.208   1.112 -0.9952 -0.1517  0.6522
  780MPD2     N11565   2.110   3.118   0.665  0.1720 -0.1710 -0.5419
  780MPD2    H511566   2.052   3.064   0.602 -2.4551  1.5010  0.4249
  780MPD2    N111567   1.871   2.884   1.020  0.3923 -0.0135  0.6212
  780MPD2    H711568   1.856   2.875   1.120  0.3771 -0.1110  0.6106
  781MPD2     C11569   3.139   4.468  12.163 -0.1246 -0.2419 -0.5280
  781MPD2    C111570   3.166   4.588  12.225 -1.0659 -0.0148  0.2144
  781MPD2    C211571   3.214   4.696  12.150  0.5617 -0.1316 -0.1373
  781MPD2    C311572   3.241   4.685  12.018  0.4003 -0.4047 -0.1012
  781MPD2    C411573   3.214   4.563  11.956  0.1065 -0.4919 -0.1013
  781MPD2    C511574   3.169   4.458  12.031 -0.0274  0.1716  0.7224
  781MPD2     H11575   3.201   0.058  12.196 -0.7305 -0.2024 -0.3549
  781MPD2    H111576   3.225   4.539  11.851 -0.5212  0.5566 -0.4167
  781MPD2    H211577   3.096   4.380  12.211 -0.8417 -0.9385 -2.4388
  781MPD2    H311578   3.145   4.364  11.983  1.2901 -0.4525  1.2860
  781MPD2     N11579   3.281   0.053  11.930 -0.2677  0.8854 -0.0599
  781MPD2    H511580   3.274   0.046  11.829  0.1509 -0.3271 -0.0002
  781MPD2    N111581   3.136   4.629  12.358  0.5492  0.0957  1.0372
  781MPD2    H711582   3.147   4.725  12.388 -1.8059  1.4772 -2.4412
  782MPD2     C11583   1.043   1.500  10.633  0.2501 -0.6851  0.1116
  782MPD2    C111584   1.173   1.474  10.668 -0.4131 -0.3904  1.2084
  782MPD2    C211585   1.224   1.528  10.783  0.1996 -0.0343  0.2133
  782MPD2    C311586   1.142   1.602  10.867 -0.0963  0.1011  0.5917
  782MPD2    C411587   1.007   1.618  10.833  0.2678  0.6150 -0.1373
  782MPD2    C511588   0.956   1.564  10.716  0.1158  0.2268 -0.0682
  782MPD2     H11589   1.327   1.510  10.809 -0.1903 -0.3666  1.5243
  782MPD2    H111590   0.936   1.673  10.894  1.0558  3.5925 -1.9233
  782MPD2    H211591   0.994   1.461  10.545 -1.0893 -0.1209  0.6160
  782MPD2    H311592   0.852   1.575  10.686 -0.2026 -1.7449  0.2696
  782MPD2     N11593   1.194   1.659  10.982  0.7624 -0.7709  0.2942
  782MPD2    H511594   1.292   1.638  10.995  1.1030  1.3764  1.0397
  782MPD2    N111595   1.228   1.365  10.597 -0.0588  0.0263  0.4201
  782MPD2    H711596   1.187   1.331  10.511 -1.6007 -1.3154  1.6813
  783MPD2     C11597   0.796   0.620  10.641 -0.3262 -0.6176 -0.0822
  783MPD2    C111598   0.860   0.694  10.745  0.4806  0.3755  0.0889
  783MPD2    C211599   0.963   0.782  10.715  0.2427  0.4944 -0.6857
  783MPD2    C311600   1.011   0.787  10.591 -0.0053 -0.2946  0.5999
  783MPD2    C411601   0.961   0.705  10.487 -0.0421 -0.9553 -0.6164
  783MPD2    C511602   0.847   0.631  10.517 -1.4624 -0.1825  0.7427
  783MPD2     H11603   0.998   0.856  10.786  0.0450 -1.0644  1.0419
  783MPD2    H111604   0.983   0.720  10.381 -0.8263  0.2965 -0.6081
  783MPD2    H211605   0.718   0.548  10.661 -0.0601 -0.1977  2.4239
  783MPD2    H311606   0.801   0.582  10.432  1.6453 -1.2846 -0.3209
  783MPD2     N11607   1.116   0.879  10.569  0.1623 -0.1484 -0.2356
  783MPD2    H511608   1.122   0.945  10.646  0.6047  2.6178 -2.6318
  783MPD2    N111609   0.809   0.678  10.880 -0.7283  0.2183 -0.4590
  783MPD2    H711610   0.717   0.638  10.893  0.0826 -1.5039 -0.0720
  784MPD2     C11611   4.123   1.102   0.584  0.4634 -0.2772 -0.0273
  784MPD2    C111612   4.134   1.221   0.652  0.1972  0.2520 -0.1686
  784MPD2    C211613   4.038   1.317   0.632 -0.5206  0.8711 -0.3142
  784MPD2    C311614   3.927   1.294   0.557  0.5281  0.0881 -1.0902
  784MPD2    C411615   3.918   1.172   0.486  0.1503 -0.7053 -0.0790
  784MPD2    C511616   4.019   1.082   0.497  0.3899 -0.0995  0.1042
  784MPD2     H11617   4.030   1.408   0.690  1.1445  0.8932 -0.1039
  784MPD2    H111618   3.829   1.157   0.427 -1.2666  1.2088  1.5455
  784MPD2    H211619   4.200   1.027   0.573  3.1600  2.0973  2.7146
  784MPD2    H311620   4.007   0.995   0.433 -0.8493 -1.0508  1.6380
  784MPD2     N11621   3.838   1.400   0.543 -1.0769 -0.6719 -0.7959
  784MPD2    H511622   3.864   1.482   0.597  1.0497 -1.3118 -0.8461
  784MPD2    N111623   4.226   1.231   0.762 -0.1619 -0.2680  0.7129
  784MPD2    H711624   4.231   1.322   0.806 -0.5400  0.8751 -1.6094
  785MPD2     C11625   3.932   4.247  11.621 -0.8264 -0.1197  0.0538
  785MPD2    C111626   3.857   4.360  11.633  0.0291 -0.0378  0.0507
  785MPD2    C211627   3.721   4.354  11.636 -0.6361 -0.9566 -0.4431
  785MPD2    C311628   3.660   4.232  11.624 -0.5342 -0.2876  0.4084
  785MPD2    C411629   3.736   4.114  11.619  0.5323 -0.2125 -0.3992
  785MPD2    C511630   3.870   4.123  11.619  0.2913 -0.3213 -0.1188
  785MPD2     H11631   3.655   4.439  11.648  1.2938  0.6469 -1.1779
  785MPD2    H111632   3.693   4.016  11.603  1.4930 -0.8754  1.0653
  785MPD2    H211633   4.040   4.256  11.617 -0.8361 -0.1973 -0.4277
  785MPD2    H311634   3.936   4.042  11.590  0.1981 -1.1936  2.1175
  785MPD2     N11635   3.518   4.227  11.613  0.6339  0.3454  0.5413
  785MPD2    H511636   3.483   4.319  11.592 -0.7926  0.1212  1.9662
  785MPD2    N111637   3.927   4.486  11.624  0.4822  0.0461 -0.2415
  785MPD2    H711638   4.028   4.480  11.615  0.6684  1.0151  1.1856
  786MPD2     C11639   2.428   1.941  14.926  0.3785 -0.3478  0.4876
  786MPD2    C111640   2.558   1.979  14.882  1.4310 -0.1235 -0.2798
  786MPD2    C211641   2.653   2.010  14.976  0.2302 -0.6311 -0.5855
  786MPD2    C311642   2.632   2.000  15.109  1.2972  0.0154  0.4163
  786MPD2    C411643   2.502   1.965  15.150  0.0185  0.5397  0.2536
  786MPD2    C511644   2.400   1.941  15.057 -0.2637  0.4997  0.9444
  786MPD2     H11645   2.750   2.031  14.932 -0.1507  0.8485 -0.7372
  786MPD2    H111646   2.478   1.948  15.254  0.8980  0.1882  0.4004
  786MPD2    H211647   2.356   1.896  14.859 -0.3767  3.6896 -1.4285
  786MPD2    H311648   2.304   1.900  15.086 -1.0037 -0.1052 -2.4503
  786MPD2     N11649   2.730   2.014  15.204 -0.6095 -0.8450  0.1565
  786MPD2    H511650   2.710   1.992  15.301 -2.6198  2.4337  0.4613
  786MPD2    N111651   2.598   1.945  14.752 -0.3548  0.1704 -0.3493
  786MPD2    H711652   2.690   1.971  14.720 -0.6827  1.0816 -0.5622
  787MPD2     C11653   3.016   1.513  14.803  0.6259 -0.7573  0.5945
  787MPD2    C111654   3.022   1.541  14.668 -0.1552  0.4927  0.3898
  787MPD2    C211655   3.104   1.458  14.592 -0.1649 -0.1089 -0.2178
  787MPD2    C311656   3.179   1.355  14.652  0.1156  1.0426 -0.0827
  787MPD2    C411657   3.176   1.339  14.789  0.5439  0.4471  0.0624
  787MPD2    C511658   3.081   1.412  14.858 -0.1592 -0.1806 -0.8109
  787MPD2     H11659   3.109   1.475  14.485 -1.2519  1.2662 -0.0451
  787MPD2    H111660   3.228   1.261  14.844 -1.6131 -0.3468  1.0227
  787MPD2    H211661   2.944   1.566  14.864 -0.2209  0.3096 -1.3309
  787MPD2    H311662   3.067   1.395  14.964  2.0783  1.1186 -0.3254
  787MPD2     N11663   3.250   1.270  14.567 -0.2809  0.6379  0.4248
  787MPD2    H511664   3.237   1.283  14.467 -0.9139  1.3580  0.5972
  787MPD2    N111665   2.940   1.651  14.611  0.1741  0.0521  0.1015
  787MPD2    H711666   2.895   1.710  14.681  1.5176  0.1472  0.8866
  788MPD2     C11667   0.248   0.973   1.118  0.4417 -0.2353  0.3558
  788MPD2    C111668   0.206   0.897   1.016  0.4067 -0.0632  0.5192
  788MPD2    C211669   0.117   0.945   0.924  0.3923 -0.4596 -0.3079
  788MPD2    C311670   0.093   1.079   0.913  0.5826  0.0760 -0.0478
  788MPD2    C411671   0.156   1.164   1.003 -0.7846  0.4580 -0.8599
  788MPD2    C511672   0.221   1.105   1.111 -0.4370 -0.5738 -0.1419
  788MPD2     H11673   0.066   0.883   0.852 -2.9237  0.0592  1.5799
  788MPD2    H111674   0.147   1.272   1.001 -0.4224  0.5204  1.1195
  788MPD2    H211675   0.311   0.934   1.197 -0.1508 -1.0552  0.4120
  788MPD2    H311676   0.265   1.164   1.190  0.1118  0.4205 -1.2007
  788MPD2     N11677   0.035   1.140   0.804 -0.3209  0.2392  0.5330
  788MPD2    H511678   0.049   1.240   0.813 -1.0581  0.3378  0.5784
  788MPD2    N111679   0.242   0.759   1.001  0.2583 -0.1619 -0.8018
  788MPD2    H711680   0.199   0.711   0.922  0.7979  1.1740 -1.9026
  789MPD2     C11681   0.359   0.146  16.421  0.2921  1.0533 -1.2871
  789MPD2    C111682   0.244   0.154  16.356  0.1458  0.2581  0.0305
  789MPD2    C211683   0.150   0.249  16.394 -0.1344  0.2049 -0.2630
  789MPD2    C311684   0.165   0.321  16.507 -0.0038  0.0916 -0.3820
  789MPD2    C411685   0.281   0.312  16.581  0.0052 -0.1456  0.6136
  789MPD2    C511686   0.375   0.222  16.535  0.5627 -0.5489 -0.1283
  789MPD2     H11687   0.054   0.243  16.345  0.4424 -0.0966 -1.3596
  789MPD2    H111688   0.298   0.363  16.675 -3.2683 -1.5851  1.9613
  789MPD2    H211689   0.433   0.073  16.390 -3.2749 -1.2502 -4.3703
  789MPD2    H311690   0.469   0.222  16.587  1.3084 -0.8277 -1.4628
  789MPD2     N11691   0.062   0.416  16.555 -0.1940  0.1136  0.2669
  789MPD2    H511692   0.076   0.460  16.646 -3.1883  0.3929  0.6106
  789MPD2    N111693   0.205   0.066  16.252  0.2246 -0.5161 -0.0541
  789MPD2    H711694   0.105   0.052  16.238 -0.0447  1.0943  0.2336
  790MPD2     C11695   1.415   0.884  13.061  0.0618 -0.3407 -0.7497
  790MPD2    C111696   1.449   1.008  13.114 -0.7328  0.1621  0.0391
  790MPD2    C211697   1.357   1.116  13.098  0.2857  0.6008 -0.1243
  790MPD2    C311698   1.235   1.094  13.032  0.4055 -0.8441  0.3133
  790MPD2    C411699   1.205   0.971  12.976  0.4074  0.0055 -0.0979
  790MPD2    C511700   1.300   0.871  12.986  0.8030 -0.5414 -0.0046
  790MPD2     H11701   1.379   1.217  13.132  1.3277 -0.2015  1.6038
  790MPD2    H111702   1.120   0.956  12.910  0.2750 -0.4073  0.1665
  790MPD2    H211703   1.491   0.808  13.045  1.4562  0.4252  2.2150
  790MPD2    H311704   1.287   0.779  12.932 -0.3325 -0.8081  0.7294
  790MPD2     N11705   1.142   1.205  13.026 -0.3196 -0.1059  0.0958
  790MPD2    H511706   1.181   1.299  13.026  1.9537 -1.0446 -0.6535
  790MPD2    N111707   1.582   1.016  13.180 -0.3112  0.3422  0.1833
  790MPD2    H711708   1.652   0.944  13.165 -0.3914  0.3942 -0.4408
  791MPD2     C11709   0.370   1.618  13.303 -0.4403  0.1486  0.8661
  791MPD2    C111710   0.416   1.544  13.196 -0.1801 -0.1917 -0.8060
  791MPD2    C211711   0.323   1.479  13.119 -0.0944  0.2187  0.2965
  791MPD2    C311712   0.187   1.499  13.136  0.2538  0.2755 -0.0392
  791MPD2    C411713   0.137   1.564  13.248  0.4941  1.0258  0.2988
  791MPD2    C511714   0.234   1.622  13.331 -0.0408 -0.2648 -0.4139
  791MPD2     H11715   0.352   1.432  13.026 -0.1678 -0.7019  0.7462
  791MPD2    H111716   0.031   1.561  13.273  0.4586 -4.4654 -0.5895
  791MPD2    H211717   0.434   1.678  13.367 -1.9506  2.3960  0.2565
  791MPD2    H311718   0.195   1.671  13.420 -0.1345 -0.0647 -0.5647
  791MPD2     N11719   0.105   1.427  13.048  0.0535 -0.4638  0.4427
  791MPD2    H511720   0.147   1.374  12.972  0.6674  3.0736 -1.6599
  791MPD2    N111721   0.555   1.529  13.184  0.1589 -0.2094 -0.3059
  791MPD2    H711722   0.616   1.581  13.245  0.6135  0.4709 -1.3318
  792MPD2     C11723   0.939   2.117  11.715  0.2073  0.7224 -0.1118
  792MPD2    C111724   0.865   2.172  11.613 -0.1897 -0.5111  0.5923
  792MPD2    C211725   0.732   2.136  11.589 -0.1072 -0.0927  0.2040
  792MPD2    C311726   0.675   2.035  11.664 -0.0293 -0.4635 -0.4099
  792MPD2    C411727   0.749   1.978  11.768  0.6079 -0.1998  0.3240
  792MPD2    C511728   0.869   2.030  11.801 -0.0492  0.1355 -0.7763
  792MPD2     H11729   0.675   2.182  11.509  2.5566  2.3936 -0.2897
  792MPD2    H111730   0.709   1.902  11.835 -2.4123  1.3975  0.3423
  792MPD2    H211731   1.041   2.134  11.746 -0.4600 -0.2192  2.5910
  792MPD2    H311732   0.923   1.975  11.877 -3.6068 -0.8289  1.0897
  792MPD2     N11733   0.545   1.979  11.633  0.5643 -0.1807 -0.7407
  792MPD2    H511734   0.526   1.892  11.681 -0.6752 -1.0045 -2.7470
  792MPD2    N111735   0.932   2.268  11.536 -0.1489 -0.1175  0.0042
  792MPD2    H711736   1.029   2.287  11.557  0.8147 -2.9010 -1.7910
  793MPD2     C11737   0.006   1.594  10.905  0.1436  0.1049  0.6241
  793MPD2    C111738   0.141   1.635  10.917  0.1343  0.0007  0.1305
  793MPD2    C211739   0.172   1.719  11.023  0.5094 -0.2506  0.3816
  793MPD2    C311740   0.075   1.752  11.118  0.3298  0.3437  0.3638
  793MPD2    C411741   4.674   1.723  11.093 -0.3838 -0.2350  0.0207
  793MPD2    C511742   4.645   1.640  10.990  0.5486  0.8580  0.2699
  793MPD2     H11743   0.278   1.735  11.035  0.8250 -1.0224 -1.4127
  793MPD2    H111744   4.590   1.767  11.145  1.3499  1.4116  1.4565
  793MPD2    H211745   4.705   1.521  10.834  0.3856 -0.5607  1.1828
  793MPD2    H311746   4.542   1.631  10.959 -0.2225  1.3847  2.6677
  793MPD2     N11747   0.122   1.812  11.241  0.4726  0.2780  0.0774
  793MPD2    H511748   0.223   1.823  11.239  0.5337 -0.8003 -2.5705
  793MPD2    N111749   0.241   1.586  10.842  0.1173  0.8466 -0.0956
  793MPD2    H711750   0.335   1.611  10.873  0.2156  0.2481  0.0919
  794MPD2     C11751   1.225   1.181  17.301  0.2879 -0.9056  0.4552
  794MPD2    C111752   1.180   1.052  17.281 -0.0817 -0.4746 -0.1513
  794MPD2    C211753   1.118   1.012  17.160 -0.7093  0.7399  0.3528
  794MPD2    C311754   1.095   1.109  17.064 -0.3440  0.0075  0.1053
  794MPD2    C411755   1.137   1.238  17.091  0.1968  1.5372 -0.5231
  794MPD2    C511756   1.195   1.278  17.209  0.2689 -0.1755 -0.6383
  794MPD2     H11757   1.088   0.910  17.140 -1.9749  0.8327  1.7487
  794MPD2    H111758   1.129   1.321  17.021 -2.6853  3.4605  2.0687
  794MPD2    H211759   1.279   1.212  17.389  0.6598 -3.1946  1.0433
  794MPD2    H311760   1.233   1.379  17.219  1.1605 -0.8245  2.5917
  794MPD2     N11761   1.028   1.086  16.939  0.3789  0.2076  0.3754
  794MPD2    H511762   1.011   1.172  16.888  1.9502  0.5409  0.4438
  794MPD2    N111763   1.196   0.951  17.379 -0.4186  0.7492  0.3820
  794MPD2    H711764   1.151   0.861  17.368  1.0087 -0.0537  1.1113
  795MPD2     C11765   3.404   3.252  13.982  0.5307 -0.1135 -0.1866
  795MPD2    C111766   3.374   3.137  13.910  0.1019  0.0448 -0.3071
  795MPD2    C211767   3.460   3.033  13.918 -0.6693 -0.6507 -0.0108
  795MPD2    C311768   3.586   3.046  13.979 -0.2870  0.3689  0.0282
  795MPD2    C411769   3.615   3.158  14.051  0.3152  0.3254 -0.4199
  795MPD2    C511770   3.526   3.266  14.049  0.2323  0.5808  0.3709
  795MPD2     H11771   3.440   2.938  13.869  1.7836 -2.6736  2.8869
  795MPD2    H111772   3.713   3.171  14.097 -0.5646  1.2562  1.2127
  795MPD2    H211773   3.336   3.337  13.985 -0.1543 -0.6725  0.0072
  795MPD2    H311774   3.550   3.357  14.103  0.8122 -0.1281  1.3222
  795MPD2     N11775   3.669   2.929  13.967  0.7669  0.0032 -0.4222
  795MPD2    H511776   3.639   2.854  13.905  2.1434  0.3806 -1.5439
  795MPD2    N111777   3.257   3.135  13.827 -0.5953 -0.2898 -0.0278
  795MPD2    H711778   3.231   3.045  13.789 -0.6971  0.8942 -2.7563
  796MPD2     C11779   2.917   4.535  15.469 -0.0080  0.2304 -0.3999
  796MPD2    C111780   2.996   4.619  15.545 -0.3429 -0.4759 -0.1008
  796MPD2    C211781   2.966   0.021  15.537 -0.1925 -0.3375 -0.2932
  796MPD2    C311782   2.856   0.068  15.468  0.1210  0.5934 -0.7325
  796MPD2    C411783   2.778   4.716  15.391 -0.3824  0.3580  0.0035
  796MPD2    C511784   2.811   4.583  15.389 -0.2059  0.1255 -1.2227
  796MPD2     H11785   3.026   0.084  15.602 -2.0580  1.3840 -0.2480
  796MPD2    H111786   2.692   0.008  15.331 -0.8294 -2.9315 -0.8577
  796MPD2    H211787   2.944   4.434  15.441  0.6479  0.1089  0.6425
  796MPD2    H311788   2.749   4.512  15.335  1.8977 -3.6276  1.2785
  796MPD2     N11789   2.829   0.204  15.479 -0.1275  0.1701 -0.3960
  796MPD2    H511790   2.873   0.259  15.553 -0.8579  1.6413 -1.0614
  796MPD2    N111791   3.104   4.565  15.609  0.0777 -0.1135  0.1383
  796MPD2    H711792   3.115   4.465  15.598 -0.3529 -0.3791  2.1263
  797MPD2     C11793   3.902   4.481  17.034  0.1858 -0.5410 -0.7285
  797MPD2    C111794   4.009   4.553  17.005  0.1559 -0.0802 -1.1134
  797MPD2    C211795   4.013   4.631  16.898  0.1569 -0.1810 -0.5285
  797MPD2    C311796   3.903   4.649  16.813  0.2415  1.0552  0.0579
  797MPD2    C411797   3.796   4.569  16.844 -0.4088  0.3980 -0.1936
  797MPD2    C511798   3.791   4.489  16.954 -0.2695  0.7469 -0.3891
  797MPD2     H11799   4.104   4.678  16.863  0.0768 -1.3746 -2.3417
  797MPD2    H111800   3.708   4.573  16.782 -0.6219 -1.7874 -0.0525
  797MPD2    H211801   3.878   4.421  17.121 -1.2806 -1.7498 -1.9762
  797MPD2    H311802   3.708   4.425  16.981 -0.0525 -0.1060 -1.7540
  797MPD2     N11803   3.904   0.002  16.702  0.5452 -0.6518  1.0847
  797MPD2    H511804   3.853   4.714  16.617  1.3081 -3.4832  1.4160
  797MPD2    N111805   4.129   4.539  17.081 -0.7593  0.6757  0.2555
  797MPD2    H711806   4.208   4.597  17.053  1.1940 -1.7160  0.8189
  798MPD2     C11807   4.574   0.193  16.783 -0.1716  0.6483  0.5154
  798MPD2    C111808   4.442   0.202  16.815 -0.3583  0.7069 -0.7131
  798MPD2    C211809   4.404   0.188  16.949  0.0921 -0.7248  0.3719
  798MPD2    C311810   4.500   0.166  17.047 -0.4436  1.3119 -0.5644
  798MPD2    C411811   4.635   0.164  17.020  0.3576  0.2375 -0.2502
  798MPD2    C511812   4.667   0.176  16.892 -0.1975  0.6394 -0.2494
  798MPD2     H11813   4.300   0.183  16.981 -0.8030 -0.9159 -2.5867
  798MPD2    H111814   4.711   0.141  17.093  2.0884  1.2525 -1.7334
  798MPD2    H211815   4.621   0.196  16.685 -1.5008  0.9087 -0.1192
  798MPD2    H311816   0.038   0.177  16.875 -0.4171  0.7839 -1.5968
  798MPD2     N11817   4.453   0.109  17.164 -0.1273 -0.0159  0.5594
  798MPD2    H511818   4.354   0.093  17.176 -0.4586  0.8039 -1.1809
  798MPD2    N111819   4.347   0.207  16.715 -0.6008  0.4354  0.5146
  798MPD2    H711820   4.251   0.205  16.747  0.3199  0.7402  3.2914
  799MPD2     C11821   2.785   1.122  14.772  0.1150 -0.6039 -0.2237
  799MPD2    C111822   2.704   1.040  14.691 -0.0627 -0.7392 -0.0403
  799MPD2    C211823   2.635   1.107  14.596 -0.0150 -0.2047  0.6625
  799MPD2    C311824   2.661   1.239  14.559  1.0127 -0.5862 -0.3798
  799MPD2    C411825   2.746   1.312  14.639  0.6407  0.2054  0.3610
  799MPD2    C511826   2.799   1.252  14.748 -0.8270 -0.4218  0.1859
  799MPD2     H11827   2.561   1.049  14.542  1.2829 -2.6682  1.5270
  799MPD2    H111828   2.774   1.412  14.608  1.6984 -0.6706 -1.5120
  799MPD2    H211829   2.840   1.092  14.861  0.3458 -3.5601 -1.3579
  799MPD2    H311830   2.848   1.314  14.823 -0.0086  0.7069 -1.2916
  799MPD2     N11831   2.601   1.295  14.442  0.1645  0.2434 -0.0531
  799MPD2    H511832   2.613   1.395  14.439 -0.6881  0.3705  0.5798
  799MPD2    N111833   2.683   0.901  14.707 -0.3298 -0.0105 -0.1650
  799MPD2    H711834   2.627   0.853  14.637 -0.0420 -3.1374  1.7538
  800MPD2     C11835   3.038   2.039  14.474  0.7671 -0.8478 -0.1584
  800MPD2    C111836   3.177   2.026  14.471  0.4789 -0.0083  0.1651
  800MPD2    C211837   3.239   1.981  14.355 -0.5211  0.0623  0.1687
  800MPD2    C311838   3.156   1.947  14.247 -0.6070  0.0678 -0.8619
  800MPD2    C411839   3.019   1.958  14.255  0.4272  0.6564 -0.3905
  800MPD2    C511840   2.958   1.996  14.373  0.0733  0.4634  0.3702
  800MPD2     H11841   3.346   1.979  14.340 -0.4407  3.0142  0.3024
  800MPD2    H111842   2.948   1.931  14.178 -0.6001 -0.9427  1.1190
  800MPD2    H211843   2.998   2.100  14.555  1.8398  1.6724 -1.5618
  800MPD2    H311844   2.851   2.014  14.371  0.1343  0.8163  0.3045
  800MPD2     N11845   3.226   1.924  14.124  0.2446 -0.7572  0.2556
  800MPD2    H511846   3.326   1.912  14.136  0.1023 -1.5746  0.6332
  800MPD2    N111847   3.258   2.086  14.579  0.4187 -0.4449  0.3875
  800MPD2    H711848   3.205   2.139  14.647 -1.8656  0.2374 -1.9313
  801MPD2     C11849   3.140   2.721  14.742  0.2840 -0.4252  0.0561
  801MPD2    C111850   3.127   2.596  14.801  0.0213  0.6612 -0.2661
  801MPD2    C211851   3.000   2.553  14.841  0.7922  0.2356  0.8145
  801MPD2    C311852   2.891   2.630  14.815 -0.8870  0.8749  0.1564
  801MPD2    C411853   2.906   2.753  14.760 -0.4493 -0.0938 -0.3593
  801MPD2    C511854   3.030   2.798  14.731 -0.5044 -0.3547 -0.4867
  801MPD2     H11855   2.996   2.452  14.880 -0.0865  1.1954  3.1684
  801MPD2    H111856   2.821   2.818  14.740  0.1475  1.1055  0.9706
  801MPD2    H211857   3.232   2.768  14.711 -0.3289  1.1932  0.6595
  801MPD2    H311858   3.058   2.900  14.706 -1.2934 -0.2215 -0.8213
  801MPD2     N11859   2.767   2.584  14.855 -0.2474 -0.6325 -0.5152
  801MPD2    H511860   2.760   2.494  14.901  0.5037 -0.3613  0.1311
  801MPD2    N111861   3.234   2.502  14.809 -0.3637  0.1250  0.3399
  801MPD2    H711862   3.218   2.415  14.858 -1.7129 -0.3606 -0.9670
  802MPD2     C11863   3.267   3.863   0.502 -0.3241 -0.3048  0.2864
  802MPD2    C111864   3.241   3.935   0.391 -0.4825 -0.4031 -0.0689
  802MPD2    C211865   3.310   3.900   0.282  0.5378 -0.6096  0.3754
  802MPD2    C311866   3.411   3.812   0.274 -0.4642  0.2055  0.4096
  802MPD2    C411867   3.447   3.752   0.387 -0.0056 -0.0327 -0.2283
  802MPD2    C511868   3.372   3.774   0.496  0.4365 -0.4848 -0.1623
  802MPD2     H11869   3.270   3.940   0.190 -1.3772  0.2728  1.5705
  802MPD2    H111870   3.532   3.685   0.390  0.2020  0.2896  1.3931
  802MPD2    H211871   3.218   3.886   0.596 -1.1515 -1.3176  0.1074
  802MPD2    H311872   3.399   3.731   0.592  0.4916  1.6601  0.7907
  802MPD2     N11873   3.457   3.775   0.145  0.5897  0.1958  0.2832
  802MPD2    H511874   3.411   3.817   0.065 -0.0796  2.3655  1.7979
  802MPD2    N111875   3.124   4.011   0.373 -0.7721 -0.0059 -0.3599
  802MPD2    H711876   3.105   4.037   0.277  2.3099 -0.7832 -1.1769
  803MPD2     C11877   3.391   1.835  11.804 -0.0535 -0.1651  0.4102
  803MPD2    C111878   3.471   1.946  11.845 -0.5489 -0.6412 -0.1161
  803MPD2    C211879   3.481   1.957  11.982  0.6171 -0.6620 -0.6937
  803MPD2    C311880   3.428   1.868  12.071  0.1025 -0.2930  0.7937
  803MPD2    C411881   3.365   1.755  12.021  0.3017 -0.1044  0.3185
  803MPD2    C511882   3.355   1.739  11.886 -0.1857  0.1344  0.1039
  803MPD2     H11883   3.533   2.045  12.016  0.4735 -1.3211  1.2591
  803MPD2    H111884   3.328   1.678  12.087 -1.7219  0.5072 -0.1215
  803MPD2    H211885   3.368   1.815  11.699  1.2994  1.8436 -0.2738
  803MPD2    H311886   3.304   1.657  11.837  0.0656 -0.8192  1.4383
  803MPD2     N11887   3.469   1.872  12.209 -0.9150 -0.1703 -0.0916
  803MPD2    H511888   3.456   1.789  12.267 -0.6905 -0.3360 -0.2762
  803MPD2    N111889   3.527   2.046  11.756  0.0892 -0.4108  0.1878
  803MPD2    H711890   3.589   2.112  11.803 -2.7540  3.2299 -1.1439
  804MPD2     C11891   4.112   2.857  17.146  0.6605  0.4129 -0.5343
  804MPD2    C111892   4.072   2.845  17.274  0.3263  0.8389  0.4108
  804MPD2    C211893   4.087   2.948  17.359 -0.3428  0.4822 -0.1882
  804MPD2    C311894   4.166   3.054  17.320  0.2716  0.6045 -0.2019
  804MPD2    C411895   4.200   3.073  17.183 -0.8178 -0.5878 -0.0871
  804MPD2    C511896   4.176   2.967  17.104  0.4061 -0.0084  0.6122
  804MPD2     H11897   4.041   2.940  17.457  1.1537  3.4946  0.7661
  804MPD2    H111898   4.268   3.150  17.148 -1.4917  0.7898  1.6861
  804MPD2    H211899   4.103   2.781  17.070 -1.1702 -0.2164  0.3127
  804MPD2    H311900   4.208   2.968  17.000  0.4112 -3.6231  0.5603
  804MPD2     N11901   4.202   3.151  17.418 -0.2738 -0.4764  0.1435
  804MPD2    H511902   4.169   3.130  17.511  1.1963  1.8809  1.1795
  804MPD2    N111903   3.984   2.739  17.316 -0.6570  0.0817  0.1918
  804MPD2    H711904   3.950   2.750  17.412  0.2534 -1.4712  0.6854
  805MPD2     C11905   2.401   1.358  15.590 -0.1978 -0.0070 -0.1745
  805MPD2    C111906   2.518   1.352  15.516  0.2014 -0.4512 -0.7902
  805MPD2    C211907   2.633   1.409  15.568  0.0771  1.2518  0.6720
  805MPD2    C311908   2.638   1.456  15.700  0.1942 -0.0241 -0.2093
  805MPD2    C411909   2.521   1.462  15.771 -0.1102 -0.4391 -0.4501
  805MPD2    C511910   2.410   1.419  15.708 -0.4208  0.4901  0.2537
  805MPD2     H11911   2.723   1.416  15.507 -0.7201 -0.8033 -0.7374
  805MPD2    H111912   2.529   1.504  15.871 -2.4133  2.4863 -1.5016
  805MPD2    H211913   2.303   1.327  15.555 -1.5338 -1.1505  4.5733
  805MPD2    H311914   2.320   1.435  15.767  0.1657  1.8374  0.8040
  805MPD2     N11915   2.762   1.511  15.743 -0.0732  0.2864  1.0945
  805MPD2    H511916   2.839   1.486  15.682 -0.9703 -1.9242  0.8422
  805MPD2    N111917   2.514   1.299  15.378  0.2089  0.0915 -0.8714
  805MPD2    H711918   2.602   1.278  15.333  0.2251  1.1419 -1.3396
  806MPD2     C11919   3.241   1.273   0.854 -0.9408 -0.5408  0.3382
  806MPD2    C111920   3.374   1.314   0.824 -1.0232 -0.6068 -0.5271
  806MPD2    C211921   3.427   1.278   0.704 -0.5522  0.5999 -1.7552
  806MPD2    C311922   3.360   1.196   0.616  0.9473  0.4670 -0.2933
  806MPD2    C411923   3.235   1.153   0.656  0.0071 -0.2596  0.2250
  806MPD2    C511924   3.169   1.190   0.771 -0.3330  0.4833  0.2166
  806MPD2     H11925   3.527   1.307   0.672  0.5225 -1.5114 -0.3297
  806MPD2    H111926   3.168   1.089   0.598  1.3207 -2.0992  0.7464
  806MPD2    H211927   3.192   1.291   0.949  0.7671  0.2852  1.0622
  806MPD2    H311928   3.072   1.150   0.799 -1.1031  1.7018 -0.7230
  806MPD2     N11929   3.422   1.151   0.491  0.2855  0.0122 -0.0105
  806MPD2    H511930   3.505   1.201   0.460  0.2819 -0.3578 -0.6154
  806MPD2    N111931   3.447   1.370   0.932  0.2657  0.6138  0.4224
  806MPD2    H711932   3.397   1.390   1.018 -1.2221  1.7066 -0.6709
  807MPD2     C11933   3.357   1.425   1.641 -0.1237 -0.4486 -0.8640
  807MPD2    C111934   3.349   1.366   1.516 -0.5854 -0.5062 -0.0051
  807MPD2    C211935   3.267   1.255   1.499  0.4471  0.7146  0.2645
  807MPD2    C311936   3.181   1.215   1.597  0.1503  0.4103  0.5137
  807MPD2    C411937   3.191   1.272   1.721 -0.3625  0.7589 -0.0954
  807MPD2    C511938   3.282   1.377   1.741  0.5702  0.6264  0.2797
  807MPD2     H11939   3.269   1.207   1.402 -2.5739 -1.3287  1.2234
  807MPD2    H111940   3.139   1.239   1.811  1.8972 -1.4302  0.4183
  807MPD2    H211941   3.425   1.504   1.671  0.2129 -0.3400 -1.8952
  807MPD2    H311942   3.299   1.414   1.842 -1.3773  2.2097  0.0354
  807MPD2     N11943   3.096   1.104   1.570  0.5874  0.2963  0.1511
  807MPD2    H511944   3.098   1.084   1.471 -2.1433 -0.3839  0.2465
  807MPD2    N111945   3.425   1.420   1.404  0.1043  0.3078 -0.5700
  807MPD2    H711946   3.417   1.358   1.324 -1.4747  1.0545 -0.9983
  808MPD2     C11947   2.798   2.062  10.603 -0.6760 -0.1459  0.6533
  808MPD2    C111948   2.743   2.150  10.513  0.5315 -0.1072 -0.3546
  808MPD2    C211949   2.818   2.249  10.470  0.2994 -0.0618 -0.6180
  808MPD2    C311950   2.944   2.268  10.512  0.0964  0.1003  0.5025
  808MPD2    C411951   2.992   2.187  10.611  0.0213 -0.3933  0.4720
  808MPD2    C511952   2.925   2.080  10.643  0.1804 -0.5896  0.3051
  808MPD2     H11953   2.782   2.315  10.391 -1.4593 -1.8459 -1.3166
  808MPD2    H111954   3.093   2.186  10.650  0.1015  1.2681  0.3209
  808MPD2    H211955   2.740   1.979  10.643 -0.4269  0.6147  2.6009
  808MPD2    H311956   2.967   2.005  10.709 -1.4907 -0.7126  1.2489
  808MPD2     N11957   3.035   2.361  10.454  0.5877 -0.1474 -0.0595
  808MPD2    H511958   3.133   2.360  10.476  0.3232 -1.0771  1.0491
  808MPD2    N111959   2.617   2.137  10.454  0.1749 -0.3196  0.1547
  808MPD2    H711960   2.584   2.213  10.396  1.0338  0.5048  0.7496
  809MPD2     C11961   3.562   1.901  10.421 -0.8349 -0.2641 -0.0209
  809MPD2    C111962   3.641   1.982  10.337  0.2765  0.2284 -0.1823
  809MPD2    C211963   3.590   2.107  10.308  0.0926  0.3360  0.1052
  809MPD2    C311964   3.472   2.152  10.371  0.2978  0.8538  0.2882
  809MPD2    C411965   3.422   2.073  10.470 -0.7744 -0.1416 -0.0603
  809MPD2    C511966   3.470   1.950  10.495  0.5711 -0.7439 -0.2265
  809MPD2     H11967   3.628   2.171  10.229 -1.6399 -1.1004 -1.8656
  809MPD2    H111968   3.332   2.098  10.524  0.2074  2.2747  0.4509
  809MPD2    H211969   3.593   1.799  10.444 -0.3211 -0.4678 -1.6091
  809MPD2    H311970   3.415   1.885  10.562 -0.5543  2.5168  2.0236
  809MPD2     N11971   3.400   2.263  10.333  0.8299  0.2208  0.0794
  809MPD2    H511972   3.316   2.281  10.388 -1.2381 -2.3061 -2.2403
  809MPD2    N111973   3.749   1.943  10.262 -0.8091 -0.4765  0.0712
  809MPD2    H711974   3.789   2.019  10.208  0.5110 -0.6207  0.8555
  810MPD2     C11975   2.828   1.897  11.075 -0.3106 -0.4042  0.6533
  810MPD2    C111976   2.744   1.968  10.987  0.4089  0.2633 -0.1949
  810MPD2    C211977   2.795   2.093  10.947 -0.7574 -0.3850  0.1814
  810MPD2    C311978   2.921   2.135  10.989 -0.2963 -0.0981  0.4140
  810MPD2    C411979   2.994   2.069  11.088  0.5382  0.5451  0.2220
  810MPD2    C511980   2.947   1.947  11.131 -0.2237 -0.9829  0.3359
  810MPD2     H11981   2.757   2.144  10.859 -0.2688  0.1463  0.2735
  810MPD2    H111982   3.082   2.120  11.125 -0.2269  0.7702  1.7024
  810MPD2    H211983   2.792   1.812  11.132 -0.1832  0.3516  1.8753
  810MPD2    H311984   3.006   1.895  11.205 -2.6129  0.3124  3.1206
  810MPD2     N11985   2.977   2.256  10.947  0.4499  0.4206  0.0686
  810MPD2    H511986   3.074   2.278  10.967  0.8108 -0.7748 -0.3725
  810MPD2    N111987   2.624   1.920  10.935  0.9000 -0.0618  0.3780
  810MPD2    H711988   2.607   1.821  10.950 -0.8984  0.0412 -1.0866
  811MPD2     C11989   1.803   1.875  10.524  0.2475 -0.2836  0.3870
  811MPD2    C111990   1.900   1.970  10.562  0.2164  0.3905  0.7743
  811MPD2    C211991   1.895   2.094  10.503 -0.4401  0.2590 -0.0388
  811MPD2    C311992   1.823   2.117  10.386  0.0899 -1.1738  0.4814
  811MPD2    C411993   1.738   2.012  10.344 -0.0705  0.0047  0.4881
  811MPD2    C511994   1.733   1.901  10.417  0.7234  0.6118  0.1078
  811MPD2     H11995   1.948   2.180  10.540 -1.0277  0.4181  0.4345
  811MPD2    H111996   1.662   2.024  10.268  1.1237  0.9020 -0.5649
  811MPD2    H211997   1.802   1.770  10.550 -0.6169 -0.6350 -1.0639
  811MPD2    H311998   1.669   1.819  10.385 -0.9285  0.9537  2.4814
  811MPD2     N11999   1.821   2.249  10.334 -0.2950  0.2854 -0.5569
  811MPD2    H512000   1.879   2.320  10.377  1.0420 -1.4960  0.6090
  811MPD2    N112001   1.986   1.931  10.671  0.0881 -0.1375 -0.0197
  811MPD2    H712002   1.977   1.835  10.705  0.9298  0.0209  0.6416
  812MPD2     C12003   1.213   1.840  12.150 -0.0343 -0.4691  0.2633
  812MPD2    C112004   1.338   1.886  12.179 -0.7470  0.2846 -0.2436
  812MPD2    C212005   1.429   1.808  12.254  0.1959 -0.1717 -0.0581
  812MPD2    C312006   1.392   1.681  12.286  0.2860  0.2839 -0.1659
  812MPD2    C412007   1.275   1.630  12.244 -0.2353 -0.1014  0.0497
  812MPD2    C512008   1.185   1.709  12.180  0.1169 -0.1507  1.0591
  812MPD2     H12009   1.519   1.850  12.300  0.9591  0.6840 -2.3409
  812MPD2    H112010   1.244   1.531  12.274 -2.8883  0.7985  0.3260
  812MPD2    H212011   1.135   1.898  12.102  0.6272 -1.0740 -1.5561
  812MPD2    H312012   1.092   1.666  12.142 -0.4206  1.2406  0.7976
  812MPD2     N12013   1.484   1.606  12.366  0.4732  0.6990 -0.2790
  812MPD2    H512014   1.569   1.649  12.400  0.9142  0.2680 -0.8256
  812MPD2    N112015   1.366   2.022  12.140 -0.1352  0.5364 -0.1363
  812MPD2    H712016   1.304   2.066  12.074 -0.9391 -1.4471 -0.7117
  813MPD2     C12017   1.149   3.350  13.041  0.0488 -0.2570 -0.3787
  813MPD2    C112018   1.121   3.487  13.042 -0.7471  0.0883 -0.6782
  813MPD2    C212019   1.013   3.539  13.111  0.1298  0.3187  0.8720
  813MPD2    C312020   0.934   3.452  13.189 -0.0997 -0.2230 -0.4984
  813MPD2    C412021   0.975   3.319  13.195 -0.9699  0.2849 -0.3299
  813MPD2    C512022   1.077   3.267  13.120  0.6055  0.4771  0.5513
  813MPD2     H12023   0.982   3.643  13.111  0.0519  0.3018  1.7475
  813MPD2    H112024   0.919   3.247  13.253  0.5242  0.0191  0.8027
  813MPD2    H212025   1.230   3.308  12.982 -0.2854 -0.5433 -0.6347
  813MPD2    H312026   1.093   3.161  13.134 -2.5513  0.1290  1.3815
  813MPD2     N12027   0.832   3.515  13.277  0.2127  0.4673  0.0523
  813MPD2    H512028   0.822   3.616  13.270  0.6481  0.6491  2.0745
  813MPD2    N112029   1.214   3.583  12.992 -0.2498 -0.2710  0.0247
  813MPD2    H712030   1.308   3.545  12.980 -1.0905 -1.2107 -3.5702
  814MPD2     C12031   1.161   0.001  12.400  0.2275 -0.4706  0.0585
  814MPD2    C112032   1.198   0.030  12.273 -0.0793  0.3794  0.0149
  814MPD2    C212033   1.242   0.158  12.248 -0.0532 -0.7046 -0.5521
  814MPD2    C312034   1.256   0.250  12.355 -0.4050 -0.4423  0.7196
  814MPD2    C412035   1.222   0.210  12.484 -0.0227  0.5260  0.1173
  814MPD2    C512036   1.169   0.089  12.506  0.1031  1.0011  0.4796
  814MPD2     H12037   1.264   0.196  12.149  0.4959  1.1165  0.2796
  814MPD2    H112038   1.213   0.281  12.566  0.2217 -0.1389  0.7185
  814MPD2    H212039   1.108   4.645  12.423 -0.6153  0.2947  1.2062
  814MPD2    H312040   1.127   0.065  12.603  1.1366 -2.2652  0.0876
  814MPD2     N12041   1.300   0.379  12.314 -0.1158 -0.4710  0.2159
  814MPD2    H512042   1.345   0.390  12.224 -0.9656 -0.0599 -0.1596
  814MPD2    N112043   1.182   4.660  12.172  0.5084  0.1226  0.3460
  814MPD2    H712044   1.145   4.572  12.206 -0.9069  0.0978 -1.2711
  815MPD2     C12045   1.576   3.955  11.408 -0.0368  0.3124  0.1321
  815MPD2    C112046   1.607   3.827  11.451  0.1123 -0.2116  0.1189
  815MPD2    C212047   1.562   3.779  11.572 -0.2363 -0.3729 -0.8285
  815MPD2    C312048   1.500   3.862  11.657 -0.3621 -1.1014  0.3296
  815MPD2    C412049   1.477   3.990  11.620 -1.0588  0.7477 -0.1162
  815MPD2    C512050   1.515   4.034  11.494  0.7679  0.0455 -0.3260
  815MPD2     H12051   1.577   3.677  11.607  0.1762  0.2317  0.7719
  815MPD2    H112052   1.418   4.053  11.685 -0.3358 -0.8320  2.1052
  815MPD2    H212053   1.605   3.999  11.313  0.6090 -2.7866 -1.0978
  815MPD2    H312054   1.493   4.134  11.459 -1.0446 -0.3184 -0.2201
  815MPD2     N12055   1.445   3.809  11.771 -0.2566 -0.7657  0.3890
  815MPD2    H512056   1.449   3.709  11.783  2.3074 -0.7830 -0.7915
  815MPD2    N112057   1.681   3.748  11.364  0.0162 -0.3472 -0.8033
  815MPD2    H712058   1.706   3.795  11.277  1.3636 -0.4117 -0.4434
  816MPD2     C12059   1.901   2.845  17.264 -0.6424 -0.2783  0.3366
  816MPD2    C112060   2.013   2.899  17.316 -0.1386  0.2242  0.1267
  816MPD2    C212061   2.140   2.834  17.313  0.6212 -0.5750 -0.0917
  816MPD2    C312062   2.154   2.715  17.243 -0.6490  0.1018  0.1812
  816MPD2    C412063   2.033   2.663  17.203 -0.1361 -0.4727 -0.0889
  816MPD2    C512064   1.916   2.724  17.209 -0.2188  0.4541 -0.1425
  816MPD2     H12065   2.220   2.886  17.364  0.2735  0.2659 -0.4125
  816MPD2    H112066   2.030   2.564  17.160  1.5393  0.8183 -3.2290
  816MPD2    H212067   1.809   2.903  17.266  0.1635  1.0417 -0.2544
  816MPD2    H312068   1.832   2.687  17.152  0.8305 -1.5765 -0.3454
  816MPD2     N12069   2.284   2.651  17.230  0.4255  0.0574  0.3593
  816MPD2    H512070   2.355   2.693  17.290  0.1169  0.5908  0.3476
  816MPD2    N112071   1.994   3.024  17.374 -0.4889  0.4220  0.0424
  816MPD2    H712072   1.898   3.059  17.374 -0.0433  1.6343  1.2947
  817MPD2     C12073   1.238   4.521   9.582 -0.0104 -0.6326  1.3190
  817MPD2    C112074   1.125   4.484   9.515  0.2829 -0.2731  0.2504
  817MPD2    C212075   1.051   4.579   9.438  0.0717  0.8358  0.0173
  817MPD2    C312076   1.093   4.708   9.422 -0.8654  0.1441 -0.0530
  817MPD2    C412077   1.213   0.007   9.483  0.3269  0.5099 -0.1503
  817MPD2    C512078   1.286   4.649   9.559 -0.7567 -0.2950 -0.1904
  817MPD2     H12079   0.962   4.552   9.384  1.8683 -2.1575 -1.4523
  817MPD2    H112080   1.255   0.107   9.471 -0.4339  0.8455 -0.0216
  817MPD2    H212081   1.291   4.451   9.646 -1.3473 -0.4708  2.6096
  817MPD2    H312082   1.378   4.664   9.615 -2.0626 -0.4977  2.0232
  817MPD2     N12083   1.019   0.056   9.338 -0.6284 -0.6533  0.6580
  817MPD2    H512084   0.937   0.015   9.294  0.8027 -1.4046 -1.2973
  817MPD2    N112085   1.072   4.352   9.517  0.0242 -0.2544 -0.0846
  817MPD2    H712086   0.989   4.333   9.462 -2.5752  1.1936  3.3314
  818MPD2     C12087   4.559   4.271  10.205 -0.5712  0.7040 -0.5776
  818MPD2    C112088   4.617   4.197  10.317 -0.8968 -0.1610 -0.2324
  818MPD2    C212089   4.666   4.076  10.282 -0.4872 -0.3621  0.4139
  818MPD2    C312090   4.670   4.021  10.162  0.2263  0.0364 -0.0389
  818MPD2    C412091   4.610   4.086  10.060 -0.0618 -0.5584 -0.6916
  818MPD2    C512092   4.566   4.215  10.075  0.6806  0.0728 -0.1082
  818MPD2     H12093   4.699   4.017  10.367  2.3874  1.4785  0.5754
  818MPD2    H112094   4.611   4.049   9.958 -1.2747  0.9037 -1.2373
  818MPD2    H212095   4.514   4.369  10.209  0.6033  1.2473 -0.7051
  818MPD2    H312096   4.530   4.271   9.989  1.9329  1.9579  0.5948
  818MPD2     N12097   4.724   3.899  10.137 -0.1877  0.1718 -0.1326
  818MPD2    H512098   4.718   3.869  10.041 -0.1199  0.5646 -0.2595
  818MPD2    N112099   4.581   4.229  10.447  0.0519 -0.2709 -0.5684
  818MPD2    H712100   4.579   4.159  10.520  1.6547  0.5702  0.2965
  819MPD2     C12101   3.479   0.760  15.254  0.3510 -0.2506  0.0464
  819MPD2    C112102   3.447   0.629  15.309 -1.1785  0.5927  0.6569
  819MPD2    C212103   3.519   0.586  15.417 -0.1646  0.8226 -0.1840
  819MPD2    C312104   3.603   0.677  15.485  0.7318  0.0397 -0.6242
  819MPD2    C412105   3.625   0.799  15.440 -0.1902 -0.4627  0.3170
  819MPD2    C512106   3.573   0.835  15.321  0.1588  0.2534  0.1811
  819MPD2     H12107   3.503   0.490  15.465 -1.3473  1.4072  0.6219
  819MPD2    H112108   3.688   0.868  15.496 -0.2949  0.3142 -0.5363
  819MPD2    H212109   3.423   0.794  15.167 -1.4839 -3.0351  0.1040
  819MPD2    H312110   3.603   0.933  15.284  1.6753  0.0016  0.7318
  819MPD2     N12111   3.653   0.635  15.614 -0.4204  0.1652 -0.1881
  819MPD2    H512112   3.637   0.537  15.637 -0.1714 -0.3962 -2.4230
  819MPD2    N112113   3.350   0.548  15.245  0.4539  0.0807 -0.8488
  819MPD2    H712114   3.303   0.590  15.166 -1.1329  1.3560  0.7871
  820MPD2     C12115   2.385   0.549  14.975  0.1026  0.4983  0.4141
  820MPD2    C112116   2.483   0.636  15.028  0.4014  0.1125 -0.6657
  820MPD2    C212117   2.608   0.584  15.051  0.4200  0.0125 -0.8655
  820MPD2    C312118   2.640   0.454  15.030  0.6871  0.4608  0.4253
  820MPD2    C412119   2.545   0.368  14.986  0.1540 -0.0174 -0.4449
  820MPD2    C512120   2.420   0.418  14.972  0.4650  0.3191  0.2647
  820MPD2     H12121   2.682   0.662  15.068  0.9073 -0.4136 -1.0335
  820MPD2    H112122   2.558   0.262  14.967 -0.4838 -0.0969 -0.4532
  820MPD2    H212123   2.282   0.582  14.968  0.1252  0.1250 -1.8751
  820MPD2    H312124   2.337   0.350  14.957 -1.2991  2.5662 -0.0741
  820MPD2     N12125   2.767   0.395  15.058  0.6193  0.0469  0.4547
  820MPD2    H512126   2.773   0.295  15.042  0.1974  0.1027 -0.0303
  820MPD2    N112127   2.451   0.774  15.020 -0.3739 -0.6583 -0.1087
  820MPD2    H712128   2.356   0.796  14.992  0.1938 -0.0322 -1.5321
  821MPD2     C12129   3.383   2.082  13.293  0.3879  0.2803 -0.0763
  821MPD2    C112130   3.488   2.091  13.383  0.1088  0.0204 -0.5232
  821MPD2    C212131   3.607   2.167  13.352  0.4386  0.5420  0.5489
  821MPD2    C312132   3.612   2.222  13.222  0.1932  0.8248 -0.3931
  821MPD2    C412133   3.509   2.202  13.131 -0.0971  0.2229 -0.3839
  821MPD2    C512134   3.396   2.126  13.166  0.5576 -0.3120 -0.5225
  821MPD2     H12135   3.684   2.171  13.428  1.4164  0.9417 -0.4706
  821MPD2    H112136   3.515   2.236  13.028 -2.5926 -0.9396 -0.9229
  821MPD2    H212137   3.294   2.024  13.313  1.6961 -1.1851  1.5365
  821MPD2    H312138   3.312   2.115  13.098  0.9625  0.1577 -1.0966
  821MPD2     N12139   3.724   2.299  13.181 -0.5442 -0.0784  0.2363
  821MPD2    H512140   3.720   2.311  13.080 -0.5109 -1.0495  0.1111
  821MPD2    N112141   3.484   2.025  13.513  0.1437 -0.2876 -0.0780
  821MPD2    H712142   3.568   2.027  13.569  0.8755  0.1149 -1.2065
  822MPD2     C12143   4.259   2.377  15.743 -0.3048 -0.2991  0.3204
  822MPD2    C112144   4.267   2.362  15.878 -0.5989 -0.0935  0.0802
  822MPD2    C212145   4.201   2.447  15.963 -0.1571  0.5529 -0.0986
  822MPD2    C312146   4.122   2.555  15.917 -0.1645 -0.4822  0.8535
  822MPD2    C412147   4.102   2.563  15.782 -0.2255 -0.2442  0.1120
  822MPD2    C512148   4.173   2.471  15.697 -0.0439  0.1071  0.3606
  822MPD2     H12149   4.210   2.420  16.067 -0.9885  0.3910 -0.0653
  822MPD2    H112150   4.039   2.638  15.736 -0.8837  0.2419  1.8203
  822MPD2    H212151   4.328   2.323  15.678 -0.1236 -1.8747  1.8257
  822MPD2    H312152   4.168   2.490  15.590 -2.7173  1.3161  0.6936
  822MPD2     N12153   4.064   2.631  16.017  0.6204 -0.7262  0.0573
  822MPD2    H512154   4.070   2.582  16.105  1.2424  1.3132  1.1605
  822MPD2    N112155   4.343   2.260  15.940  0.8478  0.0044 -0.2148
  822MPD2    H712156   4.347   2.255  16.041  2.5954  0.5153 -0.2522
  823MPD2     C12157   3.699   2.929  16.733 -0.2335 -0.0113 -0.1693
  823MPD2    C112158   3.700   2.823  16.648 -0.9306  0.1009  0.0681
  823MPD2    C212159   3.744   2.702  16.694  0.4449  0.3109  0.3668
  823MPD2    C312160   3.810   2.686  16.813 -0.3167 -0.2235 -0.4440
  823MPD2    C412161   3.809   2.790  16.891 -0.1383 -0.1979 -0.0515
  823MPD2    C512162   3.752   2.912  16.860  0.3187  0.1844  0.5105
  823MPD2     H12163   3.725   2.618  16.628  0.3298  0.9081 -0.3642
  823MPD2    H112164   3.859   2.779  16.987 -0.9490 -1.4360  0.2259
  823MPD2    H212165   3.667   3.025  16.696 -0.5461 -0.2503 -0.5153
  823MPD2    H312166   3.757   2.993  16.931  0.2271  0.0072  0.7180
  823MPD2     N12167   3.881   2.567  16.849  0.5450 -0.4042 -0.3842
  823MPD2    H512168   3.932   2.571  16.936 -0.3998  1.3233  0.0989
  823MPD2    N112169   3.698   2.863  16.515 -0.7650  0.2424 -0.1721
  823MPD2    H712170   3.701   2.963  16.496  1.1670  0.2716  0.2652
  824MPD2     C12171   4.639   1.428  16.150 -0.6613  0.4833  0.3480
  824MPD2    C112172   4.665   1.503  16.038  0.5206  0.1884 -0.2732
  824MPD2    C212173   0.005   1.463  15.932  0.0351 -0.1216  0.0317
  824MPD2    C312174   0.046   1.328  15.934  0.4917 -0.2828 -0.0345
  824MPD2    C412175   0.025   1.252  16.050  0.6712  0.0027 -0.8058
  824MPD2    C512176   4.692   1.297  16.153  0.0379  0.4856  0.7497
  824MPD2     H12177   0.036   1.534  15.856 -1.4923  2.1521  1.5402
  824MPD2    H112178   0.062   1.150  16.055  1.3917  0.4123  2.2005
  824MPD2    H212179   4.580   1.455  16.237  0.0339  0.8366  0.7151
  824MPD2    H312180   4.688   1.231  16.239  0.0978 -1.7686 -0.9752
  824MPD2     N12181   0.124   1.282  15.821 -0.0190  0.1510  0.1369
  824MPD2    H512182   0.133   1.343  15.740  1.6842  0.2233  0.4003
  824MPD2    N112183   4.620   1.630  16.056  0.1179 -0.0263 -0.2093
  824MPD2    H712184   4.567   1.651  16.140  2.0253  2.5955  0.3224
  825MPD2     C12185   0.702   1.433  15.217 -0.0948  0.0243 -0.2089
  825MPD2    C112186   0.630   1.465  15.327 -0.4836 -0.3109  0.4432
  825MPD2    C212187   0.634   1.599  15.375 -0.6879 -0.9495 -0.5574
  825MPD2    C312188   0.685   1.702  15.299  0.9515 -0.9312  0.5567
  825MPD2    C412189   0.744   1.662  15.177 -0.4628  0.1567 -0.5653
  825MPD2    C512190   0.763   1.527  15.144 -0.4000  0.2768 -0.4331
  825MPD2     H12191   0.583   1.620  15.468 -0.8071 -0.8033 -0.6558
  825MPD2    H112192   0.798   1.737  15.120  0.5870 -2.0593 -2.4457
  825MPD2    H212193   0.724   1.333  15.180 -2.4827 -0.7755  0.5944
  825MPD2    H312194   0.826   1.497  15.061  0.0300 -1.3008  0.4662
  825MPD2     N12195   0.670   1.838  15.334  0.2910  0.4524  1.0649
  825MPD2    H512196   0.695   1.913  15.271 -0.4275  1.5962  2.1467
  825MPD2    N112197   0.559   1.360  15.393 -0.6378 -0.0951  0.1980
  825MPD2    H712198   0.562   1.267  15.352  4.9120  0.0288  0.2934
  826MPD2     C12199   0.124   1.912  13.863 -0.0308 -0.3333  0.4166
  826MPD2    C112200   0.052   1.844  13.766 -0.6587 -0.9847 -0.0347
  826MPD2    C212201   4.655   1.871  13.742  0.3611  0.3759  0.2480
  826MPD2    C312202   4.592   1.984  13.802  0.1489  0.5732  0.1897
  826MPD2    C412203   4.670   2.049  13.897 -0.4854  0.2199  0.8225
  826MPD2    C512204   0.062   2.015  13.927 -0.0325 -0.3154  0.1704
  826MPD2     H12205   4.598   1.801  13.680 -2.5408  1.5764  1.5495
  826MPD2    H112206   4.623   2.122  13.962  0.1930  0.0031  1.5569
  826MPD2    H212207   0.227   1.886  13.883  0.1833  0.7744  0.7512
  826MPD2    H312208   0.116   2.072  14.003 -1.1598  0.2513  0.5391
  826MPD2     N12209   4.451   2.017  13.784 -0.3098  0.2033  0.5344
  826MPD2    H512210   4.417   2.094  13.840 -0.5361 -1.6319  2.9205
  826MPD2    N112211   0.120   1.727  13.716 -0.1818 -0.5136  0.7992
  826MPD2    H712212   0.205   1.697  13.763 -0.4556 -1.5070  0.6566
  827MPD2     C12213   0.468   3.322  10.094 -0.6464  0.2499  0.1055
  827MPD2    C112214   0.505   3.203  10.146 -0.0749 -0.1032 -0.2077
  827MPD2    C212215   0.449   3.088  10.092 -0.0177 -0.5154  0.2379
  827MPD2    C312216   0.350   3.093   9.995 -0.1520  0.3523  0.0396
  827MPD2    C412217   0.303   3.214   9.944  0.6058  0.4170 -0.5145
  827MPD2    C512218   0.372   3.324   9.992  0.0036  0.1151 -0.4656
  827MPD2     H12219   0.473   2.992  10.136  0.5129 -1.1069 -1.3364
  827MPD2    H112220   0.227   3.229   9.869 -0.1078 -2.0212 -0.2849
  827MPD2    H212221   0.519   3.412  10.128  0.1067  0.6646 -2.1492
  827MPD2    H312222   0.339   3.424   9.967 -1.5583 -0.1879  0.3575
  827MPD2     N12223   0.297   2.965   9.963  0.0274  0.1495  0.1386
  827MPD2    H512224   0.355   2.884   9.986  0.2283  0.3384  0.2993
  827MPD2    N112225   0.584   3.207  10.257 -0.4328 -0.0788  0.1607
  827MPD2    H712226   0.629   3.295  10.283  0.0574 -0.9346  2.1696
  828MPD2     C12227   4.077   2.848  12.482  0.1857 -0.8080  0.1061
  828MPD2    C112228   3.960   2.866  12.409  0.4813  0.6370  0.5203
  828MPD2    C212229   3.971   2.857  12.271  0.1459  0.1268  0.6423
  828MPD2    C312230   4.093   2.827  12.212 -0.0550 -0.4438  0.3440
  828MPD2    C412231   4.210   2.836  12.284  0.9544 -0.5340 -0.4297
  828MPD2    C512232   4.200   2.842  12.415  0.1185  0.4353  0.0198
  828MPD2     H12233   3.877   2.865  12.217  0.5541  1.7920  0.1572
  828MPD2    H112234   4.304   2.842  12.231 -0.1405  1.6942 -2.1233
  828MPD2    H212235   4.084   2.853  12.590  0.5820  1.6542 -0.0222
  828MPD2    H312236   4.289   2.854  12.476  0.7973 -0.1162 -0.8766
  828MPD2     N12237   4.098   2.787  12.073  0.0597 -0.0543 -0.6961
  828MPD2    H512238   4.188   2.752  12.040  0.5809  0.0654  0.5997
  828MPD2    N112239   3.831   2.853  12.463 -0.0877  0.8537  0.2392
  828MPD2    H712240   3.751   2.845  12.400  0.3506  0.3481 -0.2454
  829MPD2     C12241   3.107   2.935  12.049 -0.6487 -0.5163 -0.0181
  829MPD2    C112242   3.054   2.910  12.176  0.3572  0.3876 -0.0711
  829MPD2    C212243   3.132   2.879  12.284  0.3584 -0.3612  0.3532
  829MPD2    C312244   3.267   2.874  12.264 -0.1052  0.4752 -0.1349
  829MPD2    C412245   3.321   2.882  12.136  0.0395  0.4598  0.3165
  829MPD2    C512246   3.239   2.914  12.030 -0.4975 -0.2026  0.2596
  829MPD2     H12247   3.092   2.858  12.383  0.4189  0.8694  0.6358
  829MPD2    H112248   3.429   2.872  12.126 -0.3636 -1.6343 -1.9687
  829MPD2    H212249   3.046   2.955  11.962 -0.1123 -3.0300 -0.9572
  829MPD2    H312250   3.284   2.927  11.932 -1.3278 -0.1949 -0.1184
  829MPD2     N12251   3.355   2.841  12.370 -0.0352 -0.0560  0.1738
  829MPD2    H512252   3.453   2.826  12.348  0.2011 -2.8911  3.2029
  829MPD2    N112253   2.917   2.926  12.179 -0.1158 -0.5022  0.8700
  829MPD2    H712254   2.875   2.943  12.088  0.1509 -0.2075  0.8002
  830MPD2     C12255   4.154   0.373  16.179  0.2511 -0.6859  0.0442
  830MPD2    C112256   4.095   0.392  16.061  0.4530  0.9194  0.1059
  830MPD2    C212257   4.174   0.445  15.959 -0.0170 -0.3150 -0.3550
  830MPD2    C312258   4.308   0.473  15.981  0.2223  0.0711 -0.2310
  830MPD2    C412259   4.365   0.455  16.103 -0.4187  0.6730  0.0271
  830MPD2    C512260   4.284   0.405  16.199  0.2124 -0.4068  0.1116
  830MPD2     H12261   4.126   0.477  15.868 -0.0901  0.4629 -0.0472
  830MPD2    H112262   4.470   0.475  16.119 -0.6179  1.1048  0.7584
  830MPD2    H212263   4.093   0.343  16.264  1.1941 -0.9215  0.6372
  830MPD2    H312264   4.325   0.398  16.299  0.9571 -0.7897 -0.2209
  830MPD2     N12265   4.396   0.516  15.881  0.0023  0.5279 -0.0257
  830MPD2    H512266   4.487   0.546  15.916  0.3037  0.7296 -0.9599
  830MPD2    N112267   3.957   0.382  16.050  0.3166 -0.2250 -0.2564
  830MPD2    H712268   3.907   0.356  16.134 -1.4077 -0.6868 -1.4338
  831MPD2     C12269   4.238   2.742  16.397  0.4082  0.2047  0.2925
  831MPD2    C112270   4.258   2.629  16.317 -0.7245  1.0532 -0.2692
  831MPD2    C212271   4.169   2.520  16.334  0.2287 -0.7488 -0.0236
  831MPD2    C312272   4.053   2.529  16.406  0.0350  0.0201 -0.5087
  831MPD2    C412273   4.043   2.634  16.496  0.7025 -0.1893  0.5742
  831MPD2    C512274   4.136   2.736  16.484  0.5133  0.1114  0.5082
  831MPD2     H12275   4.184   2.427  16.281  3.7448  0.1409 -0.5750
  831MPD2    H112276   3.959   2.647  16.563 -0.7379 -2.6157 -0.7714
  831MPD2    H212277   4.311   2.823  16.396  0.5588  0.0687  0.2652
  831MPD2    H312278   4.125   2.825  16.544  2.2170  1.2388 -0.8585
  831MPD2     N12279   3.943   2.443  16.397 -0.0893 -0.0668 -0.4380
  831MPD2    H512280   3.873   2.445  16.470 -2.2440  1.3372 -2.5278
  831MPD2    N112281   4.374   2.630  16.241  0.0060  0.0366  0.2304
  831MPD2    H712282   4.416   2.722  16.230  0.7067 -0.2928  0.1250
  832MPD2     C12283   2.912   3.646  17.461  0.5788  0.1001 -0.0485
  832MPD2    C112284   2.900   3.761  17.388 -0.6535 -0.2757  0.0356
  832MPD2    C212285   2.781   3.804  17.330  0.1416  0.7172  0.1839
  832MPD2    C312286   2.673   3.719  17.350  0.5098 -0.5433 -0.0960
  832MPD2    C412287   2.688   3.603  17.419  0.0378 -0.4765  0.6925
  832MPD2    C512288   2.808   3.565  17.469 -0.1582  0.0658  0.1892
  832MPD2     H12289   2.779   3.874  17.247  2.4352  0.4349 -0.0965
  832MPD2    H112290   2.607   3.531  17.418 -1.9042  1.6775  0.2789
  832MPD2    H212291   3.009   3.603  17.487  0.0603 -2.0648 -1.7122
  832MPD2    H312292   2.814   3.468  17.517  0.6209  0.2245  0.4164
  832MPD2     N12293   2.553   3.736  17.275  0.0391 -0.3264  0.5060
  832MPD2    H512294   2.483   3.662  17.279  1.4436 -1.6695  0.2057
  832MPD2    N112295   3.014   3.826  17.380 -0.3790 -0.6085  0.7394
  832MPD2    H712296   3.096   3.782  17.421  0.6264  0.1868 -0.3982
  833MPD2     C12297   4.495   0.216  12.983 -0.1632 -0.3723 -1.0787
  833MPD2    C112298   4.497   0.351  12.939 -0.6175 -0.3071  0.4227
  833MPD2    C212299   4.629   0.393  12.917 -0.4053 -0.2533 -0.1380
  833MPD2    C312300   0.008   0.311  12.920  0.7512  0.6874  1.1371
  833MPD2    C412301   4.734   0.181  12.966  0.8036 -0.3961 -0.5676
  833MPD2    C512302   4.609   0.139  13.000  0.5316 -0.4537 -0.0985
  833MPD2     H12303   4.643   0.494  12.879  0.3589  0.3533  1.7741
  833MPD2    H112304   0.085   0.116  12.969  0.5352 -0.7668 -0.8727
  833MPD2    H212305   4.398   0.170  12.996 -0.5260  1.0022  1.0864
  833MPD2    H312306   4.596   0.039  13.040 -0.8198 -0.3515 -0.2787
  833MPD2     N12307   0.139   0.356  12.873  0.1618 -0.1905 -0.5929
  833MPD2    H512308   0.214   0.288  12.866 -0.9592 -1.3728 -1.1120
  833MPD2    N112309   4.379   0.427  12.918 -0.1303 -0.0223 -0.6435
  833MPD2    H712310   4.294   0.374  12.906 -1.4731  1.7594  1.0160
  834MPD2     C12311   0.231   0.094  11.953 -0.4577 -1.4198  0.3488
  834MPD2    C112312   0.150   0.210  11.958 -0.2451  0.0659 -1.1432
  834MPD2    C212313   0.164   0.298  12.062 -0.3673 -0.1216  0.3457
  834MPD2    C312314   0.239   0.268  12.168 -0.6637 -0.0105 -0.1657
  834MPD2    C412315   0.310   0.150  12.173  0.6421  0.0224 -0.0295
  834MPD2    C512316   0.305   0.066  12.065 -0.6074  0.6399  0.4479
  834MPD2     H12317   0.115   0.394  12.053 -1.5354 -0.6281  1.3237
  834MPD2    H112318   0.374   0.120  12.255 -0.4976 -0.5336  0.6523
  834MPD2    H212319   0.213   0.021  11.875  1.1259 -1.5234  0.0817
  834MPD2    H312320   0.364   4.711  12.068 -1.2700  0.3422  3.9514
  834MPD2     N12321   0.224   0.353  12.288 -1.0821 -0.2712 -0.4230
  834MPD2    H512322   0.158   0.431  12.291  3.0043  3.0892  1.0715
  834MPD2    N112323   0.046   0.224  11.860  0.3572 -0.4967  1.0800
  834MPD2    H712324   0.042   0.148  11.792  0.1341 -2.2576  3.0595
  835MPD2     C12325   4.662   2.943  11.038 -0.2071  0.5003  0.4801
  835MPD2    C112326   4.583   3.030  11.104 -0.3942 -0.2019  0.4955
  835MPD2    C212327   4.620   3.067  11.234 -0.3030 -0.0476 -0.1353
  835MPD2    C312328   4.722   3.003  11.298  0.4596  0.6295 -1.0685
  835MPD2    C412329   0.068   2.914  11.231 -0.5988  0.0941  0.2709
  835MPD2    C512330   0.036   2.888  11.105  0.2449 -0.2695  0.6578
  835MPD2     H12331   4.559   3.145  11.278  0.6555  0.0108  1.1180
  835MPD2    H112332   0.153   2.868  11.280 -0.5262  1.7648  1.7224
  835MPD2    H212333   4.656   2.907  10.936  0.9788  0.9467  0.2467
  835MPD2    H312334   0.099   2.821  11.047 -0.4034 -0.6486  0.3840
  835MPD2     N12335   0.003   3.012  11.440 -0.2005  0.5141 -0.1156
  835MPD2    H512336   0.081   2.959  11.479 -1.9862 -2.6191 -0.7951
  835MPD2    N112337   4.476   3.106  11.051 -0.4658 -0.4675 -0.0438
  835MPD2    H712338   4.420   3.159  11.116  0.4406  1.4354 -0.8047
  836MPD2     C12339   4.088   3.088  11.787 -0.2423  0.8742  0.9336
  836MPD2    C112340   4.186   3.090  11.877 -0.2919 -0.5712 -0.2401
  836MPD2    C212341   4.145   3.105  12.007  0.1908  0.2633 -0.3472
  836MPD2    C312342   4.015   3.134  12.039 -0.4273 -0.0821 -0.0353
  836MPD2    C412343   3.918   3.132  11.940 -0.5170 -0.0986  0.5438
  836MPD2    C512344   3.959   3.113  11.816  0.1120  0.4128 -0.6306
  836MPD2     H12345   4.223   3.107  12.083 -0.8478  1.5063  0.6949
  836MPD2    H112346   3.814   3.153  11.962 -0.2406  0.1652  1.6259
  836MPD2    H212347   4.101   3.076  11.681 -0.6156 -0.6915  1.0617
  836MPD2    H312348   3.889   3.109  11.733  0.3672  1.4134 -0.8919
  836MPD2     N12349   3.974   3.170  12.169  0.5508  0.0406  1.2614
  836MPD2    H512350   3.875   3.165  12.191 -0.1941  1.7577 -1.8051
  836MPD2    N112351   4.315   3.062  11.833 -0.1351  0.4556 -0.5022
  836MPD2    H712352   4.327   3.059  11.733 -0.2026  0.6472 -0.5144
  837MPD2     C12353   2.108   2.968  10.385 -0.4335  0.3556 -0.6941
  837MPD2    C112354   2.101   2.931  10.259  0.6488 -0.6003  0.3407
  837MPD2    C212355   2.149   3.014  10.161  0.6254  0.6908 -0.5078
  837MPD2    C312356   2.168   3.148  10.187  0.7902 -0.4651  0.2820
  837MPD2    C412357   2.171   3.191  10.320  0.2465  0.2120  0.4969
  837MPD2    C512358   2.151   3.100  10.416 -0.1524  0.9229  0.1264
  837MPD2     H12359   2.165   2.986  10.057  2.3181  1.4859 -0.4432
  837MPD2    H112360   2.208   3.289  10.348  2.2033 -0.8922  1.7520
  837MPD2    H212361   2.078   2.910  10.472 -1.7305  1.4215 -0.4303
  837MPD2    H312362   2.169   3.116  10.522 -1.9903  0.3341  0.5450
  837MPD2     N12363   2.177   3.241  10.078 -0.0948 -0.0945  0.3099
  837MPD2    H512364   2.180   3.202   9.984 -2.2561 -1.3359  0.7470
  837MPD2    N112365   2.047   2.813  10.212 -0.2780  0.0770 -0.3124
  837MPD2    H712366   2.048   2.798  10.112  0.7007  0.1922 -0.3197
  838MPD2     C12367   0.855   0.402  11.361  0.9241  0.0925 -0.7498
  838MPD2    C112368   0.901   0.490  11.461 -0.5137 -0.2407  0.1233
  838MPD2    C212369   0.830   0.509  11.580 -0.3561 -0.7333 -0.2257
  838MPD2    C312370   0.726   0.428  11.610  0.5035  0.1955 -0.7412
  838MPD2    C412371   0.694   0.327  11.527  0.0367  0.6963 -0.4059
  838MPD2    C512372   0.759   0.313  11.410 -0.1712  0.2665 -0.1827
  838MPD2     H12373   0.861   0.582  11.654 -0.4270 -0.8436 -0.0849
  838MPD2    H112374   0.609   0.262  11.547  1.1195 -0.0075  1.8857
  838MPD2    H212375   0.899   0.385  11.263  2.1579  2.2886 -0.5662
  838MPD2    H312376   0.730   0.239  11.337 -1.4804 -3.0968  3.7428
  838MPD2     N12377   0.662   0.447  11.733  0.0024  0.1695  0.5038
  838MPD2    H512378   0.699   0.528  11.782  2.5558 -0.8995  0.3247
  838MPD2    N112379   1.013   0.576  11.439  0.0997 -0.3731  0.4512
  838MPD2    H712380   1.032   0.644  11.512 -1.8875 -1.6623  2.1507
  839MPD2     C12381   0.932   0.194  11.968 -0.3516  0.8069  0.5177
  839MPD2    C112382   0.931   0.185  11.826  0.2616 -0.1415 -0.1353
  839MPD2    C212383   1.014   0.273  11.762  0.4339  0.6304  0.7509
  839MPD2    C312384   1.093   0.367  11.822  0.5208  0.6377  0.3665
  839MPD2    C412385   1.099   0.374  11.962  0.2230 -0.0384 -0.3131
  839MPD2    C512386   1.016   0.288  12.033  0.0357 -0.5347  0.1143
  839MPD2     H12387   1.031   0.267  11.655  1.4275  1.2523  0.8698
  839MPD2    H112388   1.157   0.442  12.023  0.8111 -0.7402 -0.0919
  839MPD2    H212389   0.870   0.130  12.030 -0.1589 -2.0371 -2.2655
  839MPD2    H312390   1.017   0.289  12.141 -1.4499  0.2231  0.1228
  839MPD2     N12391   1.165   0.442  11.735  0.2473  0.2830 -0.0930
  839MPD2    H512392   1.127   0.438  11.641  1.6149 -0.5371 -0.6099
  839MPD2    N112393   0.857   0.092  11.749 -0.2597 -0.2930 -0.5863
  839MPD2    H712394   0.864   0.097  11.648  0.4315  2.4329 -0.4113
  840MPD2     C12395   1.113   3.518  10.174  0.2398 -0.3372  0.1820
  840MPD2    C112396   1.122   3.475  10.308 -0.5452  0.0974  0.5042
  840MPD2    C212397   1.224   3.520  10.384  0.0972 -0.6081 -0.2605
  840MPD2    C312398   1.320   3.602  10.332  0.0483  1.3164  0.4319
  840MPD2    C412399   1.306   3.651  10.197  0.4659 -0.5034 -0.4220
  840MPD2    C512400   1.206   3.609  10.125  0.0675  0.6942 -0.1884
  840MPD2     H12401   1.235   3.485  10.486  0.0936 -0.5737 -0.2486
  840MPD2    H112402   1.368   3.728  10.152  1.2673 -0.8845  0.0130
  840MPD2    H212403   1.043   3.482  10.100 -0.0303  2.1229 -0.7873
  840MPD2    H312404   1.188   3.648  10.026 -0.1131 -0.1366 -0.4816
  840MPD2     N12405   1.415   3.659  10.418  0.2267 -0.2016  0.0578
  840MPD2    H512406   1.399   3.652  10.518 -0.9016  1.3459 -0.0184
  840MPD2    N112407   1.022   3.382  10.361  0.7055 -0.7512  0.6706
  840MPD2    H712408   0.957   3.347  10.291  0.3318 -1.3162  1.3003
  841MPD2     C12409   1.051   2.750  14.443 -0.2754 -0.5268  0.1367
  841MPD2    C112410   1.095   2.622  14.434  0.3985 -0.3215  0.1663
  841MPD2    C212411   1.208   2.579  14.355  0.2959  0.1439  0.2589
  841MPD2    C312412   1.262   2.675  14.277  0.0342 -0.1633 -0.1656
  841MPD2    C412413   1.212   2.800  14.274 -0.3175 -0.0447 -0.2453
  841MPD2    C512414   1.111   2.844  14.356  0.6788 -0.5460  0.2777
  841MPD2     H12415   1.236   2.474  14.349  4.0849  1.2486 -1.1236
  841MPD2    H112416   1.245   2.884  14.214 -2.9831  1.2948  0.1926
  841MPD2    H212417   0.979   2.790  14.514  0.0580  0.7918 -0.2685
  841MPD2    H312418   1.089   2.950  14.361 -0.2117 -0.7526  0.7553
  841MPD2     N12419   1.378   2.629  14.195  0.6770  0.2734  0.0688
  841MPD2    H512420   1.403   2.531  14.206 -0.6282 -0.0673 -0.0932
  841MPD2    N112421   1.020   2.514  14.504  0.7775  0.0701 -0.5561
  841MPD2    H712422   1.070   2.426  14.491 -1.9846 -1.7390  1.1493
  842MPD2     C12423   2.005   4.018  16.868 -0.1478 -0.8730  0.2358
  842MPD2    C112424   1.869   3.976  16.871 -0.5330  0.0584  0.8855
  842MPD2    C212425   1.804   3.991  16.995  0.8428 -0.7090 -0.1477
  842MPD2    C312426   1.867   4.046  17.103 -0.1203  0.6173  0.0622
  842MPD2    C412427   1.997   4.078  17.095  0.4153  0.1744 -0.8120
  842MPD2    C512428   2.067   4.073  16.978  1.1992 -0.4242  0.1157
  842MPD2     H12429   1.696   4.001  16.996  1.0303  1.1603  0.7398
  842MPD2    H112430   2.047   4.116  17.183  1.8410 -2.0659 -0.6697
  842MPD2    H212431   2.064   4.013  16.777 -0.2073  1.5329  0.0663
  842MPD2    H312432   2.168   4.112  16.976  0.3125  1.8005 -0.6350
  842MPD2     N12433   1.781   4.104  17.207 -0.2470  0.3643  0.5490
  842MPD2    H512434   1.683   4.080  17.208 -0.4461  1.2923  3.0685
  842MPD2    N112435   1.804   3.924  16.756  0.0607 -0.2622  0.1247
  842MPD2    H712436   1.857   3.923  16.669 -0.6391 -1.5087 -0.2890
  843MPD2     C12437   3.933   4.610  17.424 -0.9164  0.8075 -0.2079
  843MPD2    C112438   3.982   4.536  17.523 -0.2877  0.2527  0.1760
  843MPD2    C212439   4.084   4.589  17.594  0.2479  0.1319  0.4393
  843MPD2    C312440   4.134   4.713  17.574 -0.5316  0.2598  0.3136
  843MPD2    C412441   4.077   0.050  17.469  0.2125  0.1887 -0.6594
  843MPD2    C512442   3.972   4.735  17.394  0.0206 -0.6265  0.3473
  843MPD2     H12443   4.132   4.530  17.671  1.4957 -0.8165 -1.0578
  843MPD2    H112444   4.110   0.152  17.460 -0.6950  0.4890 -0.6403
  843MPD2    H212445   3.872   4.564  17.347 -1.1068 -0.0176  0.4378
  843MPD2    H312446   3.924   0.055  17.315  0.7618  1.3709  1.3283
  843MPD2     N12447   4.222   0.046  17.657 -0.0002  0.0082  0.2779
  843MPD2    H512448   4.234   0.143  17.629  0.9982 -0.3950 -0.6748
  843MPD2    N112449   3.958   4.398  17.534  0.2901  0.0695  0.5622
  843MPD2    H712450   3.884   4.356  17.478 -0.3968 -0.9846  2.2551
  844MPD2     C12451   2.221   3.245  16.731 -0.2649  0.5907 -0.1655
  844MPD2    C112452   2.293   3.258  16.618 -0.3751  0.4232 -1.3719
  844MPD2    C212453   2.403   3.344  16.618 -0.6170 -0.1981  0.3595
  844MPD2    C312454   2.428   3.420  16.728  0.2169  0.4398 -0.2487
  844MPD2    C412455   2.333   3.430  16.827 -0.5931 -0.5253  0.9523
  844MPD2    C512456   2.226   3.345  16.828  0.4280 -0.7052  0.5300
  844MPD2     H12457   2.475   3.339  16.538 -0.5805 -1.9121  0.5047
  844MPD2    H112458   2.345   3.506  16.903 -2.3849  1.3833 -0.6965
  844MPD2    H212459   2.132   3.182  16.738 -0.3312  0.5741 -1.1530
  844MPD2    H312460   2.164   3.342  16.917  2.0182 -0.1265  1.6617
  844MPD2     N12461   2.541   3.504  16.735 -0.1930  0.1466  0.9452
  844MPD2    H512462   2.595   3.521  16.650 -2.5531 -1.9069 -0.9913
  844MPD2    N112463   2.275   3.179  16.502  0.4410 -0.0443 -0.7508
  844MPD2    H712464   2.334   3.200  16.422 -0.0109 -0.4084 -1.1770
  845MPD2     C12465   2.809   4.351  16.477 -0.6604 -0.2554  0.0407
  845MPD2    C112466   2.881   4.306  16.591  0.8413 -0.2545 -0.0564
  845MPD2    C212467   2.889   4.170  16.611 -0.3071  0.1015  0.1141
  845MPD2    C312468   2.812   4.080  16.538  0.2966  0.4128 -0.0127
  845MPD2    C412469   2.746   4.131  16.429 -0.6577 -0.3374  0.0878
  845MPD2    C512470   2.754   4.265  16.393 -0.0202 -0.5275  0.2111
  845MPD2     H12471   2.955   4.136  16.690 -1.0138 -0.1949  0.5700
  845MPD2    H112472   2.709   4.059  16.357 -1.0030  2.3048 -2.3912
  845MPD2    H212473   2.827   4.455  16.452 -0.2424 -0.1477  0.7961
  845MPD2    H312474   2.700   4.297  16.304 -0.1005  0.2117  0.5266
  845MPD2     N12475   2.799   3.940  16.572  0.6910  0.0373 -0.3225
  845MPD2    H512476   2.744   3.874  16.517  0.3518  0.5563 -0.5989
  845MPD2    N112477   2.948   4.402  16.663  0.6125 -0.1996 -0.1623
  845MPD2    H712478   2.967   4.493  16.624 -0.9860  0.2688  0.1214
  846MPD2     C12479   4.028   4.436  13.779 -0.6862 -0.6551 -0.4226
  846MPD2    C112480   3.939   4.532  13.823  0.1210 -0.1986 -0.1502
  846MPD2    C212481   3.911   4.553  13.954  0.1065 -0.0509 -0.2789
  846MPD2    C312482   3.979   4.481  14.048  0.1101 -0.6605  0.4666
  846MPD2    C412483   4.076   4.394  14.010 -0.4138  0.4964  0.4643
  846MPD2    C512484   4.098   4.373  13.881  0.3563 -0.0031 -0.3303
  846MPD2     H12485   3.834   4.616  13.996 -0.4515 -1.0935  0.2724
  846MPD2    H112486   4.149   4.345  14.073 -1.0561 -1.0527  0.0044
  846MPD2    H212487   4.036   4.407  13.675  0.1089  1.1688 -0.8723
  846MPD2    H312488   4.178   4.304  13.859 -0.3983 -0.4404 -1.7040
  846MPD2     N12489   3.941   4.490  14.183  0.0031 -0.5545  0.2243
  846MPD2    H512490   3.867   4.559  14.189  1.0338  0.6820 -1.2071
  846MPD2    N112491   3.870   4.621  13.735 -0.4887  0.7835 -0.0703
  846MPD2    H712492   3.818   4.696  13.779 -0.4800 -0.4146  1.9895
  847MPD2     C12493   3.819   0.661  14.729  1.0487 -0.2290 -1.0267
  847MPD2    C112494   3.924   0.756  14.736 -0.6155  1.0049 -0.1176
  847MPD2    C212495   4.055   0.706  14.739 -0.0577  0.5664  0.5552
  847MPD2    C312496   4.082   0.570  14.725  0.4204  0.1332  0.4383
  847MPD2    C412497   3.976   0.480  14.729  0.4023 -0.0981  0.0732
  847MPD2    C512498   3.852   0.526  14.729 -0.5991 -0.4244  0.1740
  847MPD2     H12499   4.139   0.774  14.740  0.5152 -0.1322 -1.5792
  847MPD2    H112500   3.990   0.374  14.712  0.6936 -0.0782  0.1909
  847MPD2    H212501   3.715   0.683  14.710  0.4160 -1.9696  0.4042
  847MPD2    H312502   3.770   0.459  14.707 -0.9923 -0.1244  0.7520
  847MPD2     N12503   4.219   0.526  14.725  0.1026 -0.1557  0.4295
  847MPD2    H512504   4.283   0.603  14.742 -0.0582 -0.1359  0.9697
  847MPD2    N112505   3.905   0.891  14.744  0.4363 -0.3591  0.3435
  847MPD2    H712506   3.992   0.944  14.744  0.0843  0.2206 -0.5047
  848MPD2     C12507   2.424   3.969  16.502 -0.1560 -0.9188 -0.2206
  848MPD2    C112508   2.388   4.035  16.618  0.5734 -0.1330  0.1022
  848MPD2    C212509   2.371   4.173  16.618  0.1240 -0.2615 -0.9719
  848MPD2    C312510   2.384   4.238  16.496  0.0144  0.0429  0.2668
  848MPD2    C412511   2.426   4.173  16.378 -0.0298  0.1164  0.2050
  848MPD2    C512512   2.437   4.036  16.387  1.0199 -0.0694 -0.4967
  848MPD2     H12513   2.358   4.226  16.711  2.5712 -3.3754  1.1463
  848MPD2    H112514   2.437   4.213  16.277 -1.8532 -0.8345 -0.3722
  848MPD2    H212515   2.431   3.861  16.503  2.9782 -0.7227  1.0905
  848MPD2    H312516   2.462   3.985  16.294  0.5526 -1.8249  0.3312
  848MPD2     N12517   2.362   4.378  16.486 -0.3919 -0.4025 -0.1579
  848MPD2    H512518   2.353   4.414  16.392  1.2511  0.4634  0.0278
  848MPD2    N112519   2.372   3.969  16.740 -0.1680  0.2794 -0.1825
  848MPD2    H712520   2.390   4.027  16.821 -2.9510 -0.6466  1.0571
  849MPD2     C12521   1.008   3.639  14.388  1.3054 -0.1014  0.0646
  849MPD2    C112522   1.144   3.634  14.405 -0.4863 -0.6369 -0.5195
  849MPD2    C212523   1.193   3.525  14.476 -0.0250  0.1594 -0.6585
  849MPD2    C312524   1.117   3.420  14.526  0.5782  0.1713  0.3379
  849MPD2    C412525   0.977   3.428  14.496  0.3910  0.7402 -0.2358
  849MPD2    C512526   0.923   3.534  14.432 -0.2772 -0.6615 -0.9630
  849MPD2     H12527   1.300   3.519  14.492  0.0756 -0.0458 -1.3841
  849MPD2    H112528   0.903   3.356  14.529 -0.9163  1.9883 -0.4549
  849MPD2    H212529   0.960   3.725  14.343  0.4478  0.1431  1.4284
  849MPD2    H312530   0.815   3.537  14.426 -0.2626 -1.0320 -1.4377
  849MPD2     N12531   1.166   3.300  14.587  0.6789 -0.0460 -0.4913
  849MPD2    H512532   1.099   3.225  14.602  0.5359  0.4373  1.2051
  849MPD2    N112533   1.223   3.725  14.331 -0.0316  0.1327 -0.5837
  849MPD2    H712534   1.175   3.778  14.259  0.0050  0.5244 -0.3206
  850MPD2     C12535   4.352   1.474  14.945  0.7460  0.2205  0.3780
  850MPD2    C112536   4.352   1.558  15.048 -0.6821 -0.2495  0.4613
  850MPD2    C212537   4.462   1.640  15.071  0.1466 -0.0877 -0.3552
  850MPD2    C312538   4.570   1.642  14.982  0.3210  0.1175 -0.2251
  850MPD2    C412539   4.563   1.558  14.875 -0.2594  0.2104 -0.1989
  850MPD2    C512540   4.453   1.478  14.855  0.7648 -0.0937 -0.0289
  850MPD2     H12541   4.462   1.702  15.159 -0.6423 -1.1169  0.3650
  850MPD2    H112542   4.651   1.554  14.813 -0.4859  1.7424 -0.6298
  850MPD2    H212543   4.270   1.404  14.931 -0.0325  0.7160  2.5307
  850MPD2    H312544   4.444   1.417  14.765 -0.2236 -1.3047  0.8914
  850MPD2     N12545   4.684   1.723  14.990  0.1665 -0.6248  0.6116
  850MPD2    H512546   0.019   1.719  14.918  0.0238 -0.2716  0.4533
  850MPD2    N112547   4.234   1.557  15.128  0.0684 -0.7031  1.2337
  850MPD2    H712548   4.165   1.486  15.109  1.2497 -1.7835  0.9664
  851MPD2     C12549   4.281   1.422  15.878 -0.2502 -0.1378  0.1521
  851MPD2    C112550   4.231   1.360  15.762  0.2548  0.0480 -0.4650
  851MPD2    C212551   4.294   1.246  15.721  0.2009  0.0720  0.2724
  851MPD2    C312552   4.392   1.186  15.802  0.0319  0.1501  0.9008
  851MPD2    C412553   4.438   1.249  15.911 -0.8434 -0.7197  0.3460
  851MPD2    C512554   4.385   1.372  15.945  0.2613 -0.4545  0.1856
  851MPD2     H12555   4.269   1.200  15.626 -0.1826  0.6907  0.0669
  851MPD2    H112556   4.516   1.207  15.974 -1.1132 -1.6400  0.0575
  851MPD2    H212557   4.256   1.523  15.909 -1.2160 -0.2436 -0.3214
  851MPD2    H312558   4.415   1.421  16.037 -2.9923  0.5773  0.7144
  851MPD2     N12559   4.447   1.061  15.752  0.2609 -0.2818 -0.5151
  851MPD2    H512560   4.401   1.036  15.665 -1.4405  3.9837 -0.8230
  851MPD2    N112561   4.145   1.439  15.678  0.8433  0.4589  0.0560
  851MPD2    H712562   4.120   1.534  15.703 -2.1679 -0.6305  1.1180
  852MPD2     C12563   3.509   4.019  10.903 -0.3402 -0.5843 -0.3565
  852MPD2    C112564   3.504   4.147  10.955 -0.4303 -0.1237 -0.2554
  852MPD2    C212565   3.562   4.255  10.895  0.1787 -0.0092 -0.2924
  852MPD2    C312566   3.625   4.235  10.767 -0.4587  0.2763  0.9762
  852MPD2    C412567   3.633   4.106  10.713 -0.0137 -0.1682  0.5356
  852MPD2    C512568   3.574   4.003  10.780  0.0542  0.7764 -0.0582
  852MPD2     H12569   3.558   4.350  10.947  0.3732  0.1942 -0.6459
  852MPD2    H112570   3.683   4.081  10.620  1.4309  4.9350 -0.0795
  852MPD2    H212571   3.461   3.935  10.951 -1.2027 -2.0439 -3.7677
  852MPD2    H312572   3.574   3.906  10.731  0.0181 -0.1676  1.8286
  852MPD2     N12573   3.682   4.352  10.710  0.1142  0.4308  0.5612
  852MPD2    H512574   3.677   4.436  10.766  0.6369  1.9155 -1.6030
  852MPD2    N112575   3.443   4.181  11.074  0.5093 -0.6179 -0.1939
  852MPD2    H712576   3.467   4.270  11.115 -0.4099 -1.1510  1.5321
  853MPD2     C12577   1.040   4.085  12.428  0.6331 -0.1648 -0.1630
  853MPD2    C112578   0.910   4.074  12.392  0.1014  0.4075  0.0500
  853MPD2    C212579   0.879   4.039  12.261  0.1729 -0.1161  0.5655
  853MPD2    C312580   0.979   4.023  12.169 -0.0247 -0.0935 -0.1829
  853MPD2    C412581   1.107   4.036  12.201 -0.0699 -0.0203  0.1204
  853MPD2    C512582   1.134   4.066  12.330  0.2215 -1.2684  0.4833
  853MPD2     H12583   0.776   4.037  12.228  0.9289  0.1839 -1.8181
  853MPD2    H112584   1.194   4.026  12.137 -1.7108  0.1704 -2.1060
  853MPD2    H212585   1.068   4.105  12.531 -1.2151  0.7609  0.1729
  853MPD2    H312586   1.235   4.050  12.365  0.4898  1.7093  1.0020
  853MPD2     N12587   0.960   3.992  12.030 -0.2557 -0.7404 -0.1489
  853MPD2    H512588   1.038   4.006  11.968 -1.6490 -0.2411 -1.7874
  853MPD2    N112589   0.816   4.120  12.491 -0.8979  0.3502 -0.5236
  853MPD2    H712590   0.853   4.143  12.582 -1.7943  2.4070 -0.6795
  854MPD2     C12591   2.392   4.004  13.320 -0.0282  0.2668 -0.5075
  854MPD2    C112592   2.446   4.015  13.191 -0.3732 -0.0984  0.1225
  854MPD2    C212593   2.574   3.971  13.171 -0.0235 -1.1890 -0.2962
  854MPD2    C312594   2.652   3.926  13.272 -0.1888  0.0599  0.8973
  854MPD2    C412595   2.607   3.935  13.398  0.1931  0.6798 -0.0479
  854MPD2    C512596   2.475   3.971  13.421  0.0867  0.7280 -0.2006
  854MPD2     H12597   2.615   3.967  13.071  3.3999 -1.9436  1.1614
  854MPD2    H112598   2.662   3.895  13.482  0.3832 -0.3119 -0.6484
  854MPD2    H212599   2.295   4.044  13.346 -0.4445 -2.0782  1.5150
  854MPD2    H312600   2.439   3.962  13.523  0.8689  2.5466  0.2474
  854MPD2     N12601   2.788   3.891  13.270  0.4386 -0.0680 -0.1526
  854MPD2    H512602   2.824   3.863  13.360  1.8569 -2.9547 -1.6179
  854MPD2    N112603   2.359   4.075  13.090 -0.3846 -0.1741 -0.4590
  854MPD2    H712604   2.272   4.116  13.121  0.1474  0.4448  0.2178
  855MPD2     C12605   3.522   3.725  13.850  0.3372 -0.3349  0.3678
  855MPD2    C112606   3.395   3.669  13.831  0.3957 -0.2886  0.1737
  855MPD2    C212607   3.340   3.688  13.711  0.1409 -0.3773  0.2806
  855MPD2    C312608   3.399   3.758  13.606  0.0855  0.2497 -0.3970
  855MPD2    C412609   3.521   3.808  13.627 -0.1321  0.2485 -0.4682
  855MPD2    C512610   3.585   3.784  13.744 -0.0959  0.2763  0.3592
  855MPD2     H12611   3.243   3.641  13.698  0.5012 -1.0585 -0.0020
  855MPD2    H112612   3.558   3.870  13.546 -2.3724  0.1452 -1.5540
  855MPD2    H212613   3.579   3.706  13.941 -0.3254 -2.2905  0.3579
  855MPD2    H312614   3.687   3.822  13.748 -0.3347  0.9609  0.0864
  855MPD2     N12615   3.339   3.771  13.479  0.0410 -0.5535  0.7616
  855MPD2    H512616   3.388   3.825  13.408  0.0410 -1.4713  0.0731
  855MPD2    N112617   3.315   3.616  13.934 -0.8728 -0.2218  0.2455
  855MPD2    H712618   3.233   3.567  13.900 -0.2770 -0.4349 -0.8927
  856MPD2     C12619   4.607   0.218  14.187 -0.0017 -0.0088 -0.6872
  856MPD2    C112620   4.664   0.339  14.221  0.3206  0.2100 -0.3373
  856MPD2    C212621   4.590   0.454  14.217 -0.0226  0.0594  0.5081
  856MPD2    C312622   4.460   0.454  14.182  0.3478 -0.5070  0.2495
  856MPD2    C412623   4.400   0.335  14.144  0.0364  1.1599 -0.0587
  856MPD2    C512624   4.474   0.226  14.145  0.7818 -0.7086  0.2672
  856MPD2     H12625   4.642   0.539  14.260  1.0819  0.0057 -0.7393
  856MPD2    H112626   4.303   0.332  14.096  0.4091  0.0726 -0.7382
  856MPD2    H212627   4.669   0.129  14.185  2.7797  1.8385  2.9849
  856MPD2    H312628   4.429   0.136  14.106 -0.1892  0.5771 -1.5953
  856MPD2     N12629   4.382   0.573  14.172  0.0207  0.0540 -0.1720
  856MPD2    H512630   4.294   0.572  14.122 -1.8474  0.2563  3.1155
  856MPD2    N112631   0.064   0.344  14.256 -0.0194 -0.6411  0.3516
  856MPD2    H712632   0.108   0.436  14.258 -1.1496 -0.0823 -0.1696
  857MPD2     C12633   1.631   2.667  12.641  0.1724  0.2358 -1.0575
  857MPD2    C112634   1.731   2.582  12.668 -0.0205  0.5825 -0.2102
  857MPD2    C212635   1.856   2.629  12.685  0.1006  0.2036 -0.3642
  857MPD2    C312636   1.888   2.767  12.686  0.3631  0.1148 -0.1460
  857MPD2    C412637   1.782   2.850  12.650  0.2703 -0.8785 -0.5751
  857MPD2    C512638   1.660   2.803  12.625  0.4497  0.2511 -0.3022
  857MPD2     H12639   1.944   2.565  12.687 -0.4436 -0.5603 -0.8787
  857MPD2    H112640   1.796   2.958  12.649  1.7519 -1.0654 -0.3962
  857MPD2    H212641   1.533   2.627  12.620  0.1750  0.2285 -1.0564
  857MPD2    H312642   1.585   2.874  12.593 -0.2616  0.3847  1.6859
  857MPD2     N12643   2.025   2.806  12.706 -0.4302 -0.1466 -0.2184
  857MPD2    H512644   2.089   2.732  12.735  2.4257  3.2628  2.1620
  857MPD2    N112645   1.698   2.442  12.681  0.0940  0.0603 -0.0505
  857MPD2    H712646   1.599   2.429  12.662  0.2712  0.7315 -1.4441
  858MPD2     C12647   2.710   1.655  16.288  0.3912  0.3052 -0.8945
  858MPD2    C112648   2.650   1.542  16.346  1.0173 -0.3555  0.5498
  858MPD2    C212649   2.628   1.529  16.481 -0.0129  0.0704  0.2624
  858MPD2    C312650   2.685   1.624  16.562 -0.2773  0.3980 -0.3625
  858MPD2    C412651   2.753   1.731  16.505  0.2474  0.1790 -0.5052
  858MPD2    C512652   2.755   1.749  16.370 -0.1425  0.3121 -0.4876
  858MPD2     H12653   2.588   1.435  16.517 -0.8885  0.8107  1.1938
  858MPD2    H112654   2.811   1.795  16.571 -2.1919 -0.5100  2.3436
  858MPD2    H212655   2.718   1.667  16.181 -2.8149  0.0341 -1.1783
  858MPD2    H312656   2.787   1.844  16.326  0.5828  1.0291  1.5989
  858MPD2     N12657   2.677   1.616  16.705  0.0197  0.4448 -0.8289
  858MPD2    H512658   2.730   1.687  16.755  1.3812 -0.6068 -0.8045
  858MPD2    N112659   2.618   1.432  16.257 -0.5049 -0.4808  0.0164
  858MPD2    H712660   2.661   1.447  16.166  2.3138  0.4636  1.4879
  859MPD2     C12661   1.432   2.869  15.613  0.5989  0.1525 -0.4276
  859MPD2    C112662   1.385   2.875  15.485  0.1071  0.2991 -0.6825
  859MPD2    C212663   1.392   2.756  15.407 -0.0791  0.0872  0.2231
  859MPD2    C312664   1.457   2.644  15.465 -0.2594  0.5199 -0.1051
  859MPD2    C412665   1.508   2.643  15.595 -0.3098  0.5403  0.1674
  859MPD2    C512666   1.491   2.757  15.669 -0.7378  0.1149 -0.0714
  859MPD2     H12667   1.348   2.765  15.308 -0.2314  0.8995  0.3605
  859MPD2    H112668   1.557   2.560  15.643  1.6359  1.5270 -0.1260
  859MPD2    H212669   1.419   2.955  15.677 -1.7937 -0.3646 -0.2233
  859MPD2    H312670   1.530   2.763  15.770  1.1983 -0.6749 -0.7847
  859MPD2     N12671   1.472   2.520  15.401  0.0085 -0.2453 -0.6294
  859MPD2    H512672   1.482   2.445  15.468 -1.7957  0.0723 -0.0201
  859MPD2    N112673   1.315   2.993  15.450 -0.4559 -0.0547 -0.1814
  859MPD2    H712674   1.316   3.069  15.517  0.2954 -0.4428  0.2427
  860MPD2     C12675   3.606   4.287  12.020 -0.6568  0.4385 -0.0042
  860MPD2    C112676   3.605   4.192  12.122  0.3276  0.1640 -0.5251
  860MPD2    C212677   3.498   4.108  12.122 -0.6945 -0.3753  0.1047
  860MPD2    C312678   3.387   4.120  12.040 -0.7576 -0.6606  0.0095
  860MPD2    C412679   3.389   4.218  11.946 -0.3086 -0.1186 -0.3244
  860MPD2    C512680   3.496   4.301  11.939 -0.2525 -0.8546  0.2440
  860MPD2     H12681   3.497   4.029  12.196 -0.4122 -0.7960 -0.3450
  860MPD2    H112682   3.309   4.226  11.872 -1.6749  0.9151  1.2669
  860MPD2    H212683   3.697   4.343  12.007  0.0192 -0.6274  0.1304
  860MPD2    H312684   3.510   4.363  11.851 -1.1880 -0.9141  0.0522
  860MPD2     N12685   3.284   4.030  12.053 -0.1166 -0.1342 -0.0918
  860MPD2    H512686   3.288   3.965  12.131  0.5310 -0.7684 -0.6546
  860MPD2    N112687   3.707   4.170  12.221  0.0080  0.0321 -0.3850
  860MPD2    H712688   3.688   4.093  12.285  1.0341 -0.6541 -0.8983
  861MPD2     C12689   1.822   2.235  11.297  0.9835  0.3906 -0.4794
  861MPD2    C112690   1.881   2.346  11.240  0.3971 -0.4800 -0.1835
  861MPD2    C212691   1.800   2.420  11.153 -0.3221 -0.7018 -0.6650
  861MPD2    C312692   1.664   2.391  11.132  0.2522  0.9592  1.2366
  861MPD2    C412693   1.611   2.284  11.201  0.5372 -1.1310  1.0968
  861MPD2    C512694   1.691   2.207  11.283 -0.0576  0.1037 -0.7691
  861MPD2     H12695   1.838   2.512  11.109 -1.4773 -0.6521 -1.5501
  861MPD2    H112696   1.508   2.254  11.190  0.0058  1.2430 -0.3049
  861MPD2    H212697   1.878   2.178  11.371 -1.8413 -0.3365  1.0865
  861MPD2    H312698   1.652   2.121  11.337 -3.7039  1.0097 -1.9495
  861MPD2     N12699   1.580   2.455  11.041 -0.0263  0.5838 -0.3337
  861MPD2    H512700   1.485   2.421  11.037 -0.3588  1.6089 -1.3262
  861MPD2    N112701   2.013   2.396  11.267  0.3672  0.0655 -0.1540
  861MPD2    H712702   2.042   2.490  11.240  1.5617  0.2963  1.9089
  862MPD2     C12703   1.043   2.216  10.696  0.3728  0.7638 -0.2778
  862MPD2    C112704   1.093   2.284  10.805  0.0191 -0.2190 -0.3369
  862MPD2    C212705   1.059   2.247  10.930  0.0406  0.6023 -0.5648
  862MPD2    C312706   0.988   2.131  10.960  0.6020  0.0644  0.0881
  862MPD2    C412707   0.939   2.060  10.849  0.5775  1.0131 -0.0412
  862MPD2    C512708   0.961   2.109  10.719  0.6423 -0.1027 -0.8812
  862MPD2     H12709   1.082   2.318  11.008 -0.7459  0.1229  0.1110
  862MPD2    H112710   0.894   1.963  10.870 -0.4979  2.0212  2.2581
  862MPD2    H212711   1.063   2.235  10.591  0.1199 -0.2649 -0.5167
  862MPD2    H312712   0.918   2.051  10.638  1.0037  2.7148 -3.0665
  862MPD2     N12713   0.975   2.074  11.087 -0.1114  0.1245 -0.2597
  862MPD2    H512714   0.914   1.993  11.095 -0.1308  0.0391 -1.2329
  862MPD2    N112715   1.185   2.388  10.799  0.7551  0.4454  0.2504
  862MPD2    H712716   1.231   2.401  10.888  2.5110 -1.0693 -0.4086
  863MPD2     C12717   1.204   0.219  16.442  0.4048 -0.9330 -0.1907
  863MPD2    C112718   1.111   0.257  16.536 -0.3781 -0.0228  0.5998
  863MPD2    C212719   1.154   0.276  16.661  0.1469 -0.3958 -0.4789
  863MPD2    C312720   1.287   0.251  16.685 -0.8011  0.1686  0.2475
  863MPD2    C412721   1.382   0.222  16.592 -0.0160  0.2316  0.5651
  863MPD2    C512722   1.335   0.194  16.467  0.6821 -0.0790 -0.0493
  863MPD2     H12723   1.098   0.325  16.739  2.8670 -2.3265  2.6685
  863MPD2    H112724   1.487   0.222  16.621  0.0503 -0.7767  0.3162
  863MPD2    H212725   1.185   0.233  16.336 -0.0877  1.7908  0.2757
  863MPD2    H312726   1.405   0.183  16.384  0.8628 -0.9855  0.2284
  863MPD2     N12727   1.343   0.265  16.813  0.2808  0.0774 -0.2145
  863MPD2    H512728   1.444   0.256  16.813  0.3275  0.6257  1.2851
  863MPD2    N112729   0.980   0.289  16.479 -0.5668  1.2038 -0.6523
  863MPD2    H712730   0.981   0.309  16.380  0.5889 -0.1871 -0.9219
  864MPD2     C12731   1.566   1.333  17.288 -0.2885  0.2063 -0.0474
  864MPD2    C112732   1.572   1.278  17.163 -0.0408  0.6663 -0.0144
  864MPD2    C212733   1.617   1.359  17.055  0.5540 -0.3669 -1.1741
  864MPD2    C312734   1.654   1.494  17.072  0.4501 -0.6005 -0.7255
  864MPD2    C412735   1.653   1.537  17.203  0.1432  0.1703 -0.3381
  864MPD2    C512736   1.607   1.459  17.306  0.2128 -0.0047 -0.5399
  864MPD2     H12737   1.622   1.326  16.952 -3.5055  1.7578 -2.0527
  864MPD2    H112738   1.692   1.636  17.227 -1.3043  1.0548 -1.6106
  864MPD2    H212739   1.520   1.281  17.371 -2.5504  3.0062  0.4633
  864MPD2    H312740   1.620   1.495  17.408  0.0981 -1.5274  0.0070
  864MPD2     N12741   1.700   1.574  16.963  0.1281  0.5447  0.0595
  864MPD2    H512742   1.748   1.661  16.982  0.9736  0.3914 -1.3350
  864MPD2    N112743   1.522   1.147  17.144  0.3118  0.1989  0.0088
  864MPD2    H712744   1.476   1.084  17.209 -0.1177 -0.1559 -0.6406
  865MPD2     C12745   1.447   1.739  16.004  0.1784 -0.1742 -0.2760
  865MPD2    C112746   1.463   1.625  16.080 -0.3693  0.4301  0.4690
  865MPD2    C212747   1.481   1.638  16.215  0.4538 -0.0456 -0.1199
  865MPD2    C312748   1.506   1.766  16.265  0.4718 -0.8593 -0.8776
  865MPD2    C412749   1.495   1.874  16.189 -0.1593  0.0647 -0.6200
  865MPD2    C512750   1.466   1.864  16.055 -0.0664  0.3687 -0.1034
  865MPD2     H12751   1.492   1.549  16.275 -1.3350  1.0297  1.8184
  865MPD2    H112752   1.514   1.969  16.237 -1.6563  0.5265 -0.9407
  865MPD2    H212753   1.420   1.730  15.899  0.7198 -1.3661 -0.3079
  865MPD2    H312754   1.450   1.946  15.986 -1.2180 -1.3434 -1.8845
  865MPD2     N12755   1.549   1.766  16.400  0.3560 -0.0860 -0.3821
  865MPD2    H512756   1.560   1.675  16.443 -3.4239  0.9982  2.9190
  865MPD2    N112757   1.433   1.500  16.019  0.4788 -0.0394 -0.2130
  865MPD2    H712758   1.415   1.495  15.919  0.4320  0.1231 -0.2115
  866MPD2     C12759   2.713   3.106  10.700  0.1559  0.0942  0.4290
  866MPD2    C112760   2.692   3.083  10.834  0.1775  0.5098 -0.3499
  866MPD2    C212761   2.562   3.059  10.875 -0.0774  0.1668 -0.9635
  866MPD2    C312762   2.459   3.059  10.784  0.2763  0.2346 -0.2325
  866MPD2    C412763   2.481   3.094  10.658  0.3798 -0.5031  0.4933
  866MPD2    C512764   2.606   3.111  10.615 -0.1211  0.0576  0.1067
  866MPD2     H12765   2.538   3.032  10.977 -1.0526  0.4886 -1.1031
  866MPD2    H112766   2.404   3.097  10.582 -0.9328 -2.4984  1.7435
  866MPD2    H212767   2.815   3.096  10.665 -0.2516 -1.5552 -0.2633
  866MPD2    H312768   2.622   3.134  10.510 -0.3591 -0.8400 -0.1245
  866MPD2     N12769   2.322   3.027  10.816 -0.1010  0.1648 -0.0325
  866MPD2    H512770   2.242   3.046  10.756 -1.1113 -1.7304  0.7186
  866MPD2    N112771   2.807   3.076  10.917 -0.1806 -0.3190  0.2716
  866MPD2    H712772   2.900   3.086  10.877  0.2248 -0.5466  1.1761
  867MPD2     C12773   0.670   1.425  16.263  0.3696  0.7575  0.0747
  867MPD2    C112774   0.731   1.419  16.384  0.3239  0.6981 -0.1644
  867MPD2    C212775   0.750   1.535  16.453 -1.0477 -0.3933 -0.3501
  867MPD2    C312776   0.709   1.662  16.408  0.1276  1.0936 -0.6638
  867MPD2    C412777   0.653   1.666  16.285  0.6085  0.5996 -0.9938
  867MPD2    C512778   0.641   1.553  16.215 -0.1626 -0.1773  0.2519
  867MPD2     H12779   0.802   1.540  16.548 -1.4945 -1.3362 -0.0586
  867MPD2    H112780   0.623   1.764  16.249  0.2865  0.5496 -0.8614
  867MPD2    H212781   0.658   1.335  16.205 -1.2240  1.3094 -0.4310
  867MPD2    H312782   0.592   1.559  16.118  1.5141 -1.3146 -0.6793
  867MPD2     N12783   0.705   1.785  16.485  0.8468  0.6685  0.4743
  867MPD2    H512784   0.675   1.868  16.435  0.0562  0.6456  0.8946
  867MPD2    N112785   0.767   1.292  16.440 -0.1510 -0.4688  0.2237
  867MPD2    H712786   0.763   1.209  16.383 -0.7870 -1.4691  1.7340
  868MPD2     C12787   1.719   0.625  12.737  0.2830 -0.4224 -0.0085
  868MPD2    C112788   1.756   0.588  12.862 -0.0659 -0.4816  0.4490
  868MPD2    C212789   1.658   0.546  12.951 -0.5334 -0.7338 -0.3639
  868MPD2    C312790   1.524   0.541  12.913  0.5310  0.1270  0.2265
  868MPD2    C412791   1.490   0.593  12.789 -0.0535 -0.8440  0.0962
  868MPD2    C512792   1.589   0.629  12.698 -0.7493 -0.0438 -0.1464
  868MPD2     H12793   1.680   0.530  13.056  1.4368  0.1222 -0.6501
  868MPD2    H112794   1.390   0.585  12.749 -0.6107 -2.4942  1.8329
  868MPD2    H212795   1.790   0.650  12.660  0.5303  1.7986  0.9592
  868MPD2    H312796   1.562   0.657  12.597 -0.4511 -0.8245 -0.4412
  868MPD2     N12797   1.434   0.475  12.997 -0.2104 -0.5713 -0.5188
  868MPD2    H512798   1.489   0.426  13.068 -0.1888 -1.5151 -1.1836
  868MPD2    N112799   1.892   0.592  12.897 -0.1703 -0.9354  0.9453
  868MPD2    H712800   1.954   0.599  12.817  0.7248  0.6952  1.7675
  869MPD2     C12801   2.939   3.435   0.365 -0.2805  0.3190  0.3866
  869MPD2    C112802   3.045   3.345   0.366 -0.6921  0.3668  0.6320
  869MPD2    C212803   3.153   3.358   0.454 -0.0363  0.5736  0.3273
  869MPD2    C312804   3.156   3.466   0.539 -0.0505 -0.0362 -0.3101
  869MPD2    C412805   3.047   3.556   0.538 -0.3580  0.0164  0.6251
  869MPD2    C512806   2.944   3.536   0.451  0.0822  0.0592  0.1378
  869MPD2     H12807   3.218   3.274   0.477 -2.4418 -0.9475  1.5132
  869MPD2    H112808   3.051   3.642   0.604 -1.1315  1.3267 -1.0186
  869MPD2    H212809   2.859   3.423   0.292 -0.9842  0.3396  1.1500
  869MPD2    H312810   2.866   3.611   0.448  0.4364  0.4659  1.2443
  869MPD2     N12811   3.262   3.487   0.630 -0.0525  0.3576  0.2327
  869MPD2    H512812   3.250   3.562   0.696 -0.1939  0.1189  0.4774
  869MPD2    N112813   3.035   3.240   0.278 -0.4101 -0.4831 -0.8125
  869MPD2    H712814   2.950   3.233   0.223 -0.4925  1.8470 -0.9451
  870MPD2     C12815   3.492   2.346   1.356 -0.8882 -0.3718  0.2998
  870MPD2    C112816   3.400   2.324   1.455  1.0121  0.0770  0.4593
  870MPD2    C212817   3.298   2.417   1.472 -1.0344  0.0110 -0.3850
  870MPD2    C312818   3.286   2.526   1.384  0.1239 -0.0369  0.1817
  870MPD2    C412819   3.390   2.549   1.293 -0.2846 -0.3609 -0.5222
  870MPD2    C512820   3.488   2.460   1.285 -0.3223 -0.0491  0.5689
  870MPD2     H12821   3.237   2.403   1.561 -2.7532 -1.8113 -1.8452
  870MPD2    H112822   3.395   2.640   1.234  0.3517 -0.7644 -1.0833
  870MPD2    H212823   3.578   2.283   1.340  0.3950  1.3411  0.4323
  870MPD2    H312824   3.570   2.484   1.218 -2.4363  2.9841 -0.9154
  870MPD2     N12825   3.169   2.598   1.382  0.0973  0.1000  0.4898
  870MPD2    H512826   3.094   2.568   1.444 -0.4749 -1.3484 -0.9307
  870MPD2    N112827   3.415   2.212   1.541 -0.0815 -0.2404  0.4045
  870MPD2    H712828   3.509   2.174   1.536  0.2692  0.7445 -0.4950
  871MPD2     C12829   4.110   2.045  16.258  0.4624  0.6820  0.5535
  871MPD2    C112830   4.047   2.000  16.371 -0.0627  0.6965 -0.2376
  871MPD2    C212831   3.970   1.888  16.350  0.0907  0.0631  0.1722
  871MPD2    C312832   3.949   1.822  16.232  0.1170 -0.6442  0.2143
  871MPD2    C412833   4.020   1.872  16.123 -0.2495  0.9108  0.0202
  871MPD2    C512834   4.108   1.976  16.135 -0.4664  0.5431 -0.3908
  871MPD2     H12835   3.911   1.862  16.437  0.7559  0.9486  0.8950
  871MPD2    H112836   4.015   1.833  16.022 -0.7314  1.3605 -0.1338
  871MPD2    H212837   4.180   2.127  16.267  0.0287  1.1591 -0.5225
  871MPD2    H312838   4.169   2.005  16.050  0.2534 -0.4800 -0.2230
  871MPD2     N12839   3.875   1.699  16.222  0.2941 -0.6388  0.2121
  871MPD2    H512840   3.855   1.656  16.312 -0.0529  0.3610  0.6082
  871MPD2    N112841   4.066   2.079  16.491  0.2170 -0.1392 -0.2497
  871MPD2    H712842   4.129   2.159  16.490  0.7662 -0.5743 -0.2883
  872MPD2     C12843   0.340   3.751  14.162 -0.6242  0.3571  0.1605
  872MPD2    C112844   0.318   3.885  14.166  0.4149  0.3944 -0.0223
  872MPD2    C212845   0.215   3.933  14.239  0.8075 -0.5799 -0.0554
  872MPD2    C312846   0.162   3.848  14.334 -0.4260  0.2779 -0.0497
  872MPD2    C412847   0.205   3.718  14.349  0.4541 -0.2855  0.3611
  872MPD2    C512848   0.286   3.666  14.256 -0.0996 -0.1388 -0.9672
  872MPD2     H12849   0.184   4.037  14.230 -0.4285 -1.0306 -1.0270
  872MPD2    H112850   0.159   3.644  14.413  3.7216 -0.8012  2.0897
  872MPD2    H212851   0.391   3.698  14.082 -1.2123 -0.5539  0.3909
  872MPD2    H312852   0.309   3.560  14.251  2.6444  0.4178  0.1987
  872MPD2     N12853   0.043   3.877  14.406 -0.2502 -0.0733  0.2079
  872MPD2    H512854   0.005   3.808  14.471  2.1703 -2.1910 -0.6435
  872MPD2    N112855   0.356   3.970  14.064 -0.0561  0.5000  0.1131
  872MPD2    H712856   0.317   4.064  14.057 -0.3981  0.3177 -0.4195
  873MPD2     C12857   2.519   3.985   1.009 -0.0612  0.1992  0.1796
  873MPD2    C112858   2.396   3.994   1.070  0.2994 -0.0681  0.4423
  873MPD2    C212859   2.311   3.887   1.062 -0.0942  0.8454  0.3134
  873MPD2    C312860   2.335   3.779   0.977 -0.1809  0.6879 -0.1444
  873MPD2    C412861   2.457   3.777   0.911  0.4735  0.3383 -0.2834
  873MPD2    C512862   2.547   3.875   0.933 -0.1546  1.0585  0.6556
  873MPD2     H12863   2.215   3.881   1.111 -0.6832  0.6954 -0.8570
  873MPD2    H112864   2.492   3.690   0.857  2.7904  0.9596  0.2545
  873MPD2    H212865   2.591   4.065   1.018  1.0659 -0.8491  0.5334
  873MPD2    H312866   2.644   3.868   0.885  0.6420 -0.6992  2.5118
  873MPD2     N12867   2.248   3.669   0.950  0.4366 -0.1097  0.0835
  873MPD2    H512868   2.279   3.602   0.880 -0.7295 -0.2951 -0.2640
  873MPD2    N112869   2.357   4.115   1.134  0.3318  0.0919  0.4164
  873MPD2    H712870   2.439   4.174   1.147  1.9608 -1.7853 -1.2025
  874MPD2     C12871   1.730   4.403  16.083  0.0826 -0.3128  0.2007
  874MPD2    C112872   1.754   4.372  16.209  0.1936  0.0494  0.8544
  874MPD2    C212873   1.831   4.452  16.288  0.0531  0.0469  0.9275
  874MPD2    C312874   1.910   4.548  16.226 -0.0843 -0.4194  0.4618
  874MPD2    C412875   1.897   4.567  16.091  0.2213  0.0694 -0.6482
  874MPD2    C512876   1.804   4.498  16.025 -0.0655  0.5118  0.2748
  874MPD2     H12877   1.848   4.435  16.393  2.2491 -1.4861  0.3183
  874MPD2    H112878   1.965   4.639  16.049  0.6104  0.6845  1.0468
  874MPD2    H212879   1.666   4.344  16.018 -2.0756 -0.0513  2.0760
  874MPD2    H312880   1.777   4.535  15.926  1.3231  1.7156  0.3314
  874MPD2     N12881   1.990   4.623  16.310  0.5704 -0.1693 -0.5489
  874MPD2    H512882   1.993   4.593  16.407 -1.1163  1.7851  0.1255
  874MPD2    N112883   1.682   4.261  16.270  0.3232 -0.1298  0.2586
  874MPD2    H712884   1.608   4.214  16.219 -0.6475  2.7795 -1.0255
  875MPD2     C12885   1.894   2.095  14.654  0.1441 -0.0882  0.1026
  875MPD2    C112886   1.970   2.197  14.613 -0.2418  0.5358 -0.2159
  875MPD2    C212887   2.025   2.285  14.706 -0.2693  0.2715 -0.0413
  875MPD2    C312888   1.995   2.273  14.838 -0.1228  0.2390  0.0443
  875MPD2    C412889   1.915   2.167  14.881  0.1401  0.4198 -0.1569
  875MPD2    C512890   1.870   2.074  14.788  0.5218  0.2991  0.6110
  875MPD2     H12891   2.096   2.358  14.668 -1.3554  0.3222 -1.9678
  875MPD2    H112892   1.877   2.174  14.983 -0.3573  0.0907 -0.3202
  875MPD2    H212893   1.839   2.037  14.581 -1.0200  0.1061  0.8311
  875MPD2    H312894   1.788   2.009  14.818  2.0107 -2.8942 -2.2014
  875MPD2     N12895   2.034   2.374  14.934  0.1606  0.3717  0.2941
  875MPD2    H512896   2.002   2.367  15.030 -2.2395  0.4288 -0.5087
  875MPD2    N112897   2.010   2.216  14.475  0.4524 -0.1499  0.5153
  875MPD2    H712898   2.079   2.286  14.450 -0.3104  0.7085  0.7774
  876MPD2     C12899   2.023   4.070  16.350  0.6362  0.3144 -0.3119
  876MPD2    C112900   1.945   3.994  16.263 -0.3161 -0.1769  0.2570
  876MPD2    C212901   1.920   3.867  16.306 -0.7183 -0.2515  0.0402
  876MPD2    C312902   1.980   3.817  16.424 -0.7582 -0.3896  1.2359
  876MPD2    C412903   2.059   3.899  16.504  0.1635 -0.3242 -0.6755
  876MPD2    C512904   2.085   4.027  16.461 -0.3737 -0.2175 -1.2378
  876MPD2     H12905   1.870   3.801  16.236 -0.6528 -1.5841  1.2516
  876MPD2    H112906   2.104   3.856  16.593 -2.1808 -2.2284 -0.4217
  876MPD2    H212907   2.044   4.174  16.326  3.1964  0.3717  2.3245
  876MPD2    H312908   2.145   4.097  16.518  0.4922  0.4537 -2.9841
  876MPD2     N12909   1.958   3.684  16.453  0.0416  0.4915  0.8960
  876MPD2    H512910   1.906   3.635  16.381  0.0121 -0.0201  1.2674
  876MPD2    N112911   1.902   4.044  16.138  0.0793 -0.5706 -0.4099
  876MPD2    H712912   1.941   4.136  16.118  4.6402 -2.3912  0.0490
  877MPD2     C12913   2.150   4.226  15.384  0.3414  0.0736 -0.6071
  877MPD2    C112914   2.043   4.136  15.375 -0.8541 -0.0777  0.5483
  877MPD2    C212915   2.014   4.080  15.254 -0.5407 -0.2670  0.1467
  877MPD2    C312916   2.069   4.119  15.134 -0.3266  0.3665 -0.6443
  877MPD2    C412917   2.162   4.216  15.143 -0.5583  0.3655  0.9037
  877MPD2    C512918   2.197   4.269  15.263 -0.4281  0.9892  0.9019
  877MPD2     H12919   1.926   4.018  15.242 -0.8465  0.2472 -0.2931
  877MPD2    H112920   2.213   4.254  15.055 -3.4931  3.7021  0.6321
  877MPD2    H212921   2.180   4.276  15.476  1.4329 -2.6194  0.5098
  877MPD2    H312922   2.261   4.357  15.271  1.8135 -0.3772 -2.1603
  877MPD2     N12923   2.038   4.076  15.003  0.1492  0.1315 -0.1829
  877MPD2    H512924   2.078   4.124  14.923 -0.3917  2.6733  1.0617
  877MPD2    N112925   1.951   4.105  15.479 -0.4169  0.2960  0.3213
  877MPD2    H712926   1.876   4.043  15.453 -0.4924 -0.4098  2.1927
  878MPD2     C12927   1.279   4.159  13.474  0.1238 -0.0929 -0.1141
  878MPD2    C112928   1.331   4.034  13.455 -0.2113  0.3740  0.4252
  878MPD2    C212929   1.345   3.955  13.569  0.9713  0.2534  0.4616
  878MPD2    C312930   1.303   4.015  13.692 -0.8539 -0.5381 -0.3549
  878MPD2    C412931   1.239   4.135  13.700 -0.8946  0.2407  1.1236
  878MPD2    C512932   1.229   4.213  13.587 -0.1248 -0.1173 -0.3236
  878MPD2     H12933   1.403   3.863  13.569  0.4267 -0.0904  1.7165
  878MPD2    H112934   1.214   4.191  13.789 -1.8230  2.2771 -0.4040
  878MPD2    H212935   1.277   4.224  13.387  2.2622 -0.9174 -0.7608
  878MPD2    H312936   1.185   4.312  13.587 -2.1661 -1.0267 -1.3478
  878MPD2     N12937   1.347   3.950  13.812  0.2077 -0.8013 -0.4565
  878MPD2    H512938   1.378   3.854  13.800 -0.4719 -0.8393 -1.8605
  878MPD2    N112939   1.375   4.001  13.323  0.1183  0.1182  0.0267
  878MPD2    H712940   1.344   4.064  13.250  0.1491 -0.8664 -0.8332
  879MPD2     C12941   2.044   0.485  16.489  0.1554  0.1119  0.7955
  879MPD2    C112942   1.980   0.421  16.586  0.8144 -0.8405  0.5204
  879MPD2    C212943   1.891   0.318  16.550  0.0278 -0.2940  0.3200
  879MPD2    C312944   1.869   0.282  16.420 -0.0764  0.2050  0.2385
  879MPD2    C412945   1.945   0.348  16.323  0.3331  0.4278  0.7377
  879MPD2    C512946   2.037   0.441  16.357 -0.5526 -0.2317  0.4101
  879MPD2     H12947   1.838   0.266  16.628  0.6467 -2.4301 -0.6827
  879MPD2    H112948   1.950   0.321  16.218 -1.7776  1.4566  0.3835
  879MPD2    H212949   2.108   0.567  16.519  1.0339  0.1100 -1.0860
  879MPD2    H312950   2.096   0.498  16.286 -0.0538  1.2340  2.0119
  879MPD2     N12951   1.786   0.173  16.372  0.3842 -0.1729 -1.1330
  879MPD2    H512952   1.766   0.177  16.272  0.5005  2.6071 -1.0475
  879MPD2    N112953   1.996   0.462  16.718 -0.0033 -0.0901 -0.2151
  879MPD2    H712954   2.064   0.535  16.733 -1.3696  1.0210  0.6199
  880MPD2     C12955   3.059   1.968   0.003  0.3090  0.2177 -0.5214
  880MPD2    C112956   3.067   2.010   0.134 -1.3008 -0.3540  0.1423
  880MPD2    C212957   3.136   1.936   0.227 -0.0322  0.0424  0.6591
  880MPD2    C312958   3.207   1.824   0.185  0.6361  0.4154  1.3334
  880MPD2    C412959   3.201   1.784   0.055 -0.4693 -0.3407 -0.4825
  880MPD2    C512960   3.125   1.852  17.710 -0.0298 -0.4895 -0.8608
  880MPD2     H12961   3.144   1.958   0.332 -1.9248 -3.0418  1.4511
  880MPD2    H112962   3.268   1.709   0.017  1.2591  0.9018  0.1161
  880MPD2    H212963   2.994   2.013  17.672  1.1528 -2.6643 -3.0438
  880MPD2    H312964   3.107   1.818  17.608 -0.8804  0.0043 -0.8716
  880MPD2     N12965   3.286   1.761   0.284  0.2385 -0.5089  0.3452
  880MPD2    H512966   3.303   1.811   0.371  1.5927  0.2090 -0.3345
  880MPD2    N112967   2.999   2.130   0.180 -0.2146  0.1672  0.1714
  880MPD2    H712968   2.961   2.188   0.106  0.3515  0.2009 -0.0859
  881MPD2     C12969   3.608   2.857   0.083 -0.2263 -0.7931 -1.0242
  881MPD2    C112970   3.579   2.729   0.048 -0.0223  0.3604 -0.0029
  881MPD2    C212971   3.461   2.675   0.094  0.0335 -0.4290 -0.4929
  881MPD2    C312972   3.390   2.730   0.199  0.2470  0.4984 -0.4821
  881MPD2    C412973   3.428   2.855   0.240  0.5781 -0.1893  0.4092
  881MPD2    C512974   3.522   2.920   0.171  0.7709 -0.7072  0.3262
  881MPD2     H12975   3.432   2.581   0.049 -0.9078  0.0501 -0.8954
  881MPD2    H112976   3.373   2.916   0.311 -0.5756  0.7041 -1.2344
  881MPD2    H212977   3.682   2.914   0.028  0.6692  0.2797  1.3029
  881MPD2    H312978   3.548   3.022   0.197 -0.9002  0.1187 -1.2244
  881MPD2     N12979   3.276   2.674   0.267 -0.2607  0.0887 -0.2679
  881MPD2    H512980   3.244   2.720   0.352 -0.3804  0.5166 -0.5419
  881MPD2    N112981   3.647   2.680  17.672 -0.3069  0.2336  0.0446
  881MPD2    H712982   3.707   2.747  17.624 -0.7015  0.0727 -0.6760
  882MPD2     C12983   1.665   4.211  14.347 -0.4448 -0.3807  0.7545
  882MPD2    C112984   1.645   4.116  14.445 -0.8042  0.3640  0.0930
  882MPD2    C212985   1.516   4.083  14.481  0.0234 -0.5510 -0.9574
  882MPD2    C312986   1.407   4.131  14.416  0.2145  0.0435  0.0373
  882MPD2    C412987   1.426   4.196  14.299 -0.6928  0.2022  0.6704
  882MPD2    C512988   1.552   4.238  14.268 -0.2756  0.0138 -0.4078
  882MPD2     H12989   1.517   4.008  14.559  2.2435 -1.8428 -2.1889
  882MPD2    H112990   1.336   4.225  14.245 -0.2038 -0.7562 -0.6614
  882MPD2    H212991   1.757   4.251  14.308 -0.6288  0.6613  1.4046
  882MPD2    H312992   1.567   4.290  14.174  1.1269  2.7877  1.3746
  882MPD2     N12993   1.277   4.095  14.460  0.0427  0.0631  0.2045
  882MPD2    H512994   1.196   4.127  14.408 -1.2707 -2.2940  0.7749
  882MPD2    N112995   1.743   4.047  14.520  0.2065  0.3377  0.0626
  882MPD2    H712996   1.714   3.964  14.572  1.4752 -0.0881  0.0819
  883MPD2     C12997   3.307   3.760  16.066 -0.3675 -0.2534  0.3659
  883MPD2    C112998   3.377   3.837  15.980 -0.2304 -0.4138 -0.0672
  883MPD2    C212999   3.489   3.893  16.037  0.1996 -0.1214 -0.4249
  883MPD2    C313000   3.532   3.875  16.167  0.2089 -0.7542 -0.4320
  883MPD2    C413001   3.461   3.792  16.253  0.5060  0.6516 -0.7910
  883MPD2    C513002   3.348   3.740  16.198 -0.3818  0.5063 -0.5474
  883MPD2     H13003   3.546   3.963  15.977 -3.5106  2.0725 -1.3793
  883MPD2    H113004   3.497   3.772  16.353  0.5108  1.4006 -0.6488
  883MPD2    H213005   3.215   3.716  16.029  0.3524 -0.6772 -0.9218
  883MPD2    H313006   3.289   3.677  16.264  1.9042  0.8814  1.8503
  883MPD2     N13007   3.647   3.942  16.210 -0.2726 -0.0789  0.8713
  883MPD2    H513008   3.709   3.979  16.139  0.5487 -0.2298  1.5036
  883MPD2    N113009   3.335   3.874  15.854  0.7398 -0.7550  0.5325
  883MPD2    H713010   3.386   3.934  15.791  0.4923 -0.2069  0.8523
  884MPD2     C13011   0.736   0.146  15.015  0.1218 -0.0852 -0.1674
  884MPD2    C113012   0.624   0.177  14.949  0.3025  0.4550 -0.2284
  884MPD2    C213013   0.498   0.176  15.012  0.0979  0.3572 -0.3793
  884MPD2    C313014   0.491   0.145  15.148 -0.0631  0.3382  0.1288
  884MPD2    C413015   0.608   0.116  15.213  0.5209 -0.1458  0.5887
  884MPD2    C513016   0.730   0.128  15.153  0.4523 -1.0793 -0.7595
  884MPD2     H13017   0.408   0.208  14.961  0.7351 -0.6309 -2.1484
  884MPD2    H113018   0.608   0.103  15.320  1.9325 -1.6959  0.3998
  884MPD2    H213019   0.832   0.167  14.968 -0.5023  0.2591 -1.3010
  884MPD2    H313020   0.815   0.133  15.219 -1.0025  0.1236  0.9950
  884MPD2     N13021   0.368   0.140  15.214  0.4821 -0.6907 -0.4990
  884MPD2    H513022   0.287   0.151  15.154  1.1494  0.3827 -1.2257
  884MPD2    N113023   0.626   0.212  14.809  0.3918  0.2401  0.1706
  884MPD2    H713024   0.539   0.210  14.757  0.6752 -0.2534 -0.2812
  885MPD2     C13025   3.596   0.738   0.410 -0.0208  0.8658 -0.0189
  885MPD2    C113026   3.723   0.741   0.359  0.0630  0.0610  0.0723
  885MPD2    C213027   3.738   0.749   0.218  0.2062 -0.8258 -0.5496
  885MPD2    C313028   3.630   0.760   0.135 -0.2486  0.3849 -0.0586
  885MPD2    C413029   3.504   0.761   0.194 -0.0839 -0.3861  0.3428
  885MPD2    C513030   3.486   0.746   0.330  0.2800 -0.3099  0.6692
  885MPD2     H13031   3.840   0.744   0.180 -0.5914  0.9887 -2.9501
  885MPD2    H113032   3.417   0.784   0.133 -0.8221 -0.7369  1.2551
  885MPD2    H213033   3.574   0.722   0.515 -0.4298  0.0159 -0.2356
  885MPD2    H313034   3.388   0.745   0.376  0.4589 -1.6208  1.0347
  885MPD2     N13035   3.632   0.763  17.735 -0.5847 -0.2271  0.4464
  885MPD2    H513036   3.548   0.796  17.690  1.6459  0.1319 -3.3658
  885MPD2    N113037   3.841   0.737   0.445 -0.1269  0.5168 -0.4469
  885MPD2    H713038   3.930   0.719   0.401 -0.4765 -0.7918 -0.6056
  886MPD2     C13039   0.348   3.850  15.545  0.8918 -0.8342 -0.1303
  886MPD2    C113040   0.453   3.831  15.458 -0.5718 -0.2924 -0.8042
  886MPD2    C213041   0.505   3.933  15.381 -0.3865  0.7230 -0.5565
  886MPD2    C313042   0.446   4.057  15.392  0.4167  0.8605  0.1032
  886MPD2    C413043   0.341   4.075  15.480 -0.3358 -0.1087  0.1575
  886MPD2    C513044   0.301   3.978  15.566  0.5634  0.4442 -0.2144
  886MPD2     H13045   0.587   3.924  15.310 -0.4928  1.4541 -0.7688
  886MPD2    H113046   0.278   4.164  15.484 -1.5374 -1.0430  2.0150
  886MPD2    H213047   0.327   3.770  15.616  2.2987 -0.0283  1.1827
  886MPD2    H313048   0.214   3.994  15.629  0.0378 -0.5169 -0.6927
  886MPD2     N13049   0.486   4.161  15.308  0.0068  0.3583  0.3265
  886MPD2    H513050   0.435   4.248  15.307  1.3780  1.1628 -0.2770
  886MPD2    N113051   0.528   3.706  15.447 -0.3306  0.0804 -0.8199
  886MPD2    H713052   0.605   3.692  15.383  0.5639 -1.8766  0.6852
  887MPD2     C13053   1.086   3.622  15.837 -0.7603  0.4634  0.4827
  887MPD2    C113054   1.025   3.692  15.735 -0.5366  0.6718  0.0867
  887MPD2    C213055   1.041   3.828  15.724 -0.4856 -0.2943  0.9363
  887MPD2    C313056   1.136   3.898  15.795 -0.9034 -0.1188  0.1148
  887MPD2    C413057   1.209   3.825  15.888  0.5274 -0.2042  0.4633
  887MPD2    C513058   1.180   3.692  15.912 -0.1619 -0.1596  0.3991
  887MPD2     H13059   0.990   3.880  15.644  1.7541 -0.8242 -0.8219
  887MPD2    H113060   1.288   3.866  15.950  1.9300  0.9139 -2.0817
  887MPD2    H213061   1.072   3.517  15.860  0.5260  0.1798 -0.0336
  887MPD2    H313062   1.230   3.644  15.996  0.9900  1.0727  0.4093
  887MPD2     N13063   1.155   4.029  15.763 -0.0353  0.1633 -0.1743
  887MPD2    H513064   1.104   4.059  15.680 -0.4602 -0.1250 -0.0224
  887MPD2    N113065   0.946   3.627  15.640  0.5843  0.0915 -0.1699
  887MPD2    H713066   0.928   3.684  15.557 -4.2691 -0.8069  0.2584
  888MPD2     C13067   2.557   3.460  14.783  0.0130 -0.4901 -0.0127
  888MPD2    C113068   2.540   3.527  14.903  0.3360  0.4155 -0.1379
  888MPD2    C213069   2.582   3.657  14.913 -0.2607 -0.5087 -0.2256
  888MPD2    C313070   2.658   3.711  14.817  0.1066 -0.5886  0.2779
  888MPD2    C413071   2.668   3.652  14.693 -0.3144 -0.3893  0.0572
  888MPD2    C513072   2.615   3.526  14.681 -0.2016  0.5072 -0.1847
  888MPD2     H13073   2.566   3.710  15.007  1.5871 -0.1299 -0.1129
  888MPD2    H113074   2.725   3.694  14.611 -1.9248  2.1073  0.2060
  888MPD2    H213075   2.527   3.355  14.781  1.1738 -0.8305  0.9162
  888MPD2    H313076   2.617   3.471  14.588 -1.6933  0.0027  0.0927
  888MPD2     N13077   2.709   3.834  14.854  0.7796  0.3322  0.1491
  888MPD2    H513078   2.674   3.868  14.943  1.1463  2.9312 -0.7132
  888MPD2    N113079   2.476   3.477  15.015 -0.3010 -0.1581  0.3090
  888MPD2    H713080   2.497   3.537  15.094 -0.7355  0.5694 -0.1262
  889MPD2     C13081   2.389   3.534  12.858  0.3167  0.2087  0.7205
  889MPD2    C113082   2.323   3.442  12.934 -0.2926  0.3124 -0.6114
  889MPD2    C213083   2.276   3.491  13.052 -0.0027 -0.4556 -0.7551
  889MPD2    C313084   2.259   3.629  13.073 -0.5332  0.3227  0.1221
  889MPD2    C413085   2.321   3.720  12.984  0.2249 -0.3791  0.9427
  889MPD2    C513086   2.390   3.671  12.879  0.1458 -0.2090  0.5302
  889MPD2     H13087   2.220   3.419  13.110  0.0150  0.7594  0.7731
  889MPD2    H113088   2.310   3.827  12.993 -0.7916 -0.4836  1.0095
  889MPD2    H213089   2.442   3.499  12.770  0.0735  0.1545  0.5937
  889MPD2    H313090   2.452   3.731  12.814 -1.4402 -2.4591 -3.1165
  889MPD2     N13091   2.184   3.661  13.190 -0.3972 -0.5633 -0.6884
  889MPD2    H513092   2.174   3.592  13.263  0.6617  0.5134  0.4867
  889MPD2    N113093   2.355   3.302  12.917  0.1996 -0.3135  0.0300
  889MPD2    H713094   2.331   3.234  12.988  0.5429  0.0641  0.5033
  890MPD2     C13095   1.706   0.316  14.369 -0.5213 -0.2781 -0.5098
  890MPD2    C113096   1.774   0.417  14.435 -0.2151 -0.2279  0.2952
  890MPD2    C213097   1.845   0.386  14.547  0.3844  0.1704  0.0127
  890MPD2    C313098   1.841   0.255  14.599 -0.2689 -0.7386  0.8931
  890MPD2    C413099   1.757   0.163  14.541 -0.1727 -0.3558 -0.4160
  890MPD2    C513100   1.696   0.194  14.428  0.1891 -0.1497 -0.8383
  890MPD2     H13101   1.902   0.458  14.605  0.5088 -0.4289  0.6184
  890MPD2    H113102   1.746   0.060  14.571  4.0506 -0.1950  1.6842
  890MPD2    H213103   1.648   0.330  14.279 -0.3843  0.9152 -0.4198
  890MPD2    H313104   1.651   0.112  14.373  0.9836 -1.8693  1.0729
  890MPD2     N13105   1.926   0.227  14.707  0.0294 -0.5531 -0.1605
  890MPD2    H513106   1.975   0.308  14.742  0.0505 -0.3458 -0.6715
  890MPD2    N113107   1.747   0.543  14.384 -0.8299  0.6381  0.1770
  890MPD2    H713108   1.673   0.545  14.314  0.7617 -1.5578 -1.5811
  891MPD2     C13109   4.195   3.332  16.799 -0.4683  0.1341  0.3234
  891MPD2    C113110   4.186   3.440  16.713  0.3843 -0.0496  0.0872
  891MPD2    C213111   4.292   3.522  16.698 -1.0368 -0.5042 -0.0633
  891MPD2    C313112   4.402   3.501  16.782 -0.1453 -0.2922  0.0041
  891MPD2    C413113   4.414   3.387  16.860  0.0848 -0.1958  0.0627
  891MPD2    C513114   4.308   3.302  16.869 -0.3388  0.8890  0.1310
  891MPD2     H13115   4.303   3.604  16.628  2.2374 -0.5537  0.4017
  891MPD2    H113116   4.499   3.364  16.924 -1.1416  3.9752  3.1572
  891MPD2    H213117   4.112   3.267  16.827  0.0543 -1.5037 -1.9383
  891MPD2    H313118   4.310   3.216  16.934  0.6593  2.4070  2.1186
  891MPD2     N13119   4.504   3.595  16.780  0.1127 -0.6517 -0.4896
  891MPD2    H513120   4.486   3.683  16.733  0.5197 -0.9537 -1.2013
  891MPD2    N113121   4.074   3.444  16.631 -0.2248  0.5638 -0.1629
  891MPD2    H713122   3.997   3.379  16.648 -1.3114  2.3668  1.8070
  892MPD2     C13123   0.669   4.562  14.844  0.1495 -0.1404  0.0139
  892MPD2    C113124   0.591   4.460  14.792  0.7321  0.3974  0.2659
  892MPD2    C213125   0.654   4.339  14.761 -0.0863 -0.2127 -0.1569
  892MPD2    C313126   0.792   4.330  14.759  0.3619 -0.3577 -0.4458
  892MPD2    C413127   0.864   4.435  14.803 -0.1504 -0.4535  0.1578
  892MPD2    C513128   0.807   4.544  14.859 -0.2733 -0.3385  0.1531
  892MPD2     H13129   0.591   4.254  14.738 -1.2165  1.0030 -1.5358
  892MPD2    H113130   0.972   4.427  14.807 -0.0570  1.0904  0.7354
  892MPD2    H213131   0.625   4.658  14.869  0.4384 -0.7082  2.6678
  892MPD2    H313132   0.865   4.626  14.898 -2.5378  2.3177 -2.0872
  892MPD2     N13133   0.855   4.217  14.712  0.0370 -0.0459  0.4482
  892MPD2    H513134   0.956   4.215  14.711  0.0584  1.5089  0.4533
  892MPD2    N113135   0.451   4.469  14.797  0.2376 -0.1462 -0.1205
  892MPD2    H713136   0.398   4.383  14.799 -0.4875  0.3255  1.0773
  893MPD2     C13137   1.989   2.556   0.823  0.2623  0.3985 -0.2990
  893MPD2    C113138   2.074   2.592   0.929 -0.0392  0.5754  0.4818
  893MPD2    C213139   2.113   2.496   1.028 -0.2762  0.4038  0.1199
  893MPD2    C313140   2.043   2.374   1.028 -0.2829  0.2179 -0.4061
  893MPD2    C413141   1.945   2.347   0.928 -0.4987  0.1865 -0.0425
  893MPD2    C513142   1.928   2.435   0.823  0.6432  0.3822  0.0729
  893MPD2     H13143   2.193   2.513   1.099  0.0055 -1.7347  0.3119
  893MPD2    H113144   1.898   2.250   0.924  1.9829 -0.9696 -1.3572
  893MPD2    H213145   1.971   2.628   0.743  0.8165  1.7422  0.7954
  893MPD2    H313146   1.867   2.409   0.738 -0.5390  0.2128  0.9743
  893MPD2     N13147   2.068   2.274   1.123  0.3370 -0.0725  0.2964
  893MPD2    H513148   2.041   2.178   1.104 -2.4870  0.3015  2.2987
  893MPD2    N113149   2.138   2.719   0.928  0.4528 -0.2784  0.4891
  893MPD2    H713150   2.120   2.781   0.850  3.3813  0.5215  0.4542
  894MPD2     C13151   0.833   0.458   1.050 -0.0910  1.0862  0.6081
  894MPD2    C113152   0.800   0.564   1.132  0.1162 -0.4258 -0.0464
  894MPD2    C213153   0.850   0.692   1.101  0.1987 -0.3843 -0.1562
  894MPD2    C313154   0.899   0.712   0.975  0.5321  0.2101  0.8223
  894MPD2    C413155   0.910   0.606   0.882 -0.9337 -0.2468  0.2119
  894MPD2    C513156   0.888   0.482   0.928 -1.3751 -0.2839 -0.5864
  894MPD2     H13157   0.810   0.774   1.160  1.4968 -0.0356  0.2234
  894MPD2    H113158   0.960   0.618   0.787 -2.0858  0.7627 -0.2716
  894MPD2    H213159   0.816   0.354   1.072 -1.0784  1.0536 -0.2969
  894MPD2    H313160   0.911   0.403   0.857  3.0721 -0.3320  0.9015
  894MPD2     N13161   0.933   0.844   0.952 -0.3056  0.0024  0.4583
  894MPD2    H513162   0.905   0.913   1.021  0.9174  0.5477  0.3942
  894MPD2    N113163   0.720   0.554   1.246  0.3176  0.0658 -0.4387
  894MPD2    H713164   0.721   0.642   1.298 -0.8892 -0.3378  0.2623
  895MPD2     C13165   0.140   3.328  14.223 -0.3368  0.9553  0.0792
  895MPD2    C113166   0.019   3.321  14.159  0.2842 -0.0682 -0.1229
  895MPD2    C213167   0.026   3.259  14.037  0.4348 -0.1498  0.5190
  895MPD2    C313168   0.142   3.199  13.989  0.1847  0.7355  0.2748
  895MPD2    C413169   0.257   3.187  14.063 -0.6334  0.3496 -0.3360
  895MPD2    C513170   0.255   3.261  14.178  0.2210 -0.2898 -0.1660
  895MPD2     H13171   4.684   3.276  13.964  0.2371  0.6895  0.9226
  895MPD2    H113172   0.350   3.133  14.051 -0.5264  0.8433 -1.6436
  895MPD2    H213173   0.153   3.380  14.317 -0.0352  0.9252  0.0531
  895MPD2    H313174   0.350   3.271  14.228  1.1690 -0.9443 -1.8574
  895MPD2     N13175   0.132   3.150  13.854  0.0935  0.0196 -0.2269
  895MPD2    H513176   0.050   3.184  13.806  2.3195  1.5548 -2.9231
  895MPD2    N113177   4.636   3.389  14.189 -0.6550 -0.1966 -0.1530
  895MPD2    H713178   4.564   3.383  14.118 -0.1423 -1.2874 -0.5817
  896MPD2     C13179   2.298   1.441   1.889 -0.4392  0.1404  0.3484
  896MPD2    C113180   2.297   1.401   1.757 -0.8135  0.1310 -0.4103
  896MPD2    C213181   2.187   1.329   1.719 -0.1829  0.4050  0.8113
  896MPD2    C313182   2.079   1.294   1.803  0.2006 -0.2476 -0.5520
  896MPD2    C413183   2.089   1.322   1.939 -0.1201 -0.6538  0.3148
  896MPD2    C513184   2.205   1.402   1.976  0.2432 -0.4961  0.2292
  896MPD2     H13185   2.180   1.293   1.617 -0.0989 -0.0606  0.9722
  896MPD2    H113186   2.018   1.295   2.016 -0.7589  0.4156  0.1025
  896MPD2    H213187   2.385   1.494   1.925 -0.2492  2.3841 -3.3729
  896MPD2    H313188   2.212   1.431   2.080  0.1300 -0.6202  0.2721
  896MPD2     N13189   1.964   1.235   1.742 -0.5617  0.5207  0.1750
  896MPD2    H513190   1.960   1.235   1.641 -0.8125  0.0917  0.1857
  896MPD2    N113191   2.394   1.452   1.670 -0.6736  0.1038  0.3624
  896MPD2    H713192   2.472   1.502   1.712  0.6431 -1.8502  0.2724
  897MPD2     C13193   3.147   3.417  11.075  0.1361  0.2507 -0.3171
  897MPD2    C113194   3.053   3.436  10.975 -0.5278  0.3717 -0.2010
  897MPD2    C213195   2.923   3.463  11.009 -0.1424 -0.1982  0.3763
  897MPD2    C313196   2.880   3.450  11.138  0.1890 -0.1479 -0.4806
  897MPD2    C413197   2.979   3.438  11.240  0.9494 -0.4653 -0.2223
  897MPD2    C513198   3.111   3.423  11.212 -1.0645 -0.8058  0.3655
  897MPD2     H13199   2.853   3.471  10.927  0.3367  1.8231  0.1594
  897MPD2    H113200   2.951   3.435  11.345  1.5552 -2.3829 -0.1217
  897MPD2    H213201   3.247   3.383  11.052  0.6583  1.8951 -0.4701
  897MPD2    H313202   3.180   3.408  11.294 -1.5024 -0.1199  0.8576
  897MPD2     N13203   2.742   3.471  11.165 -0.3126 -0.4664  0.1013
  897MPD2    H513204   2.677   3.489  11.089  0.9469 -0.7394 -1.0340
  897MPD2    N113205   3.091   3.415  10.840  0.5448 -0.2788 -0.2315
  897MPD2    H713206   3.187   3.386  10.826  1.1457  0.7783  1.6761
  898MPD2     C13207   0.555   4.613   0.875  0.3102  0.0627  0.0848
  898MPD2    C113208   0.638   4.584   0.776 -1.1064 -0.8690  0.5846
  898MPD2    C213209   0.623   4.658   0.656  0.2430  0.3110  0.6719
  898MPD2    C313210   0.517   0.009   0.641  0.4043 -0.8541 -0.2391
  898MPD2    C413211   0.433   0.022   0.744 -0.4994  0.0559  0.2364
  898MPD2    C513212   0.447   4.692   0.856 -0.2769  0.1459  0.3907
  898MPD2     H13213   0.689   4.631   0.574  0.8350  0.1682  1.2009
  898MPD2    H113214   0.353   0.096   0.737 -0.0559  0.3278 -1.9834
  898MPD2    H213215   0.568   4.562   0.970 -0.7295  0.4745  0.4593
  898MPD2    H313216   0.380   4.696   0.941 -0.6103  0.6730  0.0979
  898MPD2     N13217   0.506   0.073   0.517 -0.1553  0.0109  0.2252
  898MPD2    H513218   0.583   0.063   0.453 -0.5850  0.5693 -0.3791
  898MPD2    N113219   0.738   4.486   0.779 -0.2265  0.2991  0.1590
  898MPD2    H713220   0.809   4.491   0.707  0.8212  1.3744  1.2716
  899MPD2     C13221   1.606   4.610  17.547 -0.0311 -0.5032 -0.2914
  899MPD2    C113222   1.490   4.686  17.527 -0.2259  0.3166 -0.0908
  899MPD2    C213223   1.380   4.657  17.612  0.0390 -0.0420  0.6810
  899MPD2    C313224   1.393   4.557  17.714 -0.1784 -1.1210 -0.3910
  899MPD2    C413225   1.504   4.478  17.720  0.2834 -0.5214  0.1891
  899MPD2    C513226   1.603   4.505  17.629  0.2831 -0.1354  0.9413
  899MPD2     H13227   1.286   4.707  17.588  0.5415  2.0519  3.1069
  899MPD2    H113228   1.502   4.393   0.045 -1.7869  1.2533  2.3711
  899MPD2    H213229   1.692   4.623  17.482 -0.5999  0.9706 -0.7648
  899MPD2    H313230   1.694   4.447  17.638  1.3440  1.4742  0.5280
  899MPD2     N13231   1.298   4.524   0.068 -1.3165  0.0857 -0.0206
  899MPD2    H513232   1.310   4.440   0.123 -0.0563 -1.5284 -2.7179
  899MPD2    N113233   1.485   0.040  17.417 -0.3716  0.1558  0.4385
  899MPD2    H713234   1.577   0.064  17.381 -1.3993  2.5429 -0.5809
  900MPD2     C13235   0.327   1.571  12.782 -0.2645 -0.0958  0.4583
  900MPD2    C113236   0.285   1.445  12.749  0.1589 -0.4570  0.1049
  900MPD2    C213237   0.176   1.425  12.673 -0.0710 -0.0225 -0.0118
  900MPD2    C313238   0.103   1.531  12.628 -0.1116  0.0454 -0.1717
  900MPD2    C413239   0.138   1.657  12.662  0.4154 -0.7254  0.3435
  900MPD2    C513240   0.254   1.684  12.740 -0.1748 -0.3250  0.2022
  900MPD2     H13241   0.131   1.328  12.656  0.4379 -0.5775  1.8056
  900MPD2    H113242   0.077   1.743  12.639  1.1506 -0.4209 -0.4647
  900MPD2    H213243   0.401   1.590  12.859 -0.6464 -0.6090  0.9606
  900MPD2    H313244   0.292   1.783  12.761  0.1815 -0.2965 -0.5659
  900MPD2     N13245   4.719   1.507  12.551  0.5712  0.2534  0.4680
  900MPD2    H513246   4.715   1.410  12.520  0.0660  0.0807  1.0858
  900MPD2    N113247   0.367   1.340  12.793 -0.0349  0.3784 -0.6034
  900MPD2    H713248   0.457   1.360  12.835 -0.4099  1.6553 -0.3848
  901MPD2     C13249   0.459   0.361  13.285 -0.1820 -0.1177 -0.3404
  901MPD2    C113250   0.522   0.341  13.167 -0.8706  0.4600 -0.1174
  901MPD2    C213251   0.550   0.445  13.082 -0.5187 -0.3585 -0.2336
  901MPD2    C313252   0.493   0.570  13.106 -0.1819  0.6677  0.3349
  901MPD2    C413253   0.410   0.585  13.218  0.7593 -0.0362 -0.3161
  901MPD2    C513254   0.397   0.482  13.300  0.1730  0.0601  0.6450
  901MPD2     H13255   0.618   0.449  12.998 -0.9148  1.7494 -0.4621
  901MPD2    H113256   0.370   0.680  13.250  0.6574 -0.5344  1.0742
  901MPD2    H213257   0.434   0.283  13.356 -1.4182  1.1691  0.6591
  901MPD2    H313258   0.346   0.496  13.395  0.0171 -1.1527  0.7429
  901MPD2     N13259   0.507   0.681  13.019 -0.3777 -0.0555 -0.0853
  901MPD2    H513260   0.575   0.669  12.945  0.3783 -0.6266  0.6985
  901MPD2    N113261   0.565   0.210  13.137 -0.1538 -0.0820 -0.0191
  901MPD2    H713262   0.554   0.137  13.206 -0.2033 -0.6305 -0.6023
  902MPD2     C13263   4.399   3.976  13.168 -0.2445 -0.0608  0.2611
  902MPD2    C113264   4.407   4.020  13.037 -0.0030 -0.1904  0.3542
  902MPD2    C213265   4.497   3.966  12.950  0.2384 -0.1387 -0.0910
  902MPD2    C313266   4.573   3.857  12.994 -0.4839  0.3435  0.5862
  902MPD2    C413267   4.563   3.812  13.122 -0.3434 -0.0782  0.8396
  902MPD2    C513268   4.472   3.871  13.210 -0.1344  0.3454 -0.0432
  902MPD2     H13269   4.513   4.015  12.855 -1.3568  1.4613  0.4622
  902MPD2    H113270   4.628   3.732  13.155  0.3011  0.0903 -0.0294
  902MPD2    H213271   4.332   4.019  13.242 -0.6791  1.2839 -0.9171
  902MPD2    H313272   4.472   3.834  13.312  2.6690 -1.2587 -0.6357
  902MPD2     N13273   4.656   3.798  12.898  0.0816  0.4212  0.0651
  902MPD2    H513274   4.637   3.823  12.801  0.7177 -1.1706 -0.4702
  902MPD2    N113275   4.317   4.126  13.003  0.5934 -0.4900  0.1815
  902MPD2    H713276   4.283   4.180  13.083 -0.0267  0.6236 -0.8353
  903MPD2     C13277   0.023   4.186  12.581  0.4410  0.1610  0.6901
  903MPD2    C113278   4.719   4.062  12.530  0.9726 -0.2791  0.0048
  903MPD2    C213279   4.589   4.057  12.487 -0.2393 -0.0617 -0.2585
  903MPD2    C313280   4.510   4.176  12.482  0.0215  0.8601  0.6158
  903MPD2    C413281   4.552   4.299  12.535 -0.1593 -0.2849  0.2245
  903MPD2    C513282   4.683   4.305  12.570 -0.0250 -0.1623  0.2416
  903MPD2     H13283   4.549   3.963  12.453  2.3582 -2.1078  2.3982
  903MPD2    H113284   4.500   4.393  12.521  0.8138  0.3824  1.0708
  903MPD2    H213285   0.124   4.197  12.619  0.5588  2.5651 -0.3232
  903MPD2    H313286   0.002   4.396  12.591  1.1648 -1.2553  1.8006
  903MPD2     N13287   4.377   4.148  12.444 -0.1098  0.4093  0.5008
  903MPD2    H513288   4.358   4.052  12.420 -0.0129  0.4173  0.3945
  903MPD2    N113289   0.063   3.946  12.548 -0.7448 -0.4683  0.9743
  903MPD2    H713290   0.141   3.955  12.612 -0.6375  0.9175  0.6629
  904MPD2     C13291   4.609   2.824  14.006 -0.1845  0.0703  0.2776
  904MPD2    C113292   4.612   2.887  14.132  0.8634  0.3144  0.1394
  904MPD2    C213293   4.727   2.892  14.211  0.1273  0.1736 -0.4473
  904MPD2    C313294   0.105   2.843  14.158  0.0528 -0.1097  0.6519
  904MPD2    C413295   0.108   2.796  14.030 -0.4298 -0.8409  0.0179
  904MPD2    C513296   4.728   2.781  13.952  0.2175 -0.4311  0.1762
  904MPD2     H13297   4.729   2.937  14.310 -1.5580  1.3823 -0.9632
  904MPD2    H113298   0.198   2.754  13.987  2.0251  0.3687  4.0552
  904MPD2    H213299   4.526   2.814  13.937  1.1976  0.1757 -1.3616
  904MPD2    H313300   4.735   2.710  13.870 -0.3355 -1.9026  1.3948
  904MPD2     N13301   0.221   2.847  14.245 -0.1979 -1.0909  0.0555
  904MPD2    H513302   0.211   2.885  14.338  0.9528  2.8999 -1.4691
  904MPD2    N113303   4.497   2.959  14.188 -0.3519 -0.5081  0.1932
  904MPD2    H713304   4.510   3.006  14.277  1.1597  3.0578 -1.8845
  905MPD2     C13305   4.110   3.344  13.707  0.2377  0.2481  0.4003
  905MPD2    C113306   4.216   3.350  13.794 -0.2054  0.6732  0.1622
  905MPD2    C213307   4.346   3.329  13.744 -0.3429  0.3716  0.0014
  905MPD2    C313308   4.369   3.301  13.610  0.2335  0.6739  0.4392
  905MPD2    C413309   4.257   3.282  13.528 -0.3160 -0.1084 -0.9564
  905MPD2    C513310   4.133   3.303  13.578  0.0639  0.1714 -0.2974
  905MPD2     H13311   4.435   3.349  13.803 -0.0064  1.4558 -0.8659
  905MPD2    H113312   4.264   3.253  13.424  0.1023 -0.7995 -0.7372
  905MPD2    H213313   4.006   3.352  13.736  0.8427  0.0354  2.6022
  905MPD2    H313314   4.049   3.288  13.511  0.7373 -2.1983 -0.5940
  905MPD2     N13315   4.494   3.259  13.551  0.2616 -0.0902  0.0977
  905MPD2    H513316   4.500   3.236  13.452 -0.5076 -1.5272  0.3947
  905MPD2    N113317   4.183   3.379  13.931 -0.1095 -0.1870  0.4372
  905MPD2    H713318   4.084   3.375  13.952 -0.1695 -2.6142 -0.3802
  906MPD2     C13319   1.363   3.912  11.117  0.3981 -0.5219 -0.2206
  906MPD2    C113320   1.432   3.802  11.066  0.2931 -0.1216 -0.0304
  906MPD2    C213321   1.439   3.681  11.138  0.2610  0.1846  0.3310
  906MPD2    C313322   1.374   3.668  11.257 -0.5546 -0.4357  0.2989
  906MPD2    C413323   1.309   3.779  11.309  0.4919 -0.2187 -0.4724
  906MPD2    C513324   1.301   3.897  11.239  0.2299 -0.2826 -0.3261
  906MPD2     H13325   1.481   3.589  11.098 -1.1366  0.0343 -0.7908
  906MPD2    H113326   1.245   3.764  11.395 -0.0503  0.9541 -0.6706
  906MPD2    H213327   1.370   4.011  11.075 -0.1809 -0.4839 -0.2299
  906MPD2    H313328   1.254   3.979  11.292  0.8537 -1.1078  1.5041
  906MPD2     N13329   1.359   3.553  11.329 -0.0385  0.4811  0.7770
  906MPD2    H513330   1.306   3.548  11.415 -1.5282  0.8863 -0.1179
  906MPD2    N113331   1.499   3.801  10.942 -0.4123  0.2002 -0.3259
  906MPD2    H713332   1.562   3.726  10.916  0.4623  0.0212  2.3020
  907MPD2     C13333   0.441   2.412  15.932  0.0446 -0.6060 -0.3755
  907MPD2    C113334   0.555   2.434  15.859 -0.3888  0.1255  0.5017
  907MPD2    C213335   0.654   2.521  15.902  0.1658 -0.0409 -0.3364
  907MPD2    C313336   0.636   2.602  16.012 -0.0489 -0.8929 -0.3959
  907MPD2    C413337   0.518   2.584  16.083 -1.0492 -0.1123 -0.1099
  907MPD2    C513338   0.424   2.487  16.049 -0.5926  0.5559  0.4474
  907MPD2     H13339   0.738   2.532  15.835 -0.0742 -1.6245 -0.8836
  907MPD2    H113340   0.494   2.648  16.167 -0.2492  0.2453 -0.1567
  907MPD2    H213341   0.352   2.366  15.892  0.2724  0.9045 -2.6208
  907MPD2    H313342   0.334   2.475  16.108 -0.1939 -0.9608  0.7629
  907MPD2     N13343   0.736   2.695  16.057  0.0732 -0.6063 -0.0898
  907MPD2    H513344   0.815   2.718  15.997 -0.5270  2.3789  0.2291
  907MPD2    N113345   0.569   2.371  15.735 -0.2481  0.4214 -0.4042
  907MPD2    H713346   0.653   2.395  15.683  1.1215 -1.1316  1.0988
  908MPD2     C13347   2.575   2.986  10.071  0.0977  0.2604  0.0409
  908MPD2    C113348   2.691   2.929  10.117 -0.6012  0.1277  0.0575
  908MPD2    C213349   2.774   3.001  10.207 -0.2268 -1.1402 -0.3805
  908MPD2    C313350   2.754   3.133  10.234  0.0326  0.7345 -0.0673
  908MPD2    C413351   2.642   3.190  10.173  0.0624 -0.0486 -0.1971
  908MPD2    C513352   2.551   3.121  10.099 -0.2197  0.1147  0.0189
  908MPD2     H13353   2.859   2.951  10.252  0.7738  0.6506 -0.3187
  908MPD2    H113354   2.632   3.295  10.198 -0.9124 -0.2210  0.1237
  908MPD2    H213355   2.502   2.929  10.016  0.2827 -1.5815  1.7185
  908MPD2    H313356   2.461   3.167  10.060  0.7813 -0.2893 -2.7954
  908MPD2     N13357   2.849   3.205  10.308  0.1372  0.0555  0.1257
  908MPD2    H513358   2.914   3.140  10.353  0.5684  2.4002  2.8704
  908MPD2    N113359   2.714   2.797  10.080  0.0949  0.1506  0.0324
  908MPD2    H713360   2.646   2.746  10.024  1.0664 -1.0939 -0.0337
  909MPD2     C13361   3.102   1.302  11.765  0.2352  0.2095  0.5513
  909MPD2    C113362   3.111   1.441  11.737 -0.0337  0.5146  0.5203
  909MPD2    C213363   3.046   1.527  11.826  0.0181 -0.5524 -0.0803
  909MPD2    C313364   2.959   1.471  11.925  0.2680  0.5904 -0.0124
  909MPD2    C413365   2.955   1.335  11.949 -0.1651  0.8292  0.5238
  909MPD2    C513366   3.029   1.256  11.869  0.0968  0.3455 -0.1978
  909MPD2     H13367   3.055   1.634  11.808 -1.4567 -0.2956  0.7496
  909MPD2    H113368   2.909   1.292  12.038 -0.1610  0.5789  0.4031
  909MPD2    H213369   3.151   1.228  11.703 -2.1721 -0.1000 -0.9947
  909MPD2    H313370   3.029   1.149  11.887  2.3238  0.3760 -0.0059
  909MPD2     N13371   2.902   1.572  12.005  0.0713  0.2224  0.0225
  909MPD2    H513372   2.930   1.668  11.988  0.3456  0.5801  2.5836
  909MPD2    N113373   3.177   1.496  11.629  0.2912  0.4478  0.5039
  909MPD2    H713374   3.196   1.596  11.627  2.7502 -0.0325 -0.2515
  910MPD2     C13375   0.268   3.092  16.702  0.2679  0.2052  0.1503
  910MPD2    C113376   0.287   2.981  16.616 -0.0020 -0.0669 -0.6220
  910MPD2    C213377   0.201   2.964  16.502  0.2455  0.0526 -0.1755
  910MPD2    C313378   0.127   3.069  16.457  0.1829 -0.2978  0.0011
  910MPD2    C413379   0.093   3.163  16.552  0.8286  0.2339  0.0881
  910MPD2    C513380   0.164   3.174  16.670 -0.3641 -0.1453 -0.1068
  910MPD2     H13381   0.209   2.871  16.447  0.7434  2.2968 -3.9165
  910MPD2    H113382   0.018   3.236  16.526  0.5360 -1.1821 -3.1408
  910MPD2    H213383   0.316   3.107  16.799 -2.1763  1.2687  1.1982
  910MPD2    H313384   0.138   3.261  16.729  1.0500  0.0408  0.2516
  910MPD2     N13385   0.066   3.075  16.333  0.5580 -0.5898  0.2841
  910MPD2    H513386   0.004   3.151  16.304  1.2238 -0.4611 -0.8097
  910MPD2    N113387   0.379   2.875  16.641  0.9714 -0.3496 -0.0024
  910MPD2    H713388   0.377   2.802  16.571  0.9032  0.0236 -0.3842
  911MPD2     C13389   2.605   3.283  16.038 -0.0926  0.2757  0.2807
  911MPD2    C113390   2.635   3.363  16.148  0.4534 -0.6256 -0.3573
  911MPD2    C213391   2.578   3.492  16.154  0.1432 -0.4208 -0.1043
  911MPD2    C313392   2.501   3.535  16.050  0.3575  0.3668  0.2165
  911MPD2    C413393   2.487   3.464  15.933 -0.4074  0.6204 -0.1719
  911MPD2    C513394   2.527   3.331  15.932  0.2530 -0.3723 -0.0878
  911MPD2     H13395   2.595   3.558  16.238 -0.5992  0.6118 -0.7676
  911MPD2    H113396   2.441   3.507  15.845  1.2645 -0.6875 -1.6871
  911MPD2    H213397   2.644   3.183  16.027 -3.3700 -0.8813 -1.0834
  911MPD2    H313398   2.494   3.264  15.854 -0.5398 -1.8604  1.5296
  911MPD2     N13399   2.444   3.659  16.048 -0.0902  0.4734 -0.3135
  911MPD2    H513400   2.402   3.688  15.961 -1.8280 -0.1960  0.3100
  911MPD2    N113401   2.720   3.298  16.245 -0.1758  0.0260 -0.1729
  911MPD2    H713402   2.747   3.203  16.225  2.3336  0.5053  0.8499
  912MPD2     C13403   2.114   3.446  15.704  0.1106 -0.0070  0.1051
  912MPD2    C113404   2.111   3.500  15.832  0.6299 -0.0863 -0.1784
  912MPD2    C213405   2.155   3.410  15.935 -0.2805  0.1566 -0.2630
  912MPD2    C313406   2.201   3.280  15.915  0.1657  0.0958 -0.1177
  912MPD2    C413407   2.206   3.230  15.786 -0.0656  0.0269  0.5787
  912MPD2    C513408   2.159   3.317  15.692  0.1543  0.5815  0.8215
  912MPD2     H13409   2.165   3.451  16.035 -2.1651  1.3031 -0.5605
  912MPD2    H113410   2.243   3.133  15.753  1.2825 -0.1876  2.7095
  912MPD2    H213411   2.076   3.502  15.619  1.3741 -1.6302 -1.4981
  912MPD2    H313412   2.160   3.275  15.592 -0.4742  3.6288 -0.4498
  912MPD2     N13413   2.258   3.216  16.031 -0.1511 -0.1305 -0.0187
  912MPD2    H513414   2.242   3.265  16.118  1.6393 -3.9565  2.4403
  912MPD2    N113415   2.082   3.635  15.864 -0.4097  0.3964 -0.2519
  912MPD2    H713416   2.094   3.701  15.788  0.3570 -1.7607 -2.0190
  913MPD2     C13417   2.367   4.503  10.138  0.6014 -0.0302  0.1125
  913MPD2    C113418   2.384   4.580  10.255  0.2665 -0.2335 -0.4152
  913MPD2    C213419   2.318   4.701  10.259 -0.5435  0.6956  0.0464
  913MPD2    C313420   2.235   0.009  10.162 -0.2077  0.1617  0.1255
  913MPD2    C413421   2.214   4.672  10.045 -0.5248  0.5544 -0.2207
  913MPD2    C513422   2.291   4.554  10.036  0.5318 -0.8950 -0.3825
  913MPD2     H13423   2.333   0.021  10.351 -0.3776  3.1896 -1.4991
  913MPD2    H113424   2.147   4.704   9.966 -0.5460 -0.5036 -0.6300
  913MPD2    H213425   2.415   4.411  10.110  0.9041 -0.3300  1.5812
  913MPD2    H313426   2.286   4.491   9.949 -1.1056 -0.1420 -0.8296
  913MPD2     N13427   2.171   0.136  10.160  0.1589  0.3820  0.0368
  913MPD2    H513428   2.108   0.147  10.082  0.8329 -1.5989 -0.7921
  913MPD2    N113429   2.475   4.533  10.353 -0.5631  0.4561  0.0509
  913MPD2    H713430   2.516   4.442  10.335  0.6314  0.7899  1.0898
  914MPD2     C13431   0.775   4.628  12.235  0.4152  0.5580 -0.1178
  914MPD2    C113432   0.733   0.007  12.297 -0.9051  0.0353  0.0606
  914MPD2    C213433   0.736   0.009  12.435  0.1589  0.4638 -0.0091
  914MPD2    C313434   0.768   4.630  12.513 -0.2457 -0.7414  0.1706
  914MPD2    C413435   0.801   4.512  12.450 -0.6748 -0.1074  0.1554
  914MPD2    C513436   0.803   4.511  12.312  0.5670 -0.0270  0.2192
  914MPD2     H13437   0.704   0.100  12.485 -0.4728  0.4647 -0.4195
  914MPD2    H113438   0.831   4.423  12.503  3.1989  0.5450 -0.9511
  914MPD2    H213439   0.778   4.606  12.129 -0.1087 -1.2591  0.2476
  914MPD2    H313440   0.827   4.422  12.255  1.7223 -0.3212  1.1662
  914MPD2     N13441   0.750   4.642  12.653  0.2206 -0.0132 -0.4640
  914MPD2    H513442   0.714   4.731  12.688 -1.1694 -0.9867  0.5626
  914MPD2    N113443   0.690   0.115  12.212 -0.5891 -0.0863 -0.8194
  914MPD2    H713444   0.685   0.095  12.113 -1.3958 -0.7374 -0.6541
  915MPD2     C13445   3.793   0.167  15.601 -0.3881  0.1226 -0.5254
  915MPD2    C113446   3.671   0.202  15.547 -0.1025 -0.4132  0.1969
  915MPD2    C213447   3.568   0.239  15.630 -0.4708  0.2616 -0.1044
  915MPD2    C313448   3.575   0.216  15.765  0.0292  0.0054 -0.1395
  915MPD2    C413449   3.690   0.169  15.816 -0.2787 -0.2618 -0.3796
  915MPD2    C513450   3.797   0.146  15.734 -0.7164 -0.3356 -0.2116
  915MPD2     H13451   3.474   0.270  15.586  0.0271  0.8348 -0.7663
  915MPD2    H113452   3.702   0.146  15.922 -1.9847  2.6806  0.4455
  915MPD2    H213453   3.874   0.143  15.534 -0.1044 -0.8513  0.1614
  915MPD2    H313454   3.892   0.102  15.761  0.4778  0.7047 -2.6822
  915MPD2     N13455   3.460   0.253  15.842  0.1134 -0.2007 -0.3878
  915MPD2    H513456   3.392   0.316  15.800  0.4737  0.9782  0.8138
  915MPD2    N113457   3.642   0.191  15.411 -0.1092  0.1407  0.4691
  915MPD2    H713458   3.553   0.230  15.382 -0.2733  0.0313  0.8270
  916MPD2     C13459   1.806   3.413  15.981  0.1083  0.0833  0.4533
  916MPD2    C113460   1.849   3.305  16.053  0.3740  0.0966  0.6576
  916MPD2    C213461   1.874   3.182  15.990 -0.0308 -0.0356  0.5653
  916MPD2    C313462   1.832   3.169  15.858 -0.2778  0.2953  0.0722
  916MPD2    C413463   1.788   3.281  15.790 -0.0993  0.6352 -0.1041
  916MPD2    C513464   1.772   3.400  15.853 -0.4048 -0.1882  0.4669
  916MPD2     H13465   1.900   3.099  16.056 -0.5605 -0.2325  0.5215
  916MPD2    H113466   1.746   3.282  15.690  0.7935 -0.1436 -0.4812
  916MPD2    H213467   1.798   3.508  16.034  4.0534  0.8878 -0.4022
  916MPD2    H313468   1.749   3.497  15.810  1.5692 -0.5514 -1.3903
  916MPD2     N13469   1.853   3.044  15.802 -0.6280  0.3677  0.0798
  916MPD2    H513470   1.912   2.984  15.859 -1.3154  0.5823  1.0097
  916MPD2    N113471   1.864   3.333  16.190 -0.2294  0.4022 -0.1746
  916MPD2    H713472   1.834   3.425  16.221  0.4978  1.0020 -1.2529
  917MPD2     C13473   1.700   0.887  11.289 -0.7471 -0.6220  0.5811
  917MPD2    C113474   1.778   0.911  11.403  0.1783 -0.3207  0.2839
  917MPD2    C213475   1.839   1.033  11.427 -0.0254  0.8147 -1.2795
  917MPD2    C313476   1.798   1.139  11.339  0.1290 -0.4079 -1.0550
  917MPD2    C413477   1.712   1.119  11.234 -0.5367  0.0432  0.2387
  917MPD2    C513478   1.667   0.996  11.206 -0.3839 -0.2805  0.2173
  917MPD2     H13479   1.894   1.058  11.517  0.8599 -1.7522 -1.1150
  917MPD2    H113480   1.677   1.193  11.163 -2.3741  1.1138  2.2316
  917MPD2    H213481   1.655   0.789  11.273 -1.7999  0.0299 -0.4400
  917MPD2    H313482   1.603   0.979  11.120  0.5668  0.5415 -0.6549
  917MPD2     N13483   1.842   1.272  11.360  0.1511  1.0832  0.0168
  917MPD2    H513484   1.788   1.348  11.319 -0.7058  0.0244 -0.8164
  917MPD2    N113485   1.797   0.797  11.477  0.1312 -0.0776 -0.4928
  917MPD2    H713486   1.741   0.717  11.450 -1.4757  1.1165 -0.6680
  918MPD2     C13487   1.760   1.287  12.173  0.0885 -0.4896 -0.4588
  918MPD2    C113488   1.884   1.222  12.175  0.6434  0.5059 -1.1771
  918MPD2    C213489   1.894   1.100  12.115  0.3694 -0.8109 -0.2341
  918MPD2    C313490   1.790   1.036  12.055 -1.1526 -0.5279  0.2721
  918MPD2    C413491   1.665   1.097  12.060 -0.5221 -0.2593 -0.4401
  918MPD2    C513492   1.652   1.216  12.127 -0.2197  0.2786  0.7702
  918MPD2     H13493   1.982   1.042  12.139  1.7118  0.5247 -2.0022
  918MPD2    H113494   1.572   1.050  12.030  0.1940 -1.4773 -0.7285
  918MPD2    H213495   1.740   1.381  12.223  1.0054  0.6250 -2.1784
  918MPD2    H313496   1.557   1.266  12.137 -1.0363 -1.6124  2.3234
  918MPD2     N13497   1.810   0.905  12.001 -0.0290  0.1821 -0.0298
  918MPD2    H513498   1.905   0.868  12.004  0.0292  0.3846  0.7467
  918MPD2    N113499   2.002   1.286  12.232 -0.3431 -0.1700 -0.4566
  918MPD2    H713500   2.075   1.216  12.232  0.6573  0.8808 -0.5845
  919MPD2     C13501   2.284   4.730  11.771  0.5131  0.8038  0.4665
  919MPD2    C113502   2.328   4.601  11.732 -0.0611 -0.5065  0.2539
  919MPD2    C213503   2.349   4.581  11.596 -0.5077 -0.7050  1.3926
  919MPD2    C313504   2.316   4.679  11.503 -0.3947  0.0123 -0.6114
  919MPD2    C413505   2.267   0.065  11.541  0.0563  0.3336 -0.2659
  919MPD2    C513506   2.261   0.095  11.674  0.6680 -0.3391 -0.4730
  919MPD2     H13507   2.397   4.490  11.563  0.5753  0.1560  0.5545
  919MPD2    H113508   2.255   0.149  11.474 -0.2321  0.6704  0.2056
  919MPD2    H213509   2.278   0.025  11.874  1.0495 -0.4095  0.8590
  919MPD2    H313510   2.224   0.193  11.702 -2.0696 -0.4788 -3.6467
  919MPD2     N13511   2.334   4.666  11.364  0.8028 -0.3348 -0.4551
  919MPD2    H513512   2.304   0.007  11.305  0.6446 -0.6573 -0.7961
  919MPD2    N113513   2.363   4.499  11.823 -0.4291  0.4964  0.1906
  919MPD2    H713514   2.397   4.419  11.772 -0.6843  1.4587 -1.4867
  920MPD2     C13515   1.860   0.162  10.502  0.3033  0.2190 -0.0170
  920MPD2    C113516   1.897   0.030  10.469 -0.0042  0.6742 -0.3721
  920MPD2    C213517   1.979   4.696  10.557  0.6422 -0.3321 -0.1855
  920MPD2    C313518   2.027   0.019  10.676  0.4858 -0.6525 -0.3143
  920MPD2    C413519   1.995   0.156  10.697 -0.1934  0.7858 -0.5273
  920MPD2    C513520   1.903   0.220  10.619 -0.1069  0.3232 -0.3853
  920MPD2     H13521   2.006   4.597  10.523  0.4823 -0.9330  1.4394
  920MPD2    H113522   2.017   0.201  10.794 -1.6834  3.0482 -1.2528
  920MPD2    H213523   1.800   0.230  10.443 -1.3880  0.0915  1.5364
  920MPD2    H313524   1.866   0.318  10.646  0.8332  0.3376  0.8736
  920MPD2     N13525   2.110   4.686  10.764  0.2909  0.1897  0.1270
  920MPD2    H513526   2.124   4.589  10.737 -2.0128  0.9576 -3.7318
  920MPD2    N113527   1.871   4.709  10.343 -0.1860  0.3931 -0.7546
  920MPD2    H713528   1.896   4.612  10.326  0.1296  0.6780 -1.8669
  921MPD2     C13529   3.510   3.414  16.928  0.8119  0.2966 -0.1542
  921MPD2    C113530   3.485   3.435  16.796  0.1130  0.4174  0.3532
  921MPD2    C213531   3.352   3.406  16.751  0.6901  0.1146  0.2375
  921MPD2    C313532   3.255   3.365  16.840 -0.1868  0.0412  0.6239
  921MPD2    C413533   3.290   3.339  16.970  0.3079  0.4554  0.0495
  921MPD2    C513534   3.414   3.374  17.018 -0.2213  0.6749 -0.4605
  921MPD2     H13535   3.330   3.408  16.645 -0.2749 -1.1652  0.4112
  921MPD2    H113536   3.218   3.297  17.040  2.4713 -0.2213  1.8805
  921MPD2    H213537   3.606   3.437  16.973  0.7588  1.7881 -0.8159
  921MPD2    H313538   3.428   3.349  17.123 -0.8510  1.8865 -0.0860
  921MPD2     N13539   3.138   3.302  16.794  0.0347 -0.2154 -0.2961
  921MPD2    H513540   3.088   3.240  16.856  2.4116 -0.1412  1.7070
  921MPD2    N113541   3.590   3.461  16.708 -0.3721  1.5563 -0.3944
  921MPD2    H713542   3.687   3.454  16.739 -0.4279  1.5334 -0.2265
  922MPD2     C13543   4.679   1.348  16.575  0.2575 -0.4570 -0.3412
  922MPD2    C113544   4.731   1.322  16.704  0.7548 -0.9538  0.0994
  922MPD2    C213545   4.644   1.327  16.807 -0.6073 -0.5785  0.2450
  922MPD2    C313546   4.510   1.352  16.781  0.7250  0.0044 -0.1774
  922MPD2    C413547   4.467   1.372  16.656  0.1520  0.0111 -0.3735
  922MPD2    C513548   4.548   1.369  16.547 -0.2347 -0.2877 -0.0645
  922MPD2     H13549   4.673   1.302  16.909 -2.7312  0.2723  1.0671
  922MPD2    H113550   4.362   1.394  16.642 -0.1459 -1.7693 -1.0103
  922MPD2    H213551   0.010   1.343  16.490  1.1023  1.2821  0.2306
  922MPD2    H313552   4.505   1.385  16.449 -2.8962  1.9655  1.4970
  922MPD2     N13553   4.425   1.365  16.895  0.4337  0.6471 -0.2871
  922MPD2    H513554   4.463   1.366  16.989 -2.5122 -1.5720  0.9114
  922MPD2    N113555   0.131   1.282  16.720 -0.0136 -0.0264  0.2470
  922MPD2    H713556   0.183   1.268  16.634 -0.7998 -0.2641 -0.1842
  923MPD2     C13557   4.307   4.106   9.394  0.2652 -0.2351 -0.0244
  923MPD2    C113558   4.354   4.127   9.522  0.9051 -0.7747 -0.0796
  923MPD2    C213559   4.491   4.119   9.551  1.0948 -0.2400  0.1355
  923MPD2    C313560   4.580   4.085   9.451  0.0122  0.5377 -0.0117
  923MPD2    C413561   4.531   4.069   9.326 -0.2954  0.0301  0.3702
  923MPD2    C513562   4.402   4.084   9.298 -0.4576  0.3408 -0.1850
  923MPD2     H13563   4.534   4.129   9.650  2.0185 -1.7331 -0.1215
  923MPD2    H113564   4.597   4.039   9.244 -0.0089  1.6700 -0.0013
  923MPD2    H213565   4.200   4.116   9.377  0.9172  2.1714 -2.6425
  923MPD2    H313566   4.366   4.077   9.196 -0.6764 -0.3516 -0.0620
  923MPD2     N13567   4.713   4.065   9.461  0.2659  0.6439  0.2318
  923MPD2    H513568   0.026   4.030   9.379  0.2970 -1.0454  0.9527
  923MPD2    N113569   4.260   4.148   9.618  0.2242  0.3710 -0.0624
  923MPD2    H713570   4.163   4.159   9.592 -0.3463 -2.2711  0.9284
  924MPD2     C13571   1.638   2.805  16.059 -0.1824 -0.1164  0.2041
  924MPD2    C113572   1.534   2.717  16.043 -0.2245  0.1977  0.6271
  924MPD2    C213573   1.403   2.759  16.035  0.3351 -0.5026 -0.4458
  924MPD2    C313574   1.379   2.894  16.024  0.8173  0.6603 -0.7352
  924MPD2    C413575   1.489   2.978  16.035  0.2434  0.6954 -0.4681
  924MPD2    C513576   1.619   2.940  16.048  0.1606 -0.1886  0.9128
  924MPD2     H13577   1.315   2.695  16.031 -0.3673  0.5239 -1.3128
  924MPD2    H113578   1.475   3.086  16.033 -0.6097  0.5895  0.0450
  924MPD2    H213579   1.737   2.767  16.083 -0.2503 -1.0887 -1.0220
  924MPD2    H313580   1.699   3.012  16.065 -0.5671  0.5633  1.1640
  924MPD2     N13581   1.257   2.961  16.021 -0.3284  0.1214  0.2951
  924MPD2    H513582   1.253   3.059  16.046  2.9927 -0.5929  3.5027
  924MPD2    N113583   1.570   2.579  16.064 -0.3640  0.1217  0.1147
  924MPD2    H713584   1.660   2.569  16.109 -0.4503  1.3751  0.5616
  925MPD2     C13585   4.720   4.143  15.133  0.0185 -0.0261  0.4546
  925MPD2    C113586   4.586   4.130  15.085 -0.1972 -0.8094  0.3441
  925MPD2    C213587   4.485   4.141  15.179  0.4367 -0.7012  0.0155
  925MPD2    C313588   4.518   4.168  15.309  0.1505 -0.2422 -0.5294
  925MPD2    C413589   4.648   4.178  15.351  0.2886 -0.1492 -0.1377
  925MPD2    C513590   0.013   4.164  15.264 -0.4842 -0.0854  0.3520
  925MPD2     H13591   4.383   4.146  15.144  0.9600 -0.8562 -1.5179
  925MPD2    H113592   4.674   4.195  15.454  1.6449  3.8439 -1.1606
  925MPD2    H213593   0.069   4.146  15.065 -0.5704  3.8605 -0.0903
  925MPD2    H313594   0.113   4.186  15.298 -0.3709  0.0258 -0.0511
  925MPD2     N13595   4.421   4.184  15.412  0.2854  0.2384  0.1324
  925MPD2    H513596   4.450   4.195  15.509  1.2237  1.3036 -0.2735
  925MPD2    N113597   4.554   4.102  14.951 -0.4845  0.0673  0.1475
  925MPD2    H713598   4.461   4.127  14.920  0.1074  0.6777 -1.1496
  926MPD2     C13599   3.226   2.579  13.834 -0.0815  0.2254  0.3101
  926MPD2    C113600   3.138   2.616  13.730  0.4486  0.7873 -0.9005
  926MPD2    C213601   3.192   2.693  13.629  0.3428  0.1994 -0.4722
  926MPD2    C313602   3.321   2.734  13.627  0.7934  0.2158  0.6095
  926MPD2    C413603   3.401   2.691  13.726  0.0459  0.8233 -0.2260
  926MPD2    C513604   3.355   2.615  13.829  0.0068 -0.0925 -1.0800
  926MPD2     H13605   3.126   2.724  13.548  2.2528  1.2616 -1.6190
  926MPD2    H113606   3.505   2.719  13.736 -0.0823  1.0598  0.4664
  926MPD2    H213607   3.196   2.522  13.921  1.8579 -0.5074  0.5067
  926MPD2    H313608   3.424   2.592  13.909  0.0770  2.0113 -0.5389
  926MPD2     N13609   3.381   2.812  13.534 -0.5128  0.0069  1.1253
  926MPD2    H513610   3.478   2.838  13.552 -0.3382 -0.4668  0.8483
  926MPD2    N113611   3.003   2.572  13.717  0.4657  0.6851 -0.1587
  926MPD2    H713612   2.952   2.623  13.646 -0.5502  2.1972  1.6752
  927MPD2     C13613   3.818   0.397  17.619 -0.0047 -0.3064 -0.1422
  927MPD2    C113614   3.676   0.378  17.614 -0.4884  0.0290  0.1706
  927MPD2    C213615   3.613   0.337  17.497 -0.6166  0.3242 -0.9949
  927MPD2    C313616   3.698   0.311  17.386  0.2528  0.5721  0.3078
  927MPD2    C413617   3.837   0.315  17.395  0.0141  0.2384  0.2664
  927MPD2    C513618   3.896   0.363  17.506  0.3147  0.1285  0.0047
  927MPD2     H13619   3.506   0.319  17.498  0.0699 -3.4975  2.6523
  927MPD2    H113620   3.906   0.293  17.315  0.2219 -1.4689  0.9109
  927MPD2    H213621   3.877   0.423  17.706 -0.6764  1.4294 -0.2067
  927MPD2    H313622   4.003   0.378  17.509  0.3480 -0.2742  0.8872
  927MPD2     N13623   3.632   0.290  17.264  0.1404  0.3517  0.2866
  927MPD2    H513624   3.531   0.290  17.275  0.4399 -0.4579  3.2777
  927MPD2    N113625   3.603   0.382  17.735 -0.6234 -0.6017  0.4301
  927MPD2    H713626   3.502   0.382  17.722 -0.5197  0.0211 -0.3794
  928MPD2     C13627   0.685   3.985   1.026  0.1525 -0.2449  0.1334
  928MPD2    C113628   0.805   3.946   1.084 -0.1261 -0.0251  0.6741
  928MPD2    C213629   0.897   3.897   0.995  0.6417  0.2131  0.2642
  928MPD2    C313630   0.870   3.865   0.862 -0.4912  0.1209  0.5494
  928MPD2    C413631   0.746   3.897   0.812 -0.2424 -0.0913  0.2686
  928MPD2    C513632   0.654   3.958   0.897 -0.8940 -0.0632  0.1486
  928MPD2     H13633   0.998   3.884   1.032  0.6248  0.8075  0.5274
  928MPD2    H113634   0.715   3.884   0.709 -1.8437 -0.1061  0.7396
  928MPD2    H213635   0.610   4.032   1.088  0.3037 -2.4547  2.0013
  928MPD2    H313636   0.565   3.985   0.841 -2.5192 -0.9485  2.2609
  928MPD2     N13637   0.963   3.807   0.760  0.1416  0.5582 -0.7088
  928MPD2    H513638   0.925   3.794   0.667 -0.4876  2.9987 -0.7935
  928MPD2    N113639   0.822   3.991   1.217 -0.6249  0.0812  0.1180
  928MPD2    H713640   0.769   4.068   1.254 -1.1610  0.4705 -1.4679
  929MPD2     C13641   4.103   3.357   9.959 -0.8337  1.0990 -0.0986
  929MPD2    C113642   4.201   3.264   9.987  0.1282  0.2883 -0.3258
  929MPD2    C213643   4.327   3.306  10.002  1.0417  1.0436  0.9193
  929MPD2    C313644   4.358   3.438  10.012 -0.2343  0.0798  0.0007
  929MPD2    C413645   4.256   3.530   9.995  0.0702 -0.1323 -0.5674
  929MPD2    C513646   4.136   3.490   9.961 -0.5189  0.5200 -0.8086
  929MPD2     H13647   4.393   3.229  10.039  0.3369  0.9823  2.0431
  929MPD2    H113648   4.270   3.637  10.006 -0.2142 -0.1291 -0.2083
  929MPD2    H213649   4.006   3.326   9.922 -1.2961  1.0751  1.1441
  929MPD2    H313650   4.065   3.568   9.936  0.2197  1.3314 -0.3734
  929MPD2     N13651   4.487   3.486  10.037  0.4159 -0.8261 -0.0774
  929MPD2    H513652   4.486   3.585  10.061  2.3123 -1.0591  0.9813
  929MPD2    N113653   4.169   3.121  10.013  0.1535  0.1917 -0.1260
  929MPD2    H713654   4.072   3.094  10.009 -0.4504  2.0791  1.5511
  930MPD2     C13655   2.502   0.624  14.229 -0.1296  0.0184 -0.0815
  930MPD2    C113656   2.613   0.658  14.152 -0.9730 -0.6604 -0.0120
  930MPD2    C213657   2.623   0.603  14.028  0.0864 -0.1732 -0.0395
  930MPD2    C313658   2.529   0.519  13.980  1.0266 -1.0242  0.4109
  930MPD2    C413659   2.414   0.498  14.054  0.0482 -0.0503 -0.1969
  930MPD2    C513660   2.401   0.545  14.182  0.3688 -0.0600 -0.2175
  930MPD2     H13661   2.705   0.638  13.968 -0.0272  1.2807  0.6467
  930MPD2    H113662   2.329   0.450  14.006  0.7192 -1.6379  0.2279
  930MPD2    H213663   2.486   0.665  14.328  0.2858 -0.8470  0.3437
  930MPD2    H313664   2.320   0.531  14.252 -0.1582 -0.4576 -0.9146
  930MPD2     N13665   2.533   0.479  13.841 -0.2976 -0.0758 -0.0355
  930MPD2    H513666   2.446   0.447  13.800  1.1821 -3.0460 -0.8478
  930MPD2    N113667   2.713   0.745  14.191  0.0739 -0.0420  0.1151
  930MPD2    H713668   2.787   0.771  14.127 -1.0992  1.1801 -0.7515
  931MPD2     C13669   3.808   0.065   0.614 -0.6141 -0.3022  0.2074
  931MPD2    C113670   3.683   0.115   0.632 -0.1543 -1.0465  0.0907
  931MPD2    C213671   3.598   0.040   0.708 -0.3944 -0.0207  0.0373
  931MPD2    C313672   3.631   4.664   0.781 -0.6088 -0.6647 -0.1460
  931MPD2    C413673   3.756   4.606   0.748 -0.0157 -0.0956 -0.0943
  931MPD2    C513674   3.838   4.677   0.659  0.3820  0.1769  0.5404
  931MPD2     H13675   3.501   0.078   0.737 -0.3498  0.0883  0.0424
  931MPD2    H113676   3.791   4.520   0.803 -2.7281 -1.2143 -0.1182
  931MPD2    H213677   3.875   0.118   0.547  0.5732 -1.6156  0.3892
  931MPD2    H313678   3.935   4.639   0.628 -0.3897 -0.2342 -1.3468
  931MPD2     N13679   3.545   4.593   0.872 -0.2785  0.1341  0.3233
  931MPD2    H513680   3.575   4.504   0.910  2.9037  0.1226 -2.2361
  931MPD2    N113681   3.655   0.236   0.568  0.0221 -0.1142  0.4483
  931MPD2    H713682   3.724   0.289   0.516  1.3429  0.4124  2.7569
  932MPD2     C13683   4.015   0.073  11.927  0.0210 -0.3206  0.2665
  932MPD2    C113684   4.139   0.020  11.895  0.6240  0.2877 -0.4784
  932MPD2    C213685   4.162   4.616  11.918 -0.0902 -0.0369  0.4472
  932MPD2    C313686   4.062   4.540  11.967  0.5706 -0.0578  0.1742
  932MPD2    C413687   3.937   4.591  11.993 -0.3082 -0.4055 -0.2802
  932MPD2    C513688   3.917   4.722  11.978 -0.4232  0.5589  0.1969
  932MPD2     H13689   4.247   4.566  11.873 -1.0111 -0.2796 -1.0434
  932MPD2    H113690   3.851   4.537  12.029  0.4073 -0.6829  1.0096
  932MPD2    H213691   3.984   0.176  11.922  0.6110 -0.2127 -1.0522
  932MPD2    H313692   3.824   0.027  12.015  0.7927  2.6643  0.8937
  932MPD2     N13693   4.072   4.401  11.986 -0.0138  0.5575  0.1722
  932MPD2    H513694   3.992   4.351  12.022  1.5320 -1.2274  1.1772
  932MPD2    N113695   4.239   0.092  11.832  0.1720 -0.2891  0.8010
  932MPD2    H713696   4.326   0.043  11.819 -0.5145 -1.5636  1.0132
  933MPD2     C13697   0.459   4.364   1.586 -0.2026  0.0419  0.1694
  933MPD2    C113698   0.588   4.362   1.634  0.0424 -0.4382  0.9887
  933MPD2    C213699   0.640   4.469   1.713  0.7583 -0.0044  0.0131
  933MPD2    C313700   0.558   4.569   1.747 -0.0975 -0.1090  0.7954
  933MPD2    C413701   0.427   4.571   1.714 -0.9420  0.0838 -1.2068
  933MPD2    C513702   0.377   4.472   1.630  0.5757  0.4314  0.3117
  933MPD2     H13703   0.740   4.486   1.750  1.5472 -1.8243 -1.3056
  933MPD2    H113704   0.355   4.645   1.747 -0.1029 -1.1086  3.2240
  933MPD2    H213705   0.414   4.278   1.537 -1.3170  1.4365 -1.2556
  933MPD2    H313706   0.270   4.478   1.616  0.8015  0.3500 -1.4980
  933MPD2     N13707   0.620   4.672   1.828 -0.3667  0.1006  0.3365
  933MPD2    H513708   0.716   4.655   1.857 -1.4911 -1.6080  3.0944
  933MPD2    N113709   0.662   4.252   1.596 -0.0865 -0.3634 -0.3550
  933MPD2    H713710   0.609   4.183   1.544 -1.8026  0.3740  0.4322
  934MPD2     C13711   1.996   0.947   2.051  0.6015 -0.4786 -0.1229
  934MPD2    C113712   2.083   0.915   1.948  0.0960  0.6394  0.6143
  934MPD2    C213713   2.043   0.834   1.846  0.0115  0.1563  0.2393
  934MPD2    C313714   1.909   0.786   1.850 -0.1058 -0.3393 -0.7323
  934MPD2    C413715   1.820   0.816   1.954  0.4760 -0.0238  0.6644
  934MPD2    C513716   1.870   0.896   2.053  0.7008  0.0331  0.2808
  934MPD2     H13717   2.109   0.814   1.763 -0.1576  2.6153 -0.4741
  934MPD2    H113718   1.717   0.784   1.959  0.7333 -1.2006 -1.2036
  934MPD2    H213719   2.022   1.016   2.131 -0.4474 -0.5448  0.2695
  934MPD2    H313720   1.811   0.938   2.134  1.8521 -2.3762  2.3573
  934MPD2     N13721   1.855   0.701   1.746 -0.5886 -0.1741 -0.2519
  934MPD2    H513722   1.755   0.685   1.748 -0.8533  1.5355  0.1401
  934MPD2    N113723   2.210   0.983   1.944  0.0298 -0.2825  0.0955
  934MPD2    H713724   2.264   0.959   1.861 -0.4570 -0.0306 -0.2975
  935MPD2     C13725   2.231   0.024   1.108  0.3493  0.5251 -0.1639
  935MPD2    C113726   2.102   0.036   1.071 -0.6010 -0.6159  0.4620
  935MPD2    C213727   2.013   0.111   1.143  0.6199  1.4095  0.1619
  935MPD2    C313728   2.057   0.182   1.255 -0.1639  0.3617  0.1761
  935MPD2    C413729   2.196   0.178   1.282  0.5106  0.4185 -0.0452
  935MPD2    C513730   2.276   0.090   1.214  0.0542 -0.2507 -0.0336
  935MPD2     H13731   1.911   0.105   1.105  0.7740  0.3597 -0.0978
  935MPD2    H113732   2.224   0.240   1.366 -0.0404  0.0361  0.4286
  935MPD2    H213733   2.296   4.686   1.061  0.3390 -0.2530  1.0604
  935MPD2    H313734   2.381   0.079   1.239  0.1628  1.8589  0.4029
  935MPD2     N13735   1.976   0.268   1.335 -0.4724 -0.5834 -0.3437
  935MPD2    H513736   2.016   0.300   1.423  2.9561 -1.1179 -1.6939
  935MPD2    N113737   2.049   4.691   0.962  0.0380 -0.0793  0.2590
  935MPD2    H713738   1.952   4.699   0.935 -0.0069 -1.8435 -0.0797
  936MPD2     C13739   0.384   2.605  12.606 -0.1264  0.3439  0.2681
  936MPD2    C113740   0.490   2.569  12.693 -0.2098  0.4263 -0.0459
  936MPD2    C213741   0.614   2.621  12.678 -0.1836  0.0260  0.3268
  936MPD2    C313742   0.647   2.709  12.578  0.5560 -0.6312  0.6407
  936MPD2    C413743   0.543   2.752  12.494 -0.4179 -0.6173 -0.0945
  936MPD2    C513744   0.414   2.686  12.496  0.0946  0.2945 -0.1084
  936MPD2     H13745   0.683   2.574  12.748 -0.7841 -2.4023 -0.6981
  936MPD2    H113746   0.556   2.811  12.404  2.9880  0.0222  0.8054
  936MPD2    H213747   0.286   2.560  12.612 -0.4240  0.9672  0.1281
  936MPD2    H313748   0.338   2.720  12.426 -1.6475 -1.1473  1.0834
  936MPD2     N13749   0.771   2.773  12.570 -0.5992 -0.8330  0.0536
  936MPD2    H513750   0.776   2.852  12.506  1.7665  0.3010  1.6408
  936MPD2    N113751   0.469   2.490  12.808  0.4923 -0.0374 -0.1593
  936MPD2    H713752   0.544   2.463  12.869 -1.6719 -3.2437  1.0770
  937MPD2     C13753   2.739   3.911  11.797 -0.3022 -0.5860 -0.2566
  937MPD2    C113754   2.690   4.040  11.775 -0.1726  0.1315  0.0344
  937MPD2    C213755   2.704   4.089  11.650 -0.2114  0.1052 -0.4372
  937MPD2    C313756   2.805   4.038  11.562 -0.3562 -0.1931  0.1229
  937MPD2    C413757   2.869   3.921  11.600 -0.7336  0.6034  0.3865
  937MPD2    C513758   2.829   3.850  11.710 -0.4918  0.5313  0.5906
  937MPD2     H13759   2.647   4.178  11.627 -0.3778  0.6799  2.1507
  937MPD2    H113760   2.949   3.871  11.546 -0.9257  1.8563 -1.0441
  937MPD2    H213761   2.732   3.856  11.890  0.9792  0.4461  0.4589
  937MPD2    H313762   2.884   3.759  11.731  0.7533  0.3006 -3.7977
  937MPD2     N13763   2.837   4.109  11.442  0.3594  0.0991 -0.1127
  937MPD2    H513764   2.787   4.195  11.425  1.1160  0.3337 -1.1599
  937MPD2    N113765   2.588   4.092  11.858  0.8508 -0.4384 -0.5443
  937MPD2    H713766   2.543   4.171  11.811 -0.2279  0.6880  2.3893
  938MPD2     C13767   1.082   0.167   0.711 -1.0046  0.2602 -0.5464
  938MPD2    C113768   1.146   0.243   0.798  0.1754  0.5339 -0.2265
  938MPD2    C213769   1.145   0.207   0.930  0.9659 -0.3756  0.0775
  938MPD2    C313770   1.070   0.096   0.978  0.1922 -0.5161  0.6070
  938MPD2    C413771   1.003   0.023   0.882 -0.6445  0.5783 -0.1872
  938MPD2    C513772   1.001   0.069   0.752 -0.4909  0.8803 -0.6773
  938MPD2     H13773   1.184   0.270   1.009 -0.5081 -0.0441  0.5527
  938MPD2    H113774   0.931   4.682   0.908 -0.7205  0.5149 -0.5824
  938MPD2    H213775   1.072   0.201   0.609  1.9512 -1.7160 -1.4797
  938MPD2    H313776   0.923   0.026   0.689 -0.2816 -0.2597 -0.1746
  938MPD2     N13777   1.056   0.057   1.112 -0.9182 -0.2330 -0.5502
  938MPD2    H513778   0.995   4.713   1.126 -0.0722 -1.0395 -1.4941
  938MPD2    N113779   1.203   0.364   0.765 -0.3091  0.2053  0.2309
  938MPD2    H713780   1.231   0.418   0.846  0.5962  2.5781 -1.6525
  939MPD2     C13781   2.341   1.268   1.161 -0.9660  0.3827 -0.6371
  939MPD2    C113782   2.253   1.357   1.106 -0.4851 -0.2034  1.3146
  939MPD2    C213783   2.255   1.376   0.970  0.8073  0.0468 -0.4064
  939MPD2    C313784   2.344   1.303   0.895  0.5246  0.0083 -0.5690
  939MPD2    C413785   2.412   1.198   0.949 -0.3121  1.0746  0.0784
  939MPD2    C513786   2.421   1.192   1.085  0.4286  0.6736 -0.4182
  939MPD2     H13787   2.192   1.454   0.928  2.0676  1.9169  1.1669
  939MPD2    H113788   2.476   1.127   0.898  1.1283  3.5677 -1.5858
  939MPD2    H213789   2.349   1.253   1.268 -0.3582  0.1327 -0.7192
  939MPD2    H313790   2.487   1.128   1.143  0.9976  1.5859 -0.0583
  939MPD2     N13791   2.354   1.340   0.759  0.0341 -0.8590  0.2054
  939MPD2    H513792   2.290   1.404   0.712  1.4191  1.7099  1.8262
  939MPD2    N113793   2.178   1.430   1.201  0.5186 -0.0577  0.7246
  939MPD2    H713794   2.179   1.401   1.298 -1.2855  0.3833  0.8775
  940MPD2     C13795   1.261   2.021  13.493  0.3129 -0.1487  0.0172
  940MPD2    C113796   1.165   1.925  13.459 -0.0255 -0.2835 -0.1223
  940MPD2    C213797   1.094   1.948  13.342  0.3966 -1.0596  0.5024
  940MPD2    C313798   1.128   2.054  13.261 -0.5036  0.3043 -1.0507
  940MPD2    C413799   1.211   2.150  13.306 -0.1710  0.2273 -0.0286
  940MPD2    C513800   1.279   2.136  13.422  0.1954 -0.3841 -0.6779
  940MPD2     H13801   1.015   1.876  13.321  0.2590 -0.2923 -1.5600
  940MPD2    H113802   1.231   2.237  13.245  2.4865 -0.0027  0.5209
  940MPD2    H213803   1.311   2.018  13.589 -2.2023  0.0312  1.3382
  940MPD2    H313804   1.357   2.207  13.448  0.1303 -0.2130 -0.9431
  940MPD2     N13805   1.068   2.078  13.137  0.1767 -0.1115 -0.2598
  940MPD2    H513806   1.101   2.167  13.101  3.0195 -1.7257 -1.7554
  940MPD2    N113807   1.130   1.822  13.553  0.4826  0.0415  0.5015
  940MPD2    H713808   1.052   1.764  13.523  2.5767 -2.1267 -0.7408
  941MPD2     C13809   4.547   1.992   9.730 -0.0609  0.5350 -0.7215
  941MPD2    C113810   4.649   1.920   9.777  0.8846 -0.1076 -0.1096
  941MPD2    C213811   4.618   1.792   9.818  0.4789  0.3353 -0.1829
  941MPD2    C313812   4.500   1.736   9.815 -0.1201  0.2478  0.3388
  941MPD2    C413813   4.392   1.818   9.776 -0.9998  0.6555 -0.3825
  941MPD2    C513814   4.419   1.946   9.733 -0.4318  1.0384  0.0364
  941MPD2     H13815   4.698   1.731   9.859 -1.1857 -2.3970 -1.0112
  941MPD2    H113816   4.289   1.785   9.770 -0.5248 -0.9972  0.4084
  941MPD2    H213817   4.557   2.091   9.688  0.3851 -0.5264 -3.1127
  941MPD2    H313818   4.341   2.009   9.690  0.1469  1.9906  0.3793
  941MPD2     N13819   4.478   1.596   9.829 -0.3141  0.7321 -0.0662
  941MPD2    H513820   4.381   1.568   9.814  0.2972 -1.2656 -0.2396
  941MPD2    N113821   0.044   1.976   9.787  0.0076  0.2555  0.4252
  941MPD2    H713822   0.112   1.925   9.843 -1.3853 -1.8636  0.1785
  942MPD2     C13823   3.896   3.925  10.021  0.2529 -0.1468  0.1560
  942MPD2    C113824   3.875   3.873   9.896  0.1757 -0.1706 -0.0343
  942MPD2    C213825   3.983   3.825   9.827 -0.9399 -0.2325  0.5142
  942MPD2    C313826   4.116   3.841   9.878 -0.0600 -0.4563 -0.6658
  942MPD2    C413827   4.127   3.900  10.000  0.6334 -0.0304  0.0112
  942MPD2    C513828   4.022   3.939  10.072 -0.7541 -0.2059 -0.1823
  942MPD2     H13829   3.961   3.774   9.733  0.6659  0.0164  0.0014
  942MPD2    H113830   4.224   3.925  10.040  0.7135 -0.0887 -0.1484
  942MPD2    H213831   3.816   3.962  10.084  0.9140  3.7118 -1.2885
  942MPD2    H313832   4.035   3.984  10.169  0.0981 -2.4191  0.7302
  942MPD2     N13833   4.234   3.812   9.810  0.5684 -0.5567  0.0027
  942MPD2    H513834   4.319   3.815   9.866 -0.9084  0.9974  2.1703
  942MPD2    N113835   3.745   3.852   9.844 -0.1214 -0.6041  0.6893
  942MPD2    H713836   3.747   3.804   9.755 -0.3801  0.1093  0.3068
  943MPD2     C13837   2.819   1.727  10.513  0.2104 -0.7155  0.0711
  943MPD2    C113838   2.709   1.642  10.541  0.8351 -0.6897  0.1709
  943MPD2    C213839   2.709   1.577  10.661  0.2849 -0.2811 -0.8679
  943MPD2    C313840   2.803   1.599  10.755 -0.4205 -0.8919  0.1731
  943MPD2    C413841   2.908   1.681  10.732 -0.4392  0.6298  0.5942
  943MPD2    C513842   2.915   1.739  10.611  0.5234  0.1484 -0.6143
  943MPD2     H13843   2.632   1.501  10.671 -1.2832  1.5154  0.8861
  943MPD2    H113844   2.994   1.695  10.798 -0.9724  0.0894  1.4098
  943MPD2    H213845   2.828   1.771  10.414  0.4207 -0.7778  0.0642
  943MPD2    H313846   3.003   1.798  10.585  0.4383  0.4635 -0.1792
  943MPD2     N13847   2.799   1.529  10.880  0.0970 -0.4116 -0.2904
  943MPD2    H513848   2.887   1.536  10.930  0.4461 -0.9186 -0.8342
  943MPD2    N113849   2.604   1.634  10.446 -0.2643  0.2851 -0.0419
  943MPD2    H713850   2.621   1.695  10.367  1.1884 -0.3332 -0.2048
  944MPD2     C13851   3.116   0.752  11.313 -0.1400  0.0841 -0.1182
  944MPD2    C113852   3.213   0.846  11.346  0.1712 -0.6502 -0.2838
  944MPD2    C213853   3.166   0.968  11.401  0.6401 -0.6271  0.2959
  944MPD2    C313854   3.031   0.995  11.422 -0.2500  0.0809 -0.3994
  944MPD2    C413855   2.942   0.895  11.390  0.1991 -0.4125  1.1034
  944MPD2    C513856   2.981   0.774  11.339 -0.4178  0.0446 -0.3069
  944MPD2     H13857   3.232   1.052  11.418  1.1080 -0.8073 -0.6044
  944MPD2    H113858   2.838   0.926  11.397  0.0284 -0.4065 -1.5180
  944MPD2    H213859   3.139   0.659  11.262  0.7620  0.8484 -1.1119
  944MPD2    H313860   2.912   0.696  11.307 -1.1159  0.1521  0.9339
  944MPD2     N13861   2.991   1.126  11.462  0.9389 -0.2761  0.4453
  944MPD2    H513862   3.066   1.195  11.466  2.5958 -2.1028  0.6215
  944MPD2    N113863   3.349   0.821  11.319 -0.2329 -0.5656 -0.2636
  944MPD2    H713864   3.368   0.741  11.260  1.9791  0.2350 -0.6295
    1TMC1    C113865   1.273   0.997  13.422  0.4651  0.1453  0.8893
    1TMC1    C213866   1.229   0.881  13.373 -0.6654 -0.2048 -0.4932
    1TMC1    C313867   1.320   0.780  13.379 -0.5942 -0.3899 -0.6132
    1TMC1    C413868   1.388   1.019  13.491  0.7071 -0.2801  0.4034
    1TMC1    C513869   1.469   0.906  13.502  0.5001  0.1917 -0.3479
    1TMC1    C613870   1.441   0.791  13.433 -0.8530  0.5141 -0.5294
    1TMC1     C13871   1.182   1.113  13.399 -0.1609  0.2647 -0.1802
    1TMC1     O13872   1.063   1.090  13.411  0.3126 -0.2491 -0.3574
    1TMC1     H13873   1.142   0.874  13.308 -1.3697  2.5031  0.1656
    1TMC1    H113874   1.419   1.118  13.521  0.1460 -0.3030  1.0696
    1TMC1    H213875   1.504   0.708  13.463 -1.3872  0.3346  0.0960
    1TMC1    C713876   1.585   0.902  13.591 -0.1765 -0.3811 -0.4764
    1TMC1    C813877   1.279   0.648  13.323 -0.0089 -0.2109  0.4840
    1TMC1    O113878   1.664   0.807  13.585  0.0341 -0.1779  1.3010
    1TMC1    O213879   1.360   0.564  13.284  0.2051  0.2779 -0.3198
    1TMC1    O313880   1.588   1.005  13.677 -0.4719  0.3904  0.0371
    1TMC1    H313881   1.506   1.056  13.693 -1.3275 -0.6504 -0.9945
    1TMC1    O513882   1.161   0.615  13.383  0.5134  0.2198  0.2575
    1TMC1    H513883   1.137   0.686  13.446 -0.2977  0.7744 -0.6880
    2MPD2     C13884   1.078   1.598  13.270  0.1053  0.0096  0.4349
    2MPD2    C113885   1.211   1.577  13.272  0.5250 -0.1810  0.0857
    2MPD2    C213886   1.263   1.457  13.318 -0.0982  0.2382  0.3307
    2MPD2    C313887   1.184   1.350  13.337 -0.4472 -0.1733  0.1958
    2MPD2    C413888   1.043   1.365  13.326 -0.3431  0.0414  0.3172
    2MPD2    C513889   0.993   1.487  13.294 -0.5255  0.2321 -0.4557
    2MPD2     H13890   1.370   1.440  13.330  0.3844  2.0545 -1.5202
    2MPD2    H113891   0.974   1.288  13.357  0.4706 -0.0278  1.9916
    2MPD2    H213892   1.038   1.695  13.244  1.8335 -0.0024 -2.1901
    2MPD2    H313893   0.885   1.488  13.298 -0.5228 -0.7008 -0.1236
    2MPD2     N13894   1.250   1.230  13.379  0.0317  0.0195 -0.2486
    2MPD2    H513895   1.350   1.236  13.393 -0.3221 -0.1254  2.3371
    2MPD2    N113896   1.292   1.689  13.231 -0.3209 -0.0332  0.2369
    2MPD2    H713897   1.243   1.773  13.202 -0.2716  1.0516  3.2090
    3TMC2    C113898   1.477   1.833  13.236 -0.3748  0.0912  0.2844
    3TMC2    C213899   1.440   1.893  13.123 -0.1886 -0.1660 -0.3268
    3TMC2    C313900   1.470   2.024  13.108  0.0002  0.2317  0.5211
    3TMC2    C413901   1.567   1.894  13.319  0.0677 -0.3918 -0.2011
    3TMC2    C513902   1.580   2.030  13.307  0.0140 -0.1064  0.3220
    3TMC2    C613903   1.533   2.100  13.197 -1.0532  0.3341  0.0738
    3TMC2     C13904   1.423   1.701  13.271 -0.2636  0.0276 -0.1489
    3TMC2     O13905   1.479   1.632  13.354  0.3634 -0.1910 -0.4912
    3TMC2     H13906   1.370   1.852  13.052 -0.6630 -0.5328  0.3519
    3TMC2    H113907   1.603   1.849  13.411  0.3053  0.0811 -0.0644
    3TMC2    H213908   1.546   2.206  13.184 -1.4354  0.3038 -0.5588
    3TMC2    C713909   1.690   2.083  13.382  0.2684 -0.4159 -0.3972
    3TMC2    C813910   1.404   2.096  13.003  0.4032  0.4105  0.3467
    3TMC2    O113911   1.757   2.004  13.447 -0.0689  0.4253 -0.5855
    3TMC2    O213912   1.311   2.041  12.939 -0.1140 -0.0699  0.0535
    3TMC2    O513913   1.464   2.205  12.950  0.6408  0.0083 -0.3724
    3TMC2    H513914   1.543   2.227  13.004 -0.4405  0.7057  0.9416
    4TMC2    C113915   1.673   3.073  13.486  0.1253 -0.0011  0.0752
    4TMC2    C213916   1.794   3.126  13.469  0.2405  0.7110  0.2287
    4TMC2    C313917   1.894   3.042  13.429  0.5395  0.2034  0.1971
    4TMC2    C413918   1.644   2.938  13.457 -0.3395  0.1387  0.0182
    4TMC2    C513919   1.747   2.861  13.402  0.3419  0.1381  0.6312
    4TMC2    C613920   1.872   2.910  13.398  0.2467  0.1312  0.3448
    4TMC2     C13921   1.576   3.165  13.543 -0.1408  0.2194 -0.1464
    4TMC2     O13922   1.627   3.254  13.604  0.1137  0.2201 -0.0953
    4TMC2     H13923   1.820   3.226  13.502 -0.0093  0.4156  1.3209
    4TMC2    H113924   1.552   2.896  13.496 -1.7973  1.0407 -2.4625
    4TMC2    H213925   1.943   2.860  13.334  1.7369  1.1510  1.2046
    4TMC2    C713926   1.744   2.716  13.396 -0.4078  0.9031  0.1226
    4TMC2    C813927   2.026   3.095  13.393  0.4658 -0.2343 -0.2463
    4TMC2    O113928   1.634   2.668  13.385  0.7604  0.7399  0.3042
    4TMC2    O213929   2.058   3.086  13.279 -0.3529 -0.1979  0.1724
    4TMC2    O513930   2.048   3.205  13.466  0.5518  0.4950  0.4784
    4TMC2    H513931   2.017   3.179  13.556 -0.1787  0.9169  0.3468
    5MPD2     C13932   1.100   3.267  13.722  0.3358  0.7205  0.3899
    5MPD2    C113933   1.082   3.194  13.600  0.4471  0.6446  0.2119
    5MPD2    C213934   1.197   3.158  13.535 -0.1636 -0.1357 -0.3631
    5MPD2    C313935   1.328   3.182  13.589  0.0450 -0.3003  0.4957
    5MPD2    C413936   1.338   3.263  13.703  0.4473  0.2895 -0.1526
    5MPD2    C513937   1.228   3.303  13.768 -0.7348 -0.5464  0.0452
    5MPD2     H13938   1.187   3.100  13.444  2.6755 -0.5335 -0.4211
    5MPD2    H113939   1.430   3.299  13.746  0.7925  0.7552 -1.2679
    5MPD2    H213940   1.019   3.298  13.786 -0.0223  1.3937 -0.3886
    5MPD2    H313941   1.232   3.373  13.851  1.3032 -2.0881  1.2593
    5MPD2     N13942   1.442   3.131  13.519 -0.0777 -0.2045 -0.3939
    5MPD2    H513943   1.418   3.059  13.451 -0.4165 -1.4932  1.0729
    5MPD2    N113944   0.952   3.151  13.559 -0.8137 -0.4381 -0.3957
    5MPD2    H713945   0.871   3.185  13.609 -0.9708 -1.2799 -0.0850
    6MPD1     C13946   4.551   4.520  13.049 -0.5310  0.7119 -0.5251
    6MPD1    C113947   4.568   4.428  12.948  0.0498  0.3167 -0.5122
    6MPD1    C213948   4.641   4.310  12.968  0.0269  0.7690  0.1311
    6MPD1    C313949   4.701   4.286  13.097  0.5184 -0.9473 -0.4008
    6MPD1    C413950   4.691   4.379  13.197 -0.3513 -0.7463 -0.4081
    6MPD1    C513951   4.620   4.500  13.169  0.2577 -0.0350 -0.6197
    6MPD1     H13952   4.645   4.230  12.896 -3.8021 -0.8371  1.6912
    6MPD1    H113953   0.004   4.366  13.293 -0.1858 -0.3728 -0.4421
    6MPD1    H213954   4.486   4.606  13.035 -1.4559 -0.1812 -1.7786
    6MPD1    H313955   4.601   4.578  13.242  1.1809 -1.6140  1.3016
    6MPD1     N13956   0.035   4.169  13.126 -0.1709 -0.7748  0.5650
    6MPD1    H513957   0.049   4.157  13.225  0.6351  0.1183  0.5611
    6MPD1    N113958   4.512   4.452  12.819  0.4177  0.6323 -0.3362
    6MPD1    H613959   4.509   4.551  12.793 -0.3934  0.4930 -0.7827
    6MPD1    H713960   4.528   4.379  12.751 -0.7370  1.7549 -1.8128
    7MPD2     C13961   0.277   3.630  13.642 -0.0671 -0.3181 -0.6325
    7MPD2    C113962   0.279   3.580  13.513 -0.2884  0.1303 -0.1981
    7MPD2    C213963   0.320   3.452  13.481 -0.6828  0.2800  0.1501
    7MPD2    C313964   0.382   3.381  13.581 -0.6118 -0.2352  0.3212
    7MPD2    C413965   0.381   3.425  13.715  0.3031  0.5199 -0.1582
    7MPD2    C513966   0.319   3.547  13.746  0.5457  0.1270  0.5307
    7MPD2     H13967   0.332   3.414  13.380 -1.0167  0.1585  0.1570
    7MPD2    H113968   0.430   3.366  13.793 -2.7997 -0.8870  0.7179
    7MPD2    H213969   0.253   3.732  13.672  0.9928 -0.6111  1.2607
    7MPD2    H313970   0.299   3.582  13.847  3.4406  0.0242  1.1481
    7MPD2     N13971   0.445   3.262  13.540 -0.1749 -0.1672 -0.3923
    7MPD2    H513972   0.423   3.233  13.445 -0.4762 -0.5762 -0.1999
    7MPD2    N113973   0.248   3.662  13.402  0.1605  1.0907 -0.0427
    7MPD2    H713974   0.253   3.615  13.312 -1.7855  3.0605 -1.1923
    8TMC3    C113975   0.574   3.065  13.561 -0.1289  0.5586 -0.1073
    8TMC3    C213976   0.708   3.043  13.578  0.1277  0.3326  0.4376
    8TMC3    C313977   0.778   3.036  13.459 -0.1377  0.5402 -0.6328
    8TMC3    C413978   0.521   3.053  13.436  0.4361 -0.0888 -0.5026
    8TMC3    C513979   0.591   3.046  13.320  0.3596  0.1389  0.9903
    8TMC3    C613980   0.726   3.025  13.335  0.1419 -0.4991 -0.2107
    8TMC3     C13981   0.537   3.193  13.616  0.5757  0.6252  0.4810
    8TMC3     O13982   0.596   3.220  13.720 -0.4238 -0.2184 -0.2055
    8TMC3     H13983   0.753   3.057  13.675 -0.4202 -0.0397  0.7425
    8TMC3    H113984   0.415   3.034  13.430  0.2196  0.5655  1.1953
    8TMC3    H213985   0.795   3.016  13.253 -1.8972  0.9216 -2.0889
    8TMC3    C713986   0.536   3.144  13.227  0.0585 -0.3409 -0.0883
    8TMC3    C813987   0.921   3.061  13.463 -1.0868  0.4251  0.2296
    8TMC3    O113988   0.432   3.190  13.262 -0.3206 -0.0382 -0.5592
    8TMC3    O213989   0.993   2.991  13.390  0.3349 -0.2094  0.4007
    9TMC3    C113990   0.180   3.983  13.094 -0.3022  0.4398 -0.4178
    9TMC3    C213991   0.271   3.923  13.009 -0.0661  0.0532  0.0377
    9TMC3    C313992   0.349   3.824  13.068 -0.4045 -0.7476  0.0093
    9TMC3    C413993   0.149   3.938  13.220  0.1393 -0.0352  0.2257
    9TMC3    C513994   0.222   3.834  13.265  0.5904 -0.1265  0.7675
    9TMC3    C613995   0.322   3.778  13.193 -0.2370 -0.4735  0.1353
    9TMC3     C13996   0.094   4.083  13.036 -0.1001  0.2449  0.1903
    9TMC3     O13997   0.088   4.077  12.915 -0.1845  0.1209 -0.3347
    9TMC3     H13998   0.281   3.975  12.914 -0.2305 -2.5063 -1.3614
    9TMC3    H113999   0.074   3.982  13.284 -1.0979 -1.5347 -0.2007
    9TMC3    H214000   0.405   3.732  13.245 -1.8118 -0.9922  2.1979
    9TMC3    C714001   0.196   3.789  13.391  0.2814 -0.0179 -1.1771
    9TMC3    C814002   0.431   3.741  12.982 -0.3811  0.1841 -0.7285
    9TMC3    O114003   0.151   3.864  13.475  0.4851  0.0555 -0.1578
    9TMC3    O214004   0.463   3.779  12.868  0.8233  0.7289  0.2512
   10MPD2     C14005   0.723   3.328  12.961  0.1572 -0.0925 -0.2036
   10MPD2    C114006   0.625   3.296  13.049  0.4041 -0.6927 -0.3551
   10MPD2    C214007   0.531   3.393  13.068 -0.6372 -0.5834  0.0286
   10MPD2    C314008   0.530   3.515  12.997  0.1740 -0.0478 -0.7155
   10MPD2    C414009   0.620   3.532  12.897 -0.1926 -0.1172  0.0928
   10MPD2    C514010   0.718   3.444  12.881  0.3576 -0.0614  0.2600
   10MPD2     H14011   0.447   3.374  13.132 -0.4332 -0.8411  0.2194
   10MPD2    H114012   0.620   3.619  12.831 -0.8370 -0.1306  0.0727
   10MPD2    H214013   0.804   3.257  12.951  2.8327  2.7735  1.1625
   10MPD2    H314014   0.799   3.465  12.813 -0.3343 -1.1946 -0.9138
   10MPD2     N14015   0.433   3.612  13.031  0.5330 -0.2561  0.2782
   10MPD2    H514016   0.368   3.579  13.101 -0.0016 -0.3994 -0.2879
   10MPD2    N114017   0.626   3.179  13.128 -0.2733  0.3727 -0.1544
   10MPD2    H714018   0.701   3.111  13.116  0.5803  1.6887 -2.3134
   11MPD2     C14019   1.928   2.242  13.492 -0.6035 -1.0281  0.8129
   11MPD2    C114020   1.811   2.291  13.431  0.3556 -0.8727  0.0414
   11MPD2    C214021   1.789   2.424  13.419  0.0148  0.1171  0.4339
   11MPD2    C314022   1.880   2.522  13.461 -0.7385 -0.1837  0.2475
   11MPD2    C414023   1.986   2.470  13.534 -0.5722  0.9111  0.1424
   11MPD2    C514024   2.007   2.336  13.552  0.1329  0.0114  0.5776
   11MPD2     H14025   1.697   2.455  13.371  0.1824 -0.3382 -0.1777
   11MPD2    H114026   2.064   2.537  13.566 -0.4304  0.3986  0.8689
   11MPD2    H214027   1.955   2.137  13.494 -0.9837 -1.1615 -0.9062
   11MPD2    H314028   2.096   2.305  13.606 -0.6265  0.9573  2.3635
   11MPD2     N14029   1.861   2.657  13.438  0.0122  0.3695 -0.5365
   11MPD2    H514030   1.941   2.714  13.464  0.6484 -0.5587 -0.4896
   11MPD2    N114031   1.706   2.216  13.373 -0.2611 -0.2164  0.3144
   11MPD2    H714032   1.632   2.271  13.331  2.3988  1.6066 -1.9287
    1MPD1     C14033   0.399   4.389  16.401 -0.1523  0.2128 -0.2722
    1MPD1    C114034   0.284   4.318  16.366 -0.2394 -0.1482  0.3662
    1MPD1    C214035   0.167   4.380  16.406 -0.1690 -0.1636  0.3172
    1MPD1    C314036   0.158   4.496  16.479  0.0351  0.4059 -0.1197
    1MPD1    C414037   0.276   4.563  16.503 -0.1945  0.0432 -0.2220
    1MPD1    C514038   0.391   4.515  16.455  0.3921  0.7707  0.3445
    1MPD1     H14039   0.074   4.332  16.377 -0.2164  0.3896 -0.4545
    1MPD1    H114040   0.268   4.656  16.559  2.5356  0.0897  0.1063
    1MPD1    H214041   0.499   4.351  16.381 -0.4607 -0.5576 -0.3316
    1MPD1    H314042   0.483   4.571  16.468  1.4968 -0.9705 -0.0549
    1MPD1     N14043   0.035   4.542  16.528  0.8203  0.4960 -0.3354
    1MPD1    H514044   0.039   4.601  16.610  2.5164 -2.3674  1.6354
    1MPD1    N114045   0.294   4.186  16.318 -0.1039  0.2187 -0.1205
    1MPD1    H614046   0.374   4.172  16.256  0.3613  0.0191  0.5238
    1MPD1    H714047   0.220   4.147  16.261 -1.6512 -0.4913  2.3965
    2MPD1     C14048   3.755   4.241  16.718 -0.7891  0.3268 -0.3043
    2MPD1    C114049   3.849   4.207  16.810  0.2683 -0.1692 -0.5318
    2MPD1    C214050   3.978   4.246  16.796 -1.0587  0.2881 -0.5907
    2MPD1    C314051   4.015   4.320  16.684  0.4002 -0.4841 -0.7688
    2MPD1    C414052   3.917   4.341  16.584 -0.1966 -0.4239 -0.0817
    2MPD1    C514053   3.783   4.315  16.610 -0.3476 -0.2492 -0.1150
    2MPD1     H14054   4.048   4.216  16.874 -1.1866  1.4287 -0.0368
    2MPD1    H114055   3.931   4.399  16.493 -0.6334 -0.8541 -0.4214
    2MPD1    H214056   3.650   4.218  16.727 -0.6843  0.7232  1.8696
    2MPD1    H314057   3.708   4.324  16.532 -0.8358  1.7076  0.5866
    2MPD1     N14058   4.148   4.366  16.670 -0.1108 -0.0927  0.0499
    2MPD1    H514059   4.193   4.367  16.761  0.1829 -1.7398 -0.0799
    2MPD1    N114060   3.809   4.118  16.910  0.6942  0.6076 -0.2143
    2MPD1    H614061   3.715   4.130  16.946  1.4950  1.0791  1.7619
    2MPD1    H714062   3.879   4.115  16.985 -0.8512  1.9303  1.2894
    3TMC3    C114063   4.313   4.512  16.590  0.2567  0.5890 -0.0592
    3TMC3    C214064   4.323   4.555  16.718  0.1233 -0.4096  0.1236
    3TMC3    C314065   4.449   4.593  16.755 -0.2067 -0.1207  0.5990
    3TMC3    C414066   4.422   4.512  16.501 -0.5163  0.2686  0.1815
    3TMC3    C514067   4.540   4.564  16.542  0.0982 -0.1649 -0.1983
    3TMC3    C614068   4.553   4.604  16.672  0.0573 -0.1749  0.0282
    3TMC3     C14069   4.200   4.425  16.558 -0.0976  0.1732  0.1084
    3TMC3     O14070   4.153   4.422  16.447  0.6036  0.5148 -0.3294
    3TMC3     H14071   4.239   4.555  16.786  0.1021 -2.1442  0.1079
    3TMC3    H114072   4.409   4.486  16.396  1.9143 -0.4451  0.0699
    3TMC3    H214073   4.641   4.639  16.724 -1.6551  5.1516 -0.7224
    3TMC3    C714074   4.652   4.523  16.465  0.1213 -0.4307 -0.2543
    3TMC3    C814075   4.472   4.574  16.901 -0.3613  0.2305  0.1008
    3TMC3    O114076   4.637   4.504  16.344 -0.2882  0.1317  0.7408
    3TMC3    O214077   4.372   4.592  16.967 -0.0119  0.4116  0.3230
    4MPD1     C14078   0.001   4.287  17.247 -0.7822 -0.1931 -0.7253
    4MPD1    C114079   0.087   4.369  17.174 -0.7369 -0.1657 -0.8532
    4MPD1    C214080   0.041   4.462  17.081  1.0154 -0.0173  0.8341
    4MPD1    C314081   4.643   4.466  17.048 -0.1853 -0.9804 -0.2370
    4MPD1    C414082   4.561   4.376  17.111  0.4508 -0.0865 -0.5359
    4MPD1    C514083   4.606   4.290  17.208  0.5743  0.4240  0.1550
    4MPD1     H14084   0.114   4.522  17.029 -1.0152  2.7441  1.1198
    4MPD1    H114085   4.456   4.363  17.088  0.5716 -0.1019 -1.0937
    4MPD1    H214086   0.024   4.213  17.322  0.7416  0.6203 -0.3776
    4MPD1    H314087   4.542   4.210  17.243 -0.3667  1.1405  0.0635
    4MPD1     N14088   4.602   4.535  16.933 -0.2366 -0.3154 -0.1385
    4MPD1    H514089   4.677   4.558  16.869 -0.6639  1.4914  0.0246
    4MPD1    N114090   0.218   4.369  17.199  0.3600  0.1649  0.5045
    4MPD1    H614091   0.274   4.405  17.122  1.0180 -1.6607  0.1240
    4MPD1    H714092   0.247   4.274  17.221 -1.0289 -0.6268 -1.1433
    1TCq1    O114093   4.723   3.821  11.357 -0.0984  0.1752 -0.1696
    1TCq1    C114094   4.681   3.913  11.457 -0.1860 -0.0871 -0.3006
    1TCq1    O214095   4.666   3.891  11.574  0.0939  0.3067  0.0992
    1TCq1    C214096   4.644   4.037  11.383  0.0797 -0.1095 -0.0025
    1TCq1    C314097   4.562   4.127  11.450  0.2301  0.0355  0.3450
    1TCq1    C414098   4.536   4.243  11.388 -0.3733  0.2518 -0.0456
    1TCq1    C514099   4.596   4.277  11.263  0.3693 -0.1004  0.3251
    1TCq1    C614100   4.666   4.178  11.195  0.6764  0.8454  0.2935
    1TCq1    C714101   4.690   4.059  11.255 -0.0543  0.3491 -0.0553
    1TCq1    C814102   4.718   4.217  11.067 -0.3059  0.0084  0.7968
    1TCq1    O414103   4.713   4.337  11.046  0.4247 -0.0416 -0.0396
    1TCq1    C914104   4.496   4.354  11.468  0.0429 -1.3185  0.3044
    1TCq1    O514105   4.549   4.467  11.443  0.4138 -0.4765 -0.3310
    1TCq1    O614106   4.444   4.320  11.579  0.4260  0.4233  0.4601
    1TCq1    H114107   4.701   3.851  11.266 -1.4966 -0.7599 -0.1273
    1TCq1    H214108   4.533   4.106  11.552 -1.4034 -0.3976 -0.1961
    1TCq1    H314109   4.598   4.381  11.231 -0.5858 -0.0450  0.4366
    1TCq1    H414110   0.024   3.991  11.209 -1.6815 -0.7179 -0.9565
    2MPD1     C14111   0.121   4.103  10.580 -0.3080  0.3127 -0.8148
    2MPD1    C114112   0.112   3.984  10.648 -0.1679  0.7545 -0.4180
    2MPD1    C214113   0.078   3.987  10.785 -0.5458 -0.3694  0.6242
    2MPD1    C314114   0.049   4.105  10.855  0.6481  0.3528 -0.1429
    2MPD1    C414115   0.072   4.221  10.781  0.4195 -0.2462 -0.1324
    2MPD1    C514116   0.106   4.220  10.642 -0.2590 -0.1663  0.2466
    2MPD1     H14117   0.066   3.888  10.829 -0.8289  0.2077  1.8342
    2MPD1    H114118   0.066   4.318  10.829  3.3344 -0.4313  0.5890
    2MPD1    H214119   0.153   4.104  10.476  0.9853  1.9846 -0.3857
    2MPD1    H314120   0.129   4.308  10.584 -3.0464  0.5585  0.2503
    2MPD1     N14121   0.006   4.106  10.989  0.3187 -0.6770  0.1421
    2MPD1    H514122   4.728   4.018  11.037 -1.4846  0.1808  1.1704
    2MPD1    N114123   0.168   3.872  10.591  0.3541  0.2015  0.0781
    2MPD1    H614124   0.143   3.785  10.636  1.6880  2.0347  4.3364
    2MPD1    H714125   0.155   3.867  10.490  0.7639  0.9447 -0.0128
    1TMC1    C114126   1.373   1.803  17.326 -0.5037 -0.6487 -0.5981
    1TMC1    C214127   1.407   1.790  17.192 -0.0051 -0.2919 -0.5747
    1TMC1    C314128   1.474   1.905  17.139  0.2169  0.4632  0.2441
    1TMC1    C414129   1.404   1.911  17.405  0.5605  0.3961  0.5094
    1TMC1    C514130   1.459   2.020  17.342 -0.3639  0.7451  0.2537
    1TMC1    C614131   1.483   2.019  17.211 -0.8053  0.1093 -0.5161
    1TMC1     C14132   1.345   1.674  17.393  0.0629 -0.5467  0.1939
    1TMC1     O14133   1.280   1.592  17.330 -0.3972 -0.3526  0.2001
    1TMC1     H14134   1.387   1.704  17.129  1.2449  1.0884 -2.8331
    1TMC1    H114135   1.369   1.912  17.507 -1.5493 -0.9363 -0.2001
    1TMC1    H214136   1.503   2.104  17.147 -0.5702  0.1791 -0.3511
    1TMC1    C714137   1.447   2.145  17.419  0.3083 -0.5773 -0.1722
    1TMC1    C814138   1.514   1.905  16.999 -0.5570 -0.4815  0.4723
    1TMC1    O114139   1.409   2.147  17.537  0.0873  0.0196  0.4326
    1TMC1    O214140   1.598   1.984  16.962 -0.5110 -1.0141 -0.6537
    1TMC1    O314141   1.398   2.229  17.329 -0.0988  0.1980  0.7276
    1TMC1    H314142   1.460   2.217  17.254  0.6431  0.6960  1.2589
    1TMC1    O514143   1.425   1.842  16.931  0.0669  0.2473  0.3984
    1TMC1    H514144   1.344   1.805  16.972 -0.4109  1.1946  0.3071
    2MPD1     C14145   1.356   1.334   0.050 -0.7598 -0.0647  0.2208
    2MPD1    C114146   1.418   1.452   0.090 -0.6975  0.5543  0.3420
    2MPD1    C214147   1.434   1.556  17.738 -0.3419  0.8245  0.4767
    2MPD1    C314148   1.372   1.557  17.617 -0.2513  0.2580 -0.4112
    2MPD1    C414149   1.301   1.438  17.578  0.3082 -0.1111 -0.6566
    2MPD1    C514150   1.294   1.333  17.667 -1.1190  0.1239  0.3151
    2MPD1     H14151   1.492   1.646   0.013  1.1855  0.2348 -1.5362
    2MPD1    H114152   1.256   1.427  17.480 -0.6386 -0.1436 -0.2153
    2MPD1    H214153   1.342   1.249   0.115  0.7126 -0.8041 -0.4523
    2MPD1    H314154   1.235   1.244  17.648  2.5580 -2.4884  1.1695
    2MPD1     N14155   1.390   1.667  17.526  0.0541  0.3737 -0.3371
    2MPD1    H514156   1.422   1.753  17.570  1.8949 -0.1677 -0.6526
    2MPD1    N114157   1.485   1.463   0.213 -0.0672 -0.4943  0.3038
    2MPD1    H614158   1.507   1.557   0.244 -2.2630  0.6293 -1.4997
    2MPD1    H714159   1.455   1.402   0.289  0.6266 -2.1596 -0.7642
    1MPD1     C14160   1.773   3.477  12.335 -0.0506  0.3807  0.7459
    1MPD1    C114161   1.836   3.451  12.218  0.1702 -0.2682  0.3654
    1MPD1    C214162   1.839   3.544  12.123  0.7891 -0.6338  0.2005
    1MPD1    C314163   1.766   3.660  12.137  0.1125  0.0996 -0.1318
    1MPD1    C414164   1.690   3.685  12.249  0.1039  0.0141 -0.0099
    1MPD1    C514165   1.688   3.592  12.348  0.2567  0.5370 -0.4837
    1MPD1     H14166   1.880   3.535  12.023 -0.0346  0.6874 -0.2690
    1MPD1    H114167   1.627   3.774  12.254  0.7525  0.5053 -0.5595
    1MPD1    H214168   1.773   3.412  12.421 -0.3640  0.0939  0.5308
    1MPD1    H314169   1.630   3.600  12.439  0.0141  0.0620 -0.5960
    1MPD1     N14170   1.768   3.753  12.029 -0.0818 -0.3588  0.0601
    1MPD1    H514171   1.826   3.730  11.949  1.0443  0.1454  0.7302
    1MPD1    N114172   1.921   3.337  12.209  0.2833 -0.1918 -0.1335
    1MPD1    H614173   1.901   3.261  12.274 -0.1751 -1.9616 -2.3717
    1MPD1    H714174   1.930   3.304  12.113  0.1896  0.2691 -0.3021
    2MPD1     C14175   1.338   0.010  10.319 -0.2417  0.4228  0.5525
    2MPD1    C114176   1.467   0.014  10.367  0.9073 -0.0755 -0.8906
    2MPD1    C214177   1.534   4.627  10.379  0.0082 -0.6795 -0.3484
    2MPD1    C314178   1.487   4.513  10.309 -0.2019 -0.8787 -0.5553
    2MPD1    C414179   1.364   4.517  10.249  0.0924  0.3631  0.0772
    2MPD1    C514180   1.284   4.634  10.257 -0.2620  0.4773  0.2534
    2MPD1     H14181   1.634   4.628  10.421 -0.0095  3.2855 -0.3685
    2MPD1    H114182   1.319   4.427  10.210  0.3238 -0.5756  2.0186
    2MPD1    H214183   1.282   0.103  10.321 -1.4677 -0.2926 -0.6141
    2MPD1    H314184   1.188   4.637  10.207 -0.4010 -0.5040  0.4526
    2MPD1     N14185   1.563   4.395  10.290 -0.4389  0.0194 -0.1188
    2MPD1    H514186   1.530   4.332  10.217  0.3813 -0.9637  0.3756
    2MPD1    N114187   1.520   0.122  10.442 -0.2195 -0.2203 -0.1137
    2MPD1    H614188   1.619   0.125  10.422  0.1776 -0.0084  1.9280
    2MPD1    H714189   1.489   0.213  10.409 -1.9416 -0.5535  0.5558
    3MPD1     C14190   1.678   4.037   9.532 -0.0602 -0.0798 -0.4428
    3MPD1    C114191   1.568   4.087   9.594  0.2492 -0.0120 -0.3571
    3MPD1    C214192   1.590   4.123   9.733 -0.3710  0.5467  0.8333
    3MPD1    C314193   1.703   4.070   9.803  0.1755  0.1621 -1.0832
    3MPD1    C414194   1.808   4.012   9.737 -0.1580  0.4282  0.4666
    3MPD1    C514195   1.787   3.992   9.602 -0.3995 -0.0699  0.2600
    3MPD1     H14196   1.517   4.181   9.788 -2.0496 -1.1994  0.4611
    3MPD1    H114197   1.904   3.985   9.779 -0.5391  0.9323  1.6620
    3MPD1    H214198   1.677   4.031   9.424 -1.9744  2.9837 -0.5856
    3MPD1    H314199   1.874   3.967   9.542 -0.1486 -0.1013  0.6412
    3MPD1     N14200   1.719   4.091   9.946 -0.0012  0.4121  0.0341
    3MPD1    H514201   1.640   4.138   9.990  1.9129  0.9580  2.8354
    3MPD1    N114202   1.455   4.132   9.514 -0.0941 -0.6221 -0.2159
    3MPD1    H614203   1.368   4.149   9.563  0.5941 -0.3781  0.9391
    3MPD1    H714204   1.455   4.087   9.423 -0.1292 -0.9273 -0.0643
    4MPD2     C14205   1.789   4.287  11.424  0.7055  0.4527 -0.1678
    4MPD2    C114206   1.899   4.236  11.492  0.0027  0.4116  0.3835
    4MPD2    C214207   2.009   4.196  11.416  0.2319 -0.1873 -0.1726
    4MPD2    C314208   2.024   4.212  11.285 -0.4315  0.2672 -0.1205
    4MPD2    C414209   1.916   4.259  11.214  0.1320 -0.3859  0.6156
    4MPD2    C514210   1.800   4.290  11.283  0.6388  0.0374 -0.3394
    4MPD2     H14211   2.092   4.140  11.459 -0.3972 -0.0404  1.2464
    4MPD2    H114212   1.921   4.282  11.108  0.0103  0.2835  0.7577
    4MPD2    H214213   1.694   4.315  11.468 -0.2003  1.4016 -2.7177
    4MPD2    H314214   1.710   4.314  11.227 -1.9395 -3.3741  2.3656
    4MPD2     N14215   2.146   4.183  11.224 -0.4281  0.2289 -0.2098
    4MPD2    H514216   2.163   4.197  11.125  4.1004  0.7838  0.6280
    4MPD2    N114217   1.895   4.219  11.635 -0.1596 -0.2064  0.0717
    4MPD2    H714218   1.980   4.180  11.675  0.6935  0.2006 -1.3596
    5TMC3    C114219   1.823   4.196  11.858 -0.4100  0.2714 -0.0724
    5TMC3    C214220   1.744   4.089  11.890  0.8201  0.2707  0.4440
    5TMC3    C314221   1.803   3.973  11.933  0.2851  0.0160  0.8281
    5TMC3    C414222   1.957   4.189  11.884  0.1871  0.1878  0.1992
    5TMC3    C514223   2.017   4.069  11.930 -0.7518 -0.0194 -0.1751
    5TMC3    C614224   1.938   3.963  11.955  0.7945  0.1243 -0.0505
    5TMC3     C14225   1.797   4.254  11.726 -0.8799  0.5215  0.7402
    5TMC3     O14226   1.686   4.310  11.707 -0.5001  0.2627 -0.0168
    5TMC3     H14227   1.638   4.105  11.871  0.6793 -0.1286  0.8756
    5TMC3    H114228   2.015   4.274  11.851  3.0016 -2.2924 -1.1278
    5TMC3    H214229   1.984   3.866  11.973  1.3339  0.1625 -1.1849
    5TMC3    C714230   2.140   4.047  11.854  0.2998 -0.2194  0.1560
    5TMC3    C814231   1.724   3.884  12.025  0.3200  0.1976  0.1527
    5TMC3    O114232   2.164   4.124  11.758 -0.8211  0.0042 -0.1171
    5TMC3    O214233   1.652   3.955  12.095 -0.2100 -0.5376 -0.2236
    6TMC3    C114234   1.725   4.230  10.320  1.0217  0.0162 -0.2465
    6TMC3    C214235   1.728   4.190  10.191 -0.0623 -0.3078  0.2172
    6TMC3    C314236   1.804   4.073  10.167  0.0148 -0.5455 -0.4278
    6TMC3    C414237   1.805   4.182  10.422 -0.4513 -0.3723  0.2075
    6TMC3    C514238   1.886   4.081  10.388  0.0787  0.4191  0.0878
    6TMC3    C614239   1.883   4.016  10.265  0.5006 -0.0027  0.0124
    6TMC3     C14240   1.671   4.355  10.365 -0.2428  0.0091 -0.4389
    6TMC3     O14241   1.733   4.413  10.454  0.5566 -0.1036 -0.3669
    6TMC3     H14242   1.671   4.236  10.110  0.2240  0.3000  0.3572
    6TMC3    H114243   1.808   4.210  10.527  0.1834 -0.7515  0.2922
    6TMC3    H214244   1.926   3.919  10.246 -1.4053 -0.9779  0.7237
    6TMC3    C714245   1.996   4.056  10.482  0.1596  0.5344 -0.3564
    6TMC3    C814246   1.800   4.018  10.031 -0.1045  0.0269  0.0225
    6TMC3    O114247   2.001   4.123  10.581 -0.6709 -0.2135 -0.0296
    6TMC3    O214248   1.883   3.924  10.010  0.0423  0.7783 -0.2670
    7MPD2     C14249   2.516   3.766  11.649 -0.4890 -0.2175  0.9520
    7MPD2    C114250   2.432   3.853  11.585 -0.2664  1.3452  0.0338
    7MPD2    C214251   2.331   3.913  11.659  0.6302  0.1572 -0.1774
    7MPD2    C314252   2.301   3.871  11.791 -0.5482  0.6980  0.7694
    7MPD2    C414253   2.375   3.769  11.849 -0.2690 -0.5268 -0.9550
    7MPD2    C514254   2.483   3.728  11.775  0.4563  0.1997 -0.4452
    7MPD2     H14255   2.272   3.992  11.615  2.9298  1.9295 -0.0711
    7MPD2    H114256   2.376   3.753  11.956 -0.3649  0.6323 -0.7761
    7MPD2    H214257   2.613   3.740  11.607 -1.7585 -1.4794 -1.2240
    7MPD2    H314258   2.557   3.662  11.820 -0.4298 -0.9590 -0.6902
    7MPD2     N14259   2.208   3.931  11.881 -0.4259  0.0343 -0.5668
    7MPD2    H514260   2.192   3.883  11.969 -0.2485  1.7158  0.3785
    7MPD2    N114261   2.461   3.910  11.460  0.2501 -0.2135  0.5381
    7MPD2    H714262   2.399   3.985  11.431 -0.5621 -1.3694 -0.7058
    8TMC3    C114263   2.558   3.969  11.257  0.4898  0.5338 -1.0838
    8TMC3    C214264   2.540   3.898  11.144  0.2839  0.1323  0.7100
    8TMC3    C314265   2.441   3.933  11.051 -0.3554  0.5691  0.8975
    8TMC3    C414266   2.488   4.083  11.278  0.6116  0.1711  0.1287
    8TMC3    C514267   2.374   4.106  11.203 -0.0858  0.1053  0.0691
    8TMC3    C614268   2.349   4.028  11.088 -0.4726 -0.0232  0.1786
    8TMC3     C14269   2.566   3.879  11.373  0.0441 -0.2131  0.2188
    8TMC3     O14270   2.646   3.791  11.375  0.1354 -0.5731 -0.4260
    8TMC3     H14271   2.606   3.814  11.126 -1.6089 -1.6595  2.3079
    8TMC3    H114272   2.510   4.149  11.361  1.3637 -0.2130  0.2388
    8TMC3    H214273   2.272   4.057  11.017 -0.9347  0.9699  1.0877
    8TMC3    C714274   2.267   4.149  11.290  0.1692 -0.9422 -0.6211
    8TMC3    C814275   2.457   3.884  10.917  0.3831  0.5329  0.1490
    8TMC3    O114276   2.298   4.161  11.407 -0.2992  0.0358  0.0573
    8TMC3    O214277   2.540   3.798  10.901 -0.1930  0.0868 -0.6929
    9MPD2     C14278   2.441   3.830  10.624 -0.3004  0.9147  0.4226
    9MPD2    C114279   2.348   3.897  10.697  0.2586  0.3705 -0.0838
    9MPD2    C214280   2.226   3.935  10.637  0.9147 -0.0354  0.6730
    9MPD2    C314281   2.211   3.929  10.501 -0.4112  0.0798 -0.2535
    9MPD2    C414282   2.312   3.871  10.426 -0.1967  0.5434 -0.2495
    9MPD2    C514283   2.419   3.813  10.489  0.3221 -0.1701  0.1707
    9MPD2     H14284   2.146   3.960  10.706  0.2784 -0.1429 -0.0199
    9MPD2    H114285   2.299   3.881  10.319  0.1077  0.8912 -0.2549
    9MPD2    H214286   2.531   3.779  10.657 -1.4937 -0.9158  0.8842
    9MPD2    H314287   2.479   3.750  10.425  1.3365  0.4825  0.4907
    9MPD2     N14288   2.097   3.977  10.431  0.4301 -0.1731 -0.2698
    9MPD2    H514289   2.095   3.956  10.331 -0.5200 -0.5219 -0.1715
    9MPD2    N114290   2.357   3.923  10.835 -0.0282  0.6575  0.2873
    9MPD2    H714291   2.275   3.971  10.871  0.3615 -0.0154  2.0569
    1MPD1     C14292   2.976   2.801  16.730 -0.5817 -0.2812  0.0656
    1MPD1    C114293   2.876   2.782  16.633 -0.5667  0.9406  0.3849
    1MPD1    C214294   2.744   2.803  16.671  0.1467  0.5617  0.2027
    1MPD1    C314295   2.710   2.842  16.803 -0.4227 -0.0243  0.6350
    1MPD1    C414296   2.814   2.867  16.888 -0.5367  0.3430 -0.0412
    1MPD1    C514297   2.942   2.849  16.853 -0.0921 -0.0768 -0.2724
    1MPD1     H14298   2.666   2.776  16.600  2.0669 -1.3013 -1.2006
    1MPD1    H114299   2.792   2.902  16.988 -2.0613  2.2134 -1.0406
    1MPD1    H214300   3.081   2.783  16.713 -0.5881 -0.8106  0.5800
    1MPD1    H314301   3.023   2.885  16.916 -0.1964 -0.8276  0.2824
    1MPD1     N14302   2.578   2.855  16.850  0.2610  1.0348 -0.0214
    1MPD1    H514303   2.572   2.874  16.949  0.8801  0.6011  0.0973
    1MPD1    N114304   2.917   2.745  16.505 -0.1121 -0.2245 -0.0502
    1MPD1    H614305   3.012   2.776  16.486 -0.7280  0.8563 -1.3027
    1MPD1    H714306   2.857   2.792  16.437  0.2839  1.7473  0.9514
    2TMC2    C114307   2.118   2.853  16.888  0.2815 -0.0341  0.2546
    2TMC2    C214308   2.116   2.944  16.990 -0.1657  0.8718 -0.0301
    2TMC2    C314309   2.234   3.005  17.023  1.1850  0.4339  0.3123
    2TMC2    C414310   2.226   2.811  16.824  0.6848 -0.1221 -0.2377
    2TMC2    C514311   2.344   2.879  16.860  0.6107  0.4654  0.1208
    2TMC2    C614312   2.353   2.970  16.962  0.3377  0.1963  0.0155
    2TMC2     C14313   2.003   2.782  16.849  0.8273  0.1752  0.3042
    2TMC2     O14314   2.021   2.681  16.784  0.3073 -0.2275 -0.2121
    2TMC2     H14315   2.025   2.958  17.048 -0.7458 -0.2898 -0.6609
    2TMC2    H114316   2.222   2.750  16.734  0.2970 -1.2406  0.5290
    2TMC2    H214317   2.444   3.022  16.988  0.5744 -0.5329  0.6607
    2TMC2    C714318   2.463   2.850  16.780  0.2557  0.0134  0.1002
    2TMC2    C814319   2.237   3.114  17.110  0.2448 -0.3108  0.7766
    2TMC2    O114320   2.458   2.831  16.660 -0.1949 -0.4739 -0.1079
    2TMC2    O214321   2.334   3.174  17.148  0.4088  0.0740  0.4885
    2TMC2    O514322   2.114   3.173  17.113 -0.2384 -0.1161  0.2184
    2TMC2    H514323   2.029   3.133  17.087  1.0313 -2.0630 -1.0015
    3MPD1     C14324   1.480   2.703  16.835  0.1813  0.7245 -0.6980
    3MPD1    C114325   1.500   2.820  16.894 -0.1187  0.5847 -0.5634
    3MPD1    C214326   1.634   2.858  16.914  0.0379 -0.2449  0.4404
    3MPD1    C314327   1.745   2.792  16.863  0.5072 -0.8315 -0.1197
    3MPD1    C414328   1.714   2.692  16.778 -0.0805 -0.2956  0.2520
    3MPD1    C514329   1.587   2.632  16.783  0.3374  0.3219 -0.2590
    3MPD1     H14330   1.657   2.946  16.973  2.0221 -0.3319 -0.1943
    3MPD1    H114331   1.793   2.649  16.719  0.2051 -0.3199  0.6479
    3MPD1    H214332   1.380   2.664  16.818 -0.3270  0.7535  2.2370
    3MPD1    H314333   1.561   2.538  16.736  0.2691  0.6955 -0.9734
    3MPD1     N14334   1.879   2.843  16.889  0.2842  0.0681  0.1865
    3MPD1    H514335   1.886   2.921  16.953 -1.0923 -0.3288  0.8201
    3MPD1    N114336   1.392   2.883  16.962 -0.2839  0.5808 -0.2808
    3MPD1    H614337   1.403   2.984  16.955  0.4356  0.3302 -2.8760
    3MPD1    H714338   1.299   2.853  16.936 -0.0306 -0.2103 -0.2781
    1TMC1    C114339   4.596   1.859  12.898  0.7225  0.0619  0.2103
    1TMC1    C214340   4.563   1.809  13.024 -0.5232 -0.2441  0.6838
    1TMC1    C314341   4.440   1.738  13.036  0.4307  0.2505  0.3967
    1TMC1    C414342   4.513   1.842  12.787  0.0182  0.4063  0.6299
    1TMC1    C514343   4.398   1.783  12.808 -0.1675 -0.1728 -0.0897
    1TMC1    C614344   4.350   1.731  12.927  1.2385  0.1089  0.2470
    1TMC1     C14345   4.720   1.932  12.873 -1.0227  0.6511  0.0988
    1TMC1     O14346   4.713   1.995  12.771 -0.2596  0.1385 -0.2498
    1TMC1     H14347   4.602   1.849  13.116 -1.1221  1.4718  0.1910
    1TMC1    H114348   4.545   1.875  12.689  0.0238 -0.4225  0.3495
    1TMC1    H214349   4.249   1.702  12.952 -0.0238  2.9536 -1.5960
    1TMC1    C714350   4.312   1.811  12.698 -0.2655 -0.1139  0.4753
    1TMC1    C814351   4.375   1.732  13.158  0.0981  0.2243 -0.0033
    1TMC1    O114352   4.337   1.893  12.605  0.6597  0.5559  0.2338
    1TMC1    O214353   4.256   1.767  13.174  0.1099  0.2445 -0.6321
    1TMC1    O314354   4.218   1.714  12.701  0.0567 -0.1283  0.4404
    1TMC1    H314355   4.251   1.638  12.754  1.4810  0.1064 -0.0945
    1TMC1    O514356   4.445   1.636  13.225 -0.1206  0.0774  0.2264
    1TMC1    H514357   4.518   1.604  13.168 -0.5078 -0.5363  0.0789
    2MPD2     C14358   0.255   2.044  12.839  0.3758  0.0492  0.0576
    2MPD2    C114359   0.208   1.981  12.955 -0.2901 -0.1972  0.2479
    2MPD2    C214360   0.300   1.958  13.055  0.7341 -0.0663 -0.4142
    2MPD2    C314361   0.428   2.013  13.047  0.3644 -0.3917  0.8317
    2MPD2    C414362   0.464   2.094  12.948 -0.4468  0.1538  0.2138
    2MPD2    C514363   0.383   2.104  12.843 -0.4152  0.2451  0.2866
    2MPD2     H14364   0.269   1.923  13.153 -3.0734 -0.5874 -1.7891
    2MPD2    H114365   0.558   2.146  12.939  0.9755 -2.8385 -2.0135
    2MPD2    H214366   0.201   2.049  12.745 -1.4672 -0.4248  1.0961
    2MPD2    H314367   0.415   2.156  12.754  0.5067 -1.1979 -0.2338
    2MPD2     N14368   0.517   1.992  13.154 -0.1755  0.4577 -0.1444
    2MPD2    H514369   0.485   1.945  13.238  1.6097  3.5350  2.2489
    2MPD2    N114370   0.075   1.932  12.972 -0.0119  0.2584 -0.0079
    2MPD2    H714371   0.053   1.873  13.051 -1.8901  0.4152 -0.4289
    3TCq1    O114372   0.796   2.277  13.570  0.2427 -0.4070 -0.6670
    3TCq1    C114373   0.869   2.161  13.578 -0.0927 -0.7505  0.5274
    3TCq1    O214374   0.940   2.126  13.670  0.0754 -0.0191  0.3324
    3TCq1    C214375   0.805   2.069  13.494  0.0318 -0.1146  0.6590
    3TCq1    C314376   0.809   1.940  13.534  0.5349  0.0862 -0.6244
    3TCq1    C414377   0.750   1.847  13.452  0.3764  0.2545  0.0292
    3TCq1    C514378   0.691   1.884  13.333 -0.0807  0.3196  0.2709
    3TCq1    C614379   0.698   2.016  13.303  0.3200 -0.0831  1.3864
    3TCq1    C714380   0.757   2.115  13.375  0.0834  0.2437  0.0477
    3TCq1    C814381   0.635   2.055  13.179 -0.3643  0.0781  0.1402
    3TCq1    O414382   0.688   2.144  13.115  0.0164 -0.0910  0.1356
    3TCq1    C914383   0.756   1.705  13.478 -0.0524  0.1314 -0.3807
    3TCq1    O514384   0.840   1.675  13.571 -0.5718 -0.4394 -0.3719
    3TCq1    O614385   0.711   1.633  13.383 -0.7118  0.5731 -0.2387
    3TCq1    H114386   0.727   2.270  13.500  0.4807  1.1958 -1.0502
    3TCq1    H214387   0.847   1.914  13.633  1.0884  0.7977 -0.6575
    3TCq1    H314388   0.660   1.811  13.259 -0.1722 -1.0775  1.6887
    3TCq1    H414389   0.760   2.219  13.343 -1.1976 -0.4435 -2.2823
    1MPD2     C14390   4.226   2.608  15.319  0.0090 -0.3273  0.6256
    1MPD2    C114391   4.118   2.524  15.292  0.2762  0.2029  0.2209
    1MPD2    C214392   4.142   2.399  15.237 -0.4369 -0.3233  0.1777
    1MPD2    C314393   4.266   2.352  15.201  0.3774 -0.8879 -1.3874
    1MPD2    C414394   4.367   2.443  15.213  0.2680  0.7905  0.1462
    1MPD2    C514395   4.349   2.560  15.288  0.4249  0.1365 -0.4295
    1MPD2     H14396   4.069   2.325  15.208  0.2025 -1.2381  0.9207
    1MPD2    H114397   4.462   2.422  15.165  1.0163  1.1327  1.4839
    1MPD2    H214398   4.210   2.703  15.368 -0.1754  0.3486 -0.7426
    1MPD2    H314399   4.435   2.620  15.315 -0.1714  1.2144 -0.9092
    1MPD2     N14400   4.282   2.225  15.146  0.8325  0.4364 -0.4893
    1MPD2    H514401   4.202   2.167  15.171  0.3066  0.8612 -1.1987
    1MPD2    N114402   3.997   2.579  15.332 -0.6467  0.3312 -0.4294
    1MPD2    H714403   3.997   2.679  15.347  1.4994  0.8236 -3.8233
    2TMC3    C114404   3.751   2.564  15.350  0.3736 -0.2732  0.3481
    2TMC3    C214405   3.654   2.464  15.361  0.8079 -0.0646 -0.3838
    2TMC3    C314406   3.546   2.472  15.279 -0.3474  0.0071  0.3238
    2TMC3    C414407   3.745   2.669  15.260  0.1510  1.0739  0.2535
    2TMC3    C514408   3.631   2.680  15.189  0.0594  0.3256 -0.0650
    2TMC3    C614409   3.535   2.591  15.202  0.2917  0.3270 -0.7545
    2TMC3     C14410   3.884   2.498  15.337 -0.5152 -0.0514  0.3366
    2TMC3     O14411   3.878   2.376  15.329  0.6141 -0.1059 -0.0903
    2TMC3     H14412   3.656   2.377  15.425  0.5548 -0.1248 -0.4584
    2TMC3    H114413   3.834   2.721  15.228 -0.1222  1.0836 -0.5034
    2TMC3    H214414   3.464   2.600  15.120 -0.3070  2.2339 -0.0523
    2TMC3    C714415   3.618   2.785  15.087  0.2276  0.2125 -0.3749
    2TMC3    C814416   3.525   2.352  15.192  0.6940  1.0252  0.6257
    2TMC3    O114417   3.516   2.783  15.021  0.5887 -0.2666  0.1768
    2TMC3    O214418   3.413   2.328  15.142 -0.5270 -0.6508 -0.5601
    3TCq1    O114419   4.313   3.637  14.640  0.3054  0.2328 -0.6963
    3TCq1    C114420   4.369   3.630  14.760 -0.2821 -0.4296 -0.6468
    3TCq1    O214421   4.477   3.668  14.795 -0.8982  0.3603  0.3416
    3TCq1    C214422   4.269   3.581  14.853  0.9484  0.1402  0.5131
    3TCq1    C314423   4.298   3.582  14.987 -0.1064  0.0427 -0.0053
    3TCq1    C414424   4.210   3.523  15.080  0.0768 -0.1272  0.5309
    3TCq1    C514425   4.092   3.460  15.041 -0.5369  0.3038  0.2043
    3TCq1    C614426   4.061   3.469  14.908  0.0726 -0.1768  0.3815
    3TCq1    C714427   4.146   3.528  14.814 -0.1652  0.5924 -0.5952
    3TCq1    C814428   3.966   3.374  14.849 -0.0885  0.4449  0.2419
    3TCq1    O414429   3.944   3.385  14.730  0.1209 -0.2344  0.2841
    3TCq1    C914430   4.250   3.509  15.218 -0.7386  0.5491 -0.6690
    3TCq1    O514431   4.205   3.413  15.284 -0.0241 -0.2797 -0.0722
    3TCq1    O614432   4.302   3.611  15.276 -0.1835 -0.0813  0.3235
    3TCq1    H114433   4.216   3.642  14.651  0.1000  0.3390 -2.5612
    3TCq1    H214434   4.393   3.622  15.022  0.5345 -2.2875  0.8747
    3TCq1    H314435   4.040   3.413  15.124 -0.2225 -2.8993 -1.4025
    3TCq1    H414436   4.128   3.509  14.708 -0.2843  1.1323 -0.6692
    4MPD2     C14437   3.789   3.151  14.786  0.3157 -0.1503 -0.0726
    4MPD2    C114438   3.854   3.162  14.912 -0.1208  0.0279  0.1277
    4MPD2    C214439   3.824   3.078  15.023  0.4497  0.2894  0.1029
    4MPD2    C314440   3.735   2.973  14.992  0.8384 -0.1972  0.5831
    4MPD2    C414441   3.675   2.957  14.864 -0.0602 -0.5622  0.1406
    4MPD2    C514442   3.702   3.050  14.763  0.6452  0.2217 -0.5549
    4MPD2     H14443   3.876   3.083  15.118 -1.0029  0.3641  0.8935
    4MPD2    H114444   3.614   2.871  14.842 -1.1071  0.5976 -1.4596
    4MPD2    H214445   3.816   3.212  14.700  0.2299  0.4295  0.3094
    4MPD2    H314446   3.664   3.033  14.663  0.7010 -1.2228 -0.3244
    4MPD2     N14447   3.713   2.880  15.097  0.4194  0.7100 -0.1817
    4MPD2    H514448   3.779   2.872  15.174 -0.9207  1.2496  1.0202
    4MPD2    N114449   3.944   3.272  14.938  0.2083 -0.4025 -0.2328
    4MPD2    H714450   4.003   3.266  15.021  1.6453 -1.2444 -1.3214
    5TMC2    C114451   4.183   1.922  14.926 -0.0402  0.6874 -0.4350
    5TMC2    C214452   4.265   1.897  14.821 -0.8184 -0.3465  0.0987
    5TMC2    C314453   4.397   1.934  14.821  0.4026 -0.0739  0.5233
    5TMC2    C414454   4.237   1.989  15.041  0.3359  0.6377 -0.9834
    5TMC2    C514455   4.368   2.038  15.034 -0.2876 -0.0363  0.3904
    5TMC2    C614456   4.450   2.007  14.928  0.2489  0.5193  0.1394
    5TMC2     C14457   4.046   1.921  14.906  0.8338 -0.5212 -0.0995
    5TMC2     O14458   3.998   1.849  14.820  0.3943  0.0569  0.4041
    5TMC2     H14459   4.221   1.845  14.737  0.0460 -3.4030  1.5332
    5TMC2    H114460   4.179   1.992  15.132  1.0667 -1.1307 -0.4604
    5TMC2    H214461   4.556   2.029  14.921  0.1711  1.1511  0.9552
    5TMC2    C714462   4.390   2.170  15.085 -0.3029 -0.3034 -0.4585
    5TMC2    C814463   4.470   1.910  14.700 -0.4284 -0.0262  0.0182
    5TMC2    O114464   4.508   2.209  15.085 -0.1466 -0.4761 -0.8349
    5TMC2    O214465   4.460   1.801  14.648 -0.0117  0.1587  0.0445
    5TMC2    O514466   4.589   1.973  14.714 -0.2391 -0.5109 -0.0183
    5TMC2    H514467   4.586   2.059  14.761 -0.9388 -1.3729  1.5064
    6MPD2     C14468   3.584   2.110  15.041  0.2860 -0.2153  0.1479
    6MPD2    C114469   3.679   2.191  15.096 -0.3308 -1.1922  0.0423
    6MPD2    C214470   3.811   2.154  15.075  0.6688  0.1935 -0.8449
    6MPD2    C314471   3.852   2.040  15.001 -0.5415  0.1222 -0.1054
    6MPD2    C414472   3.756   1.970  14.932 -0.4083 -0.1788  0.9941
    6MPD2    C514473   3.624   2.002  14.966  0.3977  0.7026 -0.5423
    6MPD2     H14474   3.884   2.218  15.123 -0.6162  1.2313 -0.2572
    6MPD2    H114475   3.768   1.898  14.852 -2.0622 -0.6460  1.1595
    6MPD2    H214476   3.477   2.121  15.052 -0.2941 -2.0265 -3.7519
    6MPD2    H314477   3.553   1.933  14.922  0.5505 -0.0072  0.3254
    6MPD2     N14478   3.990   2.016  14.984 -0.8037 -0.2287  0.2144
    6MPD2    H514479   4.045   2.078  15.043  1.4747 -1.9210 -0.1533
    6MPD2    N114480   3.650   2.294  15.181 -0.2507  0.0764  0.6424
    6MPD2    H714481   3.726   2.329  15.238 -1.1768  0.8290  1.4140
  945NH3     N114482   3.754   2.502  15.967 -0.0155 -0.0900  0.4588
  945NH3     H214483   3.751   2.403  15.990 -1.7489 -0.6302 -2.1635
  945NH3     H314484   3.849   2.533  15.983  0.6875 -2.2699  0.5788
  945NH3     H414485   3.757   2.495  15.866 -0.8034  1.1117  0.3508
  946SOD     NA14486   1.510   3.518  15.026 -0.1304 -0.1655 -0.3465
  947SOD     NA14487   4.672   0.708  12.795  0.2544  0.1822 -0.2393
  948SOD     NA14488   4.049   2.638   6.980  0.3937  0.7129  1.0429
  949SOD     NA14489   0.922   4.405   6.995  0.1883  0.2806  0.3348
  950SOD     NA14490   2.634   1.294  12.241 -0.2301  0.3433  0.1594
  951SOD     NA14491   0.244   0.823   8.453 -0.2607  0.3912 -0.1320
  952SOD     NA14492   4.420   2.031  15.554  0.2010 -0.3181  0.1532
  953SOD     NA14493   0.810   0.507  16.820 -0.4915  0.1727  0.5813
  954SOL     OW14494   0.943   3.068   8.746  0.2765 -0.1721 -0.2235
  954SOL    HW114495   0.983   3.002   8.690  1.7521  0.2910  0.2673
  954SOL    HW214496   0.855   3.051   8.714  0.8126 -0.5947 -1.4946
  955SOL     OW14497   3.741   4.368   4.415  0.0040 -0.0170 -0.8051
  955SOL    HW114498   3.701   4.444   4.372 -1.0770 -1.9621 -3.1906
  955SOL    HW214499   3.670   4.309   4.441  1.1470 -0.7674  0.5910
  956SOL     OW14500   4.677   4.377   3.604 -0.0623  0.3022 -0.5432
  956SOL    HW114501   4.613   4.328   3.656  0.4075  1.8750  1.5115
  956SOL    HW214502   0.026   4.346   3.636 -1.5228 -1.8761  1.1955
  957SOL     OW14503   3.034   1.727   0.654  0.0834 -0.1921  0.8166
  957SOL    HW114504   3.012   1.635   0.669  1.3397 -0.2092  2.5799
  957SOL    HW214505   3.126   1.735   0.679  0.2508 -0.7767  0.3892
  958SOL     OW14506   0.727   1.900   4.088 -0.2867 -0.1360 -0.7279
  958SOL    HW114507   0.646   1.852   4.109 -0.4152 -0.0217 -0.9687
  958SOL    HW214508   0.762   1.834   4.028 -2.1059 -1.0213 -0.8446
  959SOL     OW14509   0.295   3.911   4.041  0.0596  0.0750 -0.7096
  959SOL    HW114510   0.297   3.824   4.082  2.3185 -0.0283 -1.0236
  959SOL    HW214511   0.389   3.926   4.034  0.1993  0.2754  1.6164
  960SOL     OW14512   4.663   1.729   3.979 -0.2234 -0.2587  0.0610
  960SOL    HW114513   4.590   1.719   3.918 -0.1098 -0.0769 -0.1045
  960SOL    HW214514   4.621   1.770   4.054 -1.1491 -0.7572 -0.1878
  961SOL     OW14515   0.101   3.773  13.946 -0.4721  0.5866  0.0055
  961SOL    HW114516   0.138   3.785  14.034  2.0513 -1.0593 -0.8299
  961SOL    HW214517   0.160   3.833  13.900  0.9776  1.8976  3.4884
  962SOL     OW14518   2.194   0.396   6.696 -0.4659  0.0852 -0.6702
  962SOL    HW114519   2.126   0.362   6.754  0.6463 -0.3971  0.3560
  962SOL    HW214520   2.143   0.475   6.676  3.1129  2.9579  1.3657
  963SOL     OW14521   0.625   2.738   2.374 -0.8046 -0.1366  0.1670
  963SOL    HW114522   0.552   2.681   2.350 -2.1866  1.3340  0.8369
  963SOL    HW214523   0.683   2.685   2.429 -1.2226 -3.6151 -2.7723
  964SOL     OW14524   0.164   4.709  17.619  0.8692 -0.3429  0.0020
  964SOL    HW114525   0.136   4.637  17.563  0.8042  1.5635 -2.4246
  964SOL    HW214526   0.234   4.736  17.559 -1.2217 -0.3760 -2.4563
  965SOL     OW14527   1.798   0.413   6.415  0.0799 -0.1023 -0.1034
  965SOL    HW114528   1.836   0.484   6.467  0.0900 -1.4709  1.7247
  965SOL    HW214529   1.835   0.425   6.327 -1.5259 -0.1938 -0.7881
  966SOL     OW14530   3.496   4.139   9.301 -0.4220  0.5621  0.6997
  966SOL    HW114531   3.562   4.072   9.282 -0.9622  0.8112 -2.0000
  966SOL    HW214532   3.420   4.082   9.311  2.1569 -2.4193  3.0626
  967SOL     OW14533   2.523   1.392   5.027  0.1083 -0.9797  0.2587
  967SOL    HW114534   2.585   1.323   5.005  0.8796 -0.6174  1.3082
  967SOL    HW214535   2.469   1.398   4.948 -1.4989  1.9578  1.5792
  968SOL     OW14536   3.896   1.106   6.823  0.1635 -0.1143 -0.4788
  968SOL    HW114537   3.941   1.071   6.746  0.0560 -3.4086  0.9829
  968SOL    HW214538   3.963   1.130   6.887  0.6828 -2.9618  0.0286
  969SOL     OW14539   1.609   3.596   8.783 -0.1486  0.4638  0.4030
  969SOL    HW114540   1.653   3.570   8.702 -0.4117  1.1790  0.0374
  969SOL    HW214541   1.530   3.637   8.749 -0.7347 -1.1118 -0.1268
  970SOL     OW14542   4.325   4.339   3.351 -0.0641  0.1888  0.0621
  970SOL    HW114543   4.411   4.312   3.385  0.8843  1.6844 -1.1787
  970SOL    HW214544   4.264   4.327   3.424  1.1840 -1.8257  0.7734
  971SOL     OW14545   3.171   0.814   4.207 -0.5781 -0.6721  0.0998
  971SOL    HW114546   3.191   0.733   4.254  0.7206  1.0540  2.5158
  971SOL    HW214547   3.075   0.811   4.202 -0.4647 -2.6076 -0.9828
  972SOL     OW14548   0.846   3.198   8.038  0.6092  0.1481 -0.6512
  972SOL    HW114549   0.913   3.178   8.104 -2.1371 -2.0244  1.5018
  972SOL    HW214550   0.904   3.244   7.978 -3.0236  3.4873 -1.6358
  973SOL     OW14551   0.401   1.219   8.003  0.6892  0.0047  0.1631
  973SOL    HW114552   0.375   1.233   8.093  0.8511 -1.0760  0.3684
  973SOL    HW214553   0.413   1.310   7.972 -3.1815  1.5708  3.3708
  974SOL     OW14554   4.690   2.520   6.854  0.4553 -0.3263  0.3296
  974SOL    HW114555   4.659   2.448   6.910  0.7132 -1.8890 -1.5595
  974SOL    HW214556   0.036   2.545   6.898  1.1430 -0.8234 -0.6568
  975SOL     OW14557   0.222   3.530  16.653 -0.0744  0.0194 -0.6885
  975SOL    HW114558   0.247   3.500  16.566  0.9882  0.8164 -0.6585
  975SOL    HW214559   0.191   3.618  16.631 -0.4515 -0.2193 -1.1181
  976SOL     OW14560   1.030   0.671   5.955  0.3594 -0.0151  0.1846
  976SOL    HW114561   1.043   0.687   5.862 -0.9362  0.1036  0.0251
  976SOL    HW214562   1.052   0.578   5.964 -3.5165 -0.9157  0.4293
  977SOL     OW14563   3.514   0.724  13.608  0.5226  0.0304  0.0926
  977SOL    HW114564   3.553   0.681  13.532 -1.8654  1.0107 -1.6857
  977SOL    HW214565   3.423   0.700  13.593  0.5302 -0.5499  1.0667
  978SOL     OW14566   0.952   3.508   1.461 -0.0908  0.0053  0.1977
  978SOL    HW114567   0.917   3.490   1.374  1.1793  2.3185 -0.7956
  978SOL    HW214568   1.040   3.541   1.445 -0.2185 -0.8900 -2.4140
  979SOL     OW14569   2.489   0.461   4.534  0.1925  0.0490  0.5683
  979SOL    HW114570   2.492   0.466   4.629  0.2339  0.7393  0.5302
  979SOL    HW214571   2.410   0.508   4.507  0.4921  1.5335  2.2868
  980SOL     OW14572   2.407   0.973   8.977  0.0734  0.6746 -0.7678
  980SOL    HW114573   2.355   1.010   9.049  0.6038  0.6525 -0.3775
  980SOL    HW214574   2.329   0.931   8.940 -0.0742  0.8426 -0.6501
  981SOL     OW14575   1.452   3.374   2.730  0.5354 -0.2213  0.3501
  981SOL    HW114576   1.526   3.419   2.690  0.0466  2.5982  2.5559
  981SOL    HW214577   1.512   3.319   2.779  2.2538 -1.2114 -2.9314
  982SOL     OW14578   2.711   4.114   3.048  0.2465 -0.6128 -0.2932
  982SOL    HW114579   2.731   4.031   3.006 -1.8644 -1.4929  0.4324
  982SOL    HW214580   2.661   4.164   2.984  0.2337  1.5546  1.3925
  983SOL     OW14581   2.311   3.696  14.206  0.4997 -0.0820  0.5527
  983SOL    HW114582   2.358   3.768  14.165 -0.3981 -0.4245 -1.0731
  983SOL    HW214583   2.367   3.619  14.193  1.1026  0.3821  0.4102
  984SOL     OW14584   4.469   2.567  10.911 -0.6338 -0.4011 -0.1169
  984SOL    HW114585   4.414   2.525  10.846 -1.4452  2.0398 -0.9732
  984SOL    HW214586   4.537   2.499  10.905 -1.1282 -0.9519  0.4868
  985SOL     OW14587   0.052   3.857   2.351  0.5120 -0.2774  0.2133
  985SOL    HW114588   0.132   3.893   2.313 -0.0052  1.8350  1.1258
  985SOL    HW214589   4.727   3.921   2.315 -1.5639 -0.2391  3.8125
  986SOL     OW14590   0.670   4.357  13.476  0.2668  0.1475 -0.2295
  986SOL    HW114591   0.583   4.321  13.463 -0.3908  1.7221 -0.1919
  986SOL    HW214592   0.721   4.277  13.468  0.2882 -0.0119  1.4020
  987SOL     OW14593   2.138   2.728  13.435 -0.2402 -0.0793  0.2986
  987SOL    HW114594   2.194   2.804  13.451  1.6145 -0.8683 -2.5213
  987SOL    HW214595   2.204   2.664  13.459 -0.7125  0.0396  1.8918
  988SOL     OW14596   0.248   3.890  17.347 -0.0366  0.0404  0.3965
  988SOL    HW114597   0.315   3.867  17.282  1.5699 -0.2611  2.1468
  988SOL    HW214598   0.213   3.803  17.369  0.9203 -0.7013 -0.9923
  989SOL     OW14599   2.751   1.051  11.944  0.6324 -0.0765 -0.0937
  989SOL    HW114600   2.764   0.986  11.875  4.0807  0.9229 -0.3865
  989SOL    HW214601   2.656   1.055  11.937  0.5687 -0.2260  0.6448
  990SOL     OW14602   3.350   4.412   6.822  0.6429  0.6289 -0.4180
  990SOL    HW114603   3.415   4.460   6.771  2.5411 -0.5272  0.8909
  990SOL    HW214604   3.376   4.320   6.819 -0.6438  0.2112  1.0426
  991SOL     OW14605   2.951   0.779   9.686  0.1023 -0.0019  0.2543
  991SOL    HW114606   3.027   0.832   9.660 -0.5447  1.1341  0.6705
  991SOL    HW214607   2.951   0.793   9.781  0.2952  4.0960 -0.3358
  992SOL     OW14608   0.592   2.960   6.520 -0.2547  0.0479 -0.3198
  992SOL    HW114609   0.564   3.012   6.595 -1.7927  0.1060 -0.9497
  992SOL    HW214610   0.597   3.017   6.443  0.0301 -0.3139 -0.5751
  993SOL     OW14611   0.128   4.647   4.538  0.3869 -0.0427 -0.2675
  993SOL    HW114612   0.211   4.660   4.584 -0.6836  0.4900  1.4905
  993SOL    HW214613   0.162   4.632   4.449 -1.6074 -1.9550 -0.6908
  994SOL     OW14614   0.305   4.119  17.509 -0.2048 -0.5795 -0.1455
  994SOL    HW114615   0.271   4.066  17.437 -2.1854  0.7728 -0.2181
  994SOL    HW214616   0.385   4.069  17.524  0.2467  1.0263  2.9557
  995SOL     OW14617   1.635   2.709   6.415 -0.5294 -0.3710 -0.2418
  995SOL    HW114618   1.587   2.643   6.365 -1.9879 -1.7112  2.9034
  995SOL    HW214619   1.713   2.725   6.361  0.5088  1.6725  1.8632
  996SOL     OW14620   1.138   2.874   8.625 -0.3534  0.6353  0.2120
  996SOL    HW114621   1.117   2.785   8.655 -0.7389  0.2958 -1.0708
  996SOL    HW214622   1.124   2.872   8.530 -1.8678 -0.3863  0.4557
  997SOL     OW14623   1.418   0.324   1.079 -0.5327  0.0642  0.1359
  997SOL    HW114624   1.501   0.282   1.055 -1.3901 -1.8593  0.5299
  997SOL    HW214625   1.379   0.253   1.130  0.7720  1.1151  2.5765
  998SOL     OW14626   0.840   1.557  14.434 -0.3687 -0.1862 -0.5902
  998SOL    HW114627   0.854   1.509  14.352  0.4818 -0.0809 -0.5019
  998SOL    HW214628   0.930   1.580  14.457 -0.3459  1.0053 -1.8059
  999SOL     OW14629   3.406   4.190   8.973  0.2747 -0.3172  0.1882
  999SOL    HW114630   3.375   4.181   9.063 -0.0678 -2.2523 -0.1112
  999SOL    HW214631   3.454   4.108   8.958 -0.0531 -0.2790 -1.0622
 1000SOL     OW14632   4.398   1.719   7.624 -0.1960  0.1965 -0.0750
 1000SOL    HW114633   4.328   1.674   7.671  0.7889 -0.2906  0.9194
 1000SOL    HW214634   4.463   1.650   7.633  0.4686  0.8842  0.3762
 1001SOL     OW14635   0.459   4.289   0.828  0.1639 -0.0401  0.3326
 1001SOL    HW114636   0.514   4.340   0.769  1.1432 -0.6821  0.6856
 1001SOL    HW214637   0.482   4.330   0.911  0.5905 -0.1480  0.2672
 1002SOL     OW14638   4.428   1.431   6.487 -0.1874  0.6376  0.0149
 1002SOL    HW114639   4.475   1.481   6.554 -1.3107  2.2257 -0.3927
 1002SOL    HW214640   4.441   1.473   6.402 -0.5679 -3.6258 -2.1344
 1003SOL     OW14641   1.509   3.010   1.049  0.4649  0.4738  0.3670
 1003SOL    HW114642   1.559   2.968   1.119  1.3629  1.1198  0.1052
 1003SOL    HW214643   1.506   3.099   1.085  0.2037  1.3822 -1.8944
 1004SOL     OW14644   4.088   0.472   1.771  0.3647 -0.2356 -0.5760
 1004SOL    HW114645   4.107   0.561   1.804 -2.5392 -0.2846  1.2161
 1004SOL    HW214646   4.030   0.493   1.698  1.9764 -0.4799 -1.9346
 1005SOL     OW14647   2.410   3.126   7.264 -0.0689 -0.4540  0.7222
 1005SOL    HW114648   2.347   3.064   7.302 -1.0760  0.3776  0.4164
 1005SOL    HW214649   2.490   3.079   7.242 -0.6973 -0.9250 -0.5578
 1006SOL     OW14650   1.757   1.671   7.519  0.1788  0.0637  0.4665
 1006SOL    HW114651   1.782   1.763   7.510 -0.0081  0.0574 -0.1376
 1006SOL    HW214652   1.843   1.635   7.495  0.3612  0.7415  0.1096
 1007SOL     OW14653   2.900   4.300   8.957 -0.5624  0.0683  0.5066
 1007SOL    HW114654   2.935   4.239   8.892 -0.8059 -0.9014  1.2789
 1007SOL    HW214655   2.922   4.381   8.912  0.5336  0.1824  1.2468
 1008SOL     OW14656   1.670   0.459   4.950  0.3144  0.2485  0.0680
 1008SOL    HW114657   1.661   0.498   5.037  0.6502  0.4598  0.0095
 1008SOL    HW214658   1.752   0.502   4.924 -1.2089  3.1337  0.0762
 1009SOL     OW14659   1.351   4.371   9.322  0.1352 -0.2026  0.6724
 1009SOL    HW114660   1.356   4.292   9.269 -4.0153  1.5451 -2.3217
 1009SOL    HW214661   1.271   4.355   9.372  1.0497 -1.1184  1.8160
 1010SOL     OW14662   2.477   2.186   5.277  0.2301  0.7343  0.1766
 1010SOL    HW114663   2.461   2.223   5.364 -1.6544 -2.8230  1.3690
 1010SOL    HW214664   2.569   2.162   5.288 -0.2642 -0.7612  1.1008
 1011SOL     OW14665   2.963   2.154   8.011  0.0254 -0.0539 -0.1575
 1011SOL    HW114666   2.966   2.152   7.915 -1.9267 -0.2558 -0.2029
 1011SOL    HW214667   3.018   2.078   8.031  1.9339  1.1319 -0.8521
 1012SOL     OW14668   1.349   0.802   6.427 -0.4215  0.1278  0.0216
 1012SOL    HW114669   1.388   0.749   6.357  2.0089  0.9554  0.7399
 1012SOL    HW214670   1.423   0.849   6.466 -0.7427  0.2549  0.4717
 1013SOL     OW14671   2.115   4.699   5.914 -0.1940 -0.2266  0.2325
 1013SOL    HW114672   2.104   4.662   5.826 -0.5435 -1.0562  0.6292
 1013SOL    HW214673   2.188   0.023   5.902 -1.2364  1.0978  0.5632
 1014SOL     OW14674   2.159   1.843   7.943  0.4047 -0.4301 -0.3595
 1014SOL    HW114675   2.136   1.930   7.975 -1.4146 -1.6815  1.6959
 1014SOL    HW214676   2.218   1.807   8.008 -0.0473  0.1633  0.3807
 1015SOL     OW14677   4.618   4.536   9.965 -0.1109  0.1319  0.0042
 1015SOL    HW114678   4.603   4.485   9.885  2.1202  0.1868 -0.4323
 1015SOL    HW214679   4.652   4.470  10.025 -2.6706 -0.4330  0.8359
 1016SOL     OW14680   4.051   2.692   7.228 -0.1673 -0.2161 -1.0705
 1016SOL    HW114681   4.135   2.688   7.275 -1.1108  0.8550  0.6818
 1016SOL    HW214682   3.982   2.696   7.294 -1.1801  0.7580 -2.1933
 1017SOL     OW14683   0.921   1.556   4.316  0.1511 -0.4534  0.6546
 1017SOL    HW114684   0.960   1.616   4.252 -0.1472 -1.3328 -0.3323
 1017SOL    HW214685   0.972   1.476   4.304 -1.1463 -0.9278 -1.5961
 1018SOL     OW14686   4.528   0.159   1.410  0.2842  0.2165 -0.5270
 1018SOL    HW114687   4.474   0.238   1.422 -1.1232 -0.9169  0.6426
 1018SOL    HW214688   4.513   0.143   1.317  3.9060 -1.5608 -0.7954
 1019SOL     OW14689   1.271   2.698  15.033 -0.5268 -0.3436 -0.1617
 1019SOL    HW114690   1.267   2.789  15.061  0.9855 -0.0964 -0.7634
 1019SOL    HW214691   1.349   2.669  15.081 -0.0874  1.1551  0.0137
 1020SOL     OW14692   2.958   3.704   7.117 -0.6198 -0.3483  0.7774
 1020SOL    HW114693   2.968   3.642   7.189 -0.2408  0.9147  1.8047
 1020SOL    HW214694   3.031   3.677   7.061 -1.0430  1.8700 -0.8881
 1021SOL     OW14695   2.829   2.815   9.131 -0.0800 -0.2633 -0.1550
 1021SOL    HW114696   2.914   2.796   9.171 -0.3355  2.0932  1.5082
 1021SOL    HW214697   2.840   2.801   9.038  0.3618 -0.1270 -0.1204
 1022SOL     OW14698   1.820   0.960   6.294  0.4987  0.1619 -0.2623
 1022SOL    HW114699   1.880   0.964   6.220 -1.8362 -0.1336 -2.1697
 1022SOL    HW214700   1.758   0.896   6.260  0.1442 -0.9439  2.4937
 1023SOL     OW14701   1.556   0.841   6.842 -0.3939  0.0743  0.5516
 1023SOL    HW114702   1.571   0.913   6.904  0.0628  0.5259 -0.0871
 1023SOL    HW214703   1.461   0.841   6.833 -0.1646  0.2807 -1.6840
 1024SOL     OW14704   1.622   1.653   5.037 -0.0145  0.1257 -0.3875
 1024SOL    HW114705   1.557   1.717   5.006 -2.0340 -1.2724  0.9193
 1024SOL    HW214706   1.684   1.657   4.964  0.5493 -0.1401  0.0807
 1025SOL     OW14707   0.631   0.782   8.685 -0.2183 -0.1457 -0.2194
 1025SOL    HW114708   0.642   0.716   8.753  0.4952 -0.1783 -0.3620
 1025SOL    HW214709   0.721   0.800   8.659  0.1132 -1.6567 -0.1076
 1026SOL     OW14710   3.960   0.809   1.710  0.4117  0.2113 -0.1853
 1026SOL    HW114711   3.957   0.732   1.653  0.9933 -0.8575  1.2464
 1026SOL    HW214712   3.892   0.797   1.775  0.3895 -0.1657 -0.2818
 1027SOL     OW14713   1.720   1.894   6.470 -0.3178 -0.1398 -0.4521
 1027SOL    HW114714   1.810   1.883   6.499 -1.2473 -0.7691  2.2146
 1027SOL    HW214715   1.677   1.923   6.551  0.5838 -0.4848  0.1581
 1028SOL     OW14716   1.071   2.273   6.619 -0.2252  0.0325  0.0510
 1028SOL    HW114717   1.065   2.239   6.708 -0.2337  0.4375  0.2023
 1028SOL    HW214718   1.010   2.346   6.631 -0.3678  0.0652 -0.8342
 1029SOL     OW14719   4.198   0.289  17.249 -0.4080  0.1499  0.0291
 1029SOL    HW114720   4.210   0.379  17.219  2.3066 -0.9176 -2.0935
 1029SOL    HW214721   4.133   0.253  17.189 -0.6516 -3.2739  2.3262
 1030SOL     OW14722   0.224   1.782  17.126 -0.2458 -0.4809  0.9757
 1030SOL    HW114723   0.148   1.726  17.111  0.2916  0.0856 -3.8581
 1030SOL    HW214724   0.290   1.749  17.065  0.2903  0.8034  0.8535
 1031SOL     OW14725   3.207   2.060   9.893 -0.0649  0.2883 -0.0202
 1031SOL    HW114726   3.117   2.027   9.892 -0.5011  1.4911 -0.3948
 1031SOL    HW214727   3.192   2.143   9.938  2.9047  1.8561 -1.9066
 1032SOL     OW14728   0.346   1.610  16.936 -0.4205 -0.5665 -0.1315
 1032SOL    HW114729   0.326   1.627  16.844 -2.2835  1.5004  0.6515
 1032SOL    HW214730   0.432   1.570  16.942 -0.4456 -0.8233 -1.5311
 1033SOL     OW14731   2.864   0.940   5.181  0.4642 -0.1380 -0.8734
 1033SOL    HW114732   2.889   0.865   5.235 -2.5859 -0.3242  0.2734
 1033SOL    HW214733   2.779   0.957   5.220 -0.1528  1.1352 -2.7940
 1034SOL     OW14734   2.549   4.187   0.671 -0.2007  0.0870 -0.0719
 1034SOL    HW114735   2.556   4.279   0.647 -2.3815 -0.1692 -1.7115
 1034SOL    HW214736   2.635   4.167   0.708  0.1528 -0.2422 -1.0699
 1035SOL     OW14737   3.959   0.898   8.602 -0.2425  0.5398  0.1184
 1035SOL    HW114738   4.007   0.831   8.554 -3.5158 -0.6520 -1.4814
 1035SOL    HW214739   3.890   0.847   8.644  0.6172 -1.7263 -1.2167
 1036SOL     OW14740   2.520   3.683   3.623 -0.9444  0.4164  0.1751
 1036SOL    HW114741   2.515   3.776   3.600  3.3127  0.6326  0.0976
 1036SOL    HW214742   2.454   3.679   3.692 -1.4781 -1.8395 -0.4744
 1037SOL     OW14743   2.910   0.094   3.284  0.2657  0.1793  0.0283
 1037SOL    HW114744   2.912   0.011   3.235  0.8018  0.8219 -1.0302
 1037SOL    HW214745   2.987   0.140   3.251 -0.0394 -0.3840 -1.4634
 1038SOL     OW14746   4.140   0.243   5.916  0.3295  0.5562 -0.0772
 1038SOL    HW114747   4.093   0.323   5.891 -1.3821 -0.5877 -0.5794
 1038SOL    HW214748   4.106   0.225   6.004  0.6068 -0.1748 -0.1201
 1039SOL     OW14749   4.583   1.904   1.104 -0.2854 -0.0860  0.0058
 1039SOL    HW114750   4.554   1.833   1.047  2.5227 -0.6223 -0.7433
 1039SOL    HW214751   4.497   1.926   1.140  0.5513  2.5149  0.4538
 1040SOL     OW14752   3.786   1.340   7.251  0.2601 -0.5811 -0.2862
 1040SOL    HW114753   3.762   1.247   7.247 -0.0515 -0.6178  2.3184
 1040SOL    HW214754   3.777   1.375   7.163 -1.4086 -2.9825 -1.0808
 1041SOL     OW14755   3.024   0.358  12.846  0.4792 -0.4120  0.6590
 1041SOL    HW114756   3.029   0.398  12.933  0.5961 -1.1162  0.9767
 1041SOL    HW214757   3.012   0.440  12.798  0.8777  0.1377  1.4920
 1042SOL     OW14758   2.075   0.712  14.709 -0.2499 -0.1385 -0.1496
 1042SOL    HW114759   2.139   0.762  14.658 -0.0734 -1.6645 -1.4244
 1042SOL    HW214760   2.003   0.702  14.647  1.2938  0.3469 -2.0060
 1043SOL     OW14761   4.558   0.280   4.652 -0.1536  0.6797 -0.2524
 1043SOL    HW114762   4.651   0.281   4.678  0.3026 -1.1433 -1.8377
 1043SOL    HW214763   4.546   0.368   4.617 -0.9532  0.4681 -0.4911
 1044SOL     OW14764   1.413   0.411  12.052 -0.1339 -0.2402  0.4019
 1044SOL    HW114765   1.369   0.465  11.985  1.1509  0.4884  0.1477
 1044SOL    HW214766   1.482   0.383  11.991  1.4931  1.3209  1.5286
 1045SOL     OW14767   3.305   1.878  16.325  0.3319  0.0839 -0.5212
 1045SOL    HW114768   3.215   1.874  16.355  1.2395  0.2049  2.1503
 1045SOL    HW214769   3.297   1.964  16.283  0.6447  1.5731  2.4908
 1046SOL     OW14770   1.704   0.737  16.932 -0.8469 -0.1862 -0.7970
 1046SOL    HW114771   1.672   0.665  16.986 -0.6674  0.0413 -0.3923
 1046SOL    HW214772   1.747   0.794  16.995 -2.1596 -0.6167  0.4973
 1047SOL     OW14773   3.316   0.405  17.638 -0.1081 -0.2383  0.2550
 1047SOL    HW114774   3.314   0.478  17.577  1.3193 -1.5664 -1.3654
 1047SOL    HW214775   3.245   0.429  17.698 -1.0490 -0.6497 -0.7012
 1048SOL     OW14776   3.366   1.735   8.474 -0.5704  0.1890  0.2045
 1048SOL    HW114777   3.345   1.656   8.424  0.7917  0.5302 -0.9262
 1048SOL    HW214778   3.281   1.750   8.515 -1.0191  1.4999 -1.2215
 1049SOL     OW14779   1.038   3.536   7.568 -0.4749  0.3491 -0.4822
 1049SOL    HW114780   1.098   3.488   7.626 -2.6376 -1.0984  0.5547
 1049SOL    HW214781   1.077   3.623   7.559 -0.2542  0.3864  0.8859
 1050SOL     OW14782   0.122   0.828  16.001  0.2720 -0.4341  0.3745
 1050SOL    HW114783   0.149   0.782  15.922 -0.2229 -1.7729  0.9731
 1050SOL    HW214784   0.146   0.914  15.969  0.5285 -0.6205  0.0729
 1051SOL     OW14785   2.299   3.701   8.473  0.0303  0.1490  0.4580
 1051SOL    HW114786   2.355   3.739   8.541 -0.3044 -0.4376  1.0657
 1051SOL    HW214787   2.257   3.634   8.528 -3.2432  0.6018 -1.5092
 1052SOL     OW14788   0.681   4.461   7.913  0.2823  0.8702 -0.4295
 1052SOL    HW114789   0.605   4.431   7.962  0.7969 -3.8459 -2.5149
 1052SOL    HW214790   0.698   4.547   7.952 -2.8422  0.0099  2.7839
 1053SOL     OW14791   2.546   0.148  10.120  0.8074 -0.2008  0.0061
 1053SOL    HW114792   2.566   0.119  10.031 -0.9368  0.5084 -0.6016
 1053SOL    HW214793   2.494   0.080  10.163 -0.4501  0.1421 -0.9781
 1054SOL     OW14794   1.175   4.415   7.362  0.6807  0.2348 -0.4294
 1054SOL    HW114795   1.146   4.441   7.449 -0.5092 -0.7446 -0.5290
 1054SOL    HW214796   1.241   4.346   7.365 -0.7309 -1.1414 -0.8339
 1055SOL     OW14797   0.501   1.012   4.524 -0.6777 -0.0577  0.1743
 1055SOL    HW114798   0.596   1.001   4.513 -0.7039 -0.8442  0.6768
 1055SOL    HW214799   0.490   1.106   4.536  1.8402  0.2718 -0.1437
 1056SOL     OW14800   1.598   3.235   5.501 -0.1191 -0.0894 -0.5194
 1056SOL    HW114801   1.552   3.250   5.583  1.9174 -0.8320  0.7534
 1056SOL    HW214802   1.559   3.150   5.477 -0.3304 -0.4708  1.1769
 1057SOL     OW14803   4.249   2.025   9.346 -0.1804  0.6079 -0.3285
 1057SOL    HW114804   4.235   2.059   9.258  0.9529 -0.9074 -1.0990
 1057SOL    HW214805   4.343   2.035   9.356 -0.2758  1.7339 -0.6409
 1058SOL     OW14806   1.470   2.758   3.092 -0.1323 -0.1089  0.1348
 1058SOL    HW114807   1.398   2.750   3.155 -1.1439 -0.9765 -1.1246
 1058SOL    HW214808   1.518   2.683   3.126 -1.4819 -1.1858 -0.3532
 1059SOL     OW14809   3.820   2.635   8.706  0.7277  0.2022  0.1003
 1059SOL    HW114810   3.893   2.673   8.754  1.9168 -0.2203 -1.3991
 1059SOL    HW214811   3.771   2.717   8.693  0.6825  0.0619 -0.5856
 1060SOL     OW14812   2.576   4.488   2.738 -0.9308  0.2423  0.4107
 1060SOL    HW114813   2.617   4.527   2.660  0.3271  0.5806  1.2495
 1060SOL    HW214814   2.488   4.524   2.726 -1.6859 -1.2425  1.5962
 1061SOL     OW14815   0.520   1.706  10.845  0.0111  0.4509  0.0097
 1061SOL    HW114816   0.575   1.770  10.890  1.7396 -3.1901  3.0654
 1061SOL    HW214817   0.547   1.720  10.754  1.7316  1.7794  0.7058
 1062SOL     OW14818   0.702   0.750   5.735  0.4273 -0.6923  0.0081
 1062SOL    HW114819   0.789   0.772   5.701  0.2744 -1.8942 -1.1484
 1062SOL    HW214820   0.708   0.794   5.820  1.9677  1.7641 -1.3702
 1063SOL     OW14821   3.145   3.193   2.980  0.4664 -0.2905 -0.2482
 1063SOL    HW114822   3.207   3.150   2.922 -0.5160 -0.8512 -0.8882
 1063SOL    HW214823   3.209   3.231   3.040  0.5647  1.7683 -1.6338
 1064SOL     OW14824   3.276   2.828   7.301  0.5545  0.2266  0.0328
 1064SOL    HW114825   3.255   2.915   7.334 -0.7486  0.3797 -1.2375
 1064SOL    HW214826   3.348   2.853   7.242  1.6044 -1.9511  0.3598
 1065SOL     OW14827   0.299   2.956   2.239 -0.9051  0.1470 -0.0992
 1065SOL    HW114828   0.285   3.038   2.287 -0.3589  0.2794 -0.1717
 1065SOL    HW214829   0.211   2.918   2.242 -1.6536  1.9338  0.5084
 1066SOL     OW14830   4.037   3.134  11.248  0.5340 -0.8244  0.6932
 1066SOL    HW114831   3.986   3.068  11.202 -1.1049  0.9058  0.0374
 1066SOL    HW214832   3.972   3.198  11.276 -0.9823 -3.2978  2.8100
 1067SOL     OW14833   3.200   2.968   9.469 -0.2326  0.0441 -0.0987
 1067SOL    HW114834   3.171   2.925   9.549 -3.3211  2.6094  0.1846
 1067SOL    HW214835   3.288   2.931   9.470 -1.2580 -2.3781 -1.4699
 1068SOL     OW14836   2.068   0.509   7.007 -0.3966  0.2424  0.0804
 1068SOL    HW114837   2.021   0.445   6.954 -1.9659 -0.4846  2.3545
 1068SOL    HW214838   2.079   0.576   6.940  0.0256  1.8174  1.7058
 1069SOL     OW14839   0.498   0.368  17.491 -0.4114  0.1279 -0.1786
 1069SOL    HW114840   0.569   0.431  17.501  0.1849 -0.6422  0.3491
 1069SOL    HW214841   0.447   0.393  17.568  1.9278 -0.7908  1.6563
 1070SOL     OW14842   3.351   2.468   4.627 -0.5529 -0.3094 -0.0665
 1070SOL    HW114843   3.287   2.532   4.658  1.3545  0.8451  1.4727
 1070SOL    HW214844   3.372   2.513   4.545 -0.0685 -3.2043 -1.5077
 1071SOL     OW14845   1.024   2.470   2.905  0.1735  0.0624  0.1743
 1071SOL    HW114846   1.089   2.503   2.844  1.1663 -0.1158  1.1437
 1071SOL    HW214847   0.961   2.427   2.846  0.0673  1.2365 -0.5761
 1072SOL     OW14848   2.954   3.288   6.050  0.0645  0.4515 -0.3147
 1072SOL    HW114849   3.037   3.260   6.089  0.3667 -0.2379 -1.4281
 1072SOL    HW214850   2.903   3.217   6.089  2.3122 -1.2637 -0.4245
 1073SOL     OW14851   2.643   0.704  11.594 -0.3971  0.3851  0.0455
 1073SOL    HW114852   2.606   0.618  11.574  2.1110 -1.3200  2.7774
 1073SOL    HW214853   2.608   0.752  11.519 -1.9078  0.4459  0.7795
 1074SOL     OW14854   4.622   2.232  12.411  0.3118  0.0016 -0.5506
 1074SOL    HW114855   4.663   2.146  12.417 -1.6125 -0.7858  1.2676
 1074SOL    HW214856   4.668   2.295  12.466 -1.5724 -0.5078  1.6066
 1075SOL     OW14857   2.888   3.116   4.801 -0.2015  0.1892  1.2604
 1075SOL    HW114858   2.905   3.040   4.746 -2.3306 -0.4560  1.4804
 1075SOL    HW214859   2.794   3.108   4.814 -0.8267  0.6791 -2.9046
 1076SOL     OW14860   4.578   2.102   0.214 -0.0266 -0.1221 -0.0244
 1076SOL    HW114861   4.624   2.121   0.296 -0.0335  0.6429 -0.1999
 1076SOL    HW214862   4.619   2.162   0.152  1.7148 -0.5429  0.7276
 1077SOL     OW14863   1.275   0.762   3.635  0.3410  0.1578  0.2567
 1077SOL    HW114864   1.250   0.822   3.565 -0.5193 -0.3232  0.1543
 1077SOL    HW214865   1.351   0.713   3.603 -0.5570  0.3387 -2.1324
 1078SOL     OW14866   4.494   4.553   7.873 -0.0039 -0.2897 -0.4102
 1078SOL    HW114867   4.538   4.588   7.796 -1.3572  0.2011 -0.9620
 1078SOL    HW214868   4.470   4.463   7.853 -1.6984 -0.2111  1.1936
 1079SOL     OW14869   1.164   1.456   6.327  0.3829  0.5801  0.1127
 1079SOL    HW114870   1.108   1.397   6.276  1.7185 -0.4729 -0.1547
 1079SOL    HW214871   1.244   1.456   6.274  0.8456 -1.6367  0.8082
 1080SOL     OW14872   2.719   4.180   5.410 -0.0715 -0.1734 -0.0244
 1080SOL    HW114873   2.720   4.122   5.485  1.6523 -1.8996 -1.3861
 1080SOL    HW214874   2.791   4.141   5.360  1.6457  0.7604  1.7391
 1081SOL     OW14875   2.830   1.174   9.007  0.4447  0.0164  0.3196
 1081SOL    HW114876   2.774   1.112   8.959  0.0365  1.3261 -0.8747
 1081SOL    HW214877   2.769   1.247   9.016  3.2913  2.5022 -0.7029
 1082SOL     OW14878   2.183   1.089   6.008  0.5814 -0.3902  0.0996
 1082SOL    HW114879   2.134   1.171   6.014  2.6431  0.8463  0.1057
 1082SOL    HW214880   2.180   1.061   6.100  0.2976  0.6675  0.4152
 1083SOL     OW14881   0.974   1.510   5.007 -0.0548 -0.6811 -0.1109
 1083SOL    HW114882   0.908   1.446   4.981 -1.3304 -0.4158  2.4109
 1083SOL    HW214883   1.050   1.457   5.031  1.7652  2.1823  0.3975
 1084SOL     OW14884   0.009   0.817   5.816  0.0118  0.4077 -0.0728
 1084SOL    HW114885   4.675   0.810   5.751  0.9723  3.9651 -1.4632
 1084SOL    HW214886   4.702   0.860   5.890 -1.3745 -1.3490  0.1442
 1085SOL     OW14887   3.332   2.326   7.000  0.3837 -0.8845  0.2778
 1085SOL    HW114888   3.391   2.301   6.929 -2.2271 -1.0352 -1.8546
 1085SOL    HW214889   3.335   2.243   7.048  0.4693  0.4112  2.5047
 1086SOL     OW14890   3.945   0.354   5.300  0.3297  0.5195  0.0698
 1086SOL    HW114891   3.871   0.369   5.242  0.5971  2.9418  0.3348
 1086SOL    HW214892   3.943   0.260   5.315  0.6332  0.3897 -0.6900
 1087SOL     OW14893   3.960   1.948   0.606 -0.1690  0.4554  0.4793
 1087SOL    HW114894   4.047   1.910   0.599 -0.7855 -0.5124 -1.8855
 1087SOL    HW214895   3.985   2.031   0.566  1.5695 -0.9434 -1.3180
 1088SOL     OW14896   1.149   1.009  15.290  0.1165  0.1477  0.0847
 1088SOL    HW114897   1.093   1.086  15.295 -0.7297 -0.4342 -0.4587
 1088SOL    HW214898   1.176   1.027  15.200  0.0242  0.2901  0.0844
 1089SOL     OW14899   3.863   3.521   6.854 -0.7560  0.4419  0.2925
 1089SOL    HW114900   3.920   3.563   6.918  2.3944  1.9425 -3.5245
 1089SOL    HW214901   3.789   3.582   6.856  1.2587  2.8454  1.3795
 1090SOL     OW14902   1.040   4.421  16.578 -0.1035 -0.4918 -0.6358
 1090SOL    HW114903   1.095   4.477  16.522  0.3170 -0.2024  0.0721
 1090SOL    HW214904   1.105   4.375  16.631  0.3413 -0.4771 -1.1593
 1091SOL     OW14905   4.136   0.447   8.868  0.3714 -0.1534  0.5071
 1091SOL    HW114906   4.048   0.469   8.896  0.7512  2.0703  0.0327
 1091SOL    HW214907   4.106   0.419   8.781 -0.1480  0.8850  0.3451
 1092SOL     OW14908   0.630   1.546  16.765 -0.0023 -0.2757 -0.1681
 1092SOL    HW114909   0.687   1.481  16.725  0.1576 -1.0107  1.2631
 1092SOL    HW214910   0.570   1.570  16.694 -0.9061  2.0421  1.3494
 1093SOL     OW14911   0.479   0.088   2.286  0.0036 -0.2903  0.0175
 1093SOL    HW114912   0.488   4.730   2.273  3.1391  0.1266 -0.9706
 1093SOL    HW214913   0.410   0.119   2.228 -0.7766  1.2198  1.7395
 1094SOL     OW14914   0.087   2.284  11.399 -0.0947 -0.9762 -0.2185
 1094SOL    HW114915   0.007   2.236  11.420  0.0609 -1.2349 -0.2299
 1094SOL    HW214916   0.055   2.341  11.328  0.1330 -2.0300 -1.1765
 1095SOL     OW14917   2.413   2.056   9.448 -0.7167 -0.5224 -0.0264
 1095SOL    HW114918   2.417   1.983   9.386 -2.7727 -1.8754  1.4477
 1095SOL    HW214919   2.398   2.134   9.394 -0.3666 -1.2381 -1.1677
 1096SOL     OW14920   0.832   3.736   5.882 -0.5055 -0.0981 -0.0455
 1096SOL    HW114921   0.764   3.669   5.888 -1.0168  0.3592 -0.7761
 1096SOL    HW214922   0.800   3.780   5.803  1.0804  0.2122 -0.4985
 1097SOL     OW14923   2.538   1.890   4.776  0.1383 -0.2713 -0.1011
 1097SOL    HW114924   2.507   1.980   4.783 -1.3360 -0.7990  0.2202
 1097SOL    HW214925   2.504   1.868   4.689  2.8417  0.6957 -1.4105
 1098SOL     OW14926   1.350   2.139   4.084  0.2968 -0.3185 -0.2930
 1098SOL    HW114927   1.270   2.179   4.120 -0.9468 -1.0052 -2.3242
 1098SOL    HW214928   1.336   2.164   3.993 -1.0590  0.9612  0.2521
 1099SOL     OW14929   1.775   1.123  10.924 -0.5586 -1.1922  0.1006
 1099SOL    HW114930   1.738   1.076  10.849 -2.9933 -0.4611  0.8735
 1099SOL    HW214931   1.807   1.054  10.983  1.8264 -0.2130 -0.0279
 1100SOL     OW14932   3.495   3.387  13.359 -0.4272  0.1238 -0.1274
 1100SOL    HW114933   3.475   3.369  13.451  0.9374 -0.6944  0.0032
 1100SOL    HW214934   3.517   3.479  13.375 -1.8494  0.4195  0.1073
 1101SOL     OW14935   1.975   4.238   0.360  1.0623  0.0323  0.1266
 1101SOL    HW114936   2.019   4.160   0.393  1.3330  0.6564  1.2463
 1101SOL    HW214937   1.883   4.214   0.375  0.3896  2.2060 -0.3943
 1102SOL     OW14938   3.494   0.829   4.644  0.2336 -0.0889 -0.5523
 1102SOL    HW114939   3.500   0.828   4.740  1.4846 -2.7146 -0.6449
 1102SOL    HW214940   3.577   0.861   4.611 -0.7834  0.5184 -2.5021
 1103SOL     OW14941   1.401   2.940  12.352  0.5321  0.5264  0.2607
 1103SOL    HW114942   1.456   2.983  12.418  2.5164 -1.2255 -0.2618
 1103SOL    HW214943   1.332   2.902  12.407  1.5294 -0.6042  0.7352
 1104SOL     OW14944   3.933   0.623  12.375 -0.3371 -1.4943  0.5295
 1104SOL    HW114945   3.980   0.551  12.333  0.5555  0.5991 -2.1010
 1104SOL    HW214946   3.987   0.701  12.361 -2.3084 -0.0212  1.1192
 1105SOL     OW14947   1.339   4.102   2.959 -0.4765 -0.3624 -0.1750
 1105SOL    HW114948   1.394   4.177   2.983 -0.8524 -0.2317  0.2774
 1105SOL    HW214949   1.260   4.150   2.938 -0.5597 -0.1035  0.6999
 1106SOL     OW14950   3.085   1.067   9.738  0.1830  0.4837  0.1359
 1106SOL    HW114951   3.148   1.034   9.674  2.0770  0.4034  2.0256
 1106SOL    HW214952   3.138   1.124   9.794  0.7571  0.6752 -0.5994
 1107SOL     OW14953   2.929   0.569   4.719  0.3850 -0.1564 -0.1753
 1107SOL    HW114954   2.999   0.596   4.779  0.7983 -0.2360 -0.6156
 1107SOL    HW214955   2.968   0.587   4.633 -0.7730 -2.8184 -1.2475
 1108SOL     OW14956   3.671   1.633   8.134 -0.0355 -1.2589  0.0352
 1108SOL    HW114957   3.625   1.556   8.168  2.0410 -1.9610  1.2649
 1108SOL    HW214958   3.704   1.674   8.214  0.0600 -0.4854 -0.4059
 1109SOL     OW14959   4.161   3.654  10.875  0.1271  0.9451  0.7450
 1109SOL    HW114960   4.134   3.649  10.783 -1.6114 -0.1334  1.3154
 1109SOL    HW214961   4.090   3.606  10.917  0.6781  0.0033  0.6080
 1110SOL     OW14962   3.748   0.709  13.718  0.2639 -0.6512  0.1153
 1110SOL    HW114963   3.670   0.730  13.666 -0.5444 -1.1220  1.1242
 1110SOL    HW214964   3.775   0.632  13.669  0.8297 -2.9457  4.0568
 1111SOL     OW14965   1.990   0.663   5.165  0.0253 -0.1628  0.2408
 1111SOL    HW114966   2.059   0.636   5.104  0.2980  0.8242  0.1117
 1111SOL    HW214967   2.002   0.757   5.151  3.8690 -0.3866  2.0279
 1112SOL     OW14968   1.651   2.658   7.942  0.7382  0.3244 -0.2677
 1112SOL    HW114969   1.667   2.582   7.887 -0.8756  0.8117 -1.3970
 1112SOL    HW214970   1.634   2.622   8.029 -1.1889  0.0839 -0.7532
 1113SOL     OW14971   4.305   0.040   3.643 -0.0988  0.6793 -0.3638
 1113SOL    HW114972   4.239   4.707   3.643 -0.3456  0.9068  0.6836
 1113SOL    HW214973   4.332   0.045   3.552  0.5393  0.9522 -0.1603
 1114SOL     OW14974   0.687   3.117   2.981  0.1695 -0.1855  0.5077
 1114SOL    HW114975   0.734   3.054   3.035  0.5722  0.6864  1.1794
 1114SOL    HW214976   0.619   3.058   2.951  0.4856 -0.0640 -0.4432
 1115SOL     OW14977   0.252   3.478  11.989 -0.0078 -0.1624 -0.0939
 1115SOL    HW114978   0.283   3.389  11.978 -3.0787 -1.4272  1.3142
 1115SOL    HW214979   0.156   3.474  11.987  0.1189 -1.0343 -3.8897
 1116SOL     OW14980   2.944   1.906   2.504  0.3087  0.2358  0.0539
 1116SOL    HW114981   3.004   1.980   2.496 -1.8639  2.1441  1.3294
 1116SOL    HW214982   2.985   1.869   2.582  1.9629  0.9168 -0.5004
 1117SOL     OW14983   3.330   3.826  11.688 -0.0649  0.2166  0.1044
 1117SOL    HW114984   3.390   3.810  11.761  0.5529 -0.5181 -0.5609
 1117SOL    HW214985   3.383   3.878  11.627  0.6634 -2.4530 -1.5478
 1118SOL     OW14986   3.313   0.531   3.505  0.0473 -0.0612  0.1855
 1118SOL    HW114987   3.378   0.585   3.461 -0.4595 -1.1516 -1.8563
 1118SOL    HW214988   3.270   0.490   3.431 -2.3947  2.0599  0.3859
 1119SOL     OW14989   0.415   3.112   0.169  0.2813 -0.6671 -0.1226
 1119SOL    HW114990   0.394   3.096   0.261 -0.4473 -1.0606 -0.3549
 1119SOL    HW214991   0.443   3.204   0.178 -2.5685  0.1167  0.7568
 1120SOL     OW14992   0.785   4.180   2.057 -0.1350 -0.0988  0.1552
 1120SOL    HW114993   0.857   4.217   2.006  0.6620  0.8207  1.9572
 1120SOL    HW214994   0.836   4.138   2.126  2.6988 -0.5495 -2.2027
 1121SOL     OW14995   1.059   1.274  12.006  0.1972 -0.4696 -0.0097
 1121SOL    HW114996   1.076   1.250  12.097  0.3383 -1.3862 -0.2772
 1121SOL    HW214997   1.142   1.265  11.960 -0.1610  0.5973 -0.8847
 1122SOL     OW14998   3.354   0.825  13.264 -0.2575  0.2507  0.4548
 1122SOL    HW114999   3.301   0.826  13.344  0.0066 -0.4822  0.6423
 1122SOL    HW215000   3.315   0.882  13.198  0.0154 -1.0488 -0.8207
 1123SOL     OW15001   4.646   3.471  10.519 -0.6764  0.3308 -0.3971
 1123SOL    HW115002   4.642   3.397  10.580 -2.6217  1.6989  1.1837
 1123SOL    HW215003   4.698   3.538  10.564  0.7318 -1.8059  1.1026
 1124SOL     OW15004   3.720   4.302   9.289  0.2646  0.5139 -0.2000
 1124SOL    HW115005   3.694   4.377   9.235  0.2549  0.2183 -0.6071
 1124SOL    HW215006   3.633   4.274   9.315  0.5802  0.9275  1.2783
 1125SOL     OW15007   0.502   1.268   6.568 -0.3147  0.2376  0.2702
 1125SOL    HW115008   0.534   1.259   6.658  1.7202 -2.0262 -0.6874
 1125SOL    HW215009   0.423   1.214   6.568  0.3715 -0.7636 -2.8104
 1126SOL     OW15010   3.049   4.459   4.456 -0.2123  0.2788  0.2331
 1126SOL    HW115011   3.114   4.430   4.391  0.1022  0.0626  0.6464
 1126SOL    HW215012   3.093   4.424   4.533 -3.1601 -0.8698  1.3889
 1127SOL     OW15013   4.638   2.833   7.503  0.6665  0.4370  0.4780
 1127SOL    HW115014   4.684   2.801   7.426 -0.3917 -2.1633  0.9144
 1127SOL    HW215015   4.707   2.808   7.565 -0.4308 -0.7141  1.2238
 1128SOL     OW15016   2.253   2.031  16.733 -0.7386  0.0429  0.1226
 1128SOL    HW115017   2.221   2.120  16.749  1.8156  1.1896 -1.2292
 1128SOL    HW215018   2.165   1.993  16.723 -0.9220  1.2698 -2.7956
 1129SOL     OW15019   1.916   0.928   4.460 -0.4674  0.5779 -0.0363
 1129SOL    HW115020   1.908   0.983   4.382  2.3309  0.2565 -0.5313
 1129SOL    HW215021   1.845   0.979   4.501 -0.0072  0.9499  0.2954
 1130SOL     OW15022   0.379   2.629   0.806 -0.0721 -0.5192  0.1966
 1130SOL    HW115023   0.291   2.593   0.818  0.2928 -0.6927  2.4558
 1130SOL    HW215024   0.404   2.665   0.891 -2.1553 -2.1691  1.5263
 1131SOL     OW15025   3.243   0.008   8.090 -0.2864 -0.2964  0.1785
 1131SOL    HW115026   3.191   0.085   8.113 -0.9615 -1.0729  1.2761
 1131SOL    HW215027   3.233   0.017   7.996  1.1160  1.5490  0.2116
 1132SOL     OW15028   4.504   2.448  17.623 -0.1564  0.4323  0.6186
 1132SOL    HW115029   4.526   2.396  17.546  3.3621  0.1726  1.8096
 1132SOL    HW215030   4.573   2.514  17.617  3.0368 -2.9392  0.7985
 1133SOL     OW15031   3.268   2.304   6.183  0.0276  0.0983  0.0989
 1133SOL    HW115032   3.243   2.396   6.195 -2.4482 -0.2681 -2.3404
 1133SOL    HW215033   3.214   2.282   6.108 -0.6044  2.1148 -0.0436
 1134SOL     OW15034   3.686   4.510   5.401  0.0269 -0.5865  0.0789
 1134SOL    HW115035   3.677   4.478   5.491 -0.7490  1.0908  0.5912
 1134SOL    HW215036   3.706   4.600   5.425 -1.1524 -1.4119  4.1930
 1135SOL     OW15037   3.169   2.639   4.718  0.0332 -0.2207 -0.2038
 1135SOL    HW115038   3.092   2.685   4.684 -0.6182 -1.0340  0.1665
 1135SOL    HW215039   3.228   2.709   4.745  0.9972 -1.2925  0.4422
 1136SOL     OW15040   1.130   3.313   4.152  0.2368 -0.5199 -0.5787
 1136SOL    HW115041   1.177   3.393   4.176 -0.3019 -0.6269  0.8231
 1136SOL    HW215042   1.039   3.340   4.148  0.3283  0.2117  2.1802
 1137SOL     OW15043   4.581   1.596  11.892  0.2730  0.4949 -0.3062
 1137SOL    HW115044   4.659   1.652  11.881 -1.8576  3.6383  0.6300
 1137SOL    HW215045   4.546   1.642  11.968 -1.2022 -0.9915 -0.0891
 1138SOL     OW15046   0.565   1.117   5.346 -0.0426  0.5148  0.2178
 1138SOL    HW115047   0.485   1.103   5.396 -0.5676  0.1984 -0.7165
 1138SOL    HW215048   0.605   1.030   5.346  0.4882  0.7521  1.9679
 1139SOL     OW15049   0.775   0.890   6.211 -0.2506  0.5223  0.1914
 1139SOL    HW115050   0.811   0.978   6.199 -0.5137  0.6691  0.4838
 1139SOL    HW215051   0.837   0.871   6.281 -3.0989 -1.2428  2.2255
 1140SOL     OW15052   3.346   3.574   9.939  0.1535  0.0209 -0.0631
 1140SOL    HW115053   3.338   3.597   9.847  0.1491 -1.0147 -0.3274
 1140SOL    HW215054   3.262   3.610   9.967  1.9524  2.1888  2.4620
 1141SOL     OW15055   2.648   0.687   8.312 -0.1187  0.1044  0.0912
 1141SOL    HW115056   2.665   0.764   8.258 -1.1108  0.0219 -0.3495
 1141SOL    HW215057   2.681   0.718   8.396  0.2277 -0.2636  0.0905
 1142SOL     OW15058   0.179   2.267   3.286  0.4561 -0.4018  0.2998
 1142SOL    HW115059   0.216   2.335   3.342  0.4201 -1.3573  1.4972
 1142SOL    HW215060   0.108   2.319   3.251  0.3281 -0.9632 -0.2874
 1143SOL     OW15061   3.152   0.656   6.699  0.3108 -0.5987  0.5942
 1143SOL    HW115062   3.139   0.683   6.607  2.8356  0.0350  0.4245
 1143SOL    HW215063   3.169   0.563   6.692  1.6657 -0.3233  0.2821
 1144SOL     OW15064   4.546   3.871   7.136 -0.3828 -0.9431 -0.4945
 1144SOL    HW115065   4.497   3.875   7.218 -1.2161  0.0163 -1.0482
 1144SOL    HW215066   4.604   3.948   7.139  0.0160 -1.2269 -1.0461
 1145SOL     OW15067   2.446   1.745   2.828 -0.1625  0.3344 -0.3468
 1145SOL    HW115068   2.522   1.760   2.885 -2.2728 -0.5450  2.7219
 1145SOL    HW215069   2.450   1.809   2.758 -0.9063  1.4834  0.6680
 1146SOL     OW15070   2.213   3.908   6.991 -0.8255  0.0211  0.5711
 1146SOL    HW115071   2.303   3.875   6.981 -0.3051  1.4328  0.5921
 1146SOL    HW215072   2.245   3.989   7.032 -2.1636 -0.6202  2.8669
 1147SOL     OW15073   3.140   2.262   2.440  0.5271 -0.2351  0.2253
 1147SOL    HW115074   3.113   2.255   2.532  0.4432 -0.7963  0.1584
 1147SOL    HW215075   3.182   2.177   2.427 -0.1294 -0.3076 -1.4440
 1148SOL     OW15076   1.618   2.912   1.274 -0.2704  0.0536 -0.1670
 1148SOL    HW115077   1.713   2.903   1.278 -0.2911 -0.7544 -1.2580
 1148SOL    HW215078   1.596   2.838   1.330  1.0980 -0.9332 -0.9363
 1149SOL     OW15079   0.362   0.686   3.392  0.2371 -0.1333 -0.3514
 1149SOL    HW115080   0.445   0.639   3.380 -0.2129 -0.3833 -2.3552
 1149SOL    HW215081   0.313   0.614   3.431 -0.6462  1.5211  1.5945
 1150SOL     OW15082   4.628   3.025   2.479  0.0476  0.5020 -0.3670
 1150SOL    HW115083   4.677   3.069   2.410  2.8321 -1.0402  0.6070
 1150SOL    HW215084   4.694   2.974   2.525 -0.3929  0.6707  0.4511
 1151SOL     OW15085   0.585   3.393  14.307 -0.1199 -0.5322  0.5606
 1151SOL    HW115086   0.595   3.484  14.279 -0.0888 -1.6875 -3.1558
 1151SOL    HW215087   0.651   3.361  14.246 -1.5460 -2.6696  0.1118
 1152SOL     OW15088   3.756   4.689   6.866  0.6450  0.0533  0.2063
 1152SOL    HW115089   3.848   4.689   6.842  0.3003  1.2030 -1.0975
 1152SOL    HW215090   3.737   0.047   6.859 -0.5572  0.0591  3.3229
 1153SOL     OW15091   1.879   3.473   6.238 -0.5684 -0.0534 -0.3351
 1153SOL    HW115092   1.939   3.539   6.202 -1.6459  0.3517 -1.3908
 1153SOL    HW215093   1.834   3.445   6.159 -1.0772  0.0534 -0.0816
 1154SOL     OW15094   2.097   2.246   2.672  0.0821 -0.2894 -0.1364
 1154SOL    HW115095   2.180   2.228   2.629  0.2680 -0.7944  0.4426
 1154SOL    HW215096   2.039   2.225   2.599  1.2363  0.1764 -1.1834
 1155SOL     OW15097   4.142   4.014   8.352 -0.5749  0.7083  0.2251
 1155SOL    HW115098   4.166   4.106   8.356  4.3382 -0.5147 -0.1563
 1155SOL    HW215099   4.172   3.999   8.262 -1.0889  1.4541 -0.0710
 1156SOL     OW15100   2.052   0.707   8.307  0.3056  0.3677 -0.6342
 1156SOL    HW115101   1.960   0.683   8.320  0.7847 -0.5687  0.9402
 1156SOL    HW215102   2.051   0.747   8.220  1.3275  1.3096 -0.2171
 1157SOL     OW15103   0.962   1.772   8.644  0.3808  0.2071  0.5908
 1157SOL    HW115104   0.977   1.759   8.550 -0.4785 -1.8942  0.7287
 1157SOL    HW215105   0.955   1.867   8.654 -1.0500 -0.0157  1.6814
 1158SOL     OW15106   3.290   4.618  16.274 -0.5626 -0.9000  0.1355
 1158SOL    HW115107   3.283   4.689  16.338  1.6695 -1.5283  1.0664
 1158SOL    HW215108   3.386   4.617  16.276 -0.5163 -0.9774 -3.7722
 1159SOL     OW15109   1.339   3.598   6.042 -0.0869 -0.3779 -0.1982
 1159SOL    HW115110   1.364   3.506   6.034  1.1397 -0.2041  1.7391
 1159SOL    HW215111   1.257   3.595   6.091  0.3541 -0.2152  0.5403
 1160SOL     OW15112   3.066   3.141   5.505  0.1558  0.0251 -0.0433
 1160SOL    HW115113   3.062   3.057   5.551 -1.0805  0.0813 -0.0518
 1160SOL    HW215114   3.123   3.123   5.431 -0.7559 -1.0728 -0.4793
 1161SOL     OW15115   1.889   3.533   8.101  0.9752 -0.2086 -0.5150
 1161SOL    HW115116   1.971   3.518   8.054  0.9960  0.7185 -0.7839
 1161SOL    HW215117   1.836   3.577   8.035 -1.9217 -1.2446  1.1266
 1162SOL     OW15118   4.449   1.728   2.045 -0.0348 -0.4535 -0.1515
 1162SOL    HW115119   4.532   1.777   2.048 -0.6568  0.6867 -1.4259
 1162SOL    HW215120   4.486   1.641   2.056 -2.0402 -1.0950  1.5458
 1163SOL     OW15121   3.969   0.156   8.653 -0.2696 -0.4581 -0.1810
 1163SOL    HW115122   3.897   0.097   8.674 -0.6529 -0.5964 -1.8727
 1163SOL    HW215123   4.003   0.115   8.574 -0.9124 -0.2551 -0.5648
 1164SOL     OW15124   2.947   0.616  16.372 -0.0320  0.2863 -0.4916
 1164SOL    HW115125   2.876   0.677  16.393  0.8460  0.8620  0.8011
 1164SOL    HW215126   2.968   0.598  16.463  1.3461 -0.9821 -1.0768
 1165SOL     OW15127   4.499   3.699   2.120  0.0574 -0.2373 -0.1483
 1165SOL    HW115128   4.418   3.722   2.075  0.8274  1.3741 -0.7047
 1165SOL    HW215129   4.477   3.729   2.208 -1.2689 -0.5765 -0.3690
 1166SOL     OW15130   1.830   0.382   3.065 -0.3971 -0.1011 -0.2737
 1166SOL    HW115131   1.879   0.321   3.009  0.7956  1.1497 -0.5820
 1166SOL    HW215132   1.773   0.317   3.107  0.6903 -1.9902 -1.6953
 1167SOL     OW15133   0.574   2.299  17.071  0.1512 -0.0311  0.1380
 1167SOL    HW115134   0.644   2.317  17.135  0.3756 -0.4673  0.0102
 1167SOL    HW215135   0.578   2.204  17.077 -1.1652 -0.0920  0.0004
 1168SOL     OW15136   4.449   0.500  17.662 -0.1394 -0.1581  0.3417
 1168SOL    HW115137   4.531   0.451  17.672  0.5554  0.7082 -0.9815
 1168SOL    HW215138   4.388   0.435  17.630  1.4064 -1.5733  0.2747
 1169SOL     OW15139   0.733   2.720   6.575  0.0491 -0.1935  0.2427
 1169SOL    HW115140   0.803   2.757   6.628  0.5353 -0.5504 -0.1518
 1169SOL    HW215141   0.678   2.798   6.583  0.2551 -0.1289  1.0111
 1170SOL     OW15142   3.470   3.220   7.029 -0.2297 -0.2215 -0.0035
 1170SOL    HW115143   3.529   3.292   7.051  0.5700 -0.6227 -0.8362
 1170SOL    HW215144   3.458   3.241   6.936 -0.7654  2.2839  0.6373
 1171SOL     OW15145   0.670   1.133   0.669  0.5004  0.0368  0.3694
 1171SOL    HW115146   0.597   1.122   0.730  1.5912  1.0853  1.8656
 1171SOL    HW215147   0.661   1.228   0.656 -1.6087 -0.5746 -2.7416
 1172SOL     OW15148   1.360   2.398   9.097 -0.1218  0.0876  0.1062
 1172SOL    HW115149   1.298   2.394   9.024  0.1350 -1.1302 -0.0456
 1172SOL    HW215150   1.341   2.312   9.135 -3.1359  0.3899 -0.7098
 1173SOL     OW15151   2.631   2.620   8.776  0.0711 -0.1704  0.0814
 1173SOL    HW115152   2.597   2.689   8.833  0.1507  1.2371 -1.5826
 1173SOL    HW215153   2.598   2.543   8.823 -1.2672 -0.9725 -2.1410
 1174SOL     OW15154   2.428   4.380  17.184 -0.0815  0.0602 -0.0970
 1174SOL    HW115155   2.339   4.345  17.187 -0.4531  1.2898  2.4971
 1174SOL    HW215156   2.407   4.470  17.208  0.2050 -0.0310  0.5034
 1175SOL     OW15157   1.247   0.805  11.088  0.4860  0.0243 -0.0288
 1175SOL    HW115158   1.278   0.871  11.027 -0.5696 -0.3377 -0.9559
 1175SOL    HW215159   1.167   0.772  11.046  0.7836  1.1690 -1.4798
 1176SOL     OW15160   1.097   3.293   3.182 -0.4793 -0.7081  0.0846
 1176SOL    HW115161   1.172   3.260   3.232 -0.7664 -0.7503  0.4813
 1176SOL    HW215162   1.032   3.302   3.251  1.0732  0.9398  1.3119
 1177SOL     OW15163   1.679   4.036   6.556 -0.2836 -0.6187 -0.1170
 1177SOL    HW115164   1.612   3.975   6.525 -1.2191  0.6135 -0.5103
 1177SOL    HW215165   1.631   4.118   6.570  0.8654  0.0483 -0.0837
 1178SOL     OW15166   3.487   2.464   5.765  0.2137  0.3110  0.2966
 1178SOL    HW115167   3.442   2.534   5.813  0.1306 -0.1417  0.8798
 1178SOL    HW215168   3.572   2.506   5.757  0.0140  1.1454  2.3299
 1179SOL     OW15169   4.344   2.466   7.695 -0.2434  0.3639 -0.2114
 1179SOL    HW115170   4.312   2.514   7.771  0.8683  2.3178 -0.9868
 1179SOL    HW215171   4.382   2.538   7.645  0.8369 -0.4700 -0.6054
 1180SOL     OW15172   2.696   2.697  15.904 -0.7497  0.0177  0.0164
 1180SOL    HW115173   2.649   2.657  15.831  1.5213 -2.3556 -0.1246
 1180SOL    HW215174   2.694   2.791  15.885  2.6760  0.0640 -0.0652
 1181SOL     OW15175   3.244   3.991   1.736  0.3259  0.2265 -0.0409
 1181SOL    HW115176   3.338   3.980   1.723  0.2914  0.6236 -0.6314
 1181SOL    HW215177   3.209   3.917   1.687  1.2778  0.2025 -0.6821
 1182SOL     OW15178   3.093   4.088   4.349  0.4885 -0.1117  0.0617
 1182SOL    HW115179   3.000   4.103   4.368  0.3860 -1.1760  0.4410
 1182SOL    HW215180   3.120   4.057   4.436  0.0355 -0.9963 -0.1098
 1183SOL     OW15181   2.884   3.505   4.812  0.0422 -0.5253 -0.1780
 1183SOL    HW115182   2.978   3.518   4.801  0.1401 -0.8627  0.2631
 1183SOL    HW215183   2.863   3.594   4.784 -3.4562 -1.2505  0.0531
 1184SOL     OW15184   2.149   2.436   0.220 -0.5156 -0.8446 -0.2435
 1184SOL    HW115185   2.170   2.461   0.310 -3.5872  0.2524  0.1855
 1184SOL    HW215186   2.227   2.381   0.209  0.1736 -0.0173  0.5684
 1185SOL     OW15187   3.701   1.083   9.755 -0.5453 -0.0805 -0.1903
 1185SOL    HW115188   3.782   1.055   9.714 -0.0354  0.3417  0.5257
 1185SOL    HW215189   3.724   1.096   9.847 -0.2641 -2.8652  0.1091
 1186SOL     OW15190   2.416   2.004   7.830 -0.6672  0.5530 -0.4301
 1186SOL    HW115191   2.478   2.018   7.901 -1.7820  0.7631  0.5045
 1186SOL    HW215192   2.410   1.910   7.816 -0.6200  0.2153  1.9136
 1187SOL     OW15193   4.457   2.854   6.748  0.1736 -0.4959  0.0256
 1187SOL    HW115194   4.474   2.760   6.752 -0.9504 -0.8200 -2.8353
 1187SOL    HW215195   4.538   2.873   6.702  0.8644 -0.9171  1.0587
 1188SOL     OW15196   2.503   0.944   8.583 -0.4505  0.3272  0.3205
 1188SOL    HW115197   2.413   0.946   8.616 -1.6034 -0.6269 -2.6928
 1188SOL    HW215198   2.499   1.001   8.506  1.3756  0.0077  0.0042
 1189SOL     OW15199   0.749   3.816  13.165  0.3272  0.2312  0.0303
 1189SOL    HW115200   0.833   3.836  13.206  0.5421  1.0835 -0.8163
 1189SOL    HW215201   0.762   3.797  13.073  2.1908 -2.5103  0.8775
 1190SOL     OW15202   2.367   0.813   2.819  0.5476  0.2625 -0.3672
 1190SOL    HW115203   2.362   0.769   2.904  1.9600  0.1031 -0.3600
 1190SOL    HW215204   2.377   0.907   2.837 -0.3869  0.3125 -0.1173
 1191SOL     OW15205   2.864   1.196   6.114 -0.7386 -0.2470 -0.0718
 1191SOL    HW115206   2.887   1.287   6.099  0.0214 -0.8519 -2.5634
 1191SOL    HW215207   2.929   1.170   6.179 -1.1341  1.1268  0.8721
 1192SOL     OW15208   2.519   3.123   4.414  0.0431  0.1778  0.2782
 1192SOL    HW115209   2.599   3.156   4.454 -1.2595  2.1891  1.2006
 1192SOL    HW215210   2.524   3.027   4.405  0.0719  0.1569  0.4992
 1193SOL     OW15211   3.667   0.583   6.325  0.1940 -0.4192 -0.0346
 1193SOL    HW115212   3.575   0.582   6.353 -0.4409 -0.9802 -2.1441
 1193SOL    HW215213   3.656   0.654   6.262  0.0787 -0.0510  0.4026
 1194SOL     OW15214   3.749   2.480   4.933  0.3099  0.2799  0.1545
 1194SOL    HW115215   3.750   2.520   5.020  3.4651  1.3495 -0.3817
 1194SOL    HW215216   3.664   2.509   4.901  0.5680  0.3670 -0.4444
 1195SOL     OW15217   3.857   0.909   4.002  0.0642 -0.5263  0.4727
 1195SOL    HW115218   3.891   0.858   4.076 -0.7843 -0.8004  0.6634
 1195SOL    HW215219   3.771   0.921   4.040  0.0035  1.1805 -0.2138
 1196SOL     OW15220   0.638   1.448   9.425 -0.4963  0.2339  0.8947
 1196SOL    HW115221   0.669   1.477   9.511 -1.2976  0.3192  1.1505
 1196SOL    HW215222   0.543   1.460   9.429 -0.5034  0.5197 -0.1354
 1197SOL     OW15223   4.723   4.566   1.732  0.8137  0.1726  0.3537
 1197SOL    HW115224   0.011   4.644   1.782 -0.3104  0.0066  1.1454
 1197SOL    HW215225   4.650   4.606   1.684  0.7457 -0.7340 -0.3042
 1198SOL     OW15226   3.605   0.983  16.117  0.7942 -1.3153  0.0950
 1198SOL    HW115227   3.667   1.024  16.057  0.1902 -0.4217  0.0780
 1198SOL    HW215228   3.534   0.955  16.060 -0.8211 -0.5662  1.7405
 1199SOL     OW15229   2.900   0.984   3.976  0.0569  0.8313  0.5031
 1199SOL    HW115230   2.960   1.056   3.994 -0.4015  1.2781  0.2516
 1199SOL    HW215231   2.901   1.002   3.882 -2.4764  1.7427  0.6521
 1200SOL     OW15232   3.825   3.210   5.998  0.3246  0.2415  0.5001
 1200SOL    HW115233   3.905   3.254   5.969  0.5572 -0.0796  0.6383
 1200SOL    HW215234   3.756   3.258   5.954  0.8465  1.0983  0.6260
 1201SOL     OW15235   0.186   0.851   1.409 -0.0038  0.5783 -0.2312
 1201SOL    HW115236   0.131   0.921   1.444  0.2534  0.3730  0.6011
 1201SOL    HW215237   0.270   0.890   1.387 -1.5167  3.4399 -0.9330
 1202SOL     OW15238   0.788   3.039  17.231 -0.3662 -0.2434 -0.4771
 1202SOL    HW115239   0.748   3.064  17.148  0.5463  1.1331 -0.4969
 1202SOL    HW215240   0.751   2.952  17.242  0.0043 -0.1580  1.4299
 1203SOL     OW15241   0.664   3.483   8.991  0.3329  0.2913 -0.4314
 1203SOL    HW115242   0.603   3.422   9.031  2.5152 -0.6021  1.4999
 1203SOL    HW215243   0.748   3.451   9.024 -1.0483  0.8142  3.4997
 1204SOL     OW15244   3.712   0.837  12.568  1.1656  0.0363 -0.1646
 1204SOL    HW115245   3.741   0.783  12.641 -1.7771 -1.0393  0.2120
 1204SOL    HW215246   3.740   0.928  12.579 -0.4308  0.6440 -1.2889
 1205SOL     OW15247   0.246   0.571   7.988  0.6182 -0.2695 -0.4183
 1205SOL    HW115248   0.159   0.545   8.018  1.2543 -1.1680  0.6817
 1205SOL    HW215249   0.294   0.533   8.062 -1.5108 -1.3061  0.4177
 1206SOL     OW15250   2.098   1.948   6.147  0.0336  0.4345  0.0838
 1206SOL    HW115251   2.036   1.993   6.204 -1.1472 -0.2932 -0.6151
 1206SOL    HW215252   2.178   1.999   6.159  0.4109 -0.0680 -0.3278
 1207SOL     OW15253   2.999   0.563  13.768  0.7461  0.2484  0.2840
 1207SOL    HW115254   2.916   0.545  13.813 -0.1415  1.4174 -0.8853
 1207SOL    HW215255   3.070   0.545  13.829  1.2897  0.1553 -0.3839
 1208SOL     OW15256   0.515   2.183  17.540 -0.2444  0.7354  0.2901
 1208SOL    HW115257   0.547   2.145  17.622  1.2015  1.4691  0.0731
 1208SOL    HW215258   0.590   2.159  17.485 -1.0261 -1.4077  0.1408
 1209SOL     OW15259   0.808   2.319   5.581  0.0183  0.5447 -0.3590
 1209SOL    HW115260   0.718   2.339   5.554  0.0011  0.7035 -0.1871
 1209SOL    HW215261   0.811   2.230   5.545  0.6303 -0.4716  2.1416
 1210SOL     OW15262   4.424   4.159  15.945  0.0453  0.2535  0.1160
 1210SOL    HW115263   4.351   4.115  15.988  0.1971 -0.4322 -0.3222
 1210SOL    HW215264   4.417   4.248  15.978  0.3196 -0.2795  1.6478
 1211SOL     OW15265   1.335   3.773  17.229 -0.5071  0.1254  0.0217
 1211SOL    HW115266   1.257   3.720  17.247 -1.7719  1.6025 -1.1042
 1211SOL    HW215267   1.314   3.866  17.220  1.7218  0.4749 -1.5694
 1212SOL     OW15268   3.070   4.430   8.468  0.1497  0.2449  0.9795
 1212SOL    HW115269   3.152   4.404   8.425  0.3139  1.1336  0.7740
 1212SOL    HW215270   3.065   4.519   8.434 -2.2576 -0.3615 -0.2757
 1213SOL     OW15271   2.274   1.078   8.693  0.1078 -0.2499 -0.0398
 1213SOL    HW115272   2.323   1.139   8.748 -0.5851  1.3902 -1.2535
 1213SOL    HW215273   2.274   1.122   8.608 -1.2595  0.1636  0.1774
 1214SOL     OW15274   1.117   2.689   7.521 -0.2627  0.6497 -0.3433
 1214SOL    HW115275   1.178   2.752   7.559  0.2902 -0.7323  1.0528
 1214SOL    HW215276   1.158   2.608   7.553  0.1474 -0.3969 -3.5425
 1215SOL     OW15277   1.480   4.452   6.760  0.0592 -0.4059  0.9339
 1215SOL    HW115278   1.427   4.457   6.681  1.6124  0.5119 -0.0463
 1215SOL    HW215279   1.425   4.419   6.831 -1.6458  0.3059 -0.0369
 1216SOL     OW15280   2.949   1.193   5.250 -0.0342  0.5062 -0.0502
 1216SOL    HW115281   2.920   1.108   5.217 -0.1083  0.7766 -0.6820
 1216SOL    HW215282   2.876   1.247   5.219 -0.1237  0.4056 -0.0160
 1217SOL     OW15283   4.272   3.539   2.550  0.2809  0.3763  1.1613
 1217SOL    HW115284   4.269   3.603   2.479 -0.2646 -0.4876  0.4066
 1217SOL    HW215285   4.219   3.577   2.620  0.8394  1.9448  0.7289
 1218SOL     OW15286   3.306   4.148   3.501 -0.2843 -0.1659  0.6381
 1218SOL    HW115287   3.240   4.144   3.571 -1.6443  1.1100 -0.5939
 1218SOL    HW215288   3.341   4.235   3.519 -2.0546  0.4181  1.2638
 1219SOL     OW15289   0.355   1.667   6.226 -0.0431 -0.7343 -0.1183
 1219SOL    HW115290   0.438   1.619   6.222 -0.3850 -1.1210 -2.4415
 1219SOL    HW215291   0.338   1.647   6.134  0.0180  0.9629 -0.5032
 1220SOL     OW15292   4.133   1.039  14.652 -0.2378 -0.0327 -0.1493
 1220SOL    HW115293   4.115   1.072  14.564 -1.1762 -2.5978 -0.8998
 1220SOL    HW215294   4.228   1.048  14.655 -0.5456  2.5325  2.3617
 1221SOL     OW15295   4.033   2.051   3.822  0.3266 -0.5984 -0.1976
 1221SOL    HW115296   3.978   2.111   3.772 -0.7407  1.3508  3.3893
 1221SOL    HW215297   4.107   2.040   3.763  0.3870  0.3197 -0.2897
 1222SOL     OW15298   1.997   0.335   4.223  0.0713  0.2332  0.5295
 1222SOL    HW115299   2.071   0.367   4.274  0.6778  1.1847 -0.9480
 1222SOL    HW215300   2.003   0.241   4.239 -0.7098 -0.0218 -0.6273
 1223SOL     OW15301   0.314   0.225   4.518 -0.4128 -0.2293  0.1085
 1223SOL    HW115302   0.388   0.278   4.548 -0.2066 -0.5952  0.2453
 1223SOL    HW215303   0.340   0.139   4.551  0.2405 -0.6782 -1.5477
 1224SOL     OW15304   4.078   0.320  15.631 -0.1507  0.7217 -0.5628
 1224SOL    HW115305   4.160   0.369  15.641  1.4469 -2.4326  1.7534
 1224SOL    HW215306   4.023   0.353  15.703  1.6264 -0.6558  1.4170
 1225SOL     OW15307   1.338   3.389   3.858 -0.4338 -0.2034  0.2699
 1225SOL    HW115308   1.260   3.342   3.888  0.3111 -2.0378 -0.6156
 1225SOL    HW215309   1.295   3.469   3.830 -1.6965 -0.9541  0.0354
 1226SOL     OW15310   0.301   3.123  17.269 -0.2008  0.2820 -0.2855
 1226SOL    HW115311   0.282   3.209  17.305 -1.3378 -0.2523  0.4267
 1226SOL    HW215312   0.288   3.064  17.343  0.7667 -1.3594 -1.4314
 1227SOL     OW15313   1.827   3.714  15.246  0.6379  0.6061 -0.0139
 1227SOL    HW115314   1.894   3.697  15.313  0.6605  0.5790 -0.0433
 1227SOL    HW215315   1.878   3.761  15.180  1.6401  0.4505  0.6468
 1228SOL     OW15316   3.988   0.141  14.734  0.3119  0.5140  0.4192
 1228SOL    HW115317   4.061   0.177  14.785 -0.8154 -0.6299  2.8326
 1228SOL    HW215318   4.006   0.047  14.737 -0.9047  0.3231  1.6595
 1229SOL     OW15319   1.516   4.254   1.049 -0.3816  0.1050 -0.0876
 1229SOL    HW115320   1.522   4.186   1.116 -3.0865 -0.4959 -0.4434
 1229SOL    HW215321   1.454   4.316   1.089 -1.6100 -1.6872  0.8353
 1230SOL     OW15322   1.091   2.504   6.061  0.5356  0.5860  0.3916
 1230SOL    HW115323   1.059   2.575   6.005  1.7060 -0.1704 -1.2154
 1230SOL    HW215324   1.026   2.435   6.045  2.7115 -1.1352 -0.9074
 1231SOL     OW15325   3.610   3.425   4.972 -0.0292  0.0708  0.1566
 1231SOL    HW115326   3.703   3.425   4.947  0.2323  0.4272  1.1381
 1231SOL    HW215327   3.614   3.479   5.051  2.8062 -1.0590  0.7894
 1232SOL     OW15328   2.712   1.442   8.904  0.6689  0.2405 -0.0811
 1232SOL    HW115329   2.711   1.495   8.984 -0.0437  0.7392 -0.4137
 1232SOL    HW215330   2.802   1.453   8.875  1.3093 -1.5760  1.2432
 1233SOL     OW15331   3.221   1.617   7.050 -0.5981 -0.1243  0.1931
 1233SOL    HW115332   3.216   1.709   7.074 -2.4404 -0.1482 -0.0469
 1233SOL    HW215333   3.293   1.591   7.106  0.3440  1.8952 -0.0924
 1234SOL     OW15334   2.866   3.301   5.045 -0.0085 -0.2848 -0.0605
 1234SOL    HW115335   2.930   3.238   5.012 -2.5849 -2.6517 -0.5148
 1234SOL    HW215336   2.856   3.359   4.970 -1.5077 -1.2372 -0.5754
 1235SOL     OW15337   1.372   3.963   8.620  0.3204  0.1938 -0.1778
 1235SOL    HW115338   1.379   3.868   8.615  2.0631  0.2206  1.9758
 1235SOL    HW215339   1.465   3.983   8.632  0.5914 -0.5006 -1.1104
 1236SOL     OW15340   0.483   3.689   0.980 -0.4934 -0.1575  0.0586
 1236SOL    HW115341   0.528   3.727   1.056  0.0369  0.0656 -0.3673
 1236SOL    HW215342   0.391   3.686   1.005 -0.5155 -1.0935 -0.1294
 1237SOL     OW15343   0.249   3.787   7.791  0.0338  0.0997  0.3050
 1237SOL    HW115344   0.210   3.744   7.868  0.9989 -0.0883  0.6839
 1237SOL    HW215345   0.260   3.709   7.736  0.3467 -0.7427  1.5673
 1238SOL     OW15346   3.462   3.233  12.125  0.5322 -0.1257 -0.2435
 1238SOL    HW115347   3.438   3.280  12.046  3.5623  0.3461 -0.9050
 1238SOL    HW215348   3.382   3.200  12.166 -0.1087  1.6110 -0.1113
 1239SOL     OW15349   2.922   2.387   9.363 -0.0603 -0.4069  0.2697
 1239SOL    HW115350   2.989   2.322   9.384  0.4745  0.4198  1.0952
 1239SOL    HW215351   2.963   2.419   9.283 -1.0760  1.2311  0.3954
 1240SOL     OW15352   2.014   1.554   8.121  0.3525 -0.5981  0.1563
 1240SOL    HW115353   2.094   1.601   8.143  0.0889 -1.2012  2.3140
 1240SOL    HW215354   2.037   1.461   8.122 -1.5363 -1.0620  0.0417
 1241SOL     OW15355   2.700   4.572   6.199 -0.0139  0.1716 -0.0028
 1241SOL    HW115356   2.689   4.608   6.111 -0.4955 -1.9441 -0.8153
 1241SOL    HW215357   2.780   4.520   6.188  0.4131  0.7782  0.2434
 1242SOL     OW15358   3.180   3.415   9.105 -0.1197  0.3515 -0.4494
 1242SOL    HW115359   3.275   3.409   9.095 -0.2056 -0.2451 -0.8728
 1242SOL    HW215360   3.154   3.354   9.173  1.7945 -1.1927 -1.1115
 1243SOL     OW15361   0.977   1.220  15.305  0.7017  0.4248 -0.6175
 1243SOL    HW115362   0.942   1.272  15.377  3.4873 -0.3877  1.2919
 1243SOL    HW215363   1.040   1.288  15.282  0.4884  0.5503 -0.8444
 1244SOL     OW15364   3.593   3.365   9.680  0.9605  0.1592 -0.0962
 1244SOL    HW115365   3.514   3.332   9.724 -0.8414  5.3365  0.5943
 1244SOL    HW215366   3.623   3.300   9.617  0.4955 -1.9193  1.8206
 1245SOL     OW15367   3.114   0.058  14.379 -0.3019  0.5845  0.4282
 1245SOL    HW115368   3.152   0.107  14.307  0.5238  0.4299  0.7522
 1245SOL    HW215369   3.195   0.023  14.417  0.7481  3.1493  0.5187
 1246SOL     OW15370   2.773   3.195   3.670 -0.6044  0.7380 -0.0267
 1246SOL    HW115371   2.716   3.120   3.650 -0.7159  0.7503  0.2383
 1246SOL    HW215372   2.720   3.274   3.675  1.0154  2.0270 -3.5141
 1247SOL     OW15373   2.013   1.206   7.795 -0.1308  0.5206 -0.2889
 1247SOL    HW115374   2.027   1.123   7.749  0.4823  1.8040 -2.3978
 1247SOL    HW215375   1.925   1.191   7.829  0.7682 -2.0306  0.9059
 1248SOL     OW15376   2.750   0.762   4.568  0.2692 -0.3629 -0.3983
 1248SOL    HW115377   2.797   0.691   4.524  0.6018  0.1004 -0.7949
 1248SOL    HW215378   2.772   0.751   4.661  0.9808 -1.2576 -0.6734
 1249SOL     OW15379   3.070   1.507   2.967  0.6031  0.0049 -0.3121
 1249SOL    HW115380   3.074   1.437   3.031 -1.4750  0.4341  0.2599
 1249SOL    HW215381   3.128   1.570   3.009  0.6902  0.5126 -1.1803
 1250SOL     OW15382   3.515   1.191   7.873  0.5190  0.0536 -0.6795
 1250SOL    HW115383   3.508   1.101   7.840 -0.6189 -0.2506  0.4038
 1250SOL    HW215384   3.607   1.192   7.897  0.9878 -1.2337 -2.3949
 1251SOL     OW15385   1.648   3.286   6.154  0.1089  0.6375  0.0746
 1251SOL    HW115386   1.571   3.302   6.208  0.5199 -0.8660  1.1235
 1251SOL    HW215387   1.667   3.193   6.170  1.6801  0.5174 -2.4271
 1252SOL     OW15388   0.548   1.372   5.556  0.4020 -0.3342  0.3239
 1252SOL    HW115389   0.583   1.366   5.645  1.4916 -0.8791 -0.1559
 1252SOL    HW215390   0.494   1.292   5.556  2.7741 -1.9375  0.4123
 1253SOL     OW15391   3.088   3.940   4.841  0.0620 -0.3007 -0.5560
 1253SOL    HW115392   3.069   3.847   4.839  2.8277 -0.8492  0.1460
 1253SOL    HW215393   3.090   3.965   4.933 -1.8811  3.1977 -1.4414
 1254SOL     OW15394   1.989   1.282   6.067  0.6117 -0.2976 -0.4521
 1254SOL    HW115395   2.006   1.331   6.148 -0.7861  0.9069 -0.8849
 1254SOL    HW215396   1.967   1.356   6.011  1.4579 -1.7461 -2.6770
 1255SOL     OW15397   4.207   1.614   3.947  0.0650 -0.0360  0.1545
 1255SOL    HW115398   4.184   1.522   3.931 -0.6935 -0.1704  2.0233
 1255SOL    HW215399   4.123   1.659   3.936  1.0184  1.4216 -1.1368
 1256SOL     OW15400   0.816   2.293   1.149  0.3254 -0.2986  0.4735
 1256SOL    HW115401   0.796   2.211   1.194  0.0203  0.7919  2.3536
 1256SOL    HW215402   0.833   2.266   1.059 -0.2499  0.3219  0.1761
 1257SOL     OW15403   3.510   4.725   0.237  0.6014  0.1961  0.1980
 1257SOL    HW115404   3.448   0.003   0.308 -0.7264  0.6415 -1.0508
 1257SOL    HW215405   3.587   4.696   0.286 -1.1765 -0.9119  2.3415
 1258SOL     OW15406   0.373   0.912  11.936  0.8737  0.3087 -0.1814
 1258SOL    HW115407   0.452   0.869  11.968 -0.2576 -1.8419 -0.2786
 1258SOL    HW215408   0.406   0.945  11.852  0.6242 -1.2213 -0.8755
 1259SOL     OW15409   0.101   0.187   4.235  0.3962 -0.4256  0.1386
 1259SOL    HW115410   0.163   0.219   4.170 -0.5752  1.3325  0.0852
 1259SOL    HW215411   0.107   0.266   4.289 -0.5420 -0.8262  0.8363
 1260SOL     OW15412   2.556   1.711   2.419 -0.4024 -0.1004  0.4209
 1260SOL    HW115413   2.598   1.639   2.466  1.0117  1.4327  1.5260
 1260SOL    HW215414   2.465   1.698   2.442 -0.0485 -6.0886 -1.5538
 1261SOL     OW15415   4.424   1.166   2.816 -0.0254  0.4664 -0.4501
 1261SOL    HW115416   4.429   1.173   2.721  0.3057 -2.1546 -0.6152
 1261SOL    HW215417   4.514   1.143   2.835  0.2494  0.3825 -1.8638
 1262SOL     OW15418   0.373   0.369   2.616 -0.2936  0.1241  0.3600
 1262SOL    HW115419   0.283   0.396   2.636 -1.5987 -2.4599 -1.9996
 1262SOL    HW215420   0.408   0.443   2.565  0.0901  0.4275  1.0568
 1263SOL     OW15421   2.911   2.269  17.698 -0.1268 -0.6231  0.3824
 1263SOL    HW115422   2.965   2.271  17.619  1.1862  2.4744  1.3735
 1263SOL    HW215423   2.867   2.354  17.694  0.7590 -0.2195 -0.8563
 1264SOL     OW15424   3.017   1.241   3.463 -0.1267  0.1512 -0.7670
 1264SOL    HW115425   3.038   1.292   3.541  0.8417  0.1072 -1.0011
 1264SOL    HW215426   2.929   1.274   3.442  0.4765  1.6648 -0.8972
 1265SOL     OW15427   4.416   0.249  15.490 -0.0833 -0.4667  0.2669
 1265SOL    HW115428   4.435   0.218  15.579  3.7523  1.4631  0.1115
 1265SOL    HW215429   4.371   0.333  15.501  2.4188  0.9743 -0.5419
 1266SOL     OW15430   1.678   2.295   2.679 -0.0582  0.3830 -0.2377
 1266SOL    HW115431   1.772   2.286   2.665 -0.1396 -0.9892  0.0904
 1266SOL    HW215432   1.638   2.286   2.592 -1.6382  0.7684  0.4497
 1267SOL     OW15433   3.562   0.149   4.211 -0.1631 -0.4527 -0.9343
 1267SOL    HW115434   3.567   0.187   4.123  2.5637 -2.2723 -1.5726
 1267SOL    HW215435   3.641   0.180   4.255 -3.5252  3.1739  2.5131
 1268SOL     OW15436   1.552   2.805   2.812 -0.1931 -0.6777 -0.2214
 1268SOL    HW115437   1.617   2.872   2.791  0.9969 -1.3480  1.2638
 1268SOL    HW215438   1.536   2.803   2.907  0.4433 -1.9651 -0.1338
 1269SOL     OW15439   3.569   3.204  17.686 -0.1887 -0.3366 -0.2916
 1269SOL    HW115440   3.654   3.188  17.727 -0.0937  1.3536  0.2049
 1269SOL    HW215441   3.527   3.261   0.008  0.5609  2.9499 -2.7097
 1270SOL     OW15442   4.309   2.293   1.007  0.1238 -0.2527  0.1613
 1270SOL    HW115443   4.398   2.328   1.002  1.0140 -2.6694 -1.2175
 1270SOL    HW215444   4.281   2.315   1.095 -1.5472  1.1058 -0.7288
 1271SOL     OW15445   1.798   1.264   1.121 -0.7148  0.2518 -0.3136
 1271SOL    HW115446   1.880   1.215   1.135 -0.3585  0.9025 -0.1498
 1271SOL    HW215447   1.825   1.302   1.037  2.6822  0.5989  0.9442
 1272SOL     OW15448   3.605   0.992  13.236 -0.5822 -0.7127 -0.3364
 1272SOL    HW115449   3.528   1.009  13.182  0.2817  0.5321 -1.1636
 1272SOL    HW215450   3.573   1.004  13.326  0.5908 -0.0733 -0.0034
 1273SOL     OW15451   1.140   0.705  15.569 -0.2375  0.6531 -0.3277
 1273SOL    HW115452   1.234   0.704  15.551  0.1489  4.9146  1.4296
 1273SOL    HW215453   1.137   0.615  15.602  1.7770  0.5273 -0.4387
 1274SOL     OW15454   3.549   2.406  14.395 -0.2322  0.1357 -0.5871
 1274SOL    HW115455   3.619   2.467  14.419 -0.8791  0.3616  0.7200
 1274SOL    HW215456   3.596   2.327  14.366 -0.9618 -1.3878  2.4232
 1275SOL     OW15457   3.946   3.920   4.124 -0.1253  0.0906 -0.5562
 1275SOL    HW115458   3.884   3.935   4.053 -1.6361 -2.7426  0.1327
 1275SOL    HW215459   3.884   3.894   4.193 -0.5454 -1.2194 -1.4242
 1276SOL     OW15460   1.246   0.364   4.061  0.2523 -0.4704 -0.0324
 1276SOL    HW115461   1.154   0.387   4.046  0.1168  0.2206  1.9100
 1276SOL    HW215462   1.275   0.308   3.989  0.3100 -1.2040  0.5638
 1277SOL     OW15463   1.555   3.841  12.536 -0.2379  0.2809 -0.1524
 1277SOL    HW115464   1.501   3.799  12.469  1.6238  0.0142 -1.4877
 1277SOL    HW215465   1.549   3.926  12.492 -1.8071  0.6468  0.7705
 1278SOL     OW15466   0.539   4.565   5.989 -0.4923 -0.2615 -0.3671
 1278SOL    HW115467   0.558   4.621   6.065 -0.0840 -0.6706 -0.1722
 1278SOL    HW215468   0.496   4.493   6.034 -1.7293  0.1919 -0.8195
 1279SOL     OW15469   4.087   1.547   2.293  0.4971 -0.2036 -0.2817
 1279SOL    HW115470   4.071   1.641   2.294  1.3250 -0.0465 -1.3411
 1279SOL    HW215471   4.166   1.531   2.242  0.5372 -1.2257  0.0913
 1280SOL     OW15472   2.927   3.501   2.555 -0.1126 -0.5284 -0.4282
 1280SOL    HW115473   2.922   3.597   2.560  1.2860 -0.3869 -1.6928
 1280SOL    HW215474   2.958   3.484   2.644 -1.0618 -0.6120 -0.1158
 1281SOL     OW15475   3.007   3.581   3.095  0.5229  0.3787 -0.5207
 1281SOL    HW115476   3.103   3.590   3.100  0.4099 -0.4580  3.1023
 1281SOL    HW215477   2.988   3.629   3.014  0.5303  1.2930  0.0182
 1282SOL     OW15478   3.137   3.347   5.651 -0.1998 -0.1618  0.1651
 1282SOL    HW115479   3.093   3.411   5.594  0.0539  1.1684  1.4707
 1282SOL    HW215480   3.114   3.268   5.603  0.7367  1.3106 -2.7536
 1283SOL     OW15481   0.150   4.725   8.822  0.0821  0.1249  0.2107
 1283SOL    HW115482   0.087   0.008   8.891 -0.8039  1.3664 -0.9485
 1283SOL    HW215483   0.180   0.067   8.776  0.3598  0.3667  0.8126
 1284SOL     OW15484   3.342   3.252  17.540  0.1821 -0.0907 -0.3694
 1284SOL    HW115485   3.432   3.222  17.551 -0.2323 -0.7847  1.1121
 1284SOL    HW215486   3.326   3.300  17.622  2.2334 -1.1046  0.6069
 1285SOL     OW15487   0.839   1.063   1.141 -0.3376 -0.1298 -0.1622
 1285SOL    HW115488   0.754   1.034   1.106 -1.1189  0.5564  1.1601
 1285SOL    HW215489   0.835   1.158   1.132 -1.1701 -0.2341 -0.9652
 1286SOL     OW15490   4.412   3.447  10.381  0.1214  0.2590  0.0610
 1286SOL    HW115491   4.421   3.362  10.340 -2.3892  0.0628 -0.0835
 1286SOL    HW215492   4.479   3.451  10.450 -0.3134  1.0025  0.4367
 1287SOL     OW15493   2.508   3.512   6.811 -0.3953  0.0918 -0.5441
 1287SOL    HW115494   2.590   3.482   6.771  0.7296  4.4257 -1.5551
 1287SOL    HW215495   2.490   3.450   6.881  0.8285 -0.4949 -0.7440
 1288SOL     OW15496   1.095   0.043  11.219  0.2629 -0.5687 -0.0529
 1288SOL    HW115497   1.128   0.133  11.213  1.6566 -1.1268 -0.6999
 1288SOL    HW215498   1.153   4.732  11.160 -0.9956 -3.1822  0.8301
 1289SOL     OW15499   1.769   1.753   1.876 -0.3257 -0.7588 -0.4886
 1289SOL    HW115500   1.839   1.716   1.822  1.2654 -0.7904  1.5849
 1289SOL    HW215501   1.698   1.721   1.822  0.5224 -0.1304 -1.9682
 1290SOL     OW15502   3.033   1.264   8.539  0.1643 -0.1743  0.8728
 1290SOL    HW115503   3.047   1.359   8.542  1.1790 -0.3082  0.3843
 1290SOL    HW215504   3.108   1.235   8.591  1.5659 -0.2189 -1.1601
 1291SOL     OW15505   0.601   0.981   6.850  0.1565  0.1124  0.1604
 1291SOL    HW115506   0.596   0.920   6.776 -1.2084  0.6566 -0.1865
 1291SOL    HW215507   0.598   0.914   6.919  1.1661  0.1995  0.2917
 1292SOL     OW15508   0.745   4.461   6.638  0.5910 -0.0014  0.2326
 1292SOL    HW115509   0.729   4.419   6.554 -0.7247  0.4678  0.2566
 1292SOL    HW215510   0.808   4.529   6.618 -0.2268  0.2448 -1.4896
 1293SOL     OW15511   3.919   1.706   6.467 -0.2509  0.0837 -0.6060
 1293SOL    HW115512   4.014   1.714   6.470 -0.1890  0.1500 -2.4217
 1293SOL    HW215513   3.914   1.624   6.418  0.8780  0.3588 -1.1873
 1294SOL     OW15514   3.420   1.099   9.926 -0.1422  0.1941 -0.1220
 1294SOL    HW115515   3.452   1.051  10.002 -0.5776  0.4716  0.2310
 1294SOL    HW215516   3.331   1.123   9.951 -0.2048 -0.3715  0.2039
 1295SOL     OW15517   0.747   0.960   4.420  0.0991  0.2906 -0.1679
 1295SOL    HW115518   0.769   1.045   4.381  2.4811  0.4823  1.5959
 1295SOL    HW215519   0.754   0.906   4.341 -0.3005  0.2693 -0.1893
 1296SOL     OW15520   0.222   1.899   9.048 -0.0748  0.0506 -0.4836
 1296SOL    HW115521   0.251   1.821   9.097  2.0261 -1.1271 -3.5526
 1296SOL    HW215522   0.228   1.963   9.118  1.4658  1.8416 -2.2734
 1297SOL     OW15523   3.237   2.519   6.600 -0.3941  0.1373 -0.1965
 1297SOL    HW115524   3.296   2.479   6.664 -2.5769 -0.1587  1.6326
 1297SOL    HW215525   3.235   2.606   6.640  1.0377 -0.0715  0.3300
 1298SOL     OW15526   4.095   4.464   1.661  0.2985  0.4074  0.4432
 1298SOL    HW115527   4.136   4.379   1.675 -0.6432 -0.6360 -3.1421
 1298SOL    HW215528   4.132   4.484   1.575  1.6134  0.8692  1.1047
 1299SOL     OW15529   2.031   0.402   0.920 -0.2494 -0.2953  0.5496
 1299SOL    HW115530   2.117   0.360   0.914 -0.6572 -0.8804 -1.1558
 1299SOL    HW215531   2.038   0.444   0.834 -1.1892  0.4901  0.8729
 1300SOL     OW15532   2.985   1.613  10.257  0.9291 -0.6532 -0.6995
 1300SOL    HW115533   3.001   1.605  10.351 -2.1978 -1.4813 -0.2318
 1300SOL    HW215534   3.075   1.637  10.235  0.5538  1.9881  0.7188
 1301SOL     OW15535   4.528   1.454   1.890  0.1036  0.5795  0.7816
 1301SOL    HW115536   4.454   1.462   1.831  0.4411  0.6502  0.3682
 1301SOL    HW215537   4.495   1.395   1.957 -2.4107  1.1299  0.0087
 1302SOL     OW15538   1.505   3.438   7.304  0.2280  0.1594  0.8828
 1302SOL    HW115539   1.492   3.487   7.223 -3.5003 -0.0784  1.3283
 1302SOL    HW215540   1.497   3.347   7.274  1.6843  0.9036 -1.8067
 1303SOL     OW15541   0.565   0.132  16.871  0.3559 -0.5986 -0.1831
 1303SOL    HW115542   0.589   0.054  16.821 -1.6608 -1.4720  0.2018
 1303SOL    HW215543   0.613   0.107  16.950 -0.9523  0.3996  0.9241
 1304SOL     OW15544   4.380   0.811   8.642  0.0684  0.8231  0.5518
 1304SOL    HW115545   4.324   0.888   8.640 -0.6297  0.2572 -1.3631
 1304SOL    HW215546   4.335   0.754   8.705  0.5495 -0.2545 -0.0704
 1305SOL     OW15547   0.578   0.440   8.579 -0.6855  0.1314 -0.7260
 1305SOL    HW115548   0.641   0.370   8.565 -1.7831 -0.9589 -0.1896
 1305SOL    HW215549   0.501   0.391   8.609  0.0591 -0.7658 -0.3050
 1306SOL     OW15550   1.439   3.271   1.082 -0.5793  0.3157  0.0915
 1306SOL    HW115551   1.410   3.361   1.068  0.2020  0.6736  0.7343
 1306SOL    HW215552   1.534   3.283   1.076 -0.9070  2.5252 -0.5487
 1307SOL     OW15553   3.157   1.629   7.420 -0.0098 -0.5195  0.0780
 1307SOL    HW115554   3.182   1.707   7.469  0.0474 -0.2468 -0.3979
 1307SOL    HW215555   3.241   1.588   7.399 -0.6842 -3.0056  2.0627
 1308SOL     OW15556   0.000   3.116   4.701  0.0660  0.4960  0.3131
 1308SOL    HW115557   4.733   3.202   4.661  0.1075  0.6663  0.6770
 1308SOL    HW215558   4.704   3.139   4.788  2.5487 -0.3371  1.4728
 1309SOL     OW15559   1.487   3.343   0.023 -0.1879 -0.0485  0.0700
 1309SOL    HW115560   1.454   3.258  17.738 -0.2804  0.6290 -1.8658
 1309SOL    HW215561   1.538   3.354  17.685 -2.6342 -0.1329 -1.4837
 1310SOL     OW15562   4.528   0.610   2.338 -0.2843 -0.1726  0.6303
 1310SOL    HW115563   4.438   0.576   2.339 -0.3698  0.0636  0.8143
 1310SOL    HW215564   4.560   0.558   2.264  0.0018 -0.4914  0.9769
 1311SOL     OW15565   3.121   2.202   7.757  0.2377 -0.1169 -0.3534
 1311SOL    HW115566   3.206   2.165   7.735 -1.0972 -2.3095 -1.7813
 1311SOL    HW215567   3.074   2.179   7.677  0.8727  1.8954 -1.3079
 1312SOL     OW15568   0.704   3.641   0.116  0.5586 -0.2253  0.0305
 1312SOL    HW115569   0.705   3.546   0.108 -1.4624 -0.1965 -0.5212
 1312SOL    HW215570   0.747   3.648   0.201 -0.3975  0.4933  0.4593
 1313SOL     OW15571   4.463   1.912  17.573  0.4162 -0.7206  0.1274
 1313SOL    HW115572   4.371   1.941  17.569  0.1069 -1.7804 -0.3679
 1313SOL    HW215573   4.452   1.817  17.584  2.6447 -0.9496  0.3255
 1314SOL     OW15574   1.760   1.697  12.278 -0.2882 -0.2902 -0.9506
 1314SOL    HW115575   1.742   1.695  12.184 -2.1923  0.5398 -0.6202
 1314SOL    HW215576   1.826   1.628  12.270 -1.0291 -1.3241  1.5892
 1315SOL     OW15577   1.968   3.918  12.276 -0.0678  0.0751 -0.1331
 1315SOL    HW115578   1.909   3.993  12.266  1.1536  0.7705 -2.3209
 1315SOL    HW215579   1.948   3.887  12.364 -1.1092  0.2280 -0.3207
 1316SOL     OW15580   0.186   3.627   8.011  0.0588 -0.5043  0.7545
 1316SOL    HW115581   0.272   3.643   8.050 -0.0390  0.7467  0.4283
 1316SOL    HW215582   0.159   3.540   8.043  2.5015 -1.5569 -0.0369
 1317SOL     OW15583   2.159   1.844  14.449  0.1396 -0.2439  0.4200
 1317SOL    HW115584   2.080   1.890  14.419 -0.3115 -1.1907  0.1718
 1317SOL    HW215585   2.153   1.867  14.542  0.4781  1.0136  0.1326
 1318SOL     OW15586   4.438   3.404   7.356 -0.3208 -0.2323 -0.2635
 1318SOL    HW115587   4.453   3.327   7.301 -1.1517  0.2284 -1.1248
 1318SOL    HW215588   4.501   3.465   7.319  1.6887 -0.2542  3.0929
 1319SOL     OW15589   1.543   2.879  17.211  0.1627  0.1599 -0.0665
 1319SOL    HW115590   1.464   2.867  17.263  0.6705 -0.9802  0.4288
 1319SOL    HW215591   1.498   2.872  17.127 -1.7205 -1.1463  1.0615
 1320SOL     OW15592   0.907   3.196   4.445  0.0563 -0.3419  0.4793
 1320SOL    HW115593   0.997   3.163   4.438 -0.2726 -1.0956 -0.2730
 1320SOL    HW215594   0.882   3.142   4.520 -0.3178 -0.2809  0.3944
 1321SOL     OW15595   2.001   1.843  15.022  0.1859 -0.3117  0.2510
 1321SOL    HW115596   2.036   1.932  15.012 -1.1179  0.1341 -0.3802
 1321SOL    HW215597   1.909   1.864  15.040  0.4681  0.2931  0.9759
 1322SOL     OW15598   1.752   1.567   9.711  0.2527  0.5545  0.3703
 1322SOL    HW115599   1.766   1.658   9.682 -2.8231  0.3588 -1.7134
 1322SOL    HW215600   1.663   1.576   9.747 -0.9041  1.9208 -2.8115
 1323SOL     OW15601   2.091   0.809   3.646  0.1541 -1.0059  0.0343
 1323SOL    HW115602   2.048   0.827   3.729  2.8293 -0.6790  1.3599
 1323SOL    HW215603   2.129   0.721   3.653  0.4593 -0.9337 -0.7033
 1324SOL     OW15604   2.395   2.571  13.219 -0.0170 -0.0062  0.1648
 1324SOL    HW115605   2.359   2.658  13.205  1.1696  0.2350 -1.4258
 1324SOL    HW215606   2.415   2.562  13.312 -0.4541  0.5188  0.3054
 1325SOL     OW15607   3.617   4.568   3.926  0.2841 -0.4426  0.0838
 1325SOL    HW115608   3.637   4.565   4.020  1.2265 -0.6569 -0.1257
 1325SOL    HW215609   3.655   4.654   3.909  3.4697 -2.0731 -0.9425
 1326SOL     OW15610   3.943   0.581   1.552 -0.2108  0.4129  0.0250
 1326SOL    HW115611   3.992   0.591   1.470 -0.3408 -3.2650 -0.4912
 1326SOL    HW215612   3.861   0.546   1.517  0.0853  1.3241 -1.5708
 1327SOL     OW15613   3.145   4.056  16.885 -0.5132 -0.2969 -0.4763
 1327SOL    HW115614   3.104   4.010  16.812  0.2818 -1.4325 -0.2055
 1327SOL    HW215615   3.085   4.130  16.894  2.3784  1.9655  0.1890
 1328SOL     OW15616   1.594   2.319  17.167  0.5575 -0.4862 -0.2151
 1328SOL    HW115617   1.686   2.308  17.146  0.3906 -2.0448 -0.1062
 1328SOL    HW215618   1.611   2.413  17.167  0.8310 -0.5287 -2.0054
 1329SOL     OW15619   0.139   0.496   2.194  0.0848 -0.1510 -0.1346
 1329SOL    HW115620   0.069   0.505   2.130  0.2254 -0.0544 -0.2758
 1329SOL    HW215621   0.092   0.479   2.275  0.2644  0.6251  0.1325
 1330SOL     OW15622   3.606   3.983   3.241 -0.8386  0.5451 -0.2227
 1330SOL    HW115623   3.650   3.899   3.231 -1.4123  0.1218  0.7661
 1330SOL    HW215624   3.551   3.966   3.318 -0.8026 -1.1226 -0.5782
 1331SOL     OW15625   0.052   4.184   1.900  0.6559  0.2810 -0.1135
 1331SOL    HW115626   0.072   4.097   1.934  1.8814  0.0646 -1.4484
 1331SOL    HW215627   4.712   4.165   1.844  0.7418  2.8663 -1.0991
 1332SOL     OW15628   4.029   3.026  13.755 -0.1673  0.4843  0.0891
 1332SOL    HW115629   4.089   3.068  13.693  0.6192  0.0219  0.5324
 1332SOL    HW215630   4.089   2.955  13.778 -0.6574  0.4341  1.2325
 1333SOL     OW15631   1.133   1.809   5.785 -0.0839  0.3166 -0.2045
 1333SOL    HW115632   1.155   1.791   5.877  0.8810 -2.0107 -0.8955
 1333SOL    HW215633   1.095   1.897   5.791 -1.0077 -0.1441  0.7225
 1334SOL     OW15634   3.574   4.604  10.938 -0.5216 -0.2358 -0.2933
 1334SOL    HW115635   3.621   4.597  11.021 -1.0400  0.0779  0.0203
 1334SOL    HW215636   3.484   4.588  10.966  0.5146  0.0505  3.1137
 1335SOL     OW15637   3.141   1.193   2.245  0.4088  0.8220 -0.0441
 1335SOL    HW115638   3.154   1.157   2.157  0.2079 -2.0176  1.0612
 1335SOL    HW215639   3.047   1.179   2.254  0.4581  1.4330  1.4564
 1336SOL     OW15640   0.974   1.046   2.092  0.1895 -0.0017 -0.2094
 1336SOL    HW115641   0.892   0.998   2.091 -1.8602  3.5037  0.8807
 1336SOL    HW215642   0.999   1.029   2.182  2.1544 -0.3531 -0.8182
 1337SOL     OW15643   2.026   4.708   4.044  0.3306  0.0788  0.8339
 1337SOL    HW115644   2.005   0.001   4.132  0.2519  1.9720  0.1921
 1337SOL    HW215645   2.084   0.040   4.010 -1.1562  0.7111 -0.4266
 1338SOL     OW15646   1.294   4.606   5.589 -0.3438  0.5971 -0.3799
 1338SOL    HW115647   1.207   4.640   5.612 -1.1026  0.3291 -2.9045
 1338SOL    HW215648   1.323   4.579   5.676  0.3013  0.6781 -0.5744
 1339SOL     OW15649   2.843   0.329   4.040 -0.6532 -0.8967 -0.6886
 1339SOL    HW115650   2.803   0.245   4.019  1.5759 -2.1582  0.2335
 1339SOL    HW215651   2.837   0.376   3.956  0.6428  0.3878 -0.0667
 1340SOL     OW15652   0.361   2.980   4.430  0.2892  0.2838 -0.4397
 1340SOL    HW115653   0.306   3.031   4.489  0.6904  1.7761 -1.3621
 1340SOL    HW215654   0.304   2.904   4.422 -0.5427  0.9987 -1.2218
 1341SOL     OW15655   3.727   2.640   2.900 -0.0969 -0.0244 -0.5100
 1341SOL    HW115656   3.644   2.614   2.860  0.7782 -1.3754 -1.4393
 1341SOL    HW215657   3.759   2.704   2.836 -0.6243 -1.4243 -2.1573
 1342SOL     OW15658   0.910   1.029   2.860  0.2949 -0.1397 -0.2054
 1342SOL    HW115659   0.943   1.106   2.814  0.0800 -0.1449 -0.3623
 1342SOL    HW215660   0.888   0.967   2.791 -1.7003  0.1763  0.1551
 1343SOL     OW15661   3.197   3.360   1.038  0.1968  0.1510 -0.1733
 1343SOL    HW115662   3.283   3.402   1.042  0.0482  0.3515  0.7667
 1343SOL    HW215663   3.167   3.360   1.129  1.6966  2.5697  0.3079
 1344SOL     OW15664   4.216   0.774  10.084  0.2655 -0.2707  0.3604
 1344SOL    HW115665   4.280   0.843  10.104  0.5038 -0.6564  0.9373
 1344SOL    HW215666   4.211   0.780   9.989 -0.4565  1.0544  0.4835
 1345SOL     OW15667   3.941   4.194   7.675 -0.2039 -0.0648 -0.0886
 1345SOL    HW115668   3.942   4.180   7.581 -1.7447  0.6648 -0.2165
 1345SOL    HW215669   3.847   4.186   7.693  0.0584 -1.3548  0.7489
 1346SOL     OW15670   0.071   1.473   2.152 -0.3882 -0.4517  0.0069
 1346SOL    HW115671   0.138   1.539   2.173 -3.3491  1.7071  2.6821
 1346SOL    HW215672   4.734   1.514   2.198 -1.9780 -1.5191 -1.5875
 1347SOL     OW15673   2.075   2.576  11.672 -0.1277  0.3940 -0.1448
 1347SOL    HW115674   2.001   2.634  11.656 -1.3075 -1.6499 -2.1570
 1347SOL    HW215675   2.042   2.493  11.707  0.4001  0.8354  1.3788
 1348SOL     OW15676   4.111   4.507   6.571 -0.0638 -0.5487 -0.0999
 1348SOL    HW115677   4.162   4.428   6.590  0.6505  0.3880  1.8913
 1348SOL    HW215678   4.186   4.556   6.538 -0.5282 -0.9376 -1.7144
 1349SOL     OW15679   0.905   0.296   6.566  0.3649 -0.7985  0.3388
 1349SOL    HW115680   0.809   0.294   6.561  0.3426  1.2829  0.2138
 1349SOL    HW215681   0.913   0.376   6.617  1.3205 -0.1918 -0.7570
 1350SOL     OW15682   3.846   3.500   1.031 -0.1990 -0.0387 -0.1069
 1350SOL    HW115683   3.902   3.498   1.109 -0.5856  0.7827  0.1879
 1350SOL    HW215684   3.902   3.524   0.958 -1.2040 -0.8280 -1.1372
 1351SOL     OW15685   1.052   3.588   5.903  0.1021  0.0215 -0.2958
 1351SOL    HW115686   0.982   3.524   5.913 -0.4506  0.9590  1.9047
 1351SOL    HW215687   1.003   3.667   5.884  0.4869 -0.3213 -2.6279
 1352SOL     OW15688   0.126   0.181  17.303 -0.1191  0.5573  0.1164
 1352SOL    HW115689   0.176   0.112  17.348 -1.3084 -0.8719 -0.7931
 1352SOL    HW215690   0.047   0.128  17.291 -0.2480  0.5387  1.0530
 1353SOL     OW15691   3.896   0.952   9.566 -0.1038 -0.7223 -0.6932
 1353SOL    HW115692   3.861   0.882   9.510  2.1005 -2.1881 -0.2518
 1353SOL    HW215693   3.913   0.905   9.648  1.2078 -0.7656 -0.9937
 1354SOL     OW15694   2.113   1.566   9.083 -0.3750 -0.4261 -0.2635
 1354SOL    HW115695   2.104   1.589   9.175 -0.7523 -1.6330  0.0031
 1354SOL    HW215696   2.121   1.471   9.093  1.9076 -0.3358 -1.3571
 1355SOL     OW15697   2.593   1.570   7.017  0.1479 -0.5412 -0.2309
 1355SOL    HW115698   2.594   1.577   6.921 -1.5533 -0.1491 -0.2247
 1355SOL    HW215699   2.628   1.647   7.060  0.0606 -0.1519 -0.8611
 1356SOL     OW15700   0.912   3.213  17.712  0.2741 -0.1019  0.1490
 1356SOL    HW115701   0.853   3.149  17.672 -0.4327  0.0683  0.9123
 1356SOL    HW215702   0.968   3.242  17.640 -0.2819  0.9656  0.1432
 1357SOL     OW15703   1.756   4.597   4.279  0.0696  0.9710 -0.1296
 1357SOL    HW115704   1.714   4.642   4.352  1.0087  0.0393  0.9840
 1357SOL    HW215705   1.840   4.577   4.320 -1.4644  0.9171  2.9793
 1358SOL     OW15706   3.492   0.819   6.911  0.6085 -0.8087  0.5304
 1358SOL    HW115707   3.479   0.913   6.928  1.8696 -1.1679  3.6057
 1358SOL    HW215708   3.417   0.809   6.853  0.3971 -0.7509  0.7927
 1359SOL     OW15709   2.549   2.344  11.015  0.2476 -0.4526  0.1328
 1359SOL    HW115710   2.643   2.362  11.023 -0.2300  1.6273  1.0452
 1359SOL    HW215711   2.555   2.272  10.952  3.0989  0.2716 -0.4436
 1360SOL     OW15712   2.963   4.562  13.433 -0.4476  0.3692  0.3420
 1360SOL    HW115713   3.040   4.507  13.416 -0.9105 -0.5396  1.1753
 1360SOL    HW215714   2.986   4.646  13.394  0.2046  0.4650  0.9368
 1361SOL     OW15715   2.968   3.161  16.964 -0.3423  0.4739 -0.7918
 1361SOL    HW115716   2.945   3.199  17.048  0.2440 -1.0477  0.0590
 1361SOL    HW215717   2.883   3.166  16.919 -0.3483 -0.5198 -0.8891
 1362SOL     OW15718   1.641   3.817   1.671 -0.0459 -0.0624  0.7966
 1362SOL    HW115719   1.583   3.740   1.675  2.0258 -1.6527  0.4064
 1362SOL    HW215720   1.704   3.785   1.605 -2.5304 -1.3520 -0.9578
 1363SOL     OW15721   0.756   0.674   3.237 -0.2926 -0.5212 -0.2885
 1363SOL    HW115722   0.763   0.740   3.168  0.6443 -2.1861 -1.7804
 1363SOL    HW215723   0.713   0.736   3.297  1.2212 -0.0541  0.3245
 1364SOL     OW15724   3.411   3.595   2.681  0.0685 -0.1485 -0.1218
 1364SOL    HW115725   3.459   3.512   2.676  2.2219  1.3122 -3.4650
 1364SOL    HW215726   3.325   3.568   2.713 -0.1439  2.0468  1.1130
 1365SOL     OW15727   3.463   0.691  12.624 -0.1468  0.0795  0.3243
 1365SOL    HW115728   3.463   0.606  12.580 -0.5390 -0.4382  1.3237
 1365SOL    HW215729   3.553   0.705  12.651  0.8765 -2.0640 -1.9851
 1366SOL     OW15730   2.011   2.897   3.816  0.4436 -0.4848 -0.0761
 1366SOL    HW115731   2.041   2.842   3.744  1.0577 -0.2112 -0.0261
 1366SOL    HW215732   1.942   2.947   3.770 -0.0709 -0.4985  0.6881
 1367SOL     OW15733   4.700   0.354   3.655  0.1953 -0.0701  0.0891
 1367SOL    HW115734   4.636   0.411   3.697 -2.0232 -1.5412 -1.2788
 1367SOL    HW215735   4.675   0.276   3.705 -0.9597  0.1071 -0.2109
 1368SOL     OW15736   0.547   2.622   4.337 -0.0560 -0.4550  0.1853
 1368SOL    HW115737   0.598   2.542   4.326  2.1172  1.2437 -1.9601
 1368SOL    HW215738   0.475   2.582   4.385 -1.6081  0.9594 -0.9697
 1369SOL     OW15739   3.059   4.172   7.464  0.2342  0.4378  0.3910
 1369SOL    HW115740   3.036   4.151   7.373 -2.4052 -0.5605  1.3059
 1369SOL    HW215741   3.055   4.083   7.499  0.6437  0.3397  0.2012
 1370SOL     OW15742   1.470   1.751   7.482  0.4832  0.0865 -0.3192
 1370SOL    HW115743   1.519   1.794   7.552  0.8153  0.7707 -0.9577
 1370SOL    HW215744   1.537   1.720   7.421 -1.4709  0.1430 -2.5015
 1371SOL     OW15745   3.455   4.071   7.893  0.0409  0.2919 -0.6006
 1371SOL    HW115746   3.421   4.053   7.805  0.8044 -0.9459 -0.6395
 1371SOL    HW215747   3.404   4.005   7.940 -0.6101  0.2382 -1.3893
 1372SOL     OW15748   4.685   2.806   8.334  0.2510 -0.3262  0.3344
 1372SOL    HW115749   4.682   2.712   8.318  1.8073 -0.2034 -0.7776
 1372SOL    HW215750   4.596   2.830   8.360  0.0382 -1.4209  0.5766
 1373SOL     OW15751   3.229   0.961   6.791  0.5088  0.5867  0.4388
 1373SOL    HW115752   3.234   1.026   6.721  1.9822  1.3166  1.2191
 1373SOL    HW215753   3.276   1.009   6.859  1.9101 -0.0273 -0.0820
 1374SOL     OW15754   4.215   2.086   0.822  0.0166  0.3243  0.2030
 1374SOL    HW115755   4.253   2.149   0.883 -1.5100 -0.7272  2.2447
 1374SOL    HW215756   4.123   2.076   0.846  0.3136 -2.1460  0.2361
 1375SOL     OW15757   1.866   3.042   4.553  0.9356  0.6691  0.3199
 1375SOL    HW115758   1.859   2.948   4.572  0.5206  0.3533 -1.3799
 1375SOL    HW215759   1.853   3.081   4.640  0.9194 -2.1918  1.6086
 1376SOL     OW15760   4.553   0.421   1.852 -0.1917  0.4349 -0.1534
 1376SOL    HW115761   4.615   0.470   1.798  0.9701 -1.1477 -0.2491
 1376SOL    HW215762   4.587   0.333   1.838 -2.5017 -0.3195 -0.9623
 1377SOL     OW15763   1.540   1.010  10.221  0.4840  0.1820  0.4411
 1377SOL    HW115764   1.584   1.084  10.179 -0.4136  0.4870  0.0286
 1377SOL    HW215765   1.504   0.981  10.137 -0.1493  1.7306  0.1665
 1378SOL     OW15766   4.711   2.436  11.210 -0.1098 -0.0704 -0.3998
 1378SOL    HW115767   0.035   2.509  11.193 -0.2779  1.4150  5.1703
 1378SOL    HW215768   4.626   2.477  11.226 -0.8115 -0.9789 -1.8379
 1379SOL     OW15769   0.232   2.392   5.511 -0.0081 -0.0376  0.0119
 1379SOL    HW115770   0.184   2.446   5.448 -1.2443 -2.0218 -0.7436
 1379SOL    HW215771   0.255   2.452   5.581  0.6424  0.4910 -0.6573
 1380SOL     OW15772   0.945   3.274   7.526  0.1863 -0.3149  0.5120
 1380SOL    HW115773   0.969   3.362   7.498 -1.1049 -0.0304  0.2639
 1380SOL    HW215774   0.868   3.290   7.581 -0.3142  0.1532 -0.3272
 1381SOL     OW15775   2.452   2.147   3.733 -0.0409  0.2121  0.6401
 1381SOL    HW115776   2.396   2.074   3.760  1.1602 -0.9834 -0.0888
 1381SOL    HW215777   2.529   2.098   3.702  0.3897  1.0634  0.3758
 1382SOL     OW15778   4.365   3.796   6.152 -0.3813  0.4332 -0.0251
 1382SOL    HW115779   4.451   3.768   6.119  0.2494 -0.1423  2.0768
 1382SOL    HW215780   4.391   3.834   6.236  0.8257  0.4940 -0.4238
 1383SOL     OW15781   0.721   0.838   1.377 -0.6438  0.2411  0.4042
 1383SOL    HW115782   0.809   0.877   1.376 -0.1466 -0.8419  1.6452
 1383SOL    HW215783   0.672   0.920   1.382  1.5574  1.6208 -0.8094
 1384SOL     OW15784   4.302   4.182  14.231 -0.2385  0.0835 -0.0856
 1384SOL    HW115785   4.253   4.264  14.225  0.0740  0.4286  1.9047
 1384SOL    HW215786   4.317   4.145  14.144 -1.0965 -0.4127 -0.0236
 1385SOL     OW15787   2.660   0.071   5.211  0.5659 -0.2659 -0.2084
 1385SOL    HW115788   2.631   4.725   5.250  0.3634 -0.2413 -0.3120
 1385SOL    HW215789   2.695   0.118   5.287 -0.3315 -1.3201  0.8495
 1386SOL     OW15790   2.832   2.999   8.519 -0.2701 -0.5745 -0.5000
 1386SOL    HW115791   2.928   2.994   8.517 -0.2754 -0.4634 -1.0591
 1386SOL    HW215792   2.828   2.963   8.608  0.0510 -0.1715 -0.3221
 1387SOL     OW15793   1.019   2.408   5.723 -0.7675 -0.4171  0.1605
 1387SOL    HW115794   0.981   2.399   5.810  1.0939 -1.4802  0.8691
 1387SOL    HW215795   0.937   2.398   5.676 -0.3571 -0.9951 -0.4201
 1388SOL     OW15796   4.588   4.241   2.602  0.4817  0.0907 -0.2663
 1388SOL    HW115797   4.675   4.204   2.591  0.9218  1.7453 -2.3422
 1388SOL    HW215798   4.601   4.334   2.580  0.9220  0.0016 -0.3834
 1389SOL     OW15799   3.579   0.871   2.365  0.0056 -0.1350  0.4838
 1389SOL    HW115800   3.569   0.853   2.458 -1.9681 -0.3867  0.2073
 1389SOL    HW215801   3.553   0.963   2.359  1.6428  0.3389  0.5980
 1390SOL     OW15802   1.745   0.345  11.255  0.1008 -0.0195  0.2786
 1390SOL    HW115803   1.796   0.300  11.188  0.3559  1.0691 -0.2568
 1390SOL    HW215804   1.761   0.298  11.337 -2.5379 -3.3129 -1.0988
 1391SOL     OW15805   2.622   2.929   7.234  0.1877  0.0558  0.4478
 1391SOL    HW115806   2.689   2.957   7.296  2.6720 -2.0875 -1.2648
 1391SOL    HW215807   2.652   2.839   7.217 -0.4262 -0.2557  1.0280
 1392SOL     OW15808   2.057   2.722  13.180  0.0291 -0.3356 -0.4432
 1392SOL    HW115809   2.147   2.729  13.148 -0.2433  0.9117 -0.9434
 1392SOL    HW215810   2.075   2.723  13.274  0.7528 -2.6388 -0.5563
 1393SOL     OW15811   3.357   3.666   7.511 -0.2160  0.1770  0.4528
 1393SOL    HW115812   3.441   3.620   7.514 -0.1644  0.4021  2.1033
 1393SOL    HW215813   3.303   3.601   7.466 -0.2634  1.1223 -0.8676
 1394SOL     OW15814   2.333   4.714   7.488  0.0872 -0.8759 -0.5587
 1394SOL    HW115815   2.307   4.705   7.396  0.3391 -1.6997 -0.5465
 1394SOL    HW215816   2.428   4.718   7.480  0.0848 -0.4553 -0.3353
 1395SOL     OW15817   3.610   0.186   8.512  0.3285 -0.1495  0.0429
 1395SOL    HW115818   3.656   0.114   8.554 -1.5041 -1.8429 -0.8357
 1395SOL    HW215819   3.623   0.257   8.575 -1.7430  1.0817 -0.9016
 1396SOL     OW15820   2.397   0.164  17.303 -0.6563  0.0553  0.3379
 1396SOL    HW115821   2.322   0.213  17.337 -2.1644 -1.3702 -0.9161
 1396SOL    HW215822   2.475   0.218  17.314 -0.0332 -0.3224 -2.2127
 1397SOL     OW15823   4.669   0.842   9.260  0.3689 -0.3115  0.4766
 1397SOL    HW115824   4.637   0.774   9.200  1.1804 -1.5029  1.3759
 1397SOL    HW215825   4.660   0.797   9.344 -0.0920 -1.5988 -0.2479
 1398SOL     OW15826   0.594   4.323   4.533 -0.0888  0.1150 -0.1427
 1398SOL    HW115827   0.508   4.294   4.503 -0.5068  1.1845  0.0220
 1398SOL    HW215828   0.591   4.417   4.512  0.1596  0.1281 -0.1188
 1399SOL     OW15829   0.169   2.207   0.846 -0.2676  0.4693 -0.0874
 1399SOL    HW115830   0.086   2.175   0.810 -0.5476  0.0391  0.9439
 1399SOL    HW215831   0.177   2.292   0.802 -1.2069  0.8853  0.5366
 1400SOL     OW15832   2.954   4.172   9.538 -0.6702 -0.1913  0.2627
 1400SOL    HW115833   2.997   4.115   9.602 -0.0138  0.8210  0.7235
 1400SOL    HW215834   3.023   4.228   9.503 -1.4451  1.3246  1.1453
 1401SOL     OW15835   1.075   3.983  15.006  0.3273 -0.6860 -0.2839
 1401SOL    HW115836   1.012   3.912  15.021 -2.0177  1.1395 -1.4716
 1401SOL    HW215837   1.081   4.016  15.095 -0.9374 -0.4993 -0.2630
 1402SOL     OW15838   1.749   0.790  13.126 -0.0364 -0.4095  0.2011
 1402SOL    HW115839   1.777   0.809  13.037 -1.3598 -0.3394 -0.1989
 1402SOL    HW215840   1.790   0.703  13.131 -0.3457 -0.5538  0.2026
 1403SOL     OW15841   2.610   0.490   8.136  0.5661  0.3978  0.1786
 1403SOL    HW115842   2.634   0.569   8.183  0.8203 -0.5918  1.6893
 1403SOL    HW215843   2.556   0.445   8.201 -0.8940  0.5497 -0.9119
 1404SOL     OW15844   1.178   4.718   6.990 -0.0219  0.3953  0.2476
 1404SOL    HW115845   1.110   0.029   6.943  0.2407 -0.2196 -0.7519
 1404SOL    HW215846   1.207   4.666   6.915  0.4869  1.2965 -0.1806
 1405SOL     OW15847   3.840   0.700  13.990  0.7312  0.1970 -0.2116
 1405SOL    HW115848   3.813   0.687  13.899  0.2528  2.1291 -0.3316
 1405SOL    HW215849   3.807   0.789  14.001  0.1820  0.0693 -0.8648
 1406SOL     OW15850   2.175   2.178   8.674  0.4119 -0.4831  0.1043
 1406SOL    HW115851   2.205   2.104   8.727  1.3194  0.3956  0.8312
 1406SOL    HW215852   2.124   2.141   8.603 -2.8205 -0.6530  2.4975
 1407SOL     OW15853   4.039   3.562   0.854 -0.2980  0.1197  0.1404
 1407SOL    HW115854   4.103   3.590   0.920 -0.7947 -1.7215  1.4303
 1407SOL    HW215855   4.034   3.639   0.798  0.6685  0.1983  0.1688
 1408SOL     OW15856   4.632   3.789   1.331  0.1565 -0.1331  0.7704
 1408SOL    HW115857   4.662   3.811   1.242  0.4967  0.8135  1.1089
 1408SOL    HW215858   4.675   3.860   1.379 -0.8672  0.7697  0.3488
 1409SOL     OW15859   3.843   1.189   2.118  0.0071  0.4693  0.4825
 1409SOL    HW115860   3.885   1.203   2.203  0.2046 -2.2340  0.8401
 1409SOL    HW215861   3.822   1.096   2.125  0.2233  0.4792  1.3383
 1410SOL     OW15862   3.317   0.624   4.564 -0.1466 -0.5073  0.5927
 1410SOL    HW115863   3.239   0.679   4.563  1.0526  1.1488 -4.0715
 1410SOL    HW215864   3.385   0.689   4.581 -0.3121 -0.6430  1.7370
 1411SOL     OW15865   1.827   2.414   9.150  0.2020 -0.2425  0.3869
 1411SOL    HW115866   1.749   2.470   9.146  1.1838  1.0566 -0.6761
 1411SOL    HW215867   1.821   2.364   9.068 -0.8292 -0.9293  0.8846
 1412SOL     OW15868   0.570   0.633   5.519  0.1202 -0.0835 -0.3934
 1412SOL    HW115869   0.626   0.673   5.585  0.9343 -2.3444  0.2679
 1412SOL    HW215870   0.503   0.597   5.577 -1.0371  0.9418 -1.0766
 1413SOL     OW15871   2.272   0.255  16.132 -0.0514 -0.5947 -0.4621
 1413SOL    HW115872   2.194   0.207  16.163 -0.2891 -1.4555 -2.3825
 1413SOL    HW215873   2.334   0.187  16.106  0.0134 -0.7301  0.0441
 1414SOL     OW15874   2.869   3.815  11.083 -0.2941 -0.3358 -0.3939
 1414SOL    HW115875   2.964   3.812  11.079 -0.2529 -1.4959  1.2596
 1414SOL    HW215876   2.847   3.784  11.171  0.6562  1.8605  0.6106
 1415SOL     OW15877   2.582   0.731   5.205  0.1729 -0.2396 -0.3234
 1415SOL    HW115878   2.656   0.698   5.153  2.8085  2.9984  1.4189
 1415SOL    HW215879   2.581   0.666   5.275 -0.7598  1.4125  1.2015
 1416SOL     OW15880   0.863   1.820  14.022 -0.1281  0.3207 -0.0593
 1416SOL    HW115881   0.890   1.906  13.989  3.0639 -0.8319 -0.5094
 1416SOL    HW215882   0.822   1.786  13.943 -0.1763 -0.3721  0.2649
 1417SOL     OW15883   0.509   0.285  17.229  0.4196 -0.2191  0.2354
 1417SOL    HW115884   0.496   0.299  17.323 -1.5393  1.5854 -0.3095
 1417SOL    HW215885   0.592   0.332  17.229  0.7587 -0.8298 -1.9656
 1418SOL     OW15886   3.781   0.459  13.253  0.3213 -0.5795  0.0799
 1418SOL    HW115887   3.820   0.523  13.193 -1.1950  0.8577  0.6088
 1418SOL    HW215888   3.707   0.426  13.201 -0.0330  0.4859 -0.1096
 1419SOL     OW15889   3.972   3.974   7.990  0.0862 -0.7092 -0.1409
 1419SOL    HW115890   3.886   4.011   7.970  0.4269  0.7969  1.2089
 1419SOL    HW215891   4.036   4.030   7.946  0.6804 -1.0737  0.2640
 1420SOL     OW15892   3.570   1.564   1.900 -0.2638 -0.0655 -0.3320
 1420SOL    HW115893   3.549   1.598   1.987 -0.1665 -0.9392  0.0317
 1420SOL    HW215894   3.546   1.472   1.909 -2.6255  0.6292  0.6574
 1421SOL     OW15895   0.061   3.486   6.009  0.7457  0.3439 -0.6367
 1421SOL    HW115896   0.037   3.523   6.094  3.5876 -1.8249  1.1501
 1421SOL    HW215897   4.714   3.460   5.969  0.4154  2.1792 -1.1496
 1422SOL     OW15898   3.454   0.253   8.917  0.1691  0.5624 -0.4657
 1422SOL    HW115899   3.367   0.253   8.876  0.9987 -0.8280 -2.2283
 1422SOL    HW215900   3.442   0.320   8.983 -1.1058  0.0581 -0.1882
 1423SOL     OW15901   0.066   4.690   6.884  0.4971 -0.3933  0.1647
 1423SOL    HW115902   0.068   4.598   6.859 -0.4557 -0.3773 -0.0002
 1423SOL    HW215903   0.160   4.709   6.883 -0.0255  2.0608 -2.2323
 1424SOL     OW15904   3.373   0.235   7.737 -0.3076  0.0517 -0.7536
 1424SOL    HW115905   3.298   0.180   7.761 -0.2886  0.7201  0.8061
 1424SOL    HW215906   3.410   0.257   7.822 -0.2701  0.2575 -0.8236
 1425SOL     OW15907   4.406   1.081  11.847 -0.0418 -0.3273 -0.1248
 1425SOL    HW115908   4.321   1.041  11.865 -0.8664  0.5591 -2.0652
 1425SOL    HW215909   4.405   1.170  11.882  0.8327  0.1942 -1.4083
 1426SOL     OW15910   4.413   4.525   2.338  0.0128 -0.0720  0.3395
 1426SOL    HW115911   4.503   4.508   2.312 -0.4668 -0.2647 -1.2441
 1426SOL    HW215912   4.362   4.512   2.258  0.6130 -3.4362  0.4945
 1427SOL     OW15913   2.052   0.091   4.323  0.5385  0.2534 -0.0013
 1427SOL    HW115914   2.023   0.028   4.389  2.1404 -0.6921 -0.1689
 1427SOL    HW215915   2.139   0.084   4.363  0.9941 -2.2727 -1.4097
 1428SOL     OW15916   3.064   3.392   1.285 -0.3261  0.0911 -0.2651
 1428SOL    HW115917   3.099   3.427   1.367 -1.9104 -0.5648  0.6865
 1428SOL    HW215918   2.984   3.342   1.301 -0.3086 -0.1880 -1.0418
 1429SOL     OW15919   3.027   0.539  13.063 -0.2517 -0.1967 -0.6221
 1429SOL    HW115920   2.984   0.545  13.148  0.2033  1.7887 -0.5447
 1429SOL    HW215921   2.964   0.596  13.020  0.0513  1.1056  0.6739
 1430SOL     OW15922   2.887   1.527  15.126  0.8921  0.0526 -0.2529
 1430SOL    HW115923   2.934   1.610  15.121  0.6464  0.1877 -0.3181
 1430SOL    HW215924   2.873   1.517  15.221  2.3450 -2.7472 -0.3200
 1431SOL     OW15925   2.995   1.305  12.954  0.4247  0.7199  0.1667
 1431SOL    HW115926   2.984   1.272  12.865 -0.9533  0.7713  0.3067
 1431SOL    HW215927   2.939   1.243  13.001 -1.3280  1.5195 -0.8725
 1432SOL     OW15928   2.279   3.389  16.278  0.1270 -0.3615  0.6373
 1432SOL    HW115929   2.301   3.467  16.228 -1.3335 -0.2367  0.1974
 1432SOL    HW215930   2.309   3.409  16.367  0.9106  0.6144  0.1460
 1433SOL     OW15931   3.016   2.820   4.541  0.0686  0.1660 -0.0320
 1433SOL    HW115932   2.979   2.890   4.595 -0.1231 -0.5000  0.7031
 1433SOL    HW215933   2.935   2.777   4.511  1.2756 -2.9976  1.1989
 1434SOL     OW15934   3.616   4.451   4.842  0.1658 -0.0377 -0.4335
 1434SOL    HW115935   3.661   4.501   4.911  0.9047  0.6531 -1.4101
 1434SOL    HW215936   3.528   4.441   4.879  0.1319  0.8276 -0.2636
 1435SOL     OW15937   0.160   0.167  14.920 -0.9150 -0.0115  0.2812
 1435SOL    HW115938   0.079   0.141  14.963 -1.4392 -1.3437 -1.5436
 1435SOL    HW215939   0.167   0.255  14.958  0.1316  0.6710 -1.4944
 1436SOL     OW15940   3.173   2.356  16.105  0.8697  0.1169 -0.0680
 1436SOL    HW115941   3.163   2.429  16.167 -0.6124 -0.1459  0.0162
 1436SOL    HW215942   3.079   2.338  16.094  1.1810 -1.3211 -0.2872
 1437SOL     OW15943   1.236   2.261   1.103 -0.1716  0.5316 -0.1846
 1437SOL    HW115944   1.295   2.252   1.178  1.4563 -0.4381 -1.5965
 1437SOL    HW215945   1.241   2.355   1.088  0.1927  0.7326  1.1809
 1438SOL     OW15946   3.436   1.747   6.762 -0.1380  0.2775 -0.2973
 1438SOL    HW115947   3.349   1.710   6.778  0.1386  0.0630  0.7376
 1438SOL    HW215948   3.412   1.834   6.795 -2.3110 -0.4180 -0.0226
 1439SOL     OW15949   0.054   1.114   6.720 -0.8473  0.4156  0.0696
 1439SOL    HW115950   4.705   1.073   6.700 -1.7601  1.8860  0.9245
 1439SOL    HW215951   0.087   1.055   6.789 -1.7837  0.6159  0.6892
 1440SOL     OW15952   1.306   0.216   5.458 -0.7053 -0.4744  0.1432
 1440SOL    HW115953   1.345   0.137   5.420 -2.0526 -1.5108  0.9394
 1440SOL    HW215954   1.350   0.279   5.401 -1.3235  1.1521  1.4705
 1441SOL     OW15955   3.011   0.129   8.486  0.1436  0.4483  0.0135
 1441SOL    HW115956   3.006   0.051   8.432 -1.6214  1.4824 -1.3041
 1441SOL    HW215957   2.961   0.100   8.562 -3.0709  0.6749 -2.0551
 1442SOL     OW15958   0.443   1.972   1.138  0.2952 -0.3742  0.0885
 1442SOL    HW115959   0.531   2.008   1.152 -0.1247  0.6381  0.1639
 1442SOL    HW215960   0.412   2.029   1.067 -2.3324 -0.4827  1.1387
 1443SOL     OW15961   3.321   1.622   9.013 -0.1320 -0.4613 -0.3047
 1443SOL    HW115962   3.248   1.683   9.013 -1.1481 -1.6735  0.9126
 1443SOL    HW215963   3.279   1.564   9.076 -0.7479 -0.0331 -0.3289
 1444SOL     OW15964   3.585   1.325   6.339  0.2942 -0.0105  0.0686
 1444SOL    HW115965   3.655   1.306   6.401  0.8205 -0.4802 -0.6568
 1444SOL    HW215966   3.591   1.417   6.316  0.8877 -0.2745 -0.8482
 1445SOL     OW15967   4.462   3.529   8.805  0.2577 -1.0729  0.1002
 1445SOL    HW115968   4.435   3.569   8.722  0.8395 -0.4966  0.1907
 1445SOL    HW215969   4.439   3.598   8.866 -0.3795 -2.3987  1.3611
 1446SOL     OW15970   1.379   3.943  14.933 -0.1657  0.4973 -0.0080
 1446SOL    HW115971   1.309   3.908  14.987 -0.4503  0.1420 -0.6147
 1446SOL    HW215972   1.336   3.979  14.856  0.9396  1.9531  0.0505
 1447SOL     OW15973   2.185   3.266   8.161 -0.2370 -0.0646  0.8971
 1447SOL    HW115974   2.184   3.177   8.197 -1.8268 -0.3028  0.2362
 1447SOL    HW215975   2.120   3.253   8.092  3.0155 -1.4241 -1.9301
 1448SOL     OW15976   3.674   0.453   4.851 -0.3778  0.0617  0.2191
 1448SOL    HW115977   3.580   0.440   4.844 -0.1592 -0.9587 -0.8140
 1448SOL    HW215978   3.669   0.543   4.817 -0.1889  0.0521  0.1654
 1449SOL     OW15979   0.098   3.155   7.660  0.3809 -0.1464  0.2316
 1449SOL    HW115980   0.039   3.166   7.585  0.9986 -0.7140 -0.3340
 1449SOL    HW215981   0.040   3.133   7.733 -1.1761  2.7543 -0.1242
 1450SOL     OW15982   2.316   1.378   8.533 -1.0557 -0.0516  0.7551
 1450SOL    HW115983   2.372   1.410   8.603  1.0465 -1.0180 -0.4689
 1450SOL    HW215984   2.242   1.436   8.549 -3.6140 -2.9145 -0.4807
 1451SOL     OW15985   4.048   0.574  14.142  0.2678 -0.3024 -0.1363
 1451SOL    HW115986   4.047   0.590  14.237  0.4645 -0.9439 -0.0296
 1451SOL    HW215987   3.969   0.620  14.113 -0.1349 -0.6538  0.3996
 1452SOL     OW15988   0.093   2.228   7.111  0.1494 -0.6078 -0.0274
 1452SOL    HW115989   0.019   2.265   7.063 -0.8209 -2.6481 -0.1230
 1452SOL    HW215990   0.055   2.143   7.134  1.0709 -0.5070  1.8232
 1453SOL     OW15991   0.733   1.549  14.148 -0.3752  0.3522  0.0200
 1453SOL    HW115992   0.650   1.593  14.163 -1.9243 -1.6628 -2.5950
 1453SOL    HW215993   0.767   1.608  14.080 -0.5312 -0.1710 -0.5163
 1454SOL     OW15994   0.599   3.316   3.392  0.0053  0.3232 -0.1111
 1454SOL    HW115995   0.524   3.375   3.395  0.6712  1.2224 -0.9890
 1454SOL    HW215996   0.645   3.353   3.316 -0.7883  0.2157 -0.6379
 1455SOL     OW15997   3.943   2.684  13.668  0.2066  0.3573 -0.2903
 1455SOL    HW115998   4.011   2.742  13.703 -1.0790  1.7045 -0.0640
 1455SOL    HW215999   3.993   2.603  13.664 -0.0444  0.1299  1.0587
 1456SOL     OW16000   2.745   3.399   1.135 -0.3284  0.3902 -0.3971
 1456SOL    HW116001   2.731   3.387   1.041 -3.6629  1.5388 -0.0233
 1456SOL    HW216002   2.787   3.322   1.173 -0.7236  1.1998  1.6760
 1457SOL     OW16003   0.983   0.086  17.213 -0.0918  0.2127  0.4290
 1457SOL    HW116004   0.986   4.727  17.208 -1.2314  0.2286 -0.4822
 1457SOL    HW216005   1.072   0.118  17.232 -0.1560 -0.2817  1.5874
 1458SOL     OW16006   4.114   3.106  17.688  0.4000 -0.0349  0.1749
 1458SOL    HW116007   4.178   3.082   0.013  0.0886 -2.4508 -0.4106
 1458SOL    HW216008   4.072   3.183  17.728  0.0190 -0.3741  0.4288
 1459SOL     OW16009   4.529   1.669   7.301  0.0296 -0.3561  0.2091
 1459SOL    HW116010   4.478   1.750   7.302  0.4151 -0.0911 -0.8912
 1459SOL    HW216011   4.571   1.672   7.215 -1.4125 -0.6193 -0.5090
 1460SOL     OW16012   0.958   0.358   2.976 -0.2848  0.4170  0.0590
 1460SOL    HW116013   0.918   0.431   2.930  0.7688  1.2979  0.5485
 1460SOL    HW216014   0.964   0.292   2.906  1.2132  0.4421  0.1572
 1461SOL     OW16015   0.613   0.401  13.928 -0.3996  0.1175 -0.3691
 1461SOL    HW116016   0.604   0.342  13.854  1.9847 -1.9898  1.0097
 1461SOL    HW216017   0.592   0.330  13.989  1.7244 -0.2023 -0.0047
 1462SOL     OW16018   1.255   0.498   4.951 -0.3531 -0.1121 -0.9457
 1462SOL    HW116019   1.340   0.477   4.912 -0.7790  0.2116 -2.0700
 1462SOL    HW216020   1.204   0.484   4.871 -1.1315 -2.5392 -0.0265
 1463SOL     OW16021   2.054   1.620  10.652  0.3809  0.0820 -0.2301
 1463SOL    HW116022   2.099   1.537  10.670  0.4196 -0.1174 -1.2683
 1463SOL    HW216023   2.094   1.659  10.574 -2.2941  2.4302 -0.4331
 1464SOL     OW16024   3.940   0.984   5.517  0.2136 -0.6047  0.3688
 1464SOL    HW116025   3.878   1.056   5.511  0.8390 -0.2754 -2.0568
 1464SOL    HW216026   3.977   0.994   5.605  1.4762  0.3015 -0.2696
 1465SOL     OW16027   1.819   2.369   3.819 -0.0040  0.1810 -0.2226
 1465SOL    HW116028   1.883   2.339   3.884 -0.3633 -0.4120 -0.1487
 1465SOL    HW216029   1.749   2.311   3.849 -1.5230  1.1268 -1.9636
 1466SOL     OW16030   0.857   0.195   9.620 -0.2957 -0.2840  0.4986
 1466SOL    HW116031   0.915   0.146   9.562  0.7692  0.4647  0.9233
 1466SOL    HW216032   0.910   0.271   9.643 -1.6601  1.1915 -1.2640
 1467SOL     OW16033   4.355   1.031   7.836 -0.4392  0.0679 -0.4808
 1467SOL    HW116034   4.367   0.949   7.787 -0.3762  0.3246 -0.8949
 1467SOL    HW216035   4.417   1.021   7.909 -0.2894  0.0558 -0.6109
 1468SOL     OW16036   3.474   0.299   2.913  0.1250  0.0058  0.0648
 1468SOL    HW116037   3.557   0.328   2.951 -0.2839 -0.4535  1.3111
 1468SOL    HW216038   3.441   0.384   2.884  1.0905  0.2816 -0.2249
 1469SOL     OW16039   1.488   2.884   0.153  0.3790 -0.7482 -0.2868
 1469SOL    HW116040   1.457   2.962   0.200  0.1639 -1.2172  0.3356
 1469SOL    HW216041   1.420   2.871   0.087  0.3342 -1.6712 -0.0513
 1470SOL     OW16042   1.498   2.773   6.056  0.0556  0.9615 -0.3790
 1470SOL    HW116043   1.538   2.843   6.109  0.2573 -1.5836  2.8024
 1470SOL    HW216044   1.427   2.753   6.116 -0.3944 -1.4815 -1.7561
 1471SOL     OW16045   0.914   2.900   1.232  0.2111  0.4113 -0.1903
 1471SOL    HW116046   0.862   2.973   1.200 -2.3742 -0.5815  1.7652
 1471SOL    HW216047   0.852   2.839   1.272  1.6113 -0.2375  1.0035
 1472SOL     OW16048   4.432   1.602  13.549  0.1799 -0.2791  0.4639
 1472SOL    HW116049   4.526   1.618  13.552  0.1396  0.6578 -2.6346
 1472SOL    HW216050   4.391   1.684  13.578  2.0644 -0.1197  2.6088
 1473SOL     OW16051   0.339   3.495   8.907  0.4919 -0.6860  0.5775
 1473SOL    HW116052   0.305   3.516   8.820 -0.5955 -0.6929  0.9946
 1473SOL    HW216053   0.286   3.552   8.963  0.5579 -1.9580  1.9461
 1474SOL     OW16054   2.639   4.492  12.036  0.3985  0.1988  0.6279
 1474SOL    HW116055   2.618   4.559  12.100 -0.2540  0.2455  0.3751
 1474SOL    HW216056   2.679   4.421  12.086 -0.6235 -1.5061 -0.9588
 1475SOL     OW16057   0.714   2.993   2.611  0.2722  0.3425  0.3343
 1475SOL    HW116058   0.800   2.971   2.576  1.1106 -0.5865  2.9778
 1475SOL    HW216059   0.650   2.930   2.576  1.2953 -0.5013 -0.0180
 1476SOL     OW16060   0.289   1.410  14.282  0.7218 -0.2490 -0.8705
 1476SOL    HW116061   0.318   1.494  14.246  0.7671 -1.2459 -3.1687
 1476SOL    HW216062   0.308   1.412  14.376 -2.0049 -1.2854 -0.3035
 1477SOL     OW16063   2.139   4.065   4.610  0.2998 -0.1523  0.0878
 1477SOL    HW116064   2.088   4.119   4.671 -0.2400 -1.2926  0.6555
 1477SOL    HW216065   2.211   4.023   4.657  0.1002 -0.2301  0.3276
 1478SOL     OW16066   4.349   4.318   7.781 -0.0234 -0.4865  0.1443
 1478SOL    HW116067   4.304   4.238   7.808 -0.8103  0.2331  1.0086
 1478SOL    HW216068   4.284   4.361   7.725  1.2875  1.0781 -0.1543
 1479SOL     OW16069   3.539   0.765   6.155 -0.1787  0.6810  0.0581
 1479SOL    HW116070   3.514   0.762   6.063  0.5604  2.2206 -0.1989
 1479SOL    HW216071   3.452   0.786   6.187 -1.0471 -3.7763  0.5844
 1480SOL     OW16072   1.013   3.287   1.800  0.3466 -0.6153 -0.0501
 1480SOL    HW116073   1.021   3.320   1.889  0.2948  0.8160 -0.5802
 1480SOL    HW216074   1.102   3.309   1.773  0.4784 -1.2550 -0.1345
 1481SOL     OW16075   0.145   4.439   6.095  0.2718  0.0026  0.0400
 1481SOL    HW116076   0.139   4.512   6.034  0.9887 -0.0135 -0.0551
 1481SOL    HW216077   0.225   4.405   6.054 -0.2922 -1.1997 -0.0712
 1482SOL     OW16078   2.550   4.460   2.103  0.4791  0.0040 -0.3491
 1482SOL    HW116079   2.569   4.552   2.088 -0.8446  0.0188 -2.0104
 1482SOL    HW216080   2.458   4.457   2.075  0.3250 -0.7605  0.2174
 1483SOL     OW16081   0.866   4.045  10.811  0.0114 -0.6657 -0.7310
 1483SOL    HW116082   0.887   4.048  10.718 -0.3680 -1.0666 -0.8249
 1483SOL    HW216083   0.950   4.064  10.853 -2.0876  1.2071  2.5981
 1484SOL     OW16084   3.078   2.301   1.825  0.5913 -0.0391  0.4273
 1484SOL    HW116085   2.984   2.299   1.845  0.2327 -0.7525 -1.2690
 1484SOL    HW216086   3.090   2.256   1.741 -0.1564 -1.5625  1.1450
 1485SOL     OW16087   1.310   2.428   4.380 -0.0477 -0.0615 -0.1361
 1485SOL    HW116088   1.319   2.520   4.406  1.4974  0.0789 -1.1561
 1485SOL    HW216089   1.249   2.394   4.445  0.2201 -0.4914 -0.1047
 1486SOL     OW16090   4.437   2.619   1.448 -0.1227  0.2851  0.4197
 1486SOL    HW116091   4.509   2.563   1.419  0.0679  2.0769 -2.4905
 1486SOL    HW216092   4.465   2.646   1.536  2.3138 -0.1180 -0.2264
 1487SOL     OW16093   4.655   0.278   7.282  0.5045 -1.1022  0.7556
 1487SOL    HW116094   4.656   0.249   7.190  0.1353 -3.5457  1.5272
 1487SOL    HW216095   4.599   0.355   7.280 -0.0884 -1.5635 -1.1170
 1488SOL     OW16096   4.397   1.080  14.636 -0.8229  0.1263 -0.0043
 1488SOL    HW116097   4.486   1.069  14.667 -0.3420 -1.2800 -1.9019
 1488SOL    HW216098   4.399   1.172  14.608  1.7629  0.4690  1.2797
 1489SOL     OW16099   2.863   0.753   4.224  0.4134 -0.0809  0.1996
 1489SOL    HW116100   2.869   0.717   4.136 -1.8989 -0.0750  0.0527
 1489SOL    HW216101   2.843   0.674   4.274  1.1573 -0.1121  0.4501
 1490SOL     OW16102   0.332   1.320   2.232  0.0955  0.3654 -0.1033
 1490SOL    HW116103   0.381   1.401   2.219  1.2682 -0.4476 -0.7694
 1490SOL    HW216104   0.261   1.355   2.284 -0.8783  2.6191 -2.9304
 1491SOL     OW16105   1.755   1.175   8.569 -0.0885 -0.0271  0.0298
 1491SOL    HW116106   1.800   1.092   8.553 -0.7340 -0.5695  1.0345
 1491SOL    HW216107   1.696   1.154   8.642 -0.5334  0.7299 -0.1098
 1492SOL     OW16108   0.848   1.485  12.499  0.3866 -0.2463 -0.1158
 1492SOL    HW116109   0.864   1.410  12.440  0.4607 -0.8405  0.6577
 1492SOL    HW216110   0.842   1.555  12.434  1.3740  2.2881  2.5301
 1493SOL     OW16111   3.701   3.729   3.296 -0.1477  0.5455  0.2541
 1493SOL    HW116112   3.795   3.712   3.301 -0.2767 -0.0815  0.6236
 1493SOL    HW216113   3.669   3.730   3.387  1.8693  0.6750  0.9502
 1494SOL     OW16114   3.234   0.279   0.787  0.1429 -0.1028 -0.0208
 1494SOL    HW116115   3.306   0.253   0.729  0.5004  0.4519  0.1757
 1494SOL    HW216116   3.237   0.209   0.852 -0.8331  1.1754  1.3949
 1495SOL     OW16117   1.443   4.053   2.718  0.0179 -0.2584  0.6082
 1495SOL    HW116118   1.483   3.969   2.737 -0.0314 -0.2282  0.8374
 1495SOL    HW216119   1.406   4.077   2.803  0.0652  0.9616  0.2990
 1496SOL     OW16120   4.649   4.217   5.834 -0.0226 -0.1215  0.8541
 1496SOL    HW116121   4.663   4.229   5.740 -1.2726 -0.6169  0.6101
 1496SOL    HW216122   4.561   4.179   5.836 -1.0175  2.0857 -1.4088
 1497SOL     OW16123   4.678   2.301  11.754 -0.8161 -0.6346  0.3222
 1497SOL    HW116124   4.686   2.327  11.845  3.5790  0.6508 -0.4430
 1497SOL    HW216125   4.723   2.371  11.706 -2.4855  0.7845  0.8227
 1498SOL     OW16126   1.172   1.080   7.929  0.2666 -0.4293 -0.3724
 1498SOL    HW116127   1.166   1.171   7.901 -1.2621 -1.1940 -2.4536
 1498SOL    HW216128   1.078   1.063   7.934  0.2120 -0.1285 -0.3391
 1499SOL     OW16129   2.245   4.124   5.457  0.0973 -0.2106 -0.2874
 1499SOL    HW116130   2.267   4.087   5.543 -0.1595  0.0549 -0.1068
 1499SOL    HW216131   2.163   4.167   5.481  1.0713  0.9085  1.0511
 1500SOL     OW16132   1.182   1.034   3.496  0.4004 -0.1613  0.3088
 1500SOL    HW116133   1.214   1.063   3.410  2.6946 -1.6014  0.6928
 1500SOL    HW216134   1.235   1.092   3.550 -0.4618 -0.9944  2.0154
 1501SOL     OW16135   2.096   1.657   3.378 -0.4671  0.1551 -0.0296
 1501SOL    HW116136   2.032   1.728   3.368  0.0583  0.6587  0.2479
 1501SOL    HW216137   2.169   1.707   3.342 -0.3727 -0.0463 -0.1139
 1502SOL     OW16138   2.362   4.616   8.613  0.6147 -0.4929  0.0802
 1502SOL    HW116139   2.370   4.571   8.529 -0.4451  0.1111 -0.3420
 1502SOL    HW216140   2.292   4.679   8.598 -0.1282 -1.5382 -0.8709
 1503SOL     OW16141   3.752   1.006   5.142  0.1248  0.4079  0.4563
 1503SOL    HW116142   3.817   0.988   5.074  0.0568  0.5119  0.3638
 1503SOL    HW216143   3.729   1.096   5.121 -1.8070 -0.2145 -0.0760
 1504SOL     OW16144   0.360   3.191  16.273  0.4882  0.1862  0.1088
 1504SOL    HW116145   0.364   3.227  16.184  0.2354 -0.2196 -0.0687
 1504SOL    HW216146   0.284   3.134  16.260  1.0900 -0.8292  1.0506
 1505SOL     OW16147   2.877   0.555  17.024  0.2827  0.0423  0.4580
 1505SOL    HW116148   2.801   0.609  17.048 -0.0950 -0.8260  1.2097
 1505SOL    HW216149   2.905   0.620  16.960  1.5395 -0.7010  0.2617
 1506SOL     OW16150   1.809   2.565   0.431 -0.4074 -0.3906 -0.2178
 1506SOL    HW116151   1.716   2.549   0.446 -0.1730 -0.6392  0.9707
 1506SOL    HW216152   1.811   2.565   0.335 -0.0099  0.1193 -0.2124
 1507SOL     OW16153   1.500   1.487   3.163 -0.1943  0.0417 -0.2976
 1507SOL    HW116154   1.514   1.488   3.068 -1.7924 -0.4876 -0.5427
 1507SOL    HW216155   1.413   1.448   3.175 -0.1028 -0.2865 -0.6822
 1508SOL     OW16156   3.740   0.418   9.306  0.0201  0.2279  0.2947
 1508SOL    HW116157   3.737   0.475   9.384 -2.9470  0.9184 -0.3189
 1508SOL    HW216158   3.802   0.463   9.249  0.5494 -0.3253  0.4416
 1509SOL     OW16159   1.276   1.509  11.757 -0.3455  0.3706 -0.6445
 1509SOL    HW116160   1.346   1.565  11.723  0.0733  0.3744  0.2243
 1509SOL    HW216161   1.305   1.477  11.843  5.7732  1.8087 -2.1422
 1510SOL     OW16162   2.966   1.946   1.759 -0.3744  0.2379  0.0126
 1510SOL    HW116163   2.902   1.879   1.784 -0.5324  0.7839  1.0611
 1510SOL    HW216164   2.937   1.962   1.669 -1.0218  2.6619  0.6329
 1511SOL     OW16165   1.719   0.359   4.388  0.0951 -0.1824 -0.8314
 1511SOL    HW116166   1.669   0.291   4.344 -0.5114 -1.0550  1.2336
 1511SOL    HW216167   1.779   0.389   4.319  0.9704 -0.6221 -0.2601
 1512SOL     OW16168   1.135   2.895   4.746 -0.1583 -0.4126  0.3046
 1512SOL    HW116169   1.068   2.883   4.812  0.6145 -2.4238  0.7102
 1512SOL    HW216170   1.090   2.889   4.662 -1.8051 -0.3049  1.1914
 1513SOL     OW16171   3.647   1.318   5.122  0.3651 -0.8092  0.0317
 1513SOL    HW116172   3.586   1.370   5.174 -1.5909 -0.9554 -2.1046
 1513SOL    HW216173   3.610   1.326   5.034  1.3669  0.4639 -0.2654
 1514SOL     OW16174   3.779   1.042   6.385  0.2648  0.0693  0.0180
 1514SOL    HW116175   3.857   1.059   6.334  0.5916  2.4121  1.2806
 1514SOL    HW216176   3.720   1.034   6.310 -0.3812 -0.9499  0.6361
 1515SOL     OW16177   1.242   3.850   4.836  0.4086 -0.3267 -0.0472
 1515SOL    HW116178   1.316   3.847   4.896 -0.6631  1.4608  1.3884
 1515SOL    HW216179   1.193   3.924   4.873 -1.0045 -0.2860 -2.0076
 1516SOL     OW16180   4.656   2.235   8.291  0.3789  0.0307 -0.0269
 1516SOL    HW116181   4.669   2.265   8.201 -1.7789 -0.9713 -0.6561
 1516SOL    HW216182   4.566   2.204   8.287  0.2903 -0.0292  2.2283
 1517SOL     OW16183   3.722   0.426   6.085 -0.5554  0.0698  0.3789
 1517SOL    HW116184   3.696   0.480   6.160 -0.2713  0.5623  0.1143
 1517SOL    HW216185   3.730   0.492   6.017  0.2843 -0.1012  0.3157
 1518SOL     OW16186   1.996   1.401  11.808  0.3931  0.4840 -0.4236
 1518SOL    HW116187   1.998   1.313  11.769  0.8355  0.7806 -1.0669
 1518SOL    HW216188   2.087   1.410  11.837  0.1456  2.6693 -0.3048
 1519SOL     OW16189   1.664   2.004   9.843 -0.2018  0.5491 -0.5841
 1519SOL    HW116190   1.634   1.917   9.868  2.0817 -0.3412 -0.9527
 1519SOL    HW216191   1.609   2.055   9.901  0.5955 -1.2636  1.7678
 1520SOL     OW16192   1.161   3.940   8.818 -0.1678 -0.4995  0.1323
 1520SOL    HW116193   1.120   3.882   8.753 -0.9786 -0.9607  1.0466
 1520SOL    HW216194   1.231   3.985   8.772  0.7933 -0.3265  1.7687
 1521SOL     OW16195   1.271   1.463   4.666  0.2568 -0.6369  0.2676
 1521SOL    HW116196   1.187   1.507   4.679 -0.6261 -2.7135  1.6940
 1521SOL    HW216197   1.289   1.507   4.583  1.3206 -2.1596 -0.3203
 1522SOL     OW16198   3.965   4.475   4.536 -0.1086 -0.2250 -0.3028
 1522SOL    HW116199   4.016   4.516   4.466 -1.7797 -0.6679 -1.7519
 1522SOL    HW216200   3.881   4.458   4.495 -1.1255 -0.9341  2.0556
 1523SOL     OW16201   1.544   1.084   7.825  0.2290 -0.7050  0.7238
 1523SOL    HW116202   1.481   1.154   7.808  0.5115  0.0459  2.8057
 1523SOL    HW216203   1.542   1.042   7.739  0.0404  1.2986 -0.2560
 1524SOL     OW16204   1.920   2.260   8.508  0.5960 -0.1786  0.6495
 1524SOL    HW116205   1.852   2.317   8.545  1.1620  1.0751 -0.2051
 1524SOL    HW216206   1.961   2.315   8.441 -0.2766 -1.6088 -1.0489
 1525SOL     OW16207   2.617   1.556   6.739 -0.2882  0.2172 -0.1148
 1525SOL    HW116208   2.703   1.518   6.720  0.1551  0.0504  2.2226
 1525SOL    HW216209   2.570   1.523   6.663  0.9702 -0.7008 -0.4960
 1526SOL     OW16210   0.385   3.723   4.491 -0.0549 -0.2493  0.4470
 1526SOL    HW116211   0.397   3.759   4.579 -0.5285 -2.0725  1.2451
 1526SOL    HW216212   0.291   3.707   4.487  0.1173 -0.7981 -1.2313
 1527SOL     OW16213   3.683   0.474   1.891  0.5796 -0.0362 -0.2570
 1527SOL    HW116214   3.641   0.433   1.815  0.8489  1.1440 -1.0366
 1527SOL    HW216215   3.610   0.524   1.928  0.8289  1.0614 -1.2738
 1528SOL     OW16216   1.278   1.884   7.343  0.2483  0.3061  0.3354
 1528SOL    HW116217   1.283   1.837   7.259 -1.4504  0.8117 -0.0413
 1528SOL    HW216218   1.338   1.831   7.395 -0.6023 -0.8518  0.1523
 1529SOL     OW16219   0.200   1.810   0.313  0.0075 -0.1182 -0.2075
 1529SOL    HW116220   0.233   1.773   0.395 -2.3437 -0.0492  0.7686
 1529SOL    HW216221   0.243   1.895   0.315 -0.0787 -0.1509  2.1098
 1530SOL     OW16222   3.393   0.067   7.010  0.1039 -0.3473 -0.1924
 1530SOL    HW116223   3.328   0.030   7.070  0.0578 -0.4717 -0.3186
 1530SOL    HW216224   3.393   0.163   7.012  0.6541 -0.2911 -3.6192
 1531SOL     OW16225   2.087   3.527   8.551 -0.1902  0.0470 -0.0039
 1531SOL    HW116226   2.074   3.457   8.615 -0.5327 -0.8137 -0.9901
 1531SOL    HW216227   2.064   3.486   8.467 -2.5985  1.8447 -0.2324
 1532SOL     OW16228   3.535   2.141   8.556 -0.1016  0.2903 -0.2703
 1532SOL    HW116229   3.561   2.165   8.645  0.4522 -2.5282  0.3109
 1532SOL    HW216230   3.572   2.218   8.513  2.1049 -0.9136 -0.5353
 1533SOL     OW16231   3.937   3.137   2.709 -0.9675  0.0680 -0.6945
 1533SOL    HW116232   4.011   3.099   2.661 -2.8351  0.6050 -4.0604
 1533SOL    HW216233   3.951   3.108   2.799 -0.1933  0.9574 -0.5389
 1534SOL     OW16234   0.603   0.908   2.310 -0.4260 -0.4102  0.4157
 1534SOL    HW116235   0.571   0.855   2.383 -0.0692  1.1203  1.6777
 1534SOL    HW216236   0.535   0.975   2.306  1.2871  1.3945  1.2069
 1535SOL     OW16237   3.534   0.042  17.731  0.1111 -0.0450 -0.2409
 1535SOL    HW116238   3.625   0.067  17.716 -0.1273  2.2763  2.3047
 1535SOL    HW216239   3.543   0.006   0.076 -1.4538 -1.0820 -0.5001
 1536SOL     OW16240   0.237   1.535  14.964  0.1176 -0.1050 -0.1000
 1536SOL    HW116241   0.232   1.459  14.907  0.9699  0.6584 -1.1967
 1536SOL    HW216242   0.207   1.599  14.900  0.2611 -1.2352 -1.2854
 1537SOL     OW16243   2.427   2.060   3.331 -0.8094  0.6747  0.5370
 1537SOL    HW116244   2.406   2.099   3.247 -0.8180 -0.3853  0.0469
 1537SOL    HW216245   2.521   2.073   3.319 -0.4911  0.0437  2.3990
 1538SOL     OW16246   2.340   0.150   5.126  0.0274  0.0920  0.2207
 1538SOL    HW116247   2.374   0.191   5.206 -1.7846  1.7814  0.1364
 1538SOL    HW216248   2.259   0.199   5.117 -0.6631 -1.4549 -1.9241
 1539SOL     OW16249   2.126   2.764   6.236  0.1369  0.1497  0.0168
 1539SOL    HW116250   2.176   2.693   6.275  1.5167  0.5307 -1.0776
 1539SOL    HW216251   2.170   2.838   6.279 -0.4983 -0.4170  1.6447
 1540SOL     OW16252   0.760   3.937  17.177 -0.6607 -0.0185  0.4553
 1540SOL    HW116253   0.715   3.999  17.119  0.0334 -1.9199 -2.1178
 1540SOL    HW216254   0.745   3.983  17.259 -2.4061 -0.2678  0.2821
 1541SOL     OW16255   3.088   1.838   2.995  0.0632  0.2428  0.2227
 1541SOL    HW116256   3.098   1.838   3.090  1.5509 -0.5749  0.0660
 1541SOL    HW216257   3.056   1.928   2.987 -0.9218 -0.2825 -1.9230
 1542SOL     OW16258   0.714   3.746  12.496 -0.2796  0.3528 -0.0821
 1542SOL    HW116259   0.738   3.745  12.404  0.0585 -0.5672  0.0222
 1542SOL    HW216260   0.794   3.776  12.540  0.1825 -0.7335 -0.1820
 1543SOL     OW16261   1.537   0.715   9.113  0.1726 -0.3479  0.6423
 1543SOL    HW116262   1.484   0.766   9.174 -0.8618 -0.4531 -0.1677
 1543SOL    HW216263   1.471   0.669   9.062  2.1152 -1.4729 -0.8475
 1544SOL     OW16264   2.555   1.147   9.379 -0.8948  0.3998 -0.2182
 1544SOL    HW116265   2.643   1.159   9.417 -1.3306 -0.0507  0.9412
 1544SOL    HW216266   2.508   1.104   9.450 -0.6700  0.1448 -0.2239
 1545SOL     OW16267   2.514   3.861   2.195  0.3911 -0.0609  0.5438
 1545SOL    HW116268   2.564   3.916   2.135  0.3890 -1.6346 -0.8906
 1545SOL    HW216269   2.439   3.913   2.221  0.1688 -0.5842  0.9528
 1546SOL     OW16270   4.109   0.319  14.365  0.2397  0.4107 -0.4803
 1546SOL    HW116271   4.110   0.264  14.288 -2.6918  2.0410 -1.7088
 1546SOL    HW216272   4.131   0.405  14.329 -2.5335  1.2722 -0.1791
 1547SOL     OW16273   3.463   2.411   0.638  0.3883 -0.1548  0.6682
 1547SOL    HW116274   3.382   2.362   0.629 -0.5931  1.7771 -1.1062
 1547SOL    HW216275   3.495   2.376   0.554  2.7008  0.7176  1.1849
 1548SOL     OW16276   0.757   4.271   2.453  0.1281 -0.1199 -0.1916
 1548SOL    HW116277   0.684   4.319   2.493  0.5299 -0.0654  0.4729
 1548SOL    HW216278   0.749   4.309   2.365  2.4689  1.0262  0.0960
 1549SOL     OW16279   3.343   4.589   5.650  0.2587 -0.1112  0.2354
 1549SOL    HW116280   3.384   4.511   5.688  0.9298  1.2378  2.2998
 1549SOL    HW216281   3.372   4.661   5.707 -1.3678  0.7859 -0.0841
 1550SOL     OW16282   3.497   0.987  13.699 -0.1434 -0.6748  0.3652
 1550SOL    HW116283   3.528   0.906  13.658  0.4666 -0.1529 -0.2135
 1550SOL    HW216284   3.480   0.959  13.788  1.6132  0.2522  0.9897
 1551SOL     OW16285   3.932   4.486   8.097  0.0162 -0.5291  0.3512
 1551SOL    HW116286   3.901   4.545   8.029  2.8607  0.6025  0.0055
 1551SOL    HW216287   3.847   4.460   8.133 -1.9449  0.0831 -3.8638
 1552SOL     OW16288   0.885   1.548  14.737 -0.1497 -0.1148  0.0683
 1552SOL    HW116289   0.920   1.597  14.663 -2.4957 -1.0042 -1.6154
 1552SOL    HW216290   0.962   1.535  14.793  0.4387 -1.3728 -1.0408
 1553SOL     OW16291   4.060   1.616   5.416 -0.1338 -0.0027 -0.1898
 1553SOL    HW116292   4.156   1.612   5.413 -0.0953  0.5978  0.2477
 1553SOL    HW216293   4.050   1.708   5.439 -1.2372  0.3557 -2.0754
 1554SOL     OW16294   3.643   1.047   2.695 -0.1551  0.2743  0.5928
 1554SOL    HW116295   3.552   1.018   2.702  0.0620 -0.8005 -1.0307
 1554SOL    HW216296   3.627   1.141   2.706 -0.7335  0.0414  1.7992
 1555SOL     OW16297   2.911   4.402  13.162 -0.5753  0.0246 -0.0635
 1555SOL    HW116298   2.995   4.439  13.190 -2.0171  2.4017  1.0875
 1555SOL    HW216299   2.930   4.375  13.072  2.2519  0.6482  0.3358
 1556SOL     OW16300   2.509   1.635   3.385 -0.0569  0.1735  0.1562
 1556SOL    HW116301   2.431   1.690   3.374 -1.4075 -1.6542  0.7707
 1556SOL    HW216302   2.539   1.623   3.295  1.8253 -0.1434  0.8294
 1557SOL     OW16303   0.351   1.197   5.497  0.3583  0.1765 -0.5005
 1557SOL    HW116304   0.294   1.224   5.425 -2.1445  0.0881  1.4524
 1557SOL    HW216305   0.289   1.154   5.555  0.6565  1.0428  0.4500
 1558SOL     OW16306   0.543   4.686   3.830  0.0654  0.6210  0.6750
 1558SOL    HW116307   0.610   4.663   3.894 -0.6324 -1.7778  0.5267
 1558SOL    HW216308   0.588   0.001   3.762  1.3545 -0.4670  0.7052
 1559SOL     OW16309   0.609   2.603   3.667  0.4280 -0.5878  0.3524
 1559SOL    HW116310   0.642   2.672   3.609 -0.9322 -0.3711 -0.1756
 1559SOL    HW216311   0.577   2.546   3.597  1.1836 -0.8356  0.2100
 1560SOL     OW16312   1.642   2.120   2.397  0.1707  0.5097  0.0938
 1560SOL    HW116313   1.710   2.139   2.333  1.2806 -0.6771  0.9011
 1560SOL    HW216314   1.696   2.067   2.456  3.1118  1.4826 -1.7492
 1561SOL     OW16315   1.282   0.441   4.434  0.2029 -0.0740  0.5721
 1561SOL    HW116316   1.368   0.431   4.475 -0.9112  0.4144  3.0276
 1561SOL    HW216317   1.271   0.354   4.394 -2.8403  0.2710  0.6762
 1562SOL     OW16318   1.606   1.370   5.889  0.8476 -0.0669 -0.0112
 1562SOL    HW116319   1.679   1.311   5.868  1.0922  0.3253 -0.2649
 1562SOL    HW216320   1.573   1.386   5.800 -0.6665  1.5208  0.8534
 1563SOL     OW16321   3.285   2.965   2.173  0.0382 -0.5652  0.5863
 1563SOL    HW116322   3.316   2.955   2.263 -1.4354  0.1360  1.1688
 1563SOL    HW216323   3.214   3.026   2.190  1.1078  0.6907  0.5262
 1564SOL     OW16324   2.875   4.316   1.061  0.2091  0.3621  0.0442
 1564SOL    HW116325   2.896   4.233   1.104  0.8378 -0.1663 -1.3041
 1564SOL    HW216326   2.924   4.297   0.982  0.2721 -0.1476  0.2089
 1565SOL     OW16327   3.747   0.670   5.460 -0.0689 -0.4462 -0.0278
 1565SOL    HW116328   3.760   0.576   5.448  1.1045 -0.7401  3.4529
 1565SOL    HW216329   3.671   0.679   5.517 -1.3777 -0.6732 -1.7255
 1566SOL     OW16330   1.083   3.851  10.568  0.6779  0.0786  0.0897
 1566SOL    HW116331   1.113   3.918  10.507 -0.3191 -0.8353 -1.4197
 1566SOL    HW216332   1.002   3.819  10.528  1.0232 -0.1758 -0.3969
 1567SOL     OW16333   1.354   3.514   5.364 -0.4398 -0.4201 -0.7237
 1567SOL    HW116334   1.310   3.461   5.431 -2.1127 -0.5898 -1.9609
 1567SOL    HW216335   1.331   3.600   5.399 -0.4697 -0.5914 -0.3275
 1568SOL     OW16336   3.787   1.045  15.924  0.2195  0.0014 -0.5393
 1568SOL    HW116337   3.870   1.074  15.886 -0.0415  0.2800 -0.9021
 1568SOL    HW216338   3.723   1.085  15.865 -0.9578 -0.6300  0.3244
 1569SOL     OW16339   4.721   0.118   5.430  0.6910 -0.8905  0.6387
 1569SOL    HW116340   4.662   0.049   5.400  2.5828 -1.9557 -0.6446
 1569SOL    HW216341   0.039   0.123   5.351 -1.0429 -0.8512 -0.5539
 1570SOL     OW16342   3.585   2.238   5.675 -0.3079  0.3209 -0.4572
 1570SOL    HW116343   3.551   2.323   5.704 -0.8842  0.0325 -0.2765
 1570SOL    HW216344   3.571   2.186   5.754 -0.2566  0.6456 -0.2354
 1571SOL     OW16345   2.873   2.471   5.673 -0.0328 -0.0289  0.4503
 1571SOL    HW116346   2.889   2.420   5.594  1.6384  2.1212 -0.6017
 1571SOL    HW216347   2.960   2.489   5.708  0.9718 -2.6339 -0.7173
 1572SOL     OW16348   0.163   3.575   2.389  0.6336  0.1383 -0.4569
 1572SOL    HW116349   0.143   3.669   2.385  0.3240  0.1127  0.5209
 1572SOL    HW216350   0.087   3.541   2.341  0.7354  0.6700 -0.9887
 1573SOL     OW16351   4.494   3.034  12.290  0.2414 -1.3580  0.4514
 1573SOL    HW116352   4.517   2.943  12.309 -1.7523 -1.5883  1.6866
 1573SOL    HW216353   4.458   3.033  12.201  0.6622  1.4695  0.2494
 1574SOL     OW16354   4.678   1.861   1.784 -0.0314  0.4746  0.2565
 1574SOL    HW116355   0.003   1.875   1.712  0.1613 -0.0186  0.3263
 1574SOL    HW216356   4.724   1.907   1.854 -0.9482 -0.6896  1.6360
 1575SOL     OW16357   2.488   0.352  12.858 -0.4514  0.1376 -0.8023
 1575SOL    HW116358   2.417   0.399  12.814 -0.0881  0.2266 -1.2965
 1575SOL    HW216359   2.560   0.360  12.796  0.3158 -1.7014 -0.1653
 1576SOL     OW16360   4.012   3.981   3.316 -0.8486  0.1330 -0.2524
 1576SOL    HW116361   3.963   4.042   3.261 -1.9887  0.9299  1.6381
 1576SOL    HW216362   4.063   4.040   3.371  1.0411 -2.6920  1.0311
 1577SOL     OW16363   4.555   0.956   7.393  0.1374  0.4270 -0.7287
 1577SOL    HW116364   4.569   0.944   7.487 -2.0860  2.9805 -0.0617
 1577SOL    HW216365   4.587   1.045   7.380 -0.3471  0.7883  0.5787
 1578SOL     OW16366   2.035   4.706   2.464 -0.0969  0.7876  0.0816
 1578SOL    HW116367   1.995   4.699   2.551  0.3647 -1.6643  0.0915
 1578SOL    HW216368   2.108   4.645   2.472 -1.1846 -0.5128  0.0571
 1579SOL     OW16369   4.673   2.660   4.417  0.0442  1.0235 -0.0089
 1579SOL    HW116370   4.666   2.568   4.391 -0.4213  0.9779  0.2761
 1579SOL    HW216371   4.582   2.668   4.446 -0.4042 -0.9035 -0.8872
 1580SOL     OW16372   4.605   1.356   4.768  0.2078  0.2258 -0.0216
 1580SOL    HW116373   4.676   1.420   4.780 -0.2158  1.2978 -3.1161
 1580SOL    HW216374   4.557   1.401   4.699 -0.7655  2.0400  1.8209
 1581SOL     OW16375   3.802   2.163   7.380 -0.3895 -0.2259  0.4252
 1581SOL    HW116376   3.893   2.140   7.397  0.2056  2.1433  0.3437
 1581SOL    HW216377   3.823   2.237   7.324 -1.7050 -0.3199 -0.1877
 1582SOL     OW16378   1.417   3.216   4.306  0.6530 -0.0253 -0.4238
 1582SOL    HW116379   1.407   3.188   4.215 -0.0384  1.0207 -0.6642
 1582SOL    HW216380   1.406   3.310   4.294 -2.5831 -0.2221  0.8587
 1583SOL     OW16381   4.525   1.521   3.213 -0.3178  0.6464  0.3964
 1583SOL    HW116382   4.565   1.559   3.291  0.0849 -1.4879  1.2509
 1583SOL    HW216383   4.601   1.487   3.165 -0.4974  0.3092  0.3522
 1584SOL     OW16384   3.943   4.454   0.244  0.1183  0.1571 -0.2236
 1584SOL    HW116385   3.989   4.511   0.306 -0.6786 -0.6933  1.1564
 1584SOL    HW216386   4.014   4.396   0.219 -0.5835 -1.2410  1.0085
 1585SOL     OW16387   0.354   1.965  16.891  0.0731 -0.2833 -0.5772
 1585SOL    HW116388   0.286   2.000  16.949  0.2513 -1.2277  0.1895
 1585SOL    HW216389   0.303   1.915  16.826 -1.2170 -0.0663  0.2638
 1586SOL     OW16390   2.892   3.561   4.219 -0.0886  0.2554  0.1063
 1586SOL    HW116391   2.809   3.515   4.202 -0.5791  1.7261 -1.4598
 1586SOL    HW216392   2.928   3.578   4.132  0.3853 -1.1439  0.0182
 1587SOL     OW16393   2.830   2.102  14.008  0.0917  0.0721  0.2910
 1587SOL    HW116394   2.770   2.071  13.940  1.2092 -1.1325 -0.1455
 1587SOL    HW216395   2.909   2.050  13.993 -2.4228 -3.1375 -1.7742
 1588SOL     OW16396   0.451   1.585   0.547 -0.0365  0.1022 -0.1273
 1588SOL    HW116397   0.486   1.600   0.459  0.9138  0.2802  0.2826
 1588SOL    HW216398   0.359   1.603   0.530  0.1159  0.8431 -0.1730
 1589SOL     OW16399   3.576   3.342   5.945  0.1197 -0.3597  0.4039
 1589SOL    HW116400   3.526   3.396   6.006 -1.5758 -0.7802 -0.5910
 1589SOL    HW216401   3.587   3.406   5.874  2.7531  0.0075  1.1397
 1590SOL     OW16402   4.244   1.489  14.375  0.4639  0.3187 -0.5554
 1590SOL    HW116403   4.161   1.536  14.365  0.4616  0.6741  1.1035
 1590SOL    HW216404   4.270   1.473  14.285 -0.0827 -0.3360 -0.5954
 1591SOL     OW16405   3.779   2.914   4.582  0.2503 -0.2393 -0.1561
 1591SOL    HW116406   3.804   2.882   4.495  0.5328  2.9061 -1.2244
 1591SOL    HW216407   3.737   2.835   4.617  0.7418  0.7039  2.5363
 1592SOL     OW16408   4.040   1.818   1.973 -0.0538 -0.8330  0.2800
 1592SOL    HW116409   4.047   1.791   1.881 -1.0972  2.6716 -0.8720
 1592SOL    HW216410   3.952   1.856   1.964 -0.4052 -1.0638  2.9773
 1593SOL     OW16411   3.174   2.259   4.356 -0.1542  0.1970  0.1980
 1593SOL    HW116412   3.170   2.278   4.450  0.0705 -3.9388  1.0444
 1593SOL    HW216413   3.251   2.201   4.355 -1.9022 -2.0782 -1.2263
 1594SOL     OW16414   2.048   0.806   8.061  0.0800  0.4237  0.0127
 1594SOL    HW116415   2.139   0.812   8.032 -1.2210  0.0266 -4.2008
 1594SOL    HW216416   2.013   0.756   7.987  0.2278  2.0916 -1.1848
 1595SOL     OW16417   0.510   3.065   3.453 -0.3710 -0.5712 -0.2001
 1595SOL    HW116418   0.545   3.150   3.429 -1.0273 -0.0928  0.5230
 1595SOL    HW216419   0.593   3.018   3.456  1.1653  2.2604  0.8140
 1596SOL     OW16420   3.534   0.728   3.543  0.4552 -0.1046 -0.0154
 1596SOL    HW116421   3.456   0.737   3.490  0.8087 -0.2893 -0.5643
 1596SOL    HW216422   3.597   0.762   3.480 -1.4908  1.6531 -0.9571
 1597SOL     OW16423   0.678   3.716   8.004 -0.0471  0.5648  0.6023
 1597SOL    HW116424   0.650   3.803   7.976  1.6782  0.2766 -1.9548
 1597SOL    HW216425   0.721   3.689   7.924  1.4061 -0.6391  1.7887
 1598SOL     OW16426   4.203   1.363  14.620 -0.0014  0.0129  0.0831
 1598SOL    HW116427   4.221   1.411  14.540 -1.6492 -1.2353 -1.0240
 1598SOL    HW216428   4.181   1.435  14.679  0.5808  0.2825 -0.0280
 1599SOL     OW16429   3.193   2.232  17.002 -0.6746 -0.2111  0.1911
 1599SOL    HW116430   3.206   2.172  17.075 -1.3714 -0.7204 -0.0963
 1599SOL    HW216431   3.222   2.317  17.034  1.0144 -0.5581 -0.4550
 1600SOL     OW16432   2.557   1.993  11.415  0.2374 -0.3508 -0.0366
 1600SOL    HW116433   2.550   2.067  11.475  1.0509  1.2619 -1.9249
 1600SOL    HW216434   2.618   2.029  11.351  0.7664 -2.1558 -0.5556
 1601SOL     OW16435   3.036   0.213   4.780  0.2353 -0.3281  0.4764
 1601SOL    HW116436   3.056   0.126   4.817  0.6113 -0.0907  0.8323
 1601SOL    HW216437   3.119   0.246   4.747 -1.3476  1.1658 -2.0063
 1602SOL     OW16438   1.079   4.384   5.357 -1.1431  0.2467  0.5014
 1602SOL    HW116439   1.035   4.468   5.368  0.4521  1.1264 -0.0203
 1602SOL    HW216440   1.022   4.319   5.400 -1.6486  1.9255  2.3414
 1603SOL     OW16441   3.073   1.387  14.203  0.6316  0.1896  0.0060
 1603SOL    HW116442   2.996   1.357  14.156  0.1619  1.0600  0.2214
 1603SOL    HW216443   3.034   1.439  14.273 -0.2937  0.6404 -0.8604
 1604SOL     OW16444   2.585   3.989   1.894 -0.1877 -0.2800 -0.4962
 1604SOL    HW116445   2.578   4.084   1.898  1.8361 -0.1458 -0.3565
 1604SOL    HW216446   2.680   3.977   1.899  0.2050  3.1990  0.0424
 1605SOL     OW16447   2.334   0.291   1.830 -0.3281 -0.1243 -0.4793
 1605SOL    HW116448   2.272   0.218   1.822  1.8025 -1.9068 -0.6100
 1605SOL    HW216449   2.344   0.289   1.926 -1.0329  0.7591 -0.3845
 1606SOL     OW16450   1.582   2.057   1.707  0.3553  0.9437 -0.0490
 1606SOL    HW116451   1.496   2.028   1.735  0.7743 -0.4680 -0.2286
 1606SOL    HW216452   1.592   2.125   1.774 -1.7214  0.9687  0.2183
 1607SOL     OW16453   1.951   2.208   9.293 -0.3793  0.2225  0.3291
 1607SOL    HW116454   1.913   2.292   9.266 -0.0354  0.2639 -0.0347
 1607SOL    HW216455   1.993   2.184   9.210  0.0434 -2.5929  1.3779
 1608SOL     OW16456   1.405   0.219   3.576 -0.2152 -0.2593  0.6605
 1608SOL    HW116457   1.340   0.195   3.510 -1.6107 -0.7573  2.2157
 1608SOL    HW216458   1.421   0.311   3.554 -3.9136  1.1062  3.7468
 1609SOL     OW16459   3.438   4.241  12.853  0.1451  0.5129 -0.1060
 1609SOL    HW116460   3.500   4.285  12.795 -1.3373  0.0624 -2.0295
 1609SOL    HW216461   3.392   4.184  12.791  0.1718  0.7159 -0.3093
 1610SOL     OW16462   1.295   2.819   2.723 -0.0366 -0.1011 -0.3021
 1610SOL    HW116463   1.308   2.882   2.652  1.6022 -1.6872 -1.3758
 1610SOL    HW216464   1.378   2.822   2.769 -0.7272  0.6956  0.9139
 1611SOL     OW16465   1.005   4.259  17.219 -0.2087  0.3679  0.6387
 1611SOL    HW116466   0.917   4.243  17.184 -0.0487  0.7821  0.0400
 1611SOL    HW216467   0.994   4.349  17.251  0.4241  0.7326 -0.1674
 1612SOL     OW16468   0.036   0.020   5.687  0.2473  0.0184  0.0597
 1612SOL    HW116469   0.007   0.052   5.601 -0.5947  0.6975  0.5957
 1612SOL    HW216470   4.708   4.686   5.695 -2.2455  2.2213 -0.4345
 1613SOL     OW16471   1.035   0.071   5.484 -0.2136  0.0475  0.7283
 1613SOL    HW116472   0.969   0.016   5.527 -0.6408  0.1088  0.1506
 1613SOL    HW216473   1.027   0.041   5.393 -1.2660 -0.7344  1.0734
 1614SOL     OW16474   2.178   1.073   2.714 -0.0435  0.3456 -0.2475
 1614SOL    HW116475   2.085   1.086   2.695 -0.1026 -0.5176 -0.5555
 1614SOL    HW216476   2.200   1.164   2.734 -0.4114  0.8315 -2.0120
 1615SOL     OW16477   1.646   3.114   8.519  0.0027 -0.0663 -0.0061
 1615SOL    HW116478   1.597   3.073   8.448  0.8717  3.1062 -2.4386
 1615SOL    HW216479   1.726   3.137   8.471  0.2622  0.4597  0.6866
 1616SOL     OW16480   2.112   3.438   1.386  0.0066  0.1360 -0.0755
 1616SOL    HW116481   2.184   3.375   1.386 -1.1068 -1.1432 -1.6836
 1616SOL    HW216482   2.153   3.515   1.426 -1.9504  2.2347 -2.1785
 1617SOL     OW16483   3.433   3.528   4.189  0.0431 -0.5103  0.2329
 1617SOL    HW116484   3.446   3.615   4.151 -0.8439 -1.4498 -2.1857
 1617SOL    HW216485   3.338   3.528   4.200  0.2938  0.4890  2.4571
 1618SOL     OW16486   2.571   2.349  10.707  0.1700  0.0462 -0.2892
 1618SOL    HW116487   2.562   2.255  10.724 -0.1278  0.6319  2.7893
 1618SOL    HW216488   2.631   2.378  10.777 -0.1589  0.2657 -0.0989
 1619SOL     OW16489   3.071   3.225  14.881 -0.1627  0.0834  0.7916
 1619SOL    HW116490   3.069   3.302  14.824 -0.2328 -0.9899 -0.6246
 1619SOL    HW216491   3.109   3.270  14.957 -2.4740 -1.6015  2.9168
 1620SOL     OW16492   2.475   0.457  10.722  0.3106  0.5733  0.4013
 1620SOL    HW116493   2.469   0.459  10.626  1.7116  1.1125  0.3234
 1620SOL    HW216494   2.400   0.402  10.746  1.2075  0.1089  2.0981
 1621SOL     OW16495   2.954   0.736   3.963  0.4711  0.5893  0.4099
 1621SOL    HW116496   2.914   0.823   3.961 -1.8712 -0.4969 -0.9840
 1621SOL    HW216497   2.924   0.707   3.876  0.7164  1.1179  0.1447
 1622SOL     OW16498   3.358   2.689   7.527  0.1440  0.0701  0.1871
 1622SOL    HW116499   3.312   2.696   7.443 -0.0144  2.8404  0.5113
 1622SOL    HW216500   3.411   2.769   7.522  0.9171 -0.4446  0.0120
 1623SOL     OW16501   2.887   0.508  17.361 -0.6158 -0.5340  0.6566
 1623SOL    HW116502   2.960   0.562  17.390 -1.6775  2.1296 -1.6011
 1623SOL    HW216503   2.922   0.455  17.290  1.2216  0.2981  0.9467
 1624SOL     OW16504   0.872   3.819   9.880  0.6598  0.4558  0.4741
 1624SOL    HW116505   0.928   3.784   9.810  0.3413 -0.7301  0.7993
 1624SOL    HW216506   0.813   3.746   9.900  0.6437 -0.4887 -2.9864
 1625SOL     OW16507   4.400   3.165  12.524 -0.1487 -0.1131  0.1742
 1625SOL    HW116508   4.420   3.141  12.433 -1.9531  2.1451 -0.8125
 1625SOL    HW216509   4.469   3.225  12.552  1.5651 -0.9327 -2.2333
 1626SOL     OW16510   3.920   0.687  10.055  0.0288  0.5142  0.6551
 1626SOL    HW116511   3.970   0.754  10.103 -0.1681  2.6468 -2.1218
 1626SOL    HW216512   3.852   0.653  10.113 -0.2301 -2.6499 -1.5106
 1627SOL     OW16513   4.376   0.468  12.559 -0.1273  0.5956  0.1053
 1627SOL    HW116514   4.356   0.427  12.475 -0.7096  0.5754  0.2578
 1627SOL    HW216515   4.349   0.394  12.614  1.7504 -0.9083 -0.9524
 1628SOL     OW16516   0.679   0.315   5.202 -0.3747  0.7174 -0.0940
 1628SOL    HW116517   0.754   0.268   5.167 -0.9812 -0.8503  0.6943
 1628SOL    HW216518   0.601   0.268   5.172 -0.5375  0.7535  0.2668
 1629SOL     OW16519   4.301   3.201  11.259  0.1495 -0.7222  0.4140
 1629SOL    HW116520   4.306   3.153  11.341 -1.4285 -1.2935  0.1756
 1629SOL    HW216521   4.212   3.194  11.226  0.9748 -0.1812 -1.9776
 1630SOL     OW16522   0.359   0.066   2.848  0.7807 -0.4027 -0.1943
 1630SOL    HW116523   0.349   4.707   2.855  0.9798 -0.3215  1.3639
 1630SOL    HW216524   0.275   0.096   2.814 -0.2451 -0.7336  2.0078
 1631SOL     OW16525   4.406   2.443   8.437  0.3422  0.6002  0.8904
 1631SOL    HW116526   4.366   2.375   8.491  0.0027  0.6482  0.6998
 1631SOL    HW216527   4.418   2.508   8.506 -0.0182  1.3798  0.2236
 1632SOL     OW16528   0.711   2.565  17.457  0.1577 -0.5136  0.3714
 1632SOL    HW116529   0.665   2.596  17.534  0.4486  0.2061  0.2596
 1632SOL    HW216530   0.688   2.473  17.448  0.2538 -0.4574 -0.4586
 1633SOL     OW16531   4.104   0.474   3.028  0.1505 -0.0109  0.1667
 1633SOL    HW116532   4.044   0.401   3.048  0.7456 -0.5706 -0.1031
 1633SOL    HW216533   4.152   0.464   3.110  3.9426  1.1107 -1.9360
 1634SOL     OW16534   1.685   4.092  10.986  0.1852 -0.5159 -0.3107
 1634SOL    HW116535   1.724   4.034  11.051  1.4289  0.3437 -0.2869
 1634SOL    HW216536   1.748   4.101  10.914 -0.0963 -0.8379 -0.5953
 1635SOL     OW16537   2.344   2.663  15.935 -0.5505  0.5767 -0.3087
 1635SOL    HW116538   2.353   2.758  15.929  2.6048  0.2949  0.4537
 1635SOL    HW216539   2.435   2.635  15.943 -0.4830  0.2871 -1.9875
 1636SOL     OW16540   1.290   3.552   3.449  0.0295  0.2925  0.8015
 1636SOL    HW116541   1.366   3.569   3.505  1.9206  0.7548 -1.9478
 1636SOL    HW216542   1.319   3.610   3.379 -1.2954  0.0193  0.0258
 1637SOL     OW16543   2.421   1.828   4.533 -0.1351 -0.2988  0.0222
 1637SOL    HW116544   2.327   1.836   4.550  0.4466 -0.3432  3.1673
 1637SOL    HW216545   2.423   1.838   4.438 -0.3103 -0.8979 -0.0402
 1638SOL     OW16546   3.793   3.177   5.217 -0.8801  0.2103  0.2961
 1638SOL    HW116547   3.877   3.134   5.225  0.1981  2.0355 -1.2398
 1638SOL    HW216548   3.745   3.129   5.150 -0.6237  0.4056 -0.0289
 1639SOL     OW16549   4.228   4.685   9.254 -0.2585  0.3825 -0.1218
 1639SOL    HW116550   4.283   4.664   9.179 -0.0877 -1.8559  0.6079
 1639SOL    HW216551   4.207   4.594   9.278 -1.2504 -0.0672 -2.6775
 1640SOL     OW16552   2.005   0.798   7.467  0.1081 -0.9104 -0.1492
 1640SOL    HW116553   2.068   0.798   7.395 -1.3979  1.8979 -1.4350
 1640SOL    HW216554   2.012   0.880   7.516  0.2009 -1.6036  1.0081
 1641SOL     OW16555   0.519   4.602   4.391 -0.3934 -0.7006 -0.7274
 1641SOL    HW116556   0.487   4.633   4.475  0.7531 -1.9559  0.1638
 1641SOL    HW216557   0.440   4.606   4.336 -1.4572  3.4530  1.1142
 1642SOL     OW16558   2.078   0.803   5.968  0.4873  0.5010  0.2779
 1642SOL    HW116559   2.080   0.887   5.922  2.3397  0.1143 -0.3087
 1642SOL    HW216560   2.125   0.752   5.903  0.2591  2.0408 -1.1057
 1643SOL     OW16561   0.202   1.905  10.223  0.4116  0.3046  0.0568
 1643SOL    HW116562   0.266   1.868  10.284 -0.6564 -1.8085 -0.0878
 1643SOL    HW216563   0.133   1.854  10.265  1.4803 -0.6060  0.7334
 1644SOL     OW16564   0.790   4.297   6.844 -0.4301 -0.3131 -0.7297
 1644SOL    HW116565   0.794   4.338   6.757  4.3259  0.4694 -0.1912
 1644SOL    HW216566   0.697   4.276   6.851  0.1159 -2.1321  0.9843
 1645SOL     OW16567   1.783   4.129   5.251 -0.0308 -0.1046 -0.0154
 1645SOL    HW116568   1.709   4.171   5.295  0.9905  0.9840  0.6909
 1645SOL    HW216569   1.751   4.039   5.246  0.5153 -0.2740 -0.4315
 1646SOL     OW16570   2.980   1.901   5.302 -0.2233 -0.5631  0.0384
 1646SOL    HW116571   2.940   1.854   5.228  0.2396 -2.0023  0.7101
 1646SOL    HW216572   3.010   1.983   5.263 -1.2547 -0.3623 -0.3581
 1647SOL     OW16573   3.653   3.203   7.892 -0.0014  0.0351 -0.1880
 1647SOL    HW116574   3.574   3.210   7.839 -0.3241 -1.5088  0.1058
 1647SOL    HW216575   3.683   3.112   7.892 -0.0198  0.0334  2.3724
 1648SOL     OW16576   0.193   2.327  12.566  0.0364 -0.4226 -0.8180
 1648SOL    HW116577   0.207   2.377  12.647  0.0775 -0.6078 -0.7112
 1648SOL    HW216578   0.166   2.393  12.501 -1.9707 -1.1754 -0.7657
 1649SOL     OW16579   3.552   4.251   7.332  0.3777 -0.4201  0.1814
 1649SOL    HW116580   3.540   4.222   7.241 -0.1734 -0.6673  0.3307
 1649SOL    HW216581   3.501   4.330   7.349 -0.9651 -1.4784  1.1151
 1650SOL     OW16582   3.445   3.172   5.103 -0.4300  0.0428 -0.0395
 1650SOL    HW116583   3.396   3.112   5.047 -0.0145 -0.4654  0.1439
 1650SOL    HW216584   3.424   3.252   5.055  0.7263  0.3928  0.0366
 1651SOL     OW16585   0.305   2.897   3.306  0.5027 -0.5113  0.6840
 1651SOL    HW116586   0.226   2.878   3.256 -0.1662  0.9696  1.1984
 1651SOL    HW216587   0.274   2.975   3.351  2.7202  0.0648  1.2090
 1652SOL     OW16588   3.533   0.652   2.555 -0.6335 -0.2338  0.1767
 1652SOL    HW116589   3.583   0.623   2.631  0.2756 -2.5043 -1.2794
 1652SOL    HW216590   3.458   0.593   2.546  0.0657 -1.2143  0.7573
 1653SOL     OW16591   3.666   2.704   4.289  0.0988 -0.1358 -0.2512
 1653SOL    HW116592   3.657   2.799   4.279  0.4235  0.1726  2.4150
 1653SOL    HW216593   3.726   2.700   4.215 -1.8240  0.2833 -1.8478
 1654SOL     OW16594   0.083   2.191   2.165 -0.5565 -0.3572  0.2696
 1654SOL    HW116595   4.726   2.190   2.146 -0.2391  1.9724 -1.3083
 1654SOL    HW216596   0.090   2.133   2.241  2.6650  1.1833  1.1283
 1655SOL     OW16597   1.103   1.074  11.686  0.6022 -0.0633 -0.5156
 1655SOL    HW116598   1.072   1.146  11.631  0.6820 -0.5308 -1.1812
 1655SOL    HW216599   1.177   1.110  11.735 -0.5240  2.1187 -0.4717
 1656SOL     OW16600   2.947   4.464   2.298  0.0838  0.1201 -0.1979
 1656SOL    HW116601   2.887   4.394   2.274 -0.4478  0.5777 -0.2114
 1656SOL    HW216602   2.890   4.541   2.298  1.0763  0.8937  3.3394
 1657SOL     OW16603   3.150   3.930   6.223 -0.0181 -0.2358  0.2622
 1657SOL    HW116604   3.112   3.923   6.136  1.7637 -0.1966 -0.5217
 1657SOL    HW216605   3.196   4.013   6.215  1.3445 -1.2480 -2.2483
 1658SOL     OW16606   4.226   4.558   2.113 -0.1936  0.0666  0.7564
 1658SOL    HW116607   4.144   4.594   2.078  0.6168 -1.7564 -2.9437
 1658SOL    HW216608   4.268   4.644   2.111  1.1967 -0.6710 -1.0164
 1659SOL     OW16609   0.908   0.104   6.357  0.0763 -0.3145 -0.3040
 1659SOL    HW116610   0.962   0.131   6.282 -1.3474 -0.1348 -1.2768
 1659SOL    HW216611   0.894   0.188   6.402  0.6965  0.6590 -1.9127
 1660SOL     OW16612   0.724   1.412  12.742  0.8384  0.5843  0.4906
 1660SOL    HW116613   0.752   1.445  12.657 -0.5541  1.6774  0.4645
 1660SOL    HW216614   0.716   1.489  12.799 -1.5594  1.4231 -0.9790
 1661SOL     OW16615   0.272   3.935   2.223 -0.6286  0.4724 -0.3733
 1661SOL    HW116616   0.360   3.971   2.214 -0.5394  0.9753  2.4906
 1661SOL    HW216617   0.245   3.919   2.132 -2.8604 -0.6369  0.4797
 1662SOL     OW16618   0.122   3.717  11.000  0.0083  0.1694  0.2400
 1662SOL    HW116619   0.189   3.779  11.028  0.1230  0.1646 -0.0234
 1662SOL    HW216620   0.167   3.638  11.030  2.5866  1.4229 -0.2978
 1663SOL     OW16621   3.826   2.279   9.548  0.6362  0.1916  0.2480
 1663SOL    HW116622   3.860   2.289   9.636  3.0332  1.6656 -0.8513
 1663SOL    HW216623   3.889   2.209   9.530 -1.8825 -2.2559  0.9005
 1664SOL     OW16624   4.065   2.135   1.197  0.1225 -0.0649 -0.7657
 1664SOL    HW116625   4.098   2.222   1.219 -0.8304 -0.1130  0.8771
 1664SOL    HW216626   3.986   2.165   1.153 -1.4037  0.1742  2.1481
 1665SOL     OW16627   3.479   0.622   2.037  0.4887  0.7246 -0.1617
 1665SOL    HW116628   3.391   0.658   2.044  0.9368  1.7632  0.1594
 1665SOL    HW216629   3.493   0.581   2.122  1.6707  0.9614 -0.2383
 1666SOL     OW16630   4.013   1.837   2.378  0.1820 -0.1448  0.2247
 1666SOL    HW116631   3.954   1.840   2.453 -0.4086 -0.2660 -0.2382
 1666SOL    HW216632   3.945   1.816   2.314  0.1698  0.0637  0.1708
 1667SOL     OW16633   1.805   0.950  16.755  0.4486 -0.1103  0.6495
 1667SOL    HW116634   1.797   0.881  16.689 -0.3784  1.6562 -1.1107
 1667SOL    HW216635   1.798   0.909  16.841 -0.9212  1.0974  1.1282
 1668SOL     OW16636   4.259   4.505   9.765 -0.5208  0.1725  0.5486
 1668SOL    HW116637   4.263   4.588   9.718 -1.2874  0.2754  0.6506
 1668SOL    HW216638   4.164   4.492   9.755 -0.1398 -0.5506 -2.0470
 1669SOL     OW16639   3.053   0.894  14.635 -0.9093 -0.0432  0.1094
 1669SOL    HW116640   2.975   0.936  14.671  0.8852  2.7238  0.7924
 1669SOL    HW216641   3.073   0.839  14.711 -0.6120  0.1348  0.1609
 1670SOL     OW16642   3.299   4.732   7.476 -0.8603 -0.2341  0.7855
 1670SOL    HW116643   3.295   0.092   7.474 -1.4998 -0.2756  0.0575
 1670SOL    HW216644   3.294   4.711   7.569  4.0322  3.5729  1.9047
 1671SOL     OW16645   2.081   3.904   3.116 -0.6609  0.1928  0.4826
 1671SOL    HW116646   2.053   3.992   3.091 -0.9068  0.8467  3.0647
 1671SOL    HW216647   2.057   3.847   3.043  1.2393 -1.0003  0.7922
 1672SOL     OW16648   2.836   0.662   3.709  0.5665  0.6541 -0.2021
 1672SOL    HW116649   2.800   0.738   3.664  2.7217  3.3709  2.6987
 1672SOL    HW216650   2.920   0.642   3.669  0.3979 -1.6592  0.5581
 1673SOL     OW16651   3.144   1.251   4.795 -0.2783  0.0457 -0.1304
 1673SOL    HW116652   3.118   1.234   4.704  0.3375 -0.7012 -0.1672
 1673SOL    HW216653   3.106   1.175   4.838 -0.3949 -1.1382 -2.3097
 1674SOL     OW16654   1.549   4.569   6.300 -0.3736  0.7551 -0.0637
 1674SOL    HW116655   1.520   4.508   6.232 -1.2692 -0.8352  1.7405
 1674SOL    HW216656   1.538   4.649   6.250  1.2465  0.8833 -0.1963
 1675SOL     OW16657   2.789   1.617   4.239  0.2897 -0.0672 -0.4971
 1675SOL    HW116658   2.830   1.665   4.311  0.5052  0.3048 -0.8714
 1675SOL    HW216659   2.869   1.584   4.197  0.7297  0.3102  0.0455
 1676SOL     OW16660   2.160   4.078   5.184 -0.1955 -0.4831  0.7556
 1676SOL    HW116661   2.140   4.169   5.163  2.8005  0.3054  1.4054
 1676SOL    HW216662   2.198   4.082   5.272 -1.9223  0.5847  1.4466
 1677SOL     OW16663   3.015   0.240   8.177 -0.6702  0.1950  0.3290
 1677SOL    HW116664   2.968   0.189   8.242 -2.0492  2.0415  0.7881
 1677SOL    HW216665   2.946   0.254   8.112 -0.3821  2.5987  0.5203
 1678SOL     OW16666   3.066   0.816  11.815 -0.5033  0.3212  0.3464
 1678SOL    HW116667   2.975   0.832  11.791 -0.0734  3.2667  0.6372
 1678SOL    HW216668   3.096   0.794  11.726 -2.0675  0.3396 -0.1843
 1679SOL     OW16669   3.261   1.107   4.446  0.6102  0.3662  0.0483
 1679SOL    HW116670   3.348   1.129   4.413 -0.0041  2.5610 -0.0686
 1679SOL    HW216671   3.212   1.133   4.369 -1.3590 -0.1160  1.1441
 1680SOL     OW16672   0.179   3.440   1.581  0.5394  0.4962  0.5336
 1680SOL    HW116673   0.107   3.392   1.540  0.2789  0.5805  0.8877
 1680SOL    HW216674   0.240   3.367   1.595 -0.6362 -0.8032 -1.1109
 1681SOL     OW16675   1.901   4.247   9.248 -0.2104  0.3790  0.4378
 1681SOL    HW116676   1.806   4.261   9.244 -0.2926 -0.6200 -0.9833
 1681SOL    HW216677   1.943   4.333   9.241  0.7179 -0.1028  0.2148
 1682SOL     OW16678   3.548   1.027  10.159  0.3559 -0.2444 -0.2174
 1682SOL    HW116679   3.495   0.989  10.230 -1.3828  0.4758 -1.1490
 1682SOL    HW216680   3.636   0.991  10.170  0.8858  1.1623  0.1155
 1683SOL     OW16681   3.752   2.280   7.794 -0.3164  0.2243  0.3246
 1683SOL    HW116682   3.729   2.321   7.878 -0.7483  1.1227 -0.2365
 1683SOL    HW216683   3.845   2.303   7.791  0.2117 -1.6636  1.9072
 1684SOL     OW16684   2.132   4.216   3.205  0.0030  0.1462  0.5519
 1684SOL    HW116685   2.106   4.287   3.146  0.0151  0.0808  0.4674
 1684SOL    HW216686   2.207   4.178   3.159 -1.2783  0.5726 -1.9315
 1685SOL     OW16687   1.391   1.198  11.225 -0.4300 -0.4293  0.1713
 1685SOL    HW116688   1.371   1.263  11.292  0.8694  0.5653 -0.4181
 1685SOL    HW216689   1.381   1.124  11.285  1.1861  1.1936  2.3929
 1686SOL     OW16690   0.431   3.600   3.671 -0.4739 -0.3864  0.6055
 1686SOL    HW116691   0.442   3.584   3.577 -1.6166 -1.3989  0.6347
 1686SOL    HW216692   0.515   3.637   3.698 -0.8995  1.8308 -1.1252
 1687SOL     OW16693   0.143   4.557   4.077  0.1697 -0.7079 -0.3811
 1687SOL    HW116694   0.146   4.616   4.002  1.5052 -1.4006 -0.8645
 1687SOL    HW216695   0.225   4.509   4.072  0.6771  0.0693  0.4291
 1688SOL     OW16696   0.362   1.869   2.379  0.5067  0.5355 -0.1582
 1688SOL    HW116697   0.420   1.876   2.455  1.0945 -1.1320 -0.4594
 1688SOL    HW216698   0.413   1.830   2.308  0.7978  2.3215 -0.9385
 1689SOL     OW16699   2.279   0.921   4.148 -0.1807 -0.2504 -0.3116
 1689SOL    HW116700   2.217   0.861   4.107  0.7898 -2.0934  0.8783
 1689SOL    HW216701   2.234   1.003   4.129 -0.4104 -0.2035  0.4280
 1690SOL     OW16702   2.394   1.668   9.525 -0.2266 -0.1166 -0.0294
 1690SOL    HW116703   2.362   1.637   9.610  2.8368 -2.9025  0.1282
 1690SOL    HW216704   2.432   1.749   9.557  2.6448 -1.2642 -0.4695
 1691SOL     OW16705   1.298   3.224   1.703  0.4421  0.1224  0.1348
 1691SOL    HW116706   1.335   3.224   1.792  0.1125  2.2644  0.2686
 1691SOL    HW216707   1.292   3.130   1.687 -2.1864  0.5530 -1.4377
 1692SOL     OW16708   3.951   2.034   0.936  0.2694 -0.4125 -0.8119
 1692SOL    HW116709   3.920   2.002   1.021  0.7724  3.0670  0.7296
 1692SOL    HW216710   3.900   2.115   0.930  2.7855  1.0268 -2.7091
 1693SOL     OW16711   4.513   0.516   7.298 -0.0314  0.5003 -0.3240
 1693SOL    HW116712   4.503   0.476   7.211 -0.9862  0.7514 -0.3294
 1693SOL    HW216713   4.537   0.603   7.268  0.1551  0.3380 -0.6440
 1694SOL     OW16714   4.727   2.052  17.107 -0.0295 -0.1269 -0.1537
 1694SOL    HW116715   0.041   2.021  17.182  0.0840 -0.6605 -0.4438
 1694SOL    HW216716   4.656   1.988  17.113 -1.4573  1.6131  1.4414
 1695SOL     OW16717   0.665   4.353   0.395 -0.3213  0.0520 -0.4201
 1695SOL    HW116718   0.616   4.272   0.410 -0.1701  0.1773  0.7189
 1695SOL    HW216719   0.587   4.406   0.413  0.0379  0.4562 -0.0403
 1696SOL     OW16720   1.807   0.675   8.488 -0.2459  0.3081 -0.2259
 1696SOL    HW116721   1.724   0.703   8.527 -1.9316 -5.2677  0.1257
 1696SOL    HW216722   1.787   0.689   8.396 -3.3109  0.9865  0.5495
 1697SOL     OW16723   2.424   0.115   0.433 -0.1910 -0.3306  0.1389
 1697SOL    HW116724   2.375   0.151   0.359  0.2201 -1.6692 -0.7918
 1697SOL    HW216725   2.425   0.021   0.413  0.4793 -0.5988  1.4629
 1698SOL     OW16726   1.075   2.197   0.281  0.7886 -0.2870  0.2657
 1698SOL    HW116727   1.079   2.110   0.241  0.3418  0.6171 -1.7856
 1698SOL    HW216728   1.097   2.177   0.371  0.0817 -0.8288  0.3167
 1699SOL     OW16729   2.877   0.271  11.570  0.2670 -0.4399 -0.2858
 1699SOL    HW116730   2.930   0.345  11.600 -0.4432  0.2572 -0.7564
 1699SOL    HW216731   2.913   0.199  11.622  0.4612 -0.5646 -0.5936
 1700SOL     OW16732   0.915   0.773   8.593 -0.5661  0.1657 -0.6747
 1700SOL    HW116733   0.971   0.786   8.516 -0.1248 -0.6158 -0.4896
 1700SOL    HW216734   0.974   0.717   8.643  0.8027 -0.2371 -2.7570
 1701SOL     OW16735   1.010   3.928   2.834 -0.2060  0.1330  0.9366
 1701SOL    HW116736   1.086   3.869   2.833  0.6175  1.1937 -0.0566
 1701SOL    HW216737   1.039   3.990   2.901 -0.4576 -1.0385  2.1290
 1702SOL     OW16738   0.454   4.508   5.424  1.0881  0.3905 -0.6196
 1702SOL    HW116739   0.422   4.560   5.351  0.6882 -0.0878 -0.7794
 1702SOL    HW216740   0.547   4.516   5.404  1.3533  0.9989  0.8028
 1703SOL     OW16741   0.045   1.812  16.488 -0.0976 -0.1577 -0.1927
 1703SOL    HW116742   0.082   1.859  16.414  0.8252  1.0341  1.0264
 1703SOL    HW216743   0.049   1.875  16.560 -2.8837 -0.5899  0.3554
 1704SOL     OW16744   4.043   4.546   5.664  0.5264  0.0770  0.3740
 1704SOL    HW116745   3.977   4.481   5.687 -0.4244  1.8206  2.5148
 1704SOL    HW216746   4.013   4.627   5.705 -3.7738 -1.0149 -0.5888
 1705SOL     OW16747   4.023   2.306   5.570 -0.1644 -0.1508  0.4553
 1705SOL    HW116748   4.040   2.318   5.663 -0.7995 -0.6620  0.6380
 1705SOL    HW216749   4.099   2.258   5.537  0.6119  1.7723 -0.4942
 1706SOL     OW16750   2.008   1.324   3.899  0.1667  0.1559 -0.4079
 1706SOL    HW116751   2.076   1.360   3.841 -0.0035  0.9995 -0.0886
 1706SOL    HW216752   1.987   1.242   3.854 -1.7677 -0.7091  2.0853
 1707SOL     OW16753   1.693   4.417   3.383 -0.2192  0.8002  0.0362
 1707SOL    HW116754   1.745   4.353   3.431  1.4576  1.7376 -0.5340
 1707SOL    HW216755   1.606   4.412   3.423 -0.7373  1.4918 -0.9817
 1708SOL     OW16756   4.396   1.111   3.513 -0.0269 -0.2804 -0.1848
 1708SOL    HW116757   4.356   1.148   3.592  0.0885 -1.3013  0.3538
 1708SOL    HW216758   4.458   1.051   3.555  1.7478  1.9708  0.4510
 1709SOL     OW16759   2.553   2.743   5.039 -0.7252 -0.2487 -0.4319
 1709SOL    HW116760   2.500   2.680   5.088  0.7983 -0.4404  0.9951
 1709SOL    HW216761   2.627   2.752   5.099 -1.4611 -1.8551  0.7106
 1710SOL     OW16762   0.097   1.220  13.433 -0.2403  0.7487  0.0067
 1710SOL    HW116763   0.128   1.293  13.380 -0.9582  1.7298  0.9460
 1710SOL    HW216764   0.177   1.199  13.482 -1.8633 -2.7214  1.1827
 1711SOL     OW16765   4.543   3.346   1.652 -0.1392  0.0959  0.2225
 1711SOL    HW116766   4.546   3.409   1.580 -1.2572 -1.1792 -0.9528
 1711SOL    HW216767   4.528   3.408   1.723  1.3773 -1.3082  1.7830
 1712SOL     OW16768   0.740   3.463   8.419 -0.4286 -0.0555 -0.2366
 1712SOL    HW116769   0.817   3.519   8.432 -1.8213  2.3561 -2.2471
 1712SOL    HW216770   0.779   3.385   8.458  1.1965  1.0645  0.4118
 1713SOL     OW16771   1.943   2.054  16.351  0.2204  0.3138  0.3545
 1713SOL    HW116772   1.953   2.005  16.432 -1.5923  0.9094  0.9282
 1713SOL    HW216773   1.936   2.141  16.390  0.5902  0.7822 -0.6039
 1714SOL     OW16774   2.555   2.209   2.314  0.0897  0.1592 -0.4129
 1714SOL    HW116775   2.612   2.144   2.355  0.0612 -0.0600 -0.7265
 1714SOL    HW216776   2.534   2.261   2.392  0.6349 -1.6496  0.9250
 1715SOL     OW16777   1.285   3.837   8.124  0.2738 -0.1923 -0.2986
 1715SOL    HW116778   1.316   3.900   8.189 -0.3397 -1.2074  0.9711
 1715SOL    HW216779   1.201   3.868   8.089  0.6128 -0.2971 -1.2064
 1716SOL     OW16780   0.224   4.359   5.477  0.1496  0.2170  0.5812
 1716SOL    HW116781   0.174   4.439   5.459  0.7660  0.5897  0.5123
 1716SOL    HW216782   0.312   4.397   5.473  0.9532 -1.6307  0.8178
 1717SOL     OW16783   4.325   1.837   7.383  0.6165  0.4140 -0.7034
 1717SOL    HW116784   4.333   1.796   7.469 -2.7163  0.1303 -0.5460
 1717SOL    HW216785   4.276   1.774   7.330  0.1262 -0.3007  0.6179
 1718SOL     OW16786   2.001   3.391   4.874 -0.0227 -0.1846  0.1745
 1718SOL    HW116787   2.008   3.340   4.794 -2.0064  1.4011 -0.9964
 1718SOL    HW216788   2.066   3.347   4.930  0.8532 -0.2009 -0.8508
 1719SOL     OW16789   1.282   2.960   0.900 -0.0892  0.1194  0.5623
 1719SOL    HW116790   1.245   2.909   0.972 -0.3874 -1.0631 -0.4435
 1719SOL    HW216791   1.367   2.983   0.939 -0.2520 -1.2369  1.7236
 1720SOL     OW16792   0.708   2.150   2.532  0.1184 -0.1653  0.3019
 1720SOL    HW116793   0.672   2.223   2.583 -0.3571 -2.4956  3.2923
 1720SOL    HW216794   0.664   2.169   2.449  0.2509  2.2048  0.7843
 1721SOL     OW16795   1.378   3.425   1.546  0.0521  0.5596 -0.4686
 1721SOL    HW116796   1.314   3.363   1.581  0.7900  0.7946  1.2674
 1721SOL    HW216797   1.435   3.365   1.497 -0.6740  1.6438 -2.6713
 1722SOL     OW16798   0.774   3.657   0.387  0.0225 -0.0174 -0.4761
 1722SOL    HW116799   0.733   3.665   0.473  0.2092  3.1979 -0.6953
 1722SOL    HW216800   0.821   3.740   0.380 -0.9941  0.3154 -3.6424
 1723SOL     OW16801   4.196   2.183   7.657 -0.1368 -0.1722 -0.2825
 1723SOL    HW116802   4.216   2.266   7.702 -1.5924 -0.4684  0.9462
 1723SOL    HW216803   4.225   2.123   7.726  1.2903 -1.8970 -2.4333
 1724SOL     OW16804   0.968   2.817  17.420  0.3095 -0.6626  0.0722
 1724SOL    HW116805   1.029   2.748  17.394  1.1628  0.0686  0.1275
 1724SOL    HW216806   0.899   2.802  17.355  1.4207  0.9533 -1.4883
 1725SOL     OW16807   3.960   3.626  10.242  0.0927  0.1039  0.0163
 1725SOL    HW116808   3.910   3.689  10.294  0.6548  1.0373 -0.5825
 1725SOL    HW216809   4.051   3.635  10.272  0.1676  0.0733 -0.2070
 1726SOL     OW16810   3.533   2.729   7.831  0.2234 -0.1086  0.3620
 1726SOL    HW116811   3.469   2.788   7.791  0.4018 -0.5367 -0.5550
 1726SOL    HW216812   3.598   2.755   7.766 -1.6887  1.1791 -1.0407
 1727SOL     OW16813   1.796   3.757   7.390 -0.4304  0.1788  0.5618
 1727SOL    HW116814   1.724   3.807   7.427 -0.9444 -1.6501  2.0488
 1727SOL    HW216815   1.808   3.816   7.315 -1.8705 -2.9898 -2.1676
 1728SOL     OW16816   3.487   0.720   8.024 -0.2430  0.0891  0.0829
 1728SOL    HW116817   3.461   0.682   7.940  0.6831 -0.1317 -0.1017
 1728SOL    HW216818   3.539   0.648   8.059 -1.8356 -1.2342 -0.2386
 1729SOL     OW16819   1.360   4.637   7.952 -0.5093  0.3716 -0.0614
 1729SOL    HW116820   1.417   4.699   7.907 -0.6072  1.2113  0.9562
 1729SOL    HW216821   1.281   4.637   7.899 -1.2229 -0.3286  1.0076
 1730SOL     OW16822   1.194   4.136   4.804  0.5436  0.4104 -0.6307
 1730SOL    HW116823   1.185   4.212   4.860 -2.2260  0.4461 -1.1252
 1730SOL    HW216824   1.181   4.180   4.720  0.7690 -0.3655 -1.0766
 1731SOL     OW16825   2.798   2.037   3.172 -0.2949 -0.3521  0.0829
 1731SOL    HW116826   2.847   1.965   3.211  1.6272  0.5383 -0.6721
 1731SOL    HW216827   2.756   2.067   3.253 -0.1636  1.1310 -0.3860
 1732SOL     OW16828   2.160   0.871  14.919 -0.9951 -0.0796 -0.3175
 1732SOL    HW116829   2.130   0.815  14.847 -0.4634 -0.0092 -0.5984
 1732SOL    HW216830   2.195   0.941  14.863 -1.1595  1.1994  1.1829
 1733SOL     OW16831   2.489   4.252  15.856  0.2836  0.0709 -0.1613
 1733SOL    HW116832   2.580   4.260  15.828  0.3602 -0.2924 -0.0163
 1733SOL    HW216833   2.472   4.158  15.849 -0.6510  0.1656  0.8293
 1734SOL     OW16834   2.152   2.282   7.110  0.7003 -0.0781 -0.0192
 1734SOL    HW116835   2.080   2.227   7.081  0.5519 -0.7799  1.6585
 1734SOL    HW216836   2.143   2.368   7.069 -0.2405 -1.5549 -2.8278
 1735SOL     OW16837   3.492   3.087   9.929 -0.3827  0.4339  0.0948
 1735SOL    HW116838   3.475   3.116  10.018 -0.0602  0.0696  0.2753
 1735SOL    HW216839   3.471   3.167   9.882  1.4808  1.8661  1.7405
 1736SOL     OW16840   4.314   3.747   2.954  0.3016 -0.0614 -0.2079
 1736SOL    HW116841   4.270   3.803   3.018 -0.1294 -1.3037  0.6027
 1736SOL    HW216842   4.247   3.721   2.891  0.4872  0.1371 -0.4851
 1737SOL     OW16843   0.781   3.413   5.850 -0.2042 -0.2961 -0.0138
 1737SOL    HW116844   0.712   3.465   5.892  0.9901  0.3179  1.1730
 1737SOL    HW216845   0.813   3.357   5.921  0.5152  1.6703  1.2177
 1738SOL     OW16846   3.874   2.698   4.116 -0.1860  0.0800  0.4940
 1738SOL    HW116847   3.908   2.764   4.054 -0.9033  1.1689  1.2608
 1738SOL    HW216848   3.934   2.626   4.098  0.1290  0.0007  1.8482
 1739SOL     OW16849   0.988   1.749   8.388 -0.3328  0.0840 -0.4878
 1739SOL    HW116850   0.954   1.763   8.299 -1.4506 -0.3777 -0.1316
 1739SOL    HW216851   0.988   1.655   8.374  0.2949 -0.3234  2.3560
 1740SOL     OW16852   0.389   4.426  17.449  0.8065  0.2073  0.1174
 1740SOL    HW116853   0.378   4.427  17.545  0.8100  2.0279  0.0931
 1740SOL    HW216854   0.307   4.464  17.417 -0.0109 -2.3137 -0.7502
 1741SOL     OW16855   4.487   1.696   9.443 -0.8030  0.0019  0.0516
 1741SOL    HW116856   4.402   1.669   9.478  0.6730 -3.0507  1.2168
 1741SOL    HW216857   4.539   1.625   9.480 -0.7845 -1.0516 -1.9939
 1742SOL     OW16858   0.954   2.512  17.737  0.1812  0.0784  0.1438
 1742SOL    HW116859   0.890   2.514   0.065 -0.9623  3.9345 -1.0120
 1742SOL    HW216860   0.957   2.605  17.717 -0.9802  0.2727  0.8948
 1743SOL     OW16861   0.796   1.613   9.073 -0.0914  0.0192  0.9459
 1743SOL    HW116862   0.845   1.533   9.091  1.8246  0.8579 -0.6341
 1743SOL    HW216863   0.754   1.590   8.990  1.6665  0.1855  0.0248
 1744SOL     OW16864   4.243   3.435   4.093  0.1936 -0.2631  0.2594
 1744SOL    HW116865   4.224   3.529   4.101 -0.6135 -0.3603 -0.4428
 1744SOL    HW216866   4.278   3.418   4.180 -1.9603 -0.7258  1.0346
 1745SOL     OW16867   1.843   1.154   8.932 -0.2922  0.1163  0.2330
 1745SOL    HW116868   1.906   1.130   8.864 -0.5774  0.4673 -0.1531
 1745SOL    HW216869   1.766   1.099   8.921  1.1281 -1.8607  0.1164
 1746SOL     OW16870   0.089   2.534   2.487  0.1889  0.3128 -0.0259
 1746SOL    HW116871   0.089   2.630   2.490 -0.7891  0.3191 -0.3942
 1746SOL    HW216872   0.023   2.506   2.550 -0.9626  0.0230 -1.3731
 1747SOL     OW16873   4.620   3.818  11.115  0.2329 -0.1051  0.0138
 1747SOL    HW116874   4.686   3.752  11.094  1.1282  0.4208  1.1925
 1747SOL    HW216875   4.543   3.786  11.068 -2.4681  0.1942  4.2549
 1748SOL     OW16876   0.696   3.129  16.816  0.0290 -0.6280  0.2908
 1748SOL    HW116877   0.651   3.214  16.819  2.3287  0.6492 -1.8171
 1748SOL    HW216878   0.659   3.097  16.898 -0.1137  1.6186  1.0994
 1749SOL     OW16879   3.166   1.597  16.812  0.0362 -0.1654 -0.0025
 1749SOL    HW116880   3.176   1.539  16.736  1.9808 -0.5429  0.5447
 1749SOL    HW216881   3.254   1.607  16.848  0.5560 -1.0915 -1.0152
 1750SOL     OW16882   2.720   2.840  16.325  0.3232  0.0964  0.0411
 1750SOL    HW116883   2.725   2.755  16.282 -0.1937  1.5351 -2.8204
 1750SOL    HW216884   2.706   2.897  16.249  0.5200 -0.1213 -0.1561
 1751SOL     OW16885   1.943   2.927   8.743 -0.4227  0.2859 -0.5415
 1751SOL    HW116886   1.929   3.012   8.784  1.5148 -0.4411  1.6210
 1751SOL    HW216887   2.038   2.916   8.731 -0.0179  0.4575  2.6773
 1752SOL     OW16888   2.129   3.583   5.799 -0.0802 -0.1261 -0.3676
 1752SOL    HW116889   2.158   3.571   5.709 -2.0934 -0.3311 -0.9733
 1752SOL    HW216890   2.208   3.604   5.850 -0.2084  0.3322 -0.3648
 1753SOL     OW16891   2.544   0.222  10.395 -0.5345 -0.7309  0.4486
 1753SOL    HW116892   2.459   0.226  10.351 -0.9623  0.9523  1.4054
 1753SOL    HW216893   2.606   0.177  10.339  0.2635  2.7279 -1.4800
 1754SOL     OW16894   0.735   1.334   6.192 -0.1239  0.3280  0.1168
 1754SOL    HW116895   0.648   1.369   6.208  0.8637  2.1114  1.5472
 1754SOL    HW216896   0.735   1.262   6.255 -0.4617 -0.2670 -0.5720
 1755SOL     OW16897   1.888   4.319   7.397  0.0801  0.3138  0.4419
 1755SOL    HW116898   1.837   4.400   7.400 -0.0047  0.3991 -3.0619
 1755SOL    HW216899   1.974   4.359   7.409  0.0946  0.5591 -0.5062
 1756SOL     OW16900   4.172   2.569   3.384  0.2559  0.5409  0.0981
 1756SOL    HW116901   4.172   2.578   3.480 -0.3744  0.0647  0.1436
 1756SOL    HW216902   4.096   2.510   3.377  1.1281 -0.4590 -0.8617
 1757SOL     OW16903   2.645   0.594  17.375  0.0732  0.2889  0.5320
 1757SOL    HW116904   2.736   0.565  17.376  0.3394  1.2506  2.9670
 1757SOL    HW216905   2.655   0.686  17.399 -2.6366  1.0244 -1.1078
 1758SOL     OW16906   1.303   1.525  12.939 -0.2675  0.1517 -0.2699
 1758SOL    HW116907   1.347   1.560  13.016  0.6460 -0.1491 -0.6557
 1758SOL    HW216908   1.385   1.497  12.898 -1.1246 -2.7216 -0.0040
 1759SOL     OW16909   0.477   1.035   6.319  0.5524 -0.1307 -0.4163
 1759SOL    HW116910   0.391   1.017   6.357  0.5874 -2.2408 -1.2957
 1759SOL    HW216911   0.463   1.021   6.225  3.3026 -1.6507 -0.6151
 1760SOL     OW16912   4.505   2.243   3.001  0.1723 -0.7352 -0.4804
 1760SOL    HW116913   4.501   2.148   3.007  3.1772 -0.6968  1.7671
 1760SOL    HW216914   4.520   2.234   2.907 -0.5724 -2.2547 -0.4608
 1761SOL     OW16915   2.892   1.151   7.973  0.4069  0.0616 -0.4443
 1761SOL    HW116916   2.957   1.131   7.906 -2.0790 -1.7325 -2.3432
 1761SOL    HW216917   2.921   1.238   8.000  1.3313 -0.1155 -0.8668
 1762SOL     OW16918   2.698   1.945   8.509  0.1546 -0.2245 -0.4882
 1762SOL    HW116919   2.622   2.003   8.509  0.1858 -0.1774  0.1881
 1762SOL    HW216920   2.733   1.951   8.598  1.4760  1.2340 -1.1193
 1763SOL     OW16921   4.381   2.383   0.580  0.0630  0.0276  0.0203
 1763SOL    HW116922   4.373   2.392   0.485 -0.0134  1.8250  0.2145
 1763SOL    HW216923   4.353   2.292   0.595  2.9930 -0.5790  1.7077
 1764SOL     OW16924   1.560   4.596   8.799 -0.3732 -0.4826  0.1113
 1764SOL    HW116925   1.582   4.643   8.879  0.4308  0.2971 -0.5675
 1764SOL    HW216926   1.472   4.561   8.817 -1.0636  0.9160 -0.5733
 1765SOL     OW16927   2.445   4.062   6.227  0.1543 -0.1680  0.6634
 1765SOL    HW116928   2.424   4.114   6.305 -1.2418 -2.5763  1.9095
 1765SOL    HW216929   2.469   3.978   6.266  0.5835 -0.0563  0.6367
 1766SOL     OW16930   1.665   4.404   5.585 -0.4690  0.2404 -0.2756
 1766SOL    HW116931   1.653   4.498   5.598  0.1255  0.1391  0.9998
 1766SOL    HW216932   1.737   4.378   5.643  0.6429 -0.1294 -1.8241
 1767SOL     OW16933   1.723   2.223   3.177 -0.4439  0.1186 -0.5865
 1767SOL    HW116934   1.763   2.303   3.211 -0.0355 -0.5570  0.5248
 1767SOL    HW216935   1.797   2.162   3.176  0.5889  1.3778  0.6428
 1768SOL     OW16936   1.789   1.895   8.873  0.0663  0.2937 -0.0260
 1768SOL    HW116937   1.877   1.860   8.874  0.6178  1.7260  2.9282
 1768SOL    HW216938   1.794   1.988   8.851  0.8865  1.1925  4.0343
 1769SOL     OW16939   2.616   4.579  16.608  0.0644  0.2539 -0.7138
 1769SOL    HW116940   2.602   4.577  16.703 -2.4700  1.1467 -1.0862
 1769SOL    HW216941   2.585   4.490  16.593  0.5185 -0.0492  0.1056
 1770SOL     OW16942   4.254   2.975   9.336  0.0913 -0.2580  0.0789
 1770SOL    HW116943   4.208   2.976   9.420 -0.5419  0.4131 -0.2816
 1770SOL    HW216944   4.340   2.979   9.378  0.1168  0.4205 -0.0479
 1771SOL     OW16945   2.069   2.408   8.316 -0.0981  0.3211 -0.4581
 1771SOL    HW116946   2.103   2.380   8.231  2.5486 -1.9302  1.3409
 1771SOL    HW216947   2.122   2.486   8.334  0.5046 -0.2411  0.2324
 1772SOL     OW16948   0.136   4.661  10.003  0.4797 -0.1080  0.2775
 1772SOL    HW116949   0.061   4.661   9.944  1.1455 -2.1672 -0.5791
 1772SOL    HW216950   0.103   4.604  10.073  0.2934  0.6193  0.7802
 1773SOL     OW16951   4.625   4.494   3.966  0.2843  0.5497  0.3342
 1773SOL    HW116952   4.618   4.399   3.960  1.2254  0.5055 -0.0910
 1773SOL    HW216953   4.703   4.508   4.020  0.7871  1.2782 -0.5725
 1774SOL     OW16954   0.224   2.343   7.520 -0.2422  0.3650 -0.0692
 1774SOL    HW116955   0.234   2.420   7.463 -1.9769  1.6448  1.3577
 1774SOL    HW216956   0.174   2.384   7.592 -1.2266 -0.5927 -0.2165
 1775SOL     OW16957   1.221   3.166  15.698  0.2236 -0.2055  0.1167
 1775SOL    HW116958   1.166   3.088  15.686  0.2413 -0.1425 -0.3831
 1775SOL    HW216959   1.189   3.196  15.782  0.9767 -0.0928  0.3680
 1776SOL     OW16960   3.786   0.725   4.713 -0.2230  0.4396  0.1663
 1776SOL    HW116961   3.779   0.683   4.627  0.6834  0.6782 -0.0262
 1776SOL    HW216962   3.878   0.752   4.707 -0.7489  2.1397 -0.3241
 1777SOL     OW16963   0.705   3.282   2.539 -0.4774 -0.7267  0.8523
 1777SOL    HW116964   0.703   3.198   2.586  0.6360  0.5290  3.1728
 1777SOL    HW216965   0.639   3.326   2.593 -0.7859 -0.2963  0.1206
 1778SOL     OW16966   2.934   3.466   1.834  1.0575 -0.1346  0.4861
 1778SOL    HW116967   2.946   3.374   1.812  1.3718  0.2389 -0.8818
 1778SOL    HW216968   2.880   3.459   1.913  1.2985 -0.1738  0.6482
 1779SOL     OW16969   0.358   3.441  16.430 -0.3589  0.0500 -0.3836
 1779SOL    HW116970   0.356   3.358  16.382 -0.1585 -1.5722  2.4095
 1779SOL    HW216971   0.412   3.420  16.506 -0.1767  0.3209 -0.4354
 1780SOL     OW16972   0.819   4.570   4.809  0.4597 -0.2430 -0.5842
 1780SOL    HW116973   0.850   4.503   4.749 -2.1080  0.6447 -2.9113
 1780SOL    HW216974   0.847   4.532   4.893 -0.2135 -1.8135 -1.0750
 1781SOL     OW16975   3.176   4.651   4.744  0.1876 -0.1499  0.2218
 1781SOL    HW116976   3.084   4.667   4.721  0.0307 -2.6849 -0.9466
 1781SOL    HW216977   3.211   4.659   4.655 -0.7791 -0.3158 -0.1715
 1782SOL     OW16978   4.501   3.293   7.627 -0.2342  0.2379 -0.3204
 1782SOL    HW116979   4.472   3.332   7.545 -0.5728  1.5237  0.3959
 1782SOL    HW216980   4.495   3.203   7.595  0.5109  0.0219  0.1583
 1783SOL     OW16981   4.450   0.786   0.699  0.1952 -0.5599 -0.2283
 1783SOL    HW116982   4.520   0.850   0.692 -0.4606  0.1234 -0.6048
 1783SOL    HW216983   4.379   0.843   0.731 -0.8098 -0.5877 -2.3834
 1784SOL     OW16984   4.609   1.661   2.810  0.0483 -0.2356  0.0980
 1784SOL    HW116985   4.561   1.581   2.787  0.7204 -0.6858  0.2558
 1784SOL    HW216986   4.553   1.724   2.766  1.7810 -0.0703 -1.8798
 1785SOL     OW16987   1.809   0.787   0.454  0.1231 -0.4031 -0.4612
 1785SOL    HW116988   1.819   0.820   0.364 -1.4787 -0.5248 -0.6843
 1785SOL    HW216989   1.814   0.693   0.439  3.0989 -0.7952  2.8742
 1786SOL     OW16990   3.874   0.876   5.810  0.0029  0.1566  0.5242
 1786SOL    HW116991   3.862   0.945   5.875 -0.4992  0.3931  0.1826
 1786SOL    HW216992   3.843   0.919   5.730 -0.9708 -0.8526  0.3586
 1787SOL     OW16993   2.893   0.507   6.492 -0.1255 -0.0904  0.3061
 1787SOL    HW116994   2.939   0.522   6.409  0.1179 -1.8578  0.1305
 1787SOL    HW216995   2.802   0.526   6.468  0.1788  1.8351  0.6521
 1788SOL     OW16996   2.174   3.042   8.416  0.2459  0.0179 -0.2308
 1788SOL    HW116997   2.200   2.982   8.346 -1.8960  0.7951 -1.6852
 1788SOL    HW216998   2.134   2.972   8.468 -0.4843 -0.5152 -1.5052
 1789SOL     OW16999   4.487   4.616   6.939 -0.1817  0.3075 -0.4046
 1789SOL    HW117000   4.519   4.588   6.853 -1.1355 -1.4716 -0.1800
 1789SOL    HW217001   4.392   4.608   6.931 -0.1248 -1.8263  1.0629
 1790SOL     OW17002   0.941   2.510   6.657 -0.1702  0.6258  0.7045
 1790SOL    HW117003   0.910   2.526   6.746  0.7904 -0.9343  1.3187
 1790SOL    HW217004   0.882   2.570   6.612 -0.3132  0.6542  0.9304
 1791SOL     OW17005   0.272   1.693  15.451  0.5511  0.5999 -0.0776
 1791SOL    HW117006   0.263   1.654  15.365 -1.2553  1.7380 -0.4044
 1791SOL    HW217007   0.356   1.652  15.472 -0.2244 -0.7512  0.3751
 1792SOL     OW17008   4.721   1.709   9.210  0.0349  0.1298 -0.2335
 1792SOL    HW117009   0.078   1.696   9.195  0.1904  0.8371  0.1233
 1792SOL    HW217010   4.722   1.781   9.272  2.9710 -1.5454  1.6358
 1793SOL     OW17011   4.481   4.407   9.357  0.2824 -0.1989  0.3551
 1793SOL    HW117012   4.432   4.422   9.276  0.5620  0.8895  0.4010
 1793SOL    HW217013   4.442   4.323   9.385  0.9050 -1.1400 -1.5810
 1794SOL     OW17014   4.519   0.353   6.203 -0.6124  0.7031  0.2002
 1794SOL    HW117015   4.504   0.419   6.136 -0.6847  0.7289  0.2420
 1794SOL    HW217016   4.614   0.342   6.196 -0.3827  1.2657  2.4232
 1795SOL     OW17017   0.635   3.362  17.484  0.2047  0.0950  0.1591
 1795SOL    HW117018   0.699   3.424  17.518 -0.2305  1.1617 -0.9752
 1795SOL    HW217019   0.662   3.361  17.392 -0.8715 -0.3373 -0.1533
 1796SOL     OW17020   0.980   3.834   5.426  0.2307  0.1863 -0.4290
 1796SOL    HW117021   1.052   3.783   5.390  0.2366 -0.1041  0.0011
 1796SOL    HW217022   0.921   3.765   5.455 -0.9958  0.9140 -1.1982
 1797SOL     OW17023   1.504   4.212   2.407 -0.0957  0.3174 -0.6201
 1797SOL    HW117024   1.438   4.148   2.383  1.4760 -0.9766 -1.5016
 1797SOL    HW217025   1.467   4.249   2.488 -1.0760 -0.4584 -0.7196
 1798SOL     OW17026   0.576   4.321   2.085  0.8051 -0.6745 -0.0044
 1798SOL    HW117027   0.649   4.273   2.047  0.6128 -1.4879  0.6735
 1798SOL    HW217028   0.509   4.320   2.017 -1.0575  1.3623  1.7980
 1799SOL     OW17029   3.217   2.373   7.953 -0.1706 -0.7079 -0.7615
 1799SOL    HW117030   3.178   2.306   7.898  1.9082 -1.1675 -1.6238
 1799SOL    HW217031   3.304   2.387   7.917  0.8313 -1.7377  1.2546
 1800SOL     OW17032   0.157   3.121   5.790  0.1605 -0.4160 -0.2719
 1800SOL    HW117033   0.163   3.052   5.857 -0.8285 -1.4310 -1.2276
 1800SOL    HW217034   0.246   3.155   5.798 -0.4862  0.9385  1.1468
 1801SOL     OW17035   1.394   0.716   7.439  0.3524  0.0526 -0.3270
 1801SOL    HW117036   1.358   0.792   7.392  1.4606 -0.5187 -2.0781
 1801SOL    HW217037   1.321   0.708   7.501  0.0826  1.5788 -0.4381
 1802SOL     OW17038   1.672   0.982   0.065  0.7545  0.0033  0.2862
 1802SOL    HW117039   1.627   1.065   0.053  1.6152  0.8809  3.0104
 1802SOL    HW217040   1.612   0.914   0.094  0.6384 -1.0803 -2.5475
 1803SOL     OW17041   2.440   1.463   2.820  0.1319  0.2339  0.3526
 1803SOL    HW117042   2.534   1.464   2.842  0.1863 -1.5501  0.1567
 1803SOL    HW217043   2.442   1.553   2.787  0.9426  0.2952  0.5662
 1804SOL     OW17044   4.133   0.207  12.895  0.3608 -0.0430  0.1170
 1804SOL    HW117045   4.051   0.197  12.943  0.0245  0.9372 -0.2624
 1804SOL    HW217046   4.174   0.130  12.934 -0.0020  0.1468  0.8681
 1805SOL     OW17047   2.373   3.450   0.839 -0.5911  0.4372 -0.6289
 1805SOL    HW117048   2.321   3.405   0.773  1.3420 -1.6072 -0.7406
 1805SOL    HW217049   2.461   3.453   0.801  0.5754 -2.0212  1.8525
 1806SOL     OW17050   4.010   2.727   4.652 -0.0199  0.4035 -0.3060
 1806SOL    HW117051   3.962   2.705   4.573  0.4311  0.7441 -0.6752
 1806SOL    HW217052   4.096   2.685   4.642 -0.5100 -0.5608 -0.4583
 1807SOL     OW17053   2.773   0.966   4.813 -0.3425  0.0409  0.3316
 1807SOL    HW117054   2.757   1.023   4.738 -1.2920  2.6159  2.4657
 1807SOL    HW217055   2.863   0.992   4.834  0.1851  0.7747 -2.9907
 1808SOL     OW17056   0.419   1.732   6.518 -0.2424 -0.5353 -0.2458
 1808SOL    HW117057   0.451   1.702   6.602 -0.7240  1.5519  0.6996
 1808SOL    HW217058   0.491   1.715   6.458  1.2945  2.9671  0.5967
 1809SOL     OW17059   1.662   1.526   3.365 -0.6914 -0.5724  0.1068
 1809SOL    HW117060   1.709   1.598   3.321  0.5988 -0.8439  1.0346
 1809SOL    HW217061   1.592   1.503   3.304 -0.9644 -0.2154  0.2840
 1810SOL     OW17062   3.153   2.606  11.905 -0.1494 -0.2912 -0.9092
 1810SOL    HW117063   3.112   2.652  11.832 -1.6913  1.1515  0.8624
 1810SOL    HW217064   3.240   2.644  11.907 -0.9772  1.5398  0.8331
 1811SOL     OW17065   1.679   0.488   4.062  0.2054 -0.2383  0.3096
 1811SOL    HW117066   1.616   0.489   3.991  0.9766  1.3534 -0.3586
 1811SOL    HW217067   1.638   0.418   4.112 -0.1803  0.9111  1.6022
 1812SOL     OW17068   4.401   3.011  13.759  0.8985 -0.0243  0.3019
 1812SOL    HW117069   4.367   2.967  13.838  3.3639 -0.7677  0.9502
 1812SOL    HW217070   4.454   3.076  13.806 -0.4447  1.3819 -0.1162
 1813SOL     OW17071   4.044   3.133   9.012  0.2716 -0.0562  0.3642
 1813SOL    HW117072   4.038   3.109   9.105  0.1580 -2.6032 -0.3244
 1813SOL    HW217073   4.021   3.056   8.962  0.0476 -0.3786  0.9609
 1814SOL     OW17074   0.760   0.309   3.157 -0.6972  0.7028 -0.4281
 1814SOL    HW117075   0.819   0.296   3.083  2.1302  1.1446  1.7392
 1814SOL    HW217076   0.761   0.405   3.163 -3.3400  0.5814  2.0712
 1815SOL     OW17077   3.038   3.461   5.224  0.0028  0.4310  0.1237
 1815SOL    HW117078   3.021   3.479   5.316  0.5163 -1.1222  0.5170
 1815SOL    HW217079   2.956   3.419   5.196  1.9684 -2.8508 -0.7612
 1816SOL     OW17080   2.102   0.899   5.065 -0.1138  0.5816 -0.1757
 1816SOL    HW117081   2.183   0.863   5.028  0.8713  2.3402  0.2382
 1816SOL    HW217082   2.055   0.930   4.987 -0.7991  1.1611  0.4675
 1817SOL     OW17083   2.194   1.719   4.106  0.0395  0.7733  0.0698
 1817SOL    HW117084   2.143   1.793   4.075 -0.8568 -0.2978 -1.0111
 1817SOL    HW217085   2.151   1.648   4.058  1.3610 -0.5060  0.7627
 1818SOL     OW17086   4.579   3.098   9.881 -0.0622  0.4366  0.5442
 1818SOL    HW117087   4.668   3.071   9.902 -0.2427 -0.3491  0.3178
 1818SOL    HW217088   4.570   3.173   9.939 -0.1682  2.1474 -1.6602
 1819SOL     OW17089   0.827   1.606   2.442 -0.4947  0.2452  0.3076
 1819SOL    HW117090   0.782   1.521   2.435  0.2381  0.0242 -1.9122
 1819SOL    HW217091   0.921   1.587   2.440 -0.7801 -1.2514  1.4111
 1820SOL     OW17092   1.859   2.991   1.552 -0.6245 -0.3177 -0.2506
 1820SOL    HW117093   1.923   3.054   1.584 -0.0375 -0.0642 -1.9435
 1820SOL    HW217094   1.777   3.041   1.546 -0.1619  0.7921  2.5543
 1821SOL     OW17095   2.667   1.665   5.048  0.2950  0.0944  0.2983
 1821SOL    HW117096   2.639   1.756   5.038 -1.0076 -0.2037  1.1416
 1821SOL    HW217097   2.618   1.621   4.978 -0.3949  0.8551  0.3092
 1822SOL     OW17098   0.665   3.715   4.323 -0.3021  0.3342  0.1964
 1822SOL    HW117099   0.575   3.719   4.356  0.1403 -1.2908  1.6074
 1822SOL    HW217100   0.706   3.642   4.370 -0.4957  0.3106  0.3286
 1823SOL     OW17101   3.435   0.246   2.151  0.5469  0.9288  0.0539
 1823SOL    HW117102   3.503   0.312   2.163 -0.3757  2.3227 -2.4363
 1823SOL    HW217103   3.449   0.178   2.217  2.2889 -0.2423 -1.5353
 1824SOL     OW17104   2.339   1.501  17.179 -0.4446  0.4177 -0.5528
 1824SOL    HW117105   2.281   1.551  17.236 -0.3275  0.0764 -0.1376
 1824SOL    HW217106   2.347   1.416  17.220  0.5884 -0.9764 -3.6176
 1825SOL     OW17107   3.160   3.565   3.362  0.0811  0.1631 -0.3083
 1825SOL    HW117108   3.210   3.556   3.443  0.0357 -3.3336 -0.6705
 1825SOL    HW217109   3.118   3.650   3.375  0.0355 -0.1208  1.4204
 1826SOL     OW17110   4.163   3.079   8.038  0.5248  0.6890  0.7178
 1826SOL    HW117111   4.143   3.021   7.965  2.7940  0.4728  0.2713
 1826SOL    HW217112   4.140   3.165   8.005 -0.8346  0.5607  1.3062
 1827SOL     OW17113   3.392   3.573   4.882 -0.3267 -0.4438  0.0825
 1827SOL    HW117114   3.473   3.523   4.893  0.1735  0.3130 -0.1405
 1827SOL    HW217115   3.328   3.523   4.933  0.6558  0.3852  2.1309
 1828SOL     OW17116   4.495   3.762   0.531  0.9474  0.0764  0.7469
 1828SOL    HW117117   4.504   3.857   0.533 -1.0003  0.2742  0.7254
 1828SOL    HW217118   4.446   3.753   0.613 -0.3476 -0.9152 -0.1244
 1829SOL     OW17119   0.161   0.532  16.203 -0.0926  0.3481  0.0936
 1829SOL    HW117120   0.237   0.563  16.252  0.8058 -0.7904 -0.5834
 1829SOL    HW217121   0.125   0.471  16.268 -0.9643 -2.6401 -3.2121
 1830SOL     OW17122   4.226   3.557   9.319 -0.0990  0.0288 -0.5003
 1830SOL    HW117123   4.265   3.512   9.394 -0.1140 -1.7065 -1.5495
 1830SOL    HW217124   4.164   3.499   9.275 -1.4977  1.8209 -0.8816
 1831SOL     OW17125   4.313   1.003   5.013 -0.1831  0.0256  0.4979
 1831SOL    HW117126   4.326   0.980   4.921 -0.8228  4.2290 -0.6233
 1831SOL    HW217127   4.326   1.098   5.015  3.8399 -0.5138 -1.3305
 1832SOL     OW17128   4.019   1.810   7.005  0.0963 -0.0436  0.0527
 1832SOL    HW117129   3.938   1.803   7.055  0.9523 -0.5895  1.3710
 1832SOL    HW217130   4.077   1.777   7.073 -1.5147 -0.9000  1.0049
 1833SOL     OW17131   1.892   0.854   5.563 -0.3212  0.0519  0.3736
 1833SOL    HW117132   1.847   0.805   5.493 -0.9813  1.3720 -0.1354
 1833SOL    HW217133   1.956   0.794   5.601 -0.6862 -0.1908  0.6124
 1834SOL     OW17134   4.683   2.473  13.038  0.3237 -0.0895  0.1138
 1834SOL    HW117135   4.601   2.520  13.026 -0.2116 -1.1331 -0.3237
 1834SOL    HW217136   4.678   2.410  12.966 -1.4369 -1.8914  1.8157
 1835SOL     OW17137   1.568   2.185  16.622  0.0961  0.0172 -0.5666
 1835SOL    HW117138   1.577   2.117  16.555  0.4461 -0.1293 -0.3674
 1835SOL    HW217139   1.479   2.165  16.649 -0.0146 -1.7092 -2.2486
 1836SOL     OW17140   1.577   1.992   6.709 -0.1889  0.6798  0.1286
 1836SOL    HW117141   1.587   1.992   6.804  0.7731  1.1965  0.0255
 1836SOL    HW217142   1.557   2.083   6.688  1.2582  0.8520 -0.5443
 1837SOL     OW17143   1.428   4.413   1.237  0.1846 -0.4345 -0.4183
 1837SOL    HW117144   1.476   4.422   1.319  2.4193 -1.7702 -1.5788
 1837SOL    HW217145   1.339   4.438   1.263  0.2607 -0.3732 -0.2175
 1838SOL     OW17146   4.666   3.620   7.828  0.1151 -0.3570 -0.0380
 1838SOL    HW117147   4.611   3.551   7.866  0.0950 -0.8357 -0.9335
 1838SOL    HW217148   0.010   3.569   7.834  1.3709  1.6674  0.2353
 1839SOL     OW17149   3.348   3.334  11.903 -0.0657  0.2182  0.0505
 1839SOL    HW117150   3.265   3.330  11.856 -0.1309 -1.0794  0.2801
 1839SOL    HW217151   3.407   3.337  11.827 -0.4402 -1.7928 -0.3242
 1840SOL     OW17152   0.520   0.415   3.702  0.2108 -0.4881  0.1482
 1840SOL    HW117153   0.566   0.491   3.667 -1.0036 -0.9302 -2.4271
 1840SOL    HW217154   0.433   0.455   3.702  0.4715  0.0770  1.2003
 1841SOL     OW17155   4.636   2.121   4.067  0.0169  0.1377  0.4391
 1841SOL    HW117156   4.596   2.121   4.154 -2.9013  2.4509 -0.9132
 1841SOL    HW217157   4.634   2.212   4.037 -1.4495  0.4540  1.5230
 1842SOL     OW17158   4.351   2.709   1.838 -0.4179 -0.7418  0.2318
 1842SOL    HW117159   4.365   2.667   1.922 -0.5096  0.0287  0.6378
 1842SOL    HW217160   4.426   2.675   1.790  0.9851 -1.4088  2.9456
 1843SOL     OW17161   4.187   3.867   7.808  0.2202  0.3136  0.4104
 1843SOL    HW117162   4.117   3.801   7.813 -0.2459  0.6110 -1.8693
 1843SOL    HW217163   4.254   3.824   7.861  1.0813  0.2293 -0.7293
 1844SOL     OW17164   0.121   1.334   1.921  0.5081 -0.0417  0.2142
 1844SOL    HW117165   0.085   1.391   1.989 -1.1774 -2.0890  1.0262
 1844SOL    HW217166   0.212   1.322   1.949  0.8170 -1.1647 -1.2643
 1845SOL     OW17167   2.184   1.013   4.563  0.2287 -0.0714  0.0188
 1845SOL    HW117168   2.146   0.949   4.503 -2.7580  0.1051  1.7135
 1845SOL    HW217169   2.195   1.079   4.494 -3.4592  1.9458  1.3474
 1846SOL     OW17170   0.899   0.090  15.889  0.9319  0.3283 -0.1030
 1846SOL    HW117171   0.850   0.151  15.944  3.3488  2.3670 -0.2093
 1846SOL    HW217172   0.847   0.078  15.809  0.1722 -0.0868  0.4411
 1847SOL     OW17173   3.678   3.357   6.737  0.2978 -0.0900  0.1949
 1847SOL    HW117174   3.600   3.412   6.727  0.0372 -0.0005  2.6295
 1847SOL    HW217175   3.736   3.411   6.791  1.3687  1.3270 -2.4074
 1848SOL     OW17176   0.326   2.189  13.987 -0.0196 -0.0340  0.4000
 1848SOL    HW117177   0.419   2.212  13.979 -0.4231  1.3552 -0.2960
 1848SOL    HW217178   0.297   2.202  13.897 -1.4625  0.1927  0.8979
 1849SOL     OW17179   0.874   4.053   3.939  0.3141 -0.1415  0.0579
 1849SOL    HW117180   0.883   3.958   3.938  1.3035 -0.0491 -0.2416
 1849SOL    HW217181   0.967   4.076   3.935  0.8759 -2.2774  0.7439
 1850SOL     OW17182   3.749   4.276   2.005 -0.4336 -0.0973  0.4297
 1850SOL    HW117183   3.699   4.231   1.937  1.3468 -1.2832 -0.1006
 1850SOL    HW217184   3.678   4.297   2.066 -0.2886  2.0570 -0.1282
 1851SOL     OW17185   0.965   3.050   6.456  0.0301 -0.0618 -0.7160
 1851SOL    HW117186   1.049   3.050   6.502 -0.0403  0.6284 -0.5890
 1851SOL    HW217187   0.904   3.078   6.524  0.7945  0.7927 -0.3841
 1852SOL     OW17188   3.597   3.832  16.684  0.5514 -0.6239 -0.0714
 1852SOL    HW117189   3.604   3.855  16.592  1.0161  0.3516  0.2153
 1852SOL    HW217190   3.505   3.806  16.696  0.3878 -0.7775 -1.6040
 1853SOL     OW17191   2.033   2.256   5.857 -0.0172  0.0310 -0.2428
 1853SOL    HW117192   1.994   2.291   5.777 -0.4984  0.7031  0.2824
 1853SOL    HW217193   2.117   2.239   5.813  0.6281  2.8412 -0.0804
 1854SOL     OW17194   1.173   3.542   8.756 -0.0324 -0.0038  0.6450
 1854SOL    HW117195   1.197   3.458   8.795 -1.0920 -0.3953  0.4514
 1854SOL    HW217196   1.154   3.583   8.840 -1.4528 -0.2352  0.4215
 1855SOL     OW17197   4.586   4.392   4.793  0.6083  0.2594  0.4405
 1855SOL    HW117198   4.595   4.301   4.766  0.1200  0.6850 -1.1549
 1855SOL    HW217199   4.560   4.428   4.708 -0.1032  1.0532  0.9937
 1856SOL     OW17200   1.279   3.731   4.497 -0.7199 -0.1601  0.1274
 1856SOL    HW117201   1.284   3.815   4.542 -1.2623 -0.9590  1.6459
 1856SOL    HW217202   1.274   3.660   4.560  0.4654 -0.8618 -0.5582
 1857SOL     OW17203   1.364   3.619  16.721 -0.5657 -0.2695  0.3001
 1857SOL    HW117204   1.361   3.537  16.771 -0.4036  0.8174  2.0653
 1857SOL    HW217205   1.384   3.672  16.798  1.9902 -0.9217  0.1119
 1858SOL     OW17206   1.383   2.144   9.706 -0.4058 -0.1440  0.0174
 1858SOL    HW117207   1.421   2.205   9.770 -0.3206 -0.2264  0.0443
 1858SOL    HW217208   1.414   2.178   9.622  0.5473  2.2581  1.3370
 1859SOL     OW17209   2.479   4.081   8.566  0.0204 -0.0031 -0.2193
 1859SOL    HW117210   2.545   4.029   8.613 -0.3360  0.0873  0.3770
 1859SOL    HW217211   2.406   4.020   8.558 -0.2876 -0.0631  2.9305
 1860SOL     OW17212   4.095   0.975   5.186  0.8601 -0.1547 -0.0623
 1860SOL    HW117213   4.150   0.963   5.109  0.5602 -1.1661 -0.1206
 1860SOL    HW217214   4.018   0.921   5.171  0.9045 -0.3172  0.2925
 1861SOL     OW17215   4.121   2.986   9.656  0.2257 -0.1196 -0.7779
 1861SOL    HW117216   4.105   2.892   9.669 -1.2048  0.0299 -1.3768
 1861SOL    HW217217   4.209   2.990   9.692  0.6093  0.3762 -1.7548
 1862SOL     OW17218   4.728   3.232  17.064  0.0697  0.2828 -0.2933
 1862SOL    HW117219   4.736   3.306  17.003  1.4589 -0.8040 -1.4295
 1862SOL    HW217220   0.082   3.201  17.052 -0.3973  0.0003 -3.0189
 1863SOL     OW17221   0.200   3.934  12.222 -0.5660 -1.0119  0.2701
 1863SOL    HW117222   0.124   3.876  12.211 -0.2072 -1.1399 -1.5250
 1863SOL    HW217223   0.207   3.983  12.140  2.3723 -1.1040  0.4902
 1864SOL     OW17224   1.762   0.149   6.370  0.3284  0.0668  0.4883
 1864SOL    HW117225   1.790   0.128   6.459 -0.7240 -0.5796  0.6669
 1864SOL    HW217226   1.775   0.244   6.368 -2.4292  0.4230 -1.7353
 1865SOL     OW17227   4.014   3.189   2.028  0.4148 -0.1675 -0.1643
 1865SOL    HW117228   4.109   3.181   2.022  0.4893  3.0048 -2.7559
 1865SOL    HW217229   3.995   3.185   2.122 -0.4504  0.8712 -0.3000
 1866SOL     OW17230   3.045   2.870   2.365 -0.4294 -0.0573 -0.2067
 1866SOL    HW117231   3.140   2.884   2.366 -0.0967 -2.3444  2.0648
 1866SOL    HW217232   3.021   2.831   2.281 -1.3844  2.2229 -0.9879
 1867SOL     OW17233   4.278   1.788   2.452  1.0762  0.5326  0.9840
 1867SOL    HW117234   4.273   1.790   2.357 -2.9141 -2.0309  1.1609
 1867SOL    HW217235   4.184   1.790   2.472  0.6297 -2.0476 -0.9361
 1868SOL     OW17236   3.457   3.481   7.833 -0.1098 -0.0409  0.2956
 1868SOL    HW117237   3.415   3.461   7.916 -0.8974  0.3710 -0.0005
 1868SOL    HW217238   3.487   3.571   7.846  0.4473 -0.2703  0.5710
 1869SOL     OW17239   0.755   2.724   1.908 -0.1054  0.1329  0.0777
 1869SOL    HW117240   0.728   2.774   1.985  1.0376  1.9578 -0.7039
 1869SOL    HW217241   0.722   2.640   1.939 -0.1756  0.8252  1.8590
 1870SOL     OW17242   1.684   0.683   5.462 -0.4099 -0.1940 -0.0981
 1870SOL    HW117243   1.707   0.610   5.518 -0.6776  0.6171  1.0713
 1870SOL    HW217244   1.604   0.716   5.503 -0.6580  0.1527 -0.8546
 1871SOL     OW17245   4.298   1.128   4.340 -0.0913 -0.2951 -0.1162
 1871SOL    HW117246   4.299   1.187   4.265 -0.9529  1.2844  1.1256
 1871SOL    HW217247   4.361   1.181   4.388 -1.2392  2.2306 -1.4412
 1872SOL     OW17248   4.430   3.990   6.626  0.0084 -0.3723  0.9568
 1872SOL    HW117249   4.391   3.917   6.579  1.1375  0.1904 -0.8488
 1872SOL    HW217250   4.365   3.996   6.697  2.0400 -2.2192  2.9495
 1873SOL     OW17251   2.315   4.062   0.724 -0.2623  0.1808 -0.0326
 1873SOL    HW117252   2.319   4.043   0.818  0.1216 -1.5892 -0.4112
 1873SOL    HW217253   2.399   4.102   0.702 -1.3736  1.7253 -1.5344
 1874SOL     OW17254   3.592   2.438   0.900  0.9702 -0.3875 -0.0729
 1874SOL    HW117255   3.543   2.415   0.821 -0.5516  1.7831  0.2448
 1874SOL    HW217256   3.623   2.351   0.925  2.3134  0.2216  0.3777
 1875SOL     OW17257   3.680   3.209  14.442 -0.0961  0.5329 -0.0822
 1875SOL    HW117258   3.751   3.273  14.432 -0.7712  1.2713 -0.1594
 1875SOL    HW217259   3.741   3.136  14.432 -0.8962 -0.2194  0.4905
 1876SOL     OW17260   1.007   1.064  10.986 -0.1926 -0.0244  0.0128
 1876SOL    HW117261   1.041   1.029  11.068 -0.1666 -0.6899 -0.2795
 1876SOL    HW217262   0.998   1.156  11.007  2.0392 -0.2895  2.1437
 1877SOL     OW17263   3.489   2.945   2.783 -0.0005  0.5943 -0.4964
 1877SOL    HW117264   3.547   2.998   2.729 -0.3996  0.2387 -1.2775
 1877SOL    HW217265   3.491   2.993   2.866 -3.0711  0.6803 -0.4637
 1878SOL     OW17266   1.831   0.187  11.009 -0.5885 -0.2468 -0.6530
 1878SOL    HW117267   1.883   0.107  10.996  1.3329  1.0472 -0.9850
 1878SOL    HW217268   1.745   0.149  10.992 -0.2277 -1.1770 -0.4205
 1879SOL     OW17269   3.463   3.630  10.641  0.1637 -0.0241 -0.0975
 1879SOL    HW117270   3.511   3.548  10.652  0.6214  0.2981  0.2886
 1879SOL    HW217271   3.485   3.672  10.558  2.3679 -1.7550 -0.3691
 1880SOL     OW17272   1.766   4.628   9.404  0.0557  0.3375  0.1156
 1880SOL    HW117273   1.796   4.580   9.481  3.0353  0.5810 -0.9025
 1880SOL    HW217274   1.831   4.698   9.397 -0.9876  1.3664  0.5909
 1881SOL     OW17275   4.364   4.134   0.960 -0.3638 -0.1682 -0.5149
 1881SOL    HW117276   4.389   4.121   0.869 -1.0867  2.3692 -1.0687
 1881SOL    HW217277   4.270   4.130   0.948 -0.1431 -0.9740 -1.9494
 1882SOL     OW17278   1.053   3.536  16.971  0.5452 -0.3361  0.1854
 1882SOL    HW117279   1.068   3.560  17.063  0.4682 -1.4552  0.4999
 1882SOL    HW217280   1.085   3.618  16.933 -0.8700 -0.7035 -1.7834
 1883SOL     OW17281   3.064   1.832  16.416 -0.3209  0.3863  0.1067
 1883SOL    HW117282   3.051   1.838  16.510  1.3108  0.5565  0.3334
 1883SOL    HW217283   3.058   1.740  16.392 -1.6851  0.0887  1.6022
 1884SOL     OW17284   0.536   3.728   8.776  0.1857  0.3240 -0.3136
 1884SOL    HW117285   0.458   3.774   8.807 -0.2307 -1.6023  1.4596
 1884SOL    HW217286   0.515   3.638   8.801  0.3231  0.3941  0.0472
 1885SOL     OW17287   0.247   1.997   2.761 -0.3464 -0.0755 -0.0877
 1885SOL    HW117288   0.306   2.073   2.763 -0.2177 -0.1924  0.4961
 1885SOL    HW217289   0.163   2.038   2.741  0.2025  1.7068  1.2940
 1886SOL     OW17290   0.055   2.838   2.593 -0.0978  0.0902  0.3092
 1886SOL    HW117291   0.076   2.799   2.679 -1.8613  3.0574  2.0693
 1886SOL    HW217292   0.130   2.897   2.586  0.4737 -0.5307  1.0313
 1887SOL     OW17293   0.201   1.149   3.814  0.1452 -0.3690 -0.2323
 1887SOL    HW117294   0.247   1.068   3.832  0.6721  0.1165  0.6030
 1887SOL    HW217295   0.126   1.101   3.779  0.4261 -1.3092  0.4580
 1888SOL     OW17296   2.241   1.311   9.533  0.2008  0.0572 -0.4041
 1888SOL    HW117297   2.324   1.317   9.580 -1.2504 -1.3246  2.3530
 1888SOL    HW217298   2.205   1.251   9.599 -0.6044 -0.7359 -1.5574
 1889SOL     OW17299   1.944   0.689   6.180  0.1221 -0.4270  0.2527
 1889SOL    HW117300   1.926   0.605   6.139  0.7478 -1.6753  2.5438
 1889SOL    HW217301   1.974   0.738   6.104  2.4757  2.4874  3.0316
 1890SOL     OW17302   4.554   2.307   7.621 -0.3428  0.3008  0.4108
 1890SOL    HW117303   4.475   2.356   7.644 -0.4992 -0.1890  0.9131
 1890SOL    HW217304   4.513   2.222   7.605 -0.3423  0.0125  2.0301
 1891SOL     OW17305   4.099   3.873   2.728  0.2230  0.5095 -0.2371
 1891SOL    HW117306   4.087   3.858   2.822  3.5084  0.5471  0.2037
 1891SOL    HW217307   4.040   3.948   2.734 -1.0388 -0.4083 -1.2526
 1892SOL     OW17308   2.128   3.156   5.026 -0.1230 -0.5063  0.1000
 1892SOL    HW117309   2.174   3.125   5.104 -2.7533  0.0998  1.9253
 1892SOL    HW217310   2.068   3.082   5.016  0.4133 -0.3021 -4.4865
 1893SOL     OW17311   0.375   0.691   7.785  0.0905 -0.2673 -0.2760
 1893SOL    HW117312   0.431   0.720   7.858 -1.1306 -0.8216  0.8805
 1893SOL    HW217313   0.311   0.635   7.829  0.2445 -1.5182 -1.6402
 1894SOL     OW17314   2.222   3.213  11.044 -0.2716  0.1184  0.0723
 1894SOL    HW117315   2.299   3.219  11.101 -0.2282  1.1653 -0.0904
 1894SOL    HW217316   2.148   3.181  11.094 -0.7356  3.2628  1.4070
 1895SOL     OW17317   2.695   4.520   8.366  0.3659 -0.5743 -0.1023
 1895SOL    HW117318   2.630   4.589   8.379  0.2223 -0.1919 -2.8762
 1895SOL    HW217319   2.704   4.511   8.461 -2.5995  1.0823  0.3259
 1896SOL     OW17320   4.172   1.194   8.112  0.1675  0.1592  0.3868
 1896SOL    HW117321   4.246   1.253   8.130 -0.1299  0.8270 -0.6038
 1896SOL    HW217322   4.140   1.226   8.028  1.0210 -0.8778 -0.3401
 1897SOL     OW17323   1.957   1.895   5.500  0.1257  0.4358  0.1670
 1897SOL    HW117324   1.994   1.943   5.574  1.5707 -0.8161  0.2466
 1897SOL    HW217325   2.031   1.837   5.483  1.4714  2.0856  0.5466
 1898SOL     OW17326   0.690   2.729   3.139  0.1122  0.4734 -0.1067
 1898SOL    HW117327   0.759   2.785   3.104  0.6598  0.4727  0.9887
 1898SOL    HW217328   0.615   2.766   3.091 -0.7456 -0.5082  0.4651
 1899SOL     OW17329   2.212   2.421  16.127 -0.3722  0.0515  0.3261
 1899SOL    HW117330   2.245   2.332  16.120  0.0941  0.4686 -2.5974
 1899SOL    HW217331   2.271   2.479  16.079  0.7676 -2.7291 -1.5911
 1900SOL     OW17332   4.051   4.301   3.855 -0.6914  0.3368 -0.4715
 1900SOL    HW117333   3.972   4.288   3.906 -0.2950 -0.5034 -0.0715
 1900SOL    HW217334   4.108   4.343   3.919 -0.5688  1.6512 -1.4432
 1901SOL     OW17335   3.975   3.127   9.303  0.3045  0.8167 -0.2235
 1901SOL    HW117336   4.020   3.154   9.383  0.0645  0.5902 -0.0138
 1901SOL    HW217337   3.935   3.047   9.337 -0.6391  0.8262 -1.3443
 1902SOL     OW17338   4.250   4.450   4.003  0.7332 -0.3333  0.2117
 1902SOL    HW117339   4.317   4.466   3.937 -1.7625 -1.1190 -2.4885
 1902SOL    HW217340   4.305   4.454   4.082 -0.8061 -1.4787  1.3361
 1903SOL     OW17341   4.374   2.619   2.945  0.1247 -0.4512 -0.3989
 1903SOL    HW117342   4.331   2.646   3.026 -0.5751 -0.9735 -0.5906
 1903SOL    HW217343   4.365   2.524   2.952 -0.6073 -0.3381  0.1715
 1904SOL     OW17344   2.822   3.910   3.754  0.3017 -0.1385  0.2704
 1904SOL    HW117345   2.878   3.984   3.779  0.3718 -0.3242  0.6552
 1904SOL    HW217346   2.753   3.950   3.701  0.6043  1.0331  0.7511
 1905SOL     OW17347   2.332   3.520   3.018  0.5892  0.2913  0.0404
 1905SOL    HW117348   2.301   3.526   2.928 -0.8548  1.3140  0.5899
 1905SOL    HW217349   2.245   3.524   3.057  0.2390  2.0972 -0.8944
 1906SOL     OW17350   0.590   1.337   3.631  0.3881 -0.9609 -0.2905
 1906SOL    HW117351   0.529   1.345   3.558  1.3420 -0.8673 -1.0841
 1906SOL    HW217352   0.605   1.430   3.650 -1.9479 -0.5287 -0.5077
 1907SOL     OW17353   0.039   0.624  12.054  0.1039 -0.0275  0.1383
 1907SOL    HW117354   0.019   0.588  12.141 -3.4064  1.5713 -0.0133
 1907SOL    HW217355   4.722   0.559  12.009  0.1721 -0.5361  0.7868
 1908SOL     OW17356   0.833   4.237   9.027  0.0393 -0.0543 -0.5288
 1908SOL    HW117357   0.912   4.195   9.059 -0.2664  2.5102  3.6632
 1908SOL    HW217358   0.782   4.159   9.006 -3.4221  1.6865  1.1946
 1909SOL     OW17359   2.729   4.642   5.930 -0.1797  0.3819 -0.5469
 1909SOL    HW117360   2.648   4.650   5.879  0.4339  2.2575 -1.2201
 1909SOL    HW217361   2.744   4.547   5.929 -1.5079  0.1729 -0.8663
 1910SOL     OW17362   0.900   2.189  15.263  0.0945  0.6029 -0.4376
 1910SOL    HW117363   0.866   2.224  15.182  1.3656  0.7393 -0.9128
 1910SOL    HW217364   0.955   2.265  15.283  0.6321  0.3010 -0.7443
 1911SOL     OW17365   3.871   3.504   3.482 -0.2701  0.5094  0.1349
 1911SOL    HW117366   3.784   3.465   3.480 -0.1561  0.2970 -0.6527
 1911SOL    HW217367   3.855   3.587   3.526 -0.3007  0.0904  0.9200
 1912SOL     OW17368   2.107   0.848   4.771 -0.2111  0.5129  0.1272
 1912SOL    HW117369   2.141   0.911   4.707 -0.1780  1.0813  0.7070
 1912SOL    HW217370   2.029   0.895   4.798 -0.7093 -1.0165  1.3292
 1913SOL     OW17371   0.513   1.071   2.808 -0.0004 -0.2935 -0.1898
 1913SOL    HW117372   0.458   1.097   2.735  0.5485 -0.7785 -0.7716
 1913SOL    HW217373   0.489   1.141   2.869  1.1045  0.1374 -0.2569
 1914SOL     OW17374   2.305   4.579   6.082  0.2426 -0.0090  0.5242
 1914SOL    HW117375   2.223   4.573   6.033 -1.0009 -0.1359  2.5938
 1914SOL    HW217376   2.310   4.497   6.131  0.6966  0.3513  1.0880
 1915SOL     OW17377   0.239   0.053  13.298 -0.3460  0.4966  0.0118
 1915SOL    HW117378   0.194   4.723  13.349  0.0156 -0.6771 -1.2038
 1915SOL    HW217379   0.186   0.131  13.313  0.7688  1.1737  0.4629
 1916SOL     OW17380   2.242   1.886  17.482 -0.2962 -0.9268 -0.4616
 1916SOL    HW117381   2.201   1.830  17.549 -0.3014  0.1853  0.4677
 1916SOL    HW217382   2.198   1.876  17.398 -2.8525 -0.7637  0.8432
 1917SOL     OW17383   2.814   4.581  17.048 -0.0254  0.3118  0.1778
 1917SOL    HW117384   2.818   4.510  17.112  0.4740 -0.1575 -0.3874
 1917SOL    HW217385   2.799   4.660  17.100  1.8048  0.7164  0.1000
 1918SOL     OW17386   0.481   2.289   5.943 -0.0877  0.9087 -0.0845
 1918SOL    HW117387   0.466   2.341   5.864  1.5500 -0.0385 -1.0192
 1918SOL    HW217388   0.494   2.198   5.918  0.7172  0.9346  0.2546
 1919SOL     OW17389   4.161   1.045   2.310 -0.5297 -0.1088  0.1189
 1919SOL    HW117390   4.093   1.108   2.334 -0.2850  0.4609 -0.6820
 1919SOL    HW217391   4.177   1.007   2.396  0.7620 -2.0609 -0.9991
 1920SOL     OW17392   4.184   1.076   8.701 -0.4306  0.3148 -0.0563
 1920SOL    HW117393   4.150   1.017   8.769 -3.6372  2.6172  0.3027
 1920SOL    HW217394   4.131   1.051   8.625 -1.4444 -1.0801  1.1019
 1921SOL     OW17395   1.294   1.321   1.934  0.0132  0.9179  0.0791
 1921SOL    HW117396   1.254   1.407   1.942 -1.0915  0.6211 -2.4407
 1921SOL    HW217397   1.347   1.338   1.857 -0.3405 -0.1761 -0.4012
 1922SOL     OW17398   3.989   2.955   4.826  0.0899 -0.1833  0.4356
 1922SOL    HW117399   3.994   2.891   4.755 -0.2109  0.2397  0.0394
 1922SOL    HW217400   4.050   2.920   4.891  0.3788  1.6029  1.1052
 1923SOL     OW17401   2.889   2.546   8.205 -0.2965 -0.2473  0.7335
 1923SOL    HW117402   2.842   2.607   8.261  0.4262  0.4459  0.5776
 1923SOL    HW217403   2.900   2.600   8.127 -2.6797 -0.8629 -0.0302
 1924SOL     OW17404   4.386   0.202   6.694  0.0891 -0.0990  0.4444
 1924SOL    HW117405   4.424   0.241   6.614  1.9160 -0.1954  1.2569
 1924SOL    HW217406   4.466   0.162   6.728 -0.2343 -0.3081  0.9462
 1925SOL     OW17407   4.616   0.038  13.462 -0.1640 -0.0015 -0.1261
 1925SOL    HW117408   4.590   0.051  13.553 -0.1021  0.3111 -0.1562
 1925SOL    HW217409   4.534   4.731  13.438  0.3936 -0.8361 -0.5587
 1926SOL     OW17410   1.709   3.931  12.891  0.6255 -0.1145  0.1349
 1926SOL    HW117411   1.681   3.848  12.853 -0.6121 -0.1232  1.0475
 1926SOL    HW217412   1.733   3.906  12.981 -1.1913 -2.7973 -0.1431
 1927SOL     OW17413   4.730   1.581   8.315 -0.1782  0.2880 -0.1532
 1927SOL    HW117414   4.703   1.606   8.404 -2.3620  0.7986 -0.9676
 1927SOL    HW217415   0.077   1.628   8.325 -0.8169  0.9686  2.1055
 1928SOL     OW17416   0.077   2.269  13.623  0.3300  0.1128  0.3635
 1928SOL    HW117417   0.124   2.193  13.588  0.5860 -1.0302  3.2057
 1928SOL    HW217418   0.145   2.326  13.659  1.1482 -1.0503  0.6757
 1929SOL     OW17419   0.033   1.431   0.854 -0.4227  0.1947 -0.3336
 1929SOL    HW117420   0.007   1.470   0.937  1.2009  1.4504 -0.4329
 1929SOL    HW217421   4.712   1.476   0.792  1.1291  1.2177 -1.0174
 1930SOL     OW17422   0.564   4.583   9.006  0.2185  0.2429  0.6267
 1930SOL    HW117423   0.517   4.564   9.087 -1.0905 -0.2403 -0.2344
 1930SOL    HW217424   0.485   4.584   8.951 -0.4729 -1.7893  1.5708
 1931SOL     OW17425   1.282   4.633  11.061 -0.1429 -0.0842 -0.2421
 1931SOL    HW117426   1.285   4.645  10.966 -4.2830  1.2873 -0.1900
 1931SOL    HW217427   1.371   4.617  11.091 -0.7377  1.0635  2.1611
 1932SOL     OW17428   4.174   0.396   7.886  0.0034 -0.4988 -0.0360
 1932SOL    HW117429   4.180   0.318   7.830  1.5122 -0.4408  0.0474
 1932SOL    HW217430   4.243   0.381   7.950 -1.2636  1.8655  1.8451
 1933SOL     OW17431   2.094   2.901   3.091 -0.1512  0.3515 -0.3228
 1933SOL    HW117432   2.050   2.986   3.080  0.8817  0.8200 -0.8244
 1933SOL    HW217433   2.036   2.861   3.026  0.7472  0.1615 -1.0035
 1934SOL     OW17434   2.837   4.340   3.514 -0.1317 -0.2223  0.0045
 1934SOL    HW117435   2.846   4.435   3.518 -2.7937  0.1309 -2.3356
 1934SOL    HW217436   2.753   4.323   3.558 -0.2024  2.2868  0.8437
 1935SOL     OW17437   0.037   2.237  16.396  0.8599  0.3659  0.3583
 1935SOL    HW117438   0.035   2.168  16.329 -1.0243  0.6726  0.1025
 1935SOL    HW217439   0.010   2.189  16.474 -1.7893  0.6428 -0.3758
 1936SOL     OW17440   4.164   4.376   2.393 -0.9971 -0.2761  0.2602
 1936SOL    HW117441   4.096   4.371   2.326 -0.6970 -1.5170  0.0388
 1936SOL    HW217442   4.166   4.471   2.402  1.8300 -0.2154 -1.0892
 1937SOL     OW17443   4.046   3.234  16.017 -0.3686  0.6197  0.0454
 1937SOL    HW117444   4.044   3.291  15.940  3.0654 -1.8331 -1.9199
 1937SOL    HW217445   3.953   3.244  16.034 -0.3537  1.3803 -0.3236
 1938SOL     OW17446   3.003   1.643   4.410  0.2357  0.3257  0.2112
 1938SOL    HW117447   3.090   1.604   4.418  1.1774  2.0713 -1.5441
 1938SOL    HW217448   2.963   1.618   4.494 -0.6635  0.4217 -0.1856
 1939SOL     OW17449   2.591   3.778  14.395 -0.3878 -0.6249 -0.4341
 1939SOL    HW117450   2.552   3.715  14.455  0.4378 -0.4650  0.2801
 1939SOL    HW217451   2.563   3.741  14.311 -0.8799 -0.0977 -0.5031
 1940SOL     OW17452   0.273   0.419   6.577 -0.3357  0.1042 -0.6709
 1940SOL    HW117453   0.214   0.381   6.642 -2.1054  1.5593 -1.4326
 1940SOL    HW217454   0.313   0.478   6.641  0.0243  1.0807 -1.7905
 1941SOL     OW17455   3.464   1.560  10.101  0.1513 -0.1247  0.0519
 1941SOL    HW117456   3.523   1.563  10.026 -0.4521  3.1090 -0.2989
 1941SOL    HW217457   3.489   1.476  10.139  0.3519  0.5994  1.5004
 1942SOL     OW17458   2.122   2.884   5.666 -0.1621  0.8627 -0.6723
 1942SOL    HW117459   2.143   2.923   5.751 -0.4394 -1.2283  0.3529
 1942SOL    HW217460   2.190   2.908   5.603 -0.2097  5.3639  0.9942
 1943SOL     OW17461   3.314   4.426   1.888  0.3961  0.3260  0.4288
 1943SOL    HW117462   3.361   4.444   1.969  3.9695 -1.7035 -1.1724
 1943SOL    HW217463   3.386   4.405   1.829  0.6411  2.4001  0.0023
 1944SOL     OW17464   0.787   2.740   5.661  0.0439  0.0302  0.2258
 1944SOL    HW117465   0.700   2.715   5.693  0.1210  0.8417  1.0591
 1944SOL    HW217466   0.837   2.693   5.728 -0.5318 -0.4944  0.2864
 1945SOL     OW17467   4.053   2.789   3.730  0.2208  0.0036 -0.2060
 1945SOL    HW117468   4.137   2.751   3.703 -0.3275 -1.1706 -0.2769
 1945SOL    HW217469   4.070   2.881   3.709  0.4195  0.1427  0.5711
 1946SOL     OW17470   2.436   3.241   3.722 -0.2178 -0.2575 -0.5217
 1946SOL    HW117471   2.510   3.290   3.759 -2.2110  2.1881  0.2587
 1946SOL    HW217472   2.475   3.167   3.676 -1.4880 -0.7053 -0.8832
 1947SOL     OW17473   4.600   4.558   5.611 -0.0235  0.8430 -0.0770
 1947SOL    HW117474   4.628   4.469   5.591 -0.3094  0.3274  1.7626
 1947SOL    HW217475   4.505   4.556   5.604 -0.2022 -0.1658  2.6287
 1948SOL     OW17476   3.664   0.144   3.646 -0.5427 -0.3499 -0.0922
 1948SOL    HW117477   3.688   0.148   3.739 -0.6702  1.6003 -0.1497
 1948SOL    HW217478   3.593   0.079   3.642 -1.1292  0.3869 -1.5236
 1949SOL     OW17479   1.618   0.155   7.599  0.5577  0.5390  0.5612
 1949SOL    HW117480   1.702   0.153   7.553 -0.5598  0.8275 -1.4810
 1949SOL    HW217481   1.580   0.236   7.566  0.4407  0.6389  0.9425
 1950SOL     OW17482   1.574   0.025   7.828 -0.3706  0.3495  0.3818
 1950SOL    HW117483   1.596   0.069   7.745  0.9945 -2.9931 -1.0406
 1950SOL    HW217484   1.598   4.670   7.811 -1.7974  0.0398  0.0939
 1951SOL     OW17485   0.320   2.364   1.988  0.5608  0.0317 -0.3416
 1951SOL    HW117486   0.233   2.363   1.948  1.6926 -1.1550 -2.7773
 1951SOL    HW217487   0.303   2.413   2.069 -0.4752 -0.4565 -0.2750
 1952SOL     OW17488   4.435   2.574   7.259 -0.3837 -0.1434  0.4925
 1952SOL    HW117489   4.407   2.597   7.348 -1.9868 -0.0447 -0.0497
 1952SOL    HW217490   4.504   2.508   7.270 -0.6235 -0.0298  2.7685
 1953SOL     OW17491   2.571   3.004   0.068  0.4154 -0.3283 -0.4824
 1953SOL    HW117492   2.492   2.987   0.017  0.7740  1.2248 -1.5610
 1953SOL    HW217493   2.644   2.975   0.013  0.5443 -1.8452  0.5123
 1954SOL     OW17494   4.323   4.720  12.632 -0.2863 -0.1031 -0.1680
 1954SOL    HW117495   4.362   4.678  12.555  1.0311  1.6436 -0.4690
 1954SOL    HW217496   4.409   0.012  12.664  0.5332 -3.3294  0.4517
 1955SOL     OW17497   1.441   4.395   2.893  0.3410 -0.4604  0.8444
 1955SOL    HW117498   1.503   4.421   2.962  0.9563 -0.8646  0.4437
 1955SOL    HW217499   1.392   4.474   2.873  1.5252 -0.1814 -0.9461
 1956SOL     OW17500   2.390   1.014   9.524 -0.0994  0.5926  0.2629
 1956SOL    HW117501   2.371   0.920   9.520  0.1079  0.6399 -1.6551
 1956SOL    HW217502   2.320   1.036   9.585  0.4617  2.0281  0.3864
 1957SOL     OW17503   3.033   0.903   2.548  0.0899 -0.2064  0.1924
 1957SOL    HW117504   2.986   0.820   2.552 -1.6382  0.6826 -1.2481
 1957SOL    HW217505   2.961   0.965   2.557  0.4725  0.2300  0.2549
 1958SOL     OW17506   3.534   3.138   2.959  0.0563 -0.2194  0.5789
 1958SOL    HW117507   3.601   3.206   2.951 -0.1581 -0.0124  0.5656
 1958SOL    HW217508   3.481   3.177   3.028 -0.3626 -1.9234  1.2257
 1959SOL     OW17509   3.877   0.490   8.894  0.0709 -0.6422  0.3998
 1959SOL    HW117510   3.827   0.473   8.814  1.6611 -0.0812 -0.6986
 1959SOL    HW217511   3.806   0.537   8.939  0.0520 -0.1738 -0.1178
 1960SOL     OW17512   4.605   2.271  16.718  0.1251 -0.2213 -1.0077
 1960SOL    HW117513   4.623   2.307  16.805  0.2995 -2.0427 -0.2876
 1960SOL    HW217514   4.691   2.229  16.710  1.3015  1.8900  0.2891
 1961SOL     OW17515   1.132   0.466   5.171  0.2079  0.2446  0.2817
 1961SOL    HW117516   1.174   0.472   5.085 -2.4486  1.6040 -0.9300
 1961SOL    HW217517   1.096   0.377   5.173  1.9772 -0.4899 -0.0873
 1962SOL     OW17518   0.053   1.097   9.243 -0.4235  0.6222 -0.4521
 1962SOL    HW117519   0.000   1.018   9.257  1.9552 -0.9380 -0.2088
 1962SOL    HW217520   0.132   1.060   9.283 -1.1273 -1.5339 -1.0460
 1963SOL     OW17521   4.561   2.199  15.522 -0.2699  0.0596  0.1238
 1963SOL    HW117522   4.566   2.218  15.428 -0.9543 -0.5669 -0.0399
 1963SOL    HW217523   4.609   2.277  15.549  1.7992 -0.9107 -0.6925
 1964SOL     OW17524   1.186   2.805   1.683  0.6273  0.1905  0.3803
 1964SOL    HW117525   1.140   2.851   1.753 -1.0910 -1.2949  0.2165
 1964SOL    HW217526   1.113   2.806   1.621  0.5102 -1.0233  0.4938
 1965SOL     OW17527   1.060   4.465  10.954 -0.2186  0.1711  0.3839
 1965SOL    HW117528   1.116   4.394  10.985  0.4201  0.9594  1.0342
 1965SOL    HW217529   1.012   4.495  11.031 -1.4372  2.6101 -1.3051
 1966SOL     OW17530   3.978   2.844   6.392 -0.1820 -0.1041 -0.2777
 1966SOL    HW117531   4.053   2.872   6.444 -1.1251 -0.1801  1.1203
 1966SOL    HW217532   3.939   2.926   6.360 -3.3163 -0.8933  1.5195
 1967SOL     OW17533   4.635   4.563   9.579  0.0067  0.0671 -0.3073
 1967SOL    HW117534   4.551   4.597   9.550 -0.4790 -0.8808  0.0066
 1967SOL    HW217535   4.608   4.496   9.642 -2.2317  1.2123 -0.0563
 1968SOL     OW17536   1.527   1.220   3.293  0.0039  0.8991  0.5738
 1968SOL    HW117537   1.523   1.252   3.203 -0.0932 -1.2052 -0.1570
 1968SOL    HW217538   1.477   1.139   3.287  1.9999 -0.2573 -0.3810
 1969SOL     OW17539   3.221   0.675   0.612 -0.6536  0.0371 -0.1016
 1969SOL    HW117540   3.234   0.651   0.704  0.4162  1.2921  0.0681
 1969SOL    HW217541   3.225   0.770   0.613 -0.3292  0.0118  1.3582
 1970SOL     OW17542   1.338   0.059   3.084 -0.0756 -0.1737 -0.1178
 1970SOL    HW117543   1.304   0.148   3.078 -0.7083 -0.3289  1.3900
 1970SOL    HW217544   1.324   0.009   3.004  3.2895 -0.2991 -0.6482
 1971SOL     OW17545   3.245   0.313   1.598  0.0048 -0.5014  0.0342
 1971SOL    HW117546   3.298   0.242   1.634  0.5889  0.3085  0.7624
 1971SOL    HW217547   3.237   0.301   1.503  0.1440 -2.8530  0.3272
 1972SOL     OW17548   4.685   0.360  17.434  0.7874 -0.4253 -0.1885
 1972SOL    HW117549   4.718   0.447  17.455  1.2932 -0.6224 -0.1724
 1972SOL    HW217550   0.030   0.316  17.409  1.6558 -0.4795  2.7395
 1973SOL     OW17551   0.137   2.447   4.998 -0.2667 -0.5932 -0.1767
 1973SOL    HW117552   0.226   2.448   5.034  0.1511  0.5717 -1.2409
 1973SOL    HW217553   0.097   2.384   5.057  0.7766 -0.3310  0.8016
 1974SOL     OW17554   2.290   1.008   8.383 -0.5071 -0.0278 -0.4526
 1974SOL    HW117555   2.312   0.997   8.291 -0.5762  0.0776 -0.4821
 1974SOL    HW217556   2.223   1.073   8.362 -0.0348  0.3476 -0.7793
 1975SOL     OW17557   2.122   4.173   7.938  0.0237  0.0808  0.7976
 1975SOL    HW117558   2.082   4.087   7.930 -0.4432  0.6928 -3.4369
 1975SOL    HW217559   2.119   4.210   7.850 -0.7585 -3.3037 -0.5781
 1976SOL     OW17560   1.619   3.836   2.705 -0.2249  0.4057 -0.3983
 1976SOL    HW117561   1.651   3.884   2.628  0.5600 -0.5694 -0.6858
 1976SOL    HW217562   1.701   3.794   2.733  0.9141  2.3418 -0.8148
 1977SOL     OW17563   0.286   1.431   7.279 -0.2012  0.0938 -0.0875
 1977SOL    HW117564   0.249   1.357   7.328  0.3535  1.0327  1.7532
 1977SOL    HW217565   0.213   1.461   7.226  0.3055 -1.0593 -1.4528
 1978SOL     OW17566   0.340   2.156   8.474 -0.5940 -0.3696  0.3087
 1978SOL    HW117567   0.426   2.179   8.439 -0.9433 -1.9057 -1.5465
 1978SOL    HW217568   0.353   2.065   8.498 -1.1139 -0.9161 -1.4627
 1979SOL     OW17569   0.420   0.993   3.906  0.3810 -0.6526  0.1969
 1979SOL    HW117570   0.470   1.061   3.862  1.8061 -0.5579  1.9330
 1979SOL    HW217571   0.446   1.010   3.997  2.1305 -2.1636 -0.0366
 1980SOL     OW17572   4.104   2.111   3.027  0.0134  0.0857 -0.0193
 1980SOL    HW117573   4.009   2.110   3.012 -0.3718 -0.2084  2.4592
 1980SOL    HW217574   4.115   2.042   3.092  0.2864 -0.4365 -0.6187
 1981SOL     OW17575   1.889   4.465   5.750 -0.1375 -0.4386  0.6076
 1981SOL    HW117576   1.929   4.428   5.829  0.3425  0.3545  0.7351
 1981SOL    HW217577   1.957   4.431   5.691 -0.6700  2.8653 -1.8862
 1982SOL     OW17578   1.360   2.187   3.433  0.0367 -0.6477 -0.0113
 1982SOL    HW117579   1.391   2.274   3.458 -0.3339 -0.2585 -0.9230
 1982SOL    HW217580   1.340   2.204   3.341  2.4095  0.9503 -0.2152
 1983SOL     OW17581   1.849   3.632  11.780  0.4090 -0.6101  0.2132
 1983SOL    HW117582   1.878   3.589  11.699 -0.6500  0.2259 -0.6068
 1983SOL    HW217583   1.765   3.587  11.772  1.1246 -2.1546  1.2417
 1984SOL     OW17584   1.016   0.676   5.677 -0.1583  0.3922  0.1044
 1984SOL    HW117585   1.025   0.588   5.639 -0.7971 -0.0641  1.0096
 1984SOL    HW217586   1.084   0.722   5.629  1.2256 -0.0567  1.6394
 1985SOL     OW17587   3.143   2.919   3.141 -0.4592 -0.1265  0.1833
 1985SOL    HW117588   3.151   2.875   3.057  1.2774 -0.4897  0.5459
 1985SOL    HW217589   3.224   2.970   3.138 -0.6620  0.2273  0.7161
 1986SOL     OW17590   1.122   4.349  12.549  0.8337 -0.8180  0.3903
 1986SOL    HW117591   1.130   4.433  12.594 -1.4433  0.1458 -1.0119
 1986SOL    HW217592   1.061   4.292  12.598  1.1479 -1.2144  0.3191
 1987SOL     OW17593   2.642   1.461   5.625  0.0451  0.4666 -0.1319
 1987SOL    HW117594   2.704   1.507   5.569 -0.8717  0.2419 -1.3362
 1987SOL    HW217595   2.698   1.401   5.673 -1.0727 -1.1931 -0.9022
 1988SOL     OW17596   0.948   3.250  17.270  0.4629 -0.3864 -0.3362
 1988SOL    HW117597   0.880   3.317  17.274  1.3224  0.4387  0.4185
 1988SOL    HW217598   0.900   3.174  17.237  1.2726 -0.6782 -0.8539
 1989SOL     OW17599   2.958   4.283   6.377  0.0679  0.0272 -0.5250
 1989SOL    HW117600   2.944   4.209   6.436 -1.5388 -0.2343 -1.2236
 1989SOL    HW217601   3.053   4.296   6.388 -0.1215  1.9175 -1.1171
 1990SOL     OW17602   0.103   2.742   1.597 -0.1868 -0.0537  0.1514
 1990SOL    HW117603   0.190   2.716   1.568  0.4587  0.2140  1.8665
 1990SOL    HW217604   0.117   2.770   1.687 -0.5506 -1.5943  0.6840
 1991SOL     OW17605   3.176   0.554   2.274  0.7961 -0.1230 -0.5112
 1991SOL    HW117606   3.081   0.542   2.280  1.1435 -2.1095  0.8589
 1991SOL    HW217607   3.177   0.631   2.217 -3.0580  0.4139  0.1409
 1992SOL     OW17608   1.613   3.795  14.671 -0.5989  0.1267  0.4616
 1992SOL    HW117609   1.642   3.707  14.698  1.2068  0.8627  0.8875
 1992SOL    HW217610   1.529   3.772  14.631  0.2133  0.6579 -1.4994
 1993SOL     OW17611   2.697   0.360  17.108 -0.3150 -0.0247  0.2224
 1993SOL    HW117612   2.765   0.425  17.091 -1.1952  1.0980  1.0353
 1993SOL    HW217613   2.705   0.331  17.199 -1.6874 -0.1162  0.3103
 1994SOL     OW17614   2.190   3.739  14.439  0.5732 -0.1790  0.2310
 1994SOL    HW117615   2.202   3.829  14.407  0.4185  0.0064  0.6909
 1994SOL    HW217616   2.237   3.688  14.373 -2.5446 -0.1943 -1.9343
 1995SOL     OW17617   2.541   3.240   8.360 -0.0001  0.1144  0.4394
 1995SOL    HW117618   2.533   3.241   8.265 -1.5375  0.2503  0.5713
 1995SOL    HW217619   2.571   3.327   8.383 -0.6614  0.8583 -1.4727
 1996SOL     OW17620   1.006   2.899   4.056 -0.4586 -0.0940  0.0743
 1996SOL    HW117621   0.960   2.898   4.141 -0.4335 -1.8610  0.0754
 1996SOL    HW217622   0.979   2.984   4.021 -0.9215 -0.1423  0.3162
 1997SOL     OW17623   1.590   2.990   7.447 -0.2423  0.0290  0.4195
 1997SOL    HW117624   1.587   2.899   7.418  0.6480  0.2026 -0.2198
 1997SOL    HW217625   1.681   3.019   7.436 -0.7882  1.7859  0.5561
 1998SOL     OW17626   0.999   0.420  10.928 -0.4873 -0.4631  0.5444
 1998SOL    HW117627   0.983   0.492  10.867  2.9974  0.5256  0.7834
 1998SOL    HW217628   0.922   0.365  10.914 -0.7128 -0.5730  2.2028
 1999SOL     OW17629   0.228   2.449   4.731  0.8001 -0.8668  0.1183
 1999SOL    HW117630   0.200   2.446   4.822 -0.4057  3.7613 -0.1039
 1999SOL    HW217631   0.186   2.377   4.685  0.8201  0.0831 -1.3856
 2000SOL     OW17632   0.448   0.618   4.739 -0.4512 -0.5457 -0.0408
 2000SOL    HW117633   0.367   0.649   4.780  1.7561  4.0732  0.8887
 2000SOL    HW217634   0.507   0.692   4.758  1.8741 -2.2166 -0.7571
 2001SOL     OW17635   0.894   1.763   8.114 -0.0887  0.5875 -0.0865
 2001SOL    HW117636   0.940   1.846   8.125 -0.6943  0.8469  0.5615
 2001SOL    HW217637   0.956   1.716   8.059  2.6943  1.5949  2.1834
 2002SOL     OW17638   0.097   1.860   7.258  0.6872 -0.4378  0.2765
 2002SOL    HW117639   0.159   1.800   7.300  1.4064  0.8951  1.1277
 2002SOL    HW217640   0.135   1.939   7.296 -1.6811  1.9402 -2.3718
 2003SOL     OW17641   0.439   2.876   3.652 -0.0371 -0.2028  0.4524
 2003SOL    HW117642   0.462   2.794   3.608 -1.3754 -0.1112 -0.4248
 2003SOL    HW217643   0.482   2.935   3.590 -1.5233  0.5361  0.1024
 2004SOL     OW17644   4.307   0.158   3.391 -0.0326 -0.6455  0.5028
 2004SOL    HW117645   4.287   0.246   3.425  0.1743 -1.6274  3.1774
 2004SOL    HW217646   4.229   0.156   3.336 -1.1745 -2.5199  2.2106
 2005SOL     OW17647   3.952   2.385   4.364  0.1131  0.2181 -0.2742
 2005SOL    HW117648   3.974   2.303   4.409 -0.5554 -0.9290 -2.0412
 2005SOL    HW217649   4.016   2.391   4.293 -0.9750 -0.6633 -1.3279
 2006SOL     OW17650   0.081   0.488   3.946 -0.7931  0.1216 -0.1065
 2006SOL    HW117651   0.119   0.447   3.869 -1.3080  0.0107 -0.3018
 2006SOL    HW217652   0.016   0.423   3.973 -0.6639  0.5650  1.2933
 2007SOL     OW17653   2.704   1.135  10.599  0.2629 -0.2487  0.4021
 2007SOL    HW117654   2.772   1.202  10.592 -2.3480  2.2270 -1.2042
 2007SOL    HW217655   2.683   1.109  10.509 -1.5223  0.7363  0.5503
 2008SOL     OW17656   4.586   2.902   8.887  0.1041 -0.2826  0.2421
 2008SOL    HW117657   4.581   2.810   8.914 -0.1147 -0.3104  0.1042
 2008SOL    HW217658   4.522   2.941   8.946 -1.5551  0.0177 -1.7547
 2009SOL     OW17659   4.695   0.716   3.847 -0.2016 -0.2672 -0.1637
 2009SOL    HW117660   0.015   0.649   3.885  0.2828 -0.0319 -0.4556
 2009SOL    HW217661   4.606   0.688   3.869 -0.8686  1.6356 -0.4198
 2010SOL     OW17662   2.442   0.060   2.353  0.3034 -0.0495  0.3815
 2010SOL    HW117663   2.444   0.054   2.257  3.3392 -0.3229  0.4760
 2010SOL    HW217664   2.481   0.145   2.373 -1.4226  1.0775 -1.0441
 2011SOL     OW17665   2.586   3.321   7.005  0.0713 -0.2206 -0.3518
 2011SOL    HW117666   2.601   3.246   6.948 -0.8990 -1.7280  1.3848
 2011SOL    HW217667   2.660   3.375   6.979  0.0978 -0.1931 -0.2218
 2012SOL     OW17668   0.084   2.056   7.613  0.9770 -0.2865  0.0289
 2012SOL    HW117669   0.084   2.128   7.550 -0.2435 -0.7338 -0.4873
 2012SOL    HW217670   4.733   2.018   7.599  0.2066  1.1058  1.1230
 2013SOL     OW17671   1.343   3.443   2.999  0.1498  0.1028  0.1431
 2013SOL    HW117672   1.434   3.418   3.009  0.3317  0.2851 -1.1054
 2013SOL    HW217673   1.331   3.431   2.905 -1.6321 -1.2055  0.5437
 2014SOL     OW17674   3.188   2.114   8.921  0.3236  0.3383  0.3256
 2014SOL    HW117675   3.232   2.052   8.980 -2.5203 -0.3114  1.8015
 2014SOL    HW217676   3.129   2.050   8.882  0.9134  0.5076 -0.8456
 2015SOL     OW17677   3.518   0.240   7.996  0.1583  0.6505 -0.7523
 2015SOL    HW117678   3.428   0.266   8.016  0.8911  1.0251  2.0304
 2015SOL    HW217679   3.557   0.237   8.083 -0.5057  2.1480 -0.3993
 2016SOL     OW17680   4.253   0.224   6.945 -0.6368 -0.2147 -0.3723
 2016SOL    HW117681   4.181   0.163   6.963 -2.0273  1.6648  0.3818
 2016SOL    HW217682   4.278   0.200   6.855 -1.0972 -0.6689 -0.3794
 2017SOL     OW17683   4.686   0.396   5.538  0.4796 -0.2818  0.1264
 2017SOL    HW117684   4.717   0.307   5.524  1.7708  0.1079  0.6011
 2017SOL    HW217685   0.014   0.447   5.488  0.2567 -0.7432 -0.6342
 2018SOL     OW17686   1.308   2.344   2.794 -0.4012  0.3733 -0.1806
 2018SOL    HW117687   1.285   2.435   2.773 -1.4967  0.1595  0.0796
 2018SOL    HW217688   1.264   2.288   2.730 -1.5896  0.1907  0.7773
 2019SOL     OW17689   4.156   4.015   4.271 -0.3393 -0.3199 -0.0748
 2019SOL    HW117690   4.078   3.982   4.228  0.0328 -1.1788 -0.1003
 2019SOL    HW217691   4.124   4.094   4.314  1.4619  0.7999 -0.7888
 2020SOL     OW17692   0.763   1.470   4.528  0.3388 -0.4983  0.0786
 2020SOL    HW117693   0.808   1.401   4.479  0.6157 -0.0847 -0.2525
 2020SOL    HW217694   0.801   1.540   4.474 -1.6937  0.7677  0.3103
 2021SOL     OW17695   3.046   2.451  16.723 -0.2893  0.2793 -0.7889
 2021SOL    HW117696   3.138   2.465  16.745 -0.8292 -2.1387  2.9678
 2021SOL    HW217697   3.043   2.462  16.628  1.0207 -3.6309 -1.2645
 2022SOL     OW17698   3.299   2.087   9.538 -0.7612 -0.1337 -0.0267
 2022SOL    HW117699   3.356   2.108   9.611 -1.4523 -0.0740  0.4998
 2022SOL    HW217700   3.300   1.991   9.536 -1.0513 -0.1266 -0.5943
 2023SOL     OW17701   1.219   1.995   1.663  0.3764  1.0723 -0.5981
 2023SOL    HW117702   1.249   1.990   1.754 -0.9074  1.2328 -0.1600
 2023SOL    HW217703   1.281   2.053   1.619  0.4371  1.0347 -0.5631
 2024SOL     OW17704   3.856   3.031   6.190  0.1454  0.5956 -0.4462
 2024SOL    HW117705   3.790   3.095   6.163  0.0908  1.4004  1.6142
 2024SOL    HW217706   3.936   3.065   6.150 -0.3310  1.9487 -0.2467
 2025SOL     OW17707   3.926   1.996   4.073 -0.0028 -0.4129 -0.5226
 2025SOL    HW117708   3.908   2.079   4.116 -1.8518 -0.4176 -1.2719
 2025SOL    HW217709   3.926   2.030   3.984  1.7361 -0.7868 -0.6518
 2026SOL     OW17710   3.100   1.395  16.613 -0.1857  0.5268  0.4972
 2026SOL    HW117711   3.176   1.352  16.573  0.4999  1.3854  0.8874
 2026SOL    HW217712   3.064   1.451  16.545  2.7050  0.7304 -0.8312
 2027SOL     OW17713   1.202   4.145  11.605  0.0363  0.3035  0.2196
 2027SOL    HW117714   1.270   4.212  11.613 -1.0222  0.9564  3.7750
 2027SOL    HW217715   1.161   4.165  11.521  0.8139  3.5095  0.6203
 2028SOL     OW17716   3.131   3.001   6.978 -0.2726  0.1343 -0.0502
 2028SOL    HW117717   3.075   2.928   6.953  1.0223 -1.0110  0.3469
 2028SOL    HW217718   3.066   3.071   6.975  0.3270  0.9002  4.2763
 2029SOL     OW17719   1.756   0.026   0.917  0.2372 -0.3869 -0.0158
 2029SOL    HW117720   1.667   0.037   0.950  0.9151 -0.1843  1.7307
 2029SOL    HW217721   1.786   0.116   0.914  0.6143 -0.5431 -1.1743
 2030SOL     OW17722   0.234   3.293  12.841 -0.2290 -0.2107 -0.3150
 2030SOL    HW117723   0.295   3.219  12.837 -1.0717 -0.8756 -0.9017
 2030SOL    HW217724   0.167   3.279  12.774 -0.5331  1.6091 -0.3908
 2031SOL     OW17725   1.634   0.404   8.711 -0.1733 -0.2808  0.0728
 2031SOL    HW117726   1.672   0.374   8.794  1.6965 -0.7280 -0.9436
 2031SOL    HW217727   1.684   0.348   8.651 -1.9785  0.5539 -2.2155
 2032SOL     OW17728   2.962   2.208   2.744  0.5106  0.3260 -0.3562
 2032SOL    HW117729   3.051   2.178   2.727  0.5302  0.2485 -0.1173
 2032SOL    HW217730   2.958   2.224   2.839  1.3004  2.5852 -0.7068
 2033SOL     OW17731   1.965   1.304   7.292 -0.3643  0.0514  0.3168
 2033SOL    HW117732   1.972   1.373   7.359  1.6449 -0.5967  0.7719
 2033SOL    HW217733   1.948   1.228   7.347  0.0835  0.8178  1.5172
 2034SOL     OW17734   2.568   3.269   0.442  0.0687 -0.3366  0.1797
 2034SOL    HW117735   2.621   3.226   0.508 -0.7287  0.1806  1.1626
 2034SOL    HW217736   2.515   3.201   0.401 -0.0100 -1.3492  1.9699
 2035SOL     OW17737   2.737   3.764   4.408  0.4246  0.1182 -0.4846
 2035SOL    HW117738   2.683   3.691   4.380 -0.3789  0.7567 -0.6075
 2035SOL    HW217739   2.701   3.832   4.352  1.9768  2.0668  0.8630
 2036SOL     OW17740   2.901   0.436   5.994  0.2505 -0.2937  0.3033
 2036SOL    HW117741   2.816   0.393   5.994  0.4649 -0.7375 -1.4285
 2036SOL    HW217742   2.887   0.521   5.953 -0.1039  0.2439  1.5401
 2037SOL     OW17743   1.094   1.677  11.856  0.0664 -0.0477  0.1427
 2037SOL    HW117744   1.162   1.697  11.921 -2.2535 -1.3337  2.9611
 2037SOL    HW217745   1.129   1.609  11.798  2.0996  0.6086  0.5788
 2038SOL     OW17746   4.506   3.623   8.262 -0.3293 -0.1519  0.3321
 2038SOL    HW117747   4.579   3.674   8.228  0.8837 -2.0425  0.0617
 2038SOL    HW217748   4.482   3.570   8.185 -1.7023 -0.0640  0.6875
 2039SOL     OW17749   4.208   0.358   4.346 -0.0925  0.3921 -0.2723
 2039SOL    HW117750   4.297   0.388   4.368  0.1103  0.9220 -1.7915
 2039SOL    HW217751   4.208   0.362   4.250 -1.4304  2.8628 -0.1721
 2040SOL     OW17752   3.846   1.104   8.799  0.5614  0.3518 -0.5384
 2040SOL    HW117753   3.829   1.156   8.720  0.8375  0.8281 -0.2858
 2040SOL    HW217754   3.892   1.035   8.751  1.2504 -0.5178  1.3718
 2041SOL     OW17755   1.721   0.448   5.606  0.6059 -0.1351 -0.2886
 2041SOL    HW117756   1.673   0.404   5.676 -1.2667  0.0435 -1.4720
 2041SOL    HW217757   1.723   0.377   5.543  0.1973  0.0661 -0.5285
 2042SOL     OW17758   0.249   3.505   3.878  0.2573  0.3993 -0.0682
 2042SOL    HW117759   0.288   3.560   3.810  1.7662 -1.2053 -0.5027
 2042SOL    HW217760   0.165   3.484   3.838 -0.5395 -0.8891  2.3420
 2043SOL     OW17761   0.538   1.912   2.609  0.2954 -0.3510 -0.1315
 2043SOL    HW117762   0.609   1.966   2.574  2.7321 -2.1234  2.0519
 2043SOL    HW217763   0.562   1.907   2.702 -1.2987  0.0444  0.3127
 2044SOL     OW17764   3.261   1.336   2.608  0.2699 -0.1015  0.4671
 2044SOL    HW117765   3.207   1.327   2.529 -2.2867  3.0150  1.8734
 2044SOL    HW217766   3.199   1.383   2.664  2.0604  2.7207  0.0183
 2045SOL     OW17767   4.384   1.626  17.635  0.2363 -0.0033 -0.7391
 2045SOL    HW117768   4.327   1.591  17.566 -0.0040 -0.0200 -0.5325
 2045SOL    HW217769   4.388   1.553  17.697  0.7393  0.2907 -0.4278
 2046SOL     OW17770   3.019   1.240   4.550 -0.5386  0.2143  0.3501
 2046SOL    HW117771   3.042   1.283   4.468 -1.0497 -2.3341 -1.1344
 2046SOL    HW217772   2.989   1.155   4.517  0.7294 -0.1142  0.0303
 2047SOL     OW17773   0.666   3.168   5.002  0.3112  1.0162  0.6882
 2047SOL    HW117774   0.620   3.166   4.918  1.4604  0.9160  0.0658
 2047SOL    HW217775   0.755   3.157   4.970 -0.1584 -0.1546 -0.2246
 2048SOL     OW17776   3.606   4.603  17.446 -0.2112  0.3109 -0.9983
 2048SOL    HW117777   3.519   4.616  17.483  0.2976 -2.0228  1.0295
 2048SOL    HW217778   3.665   4.639  17.512 -1.9636  0.3390  0.5234
 2049SOL     OW17779   2.865   3.120   8.249 -0.5242 -0.0506 -0.1034
 2049SOL    HW117780   2.863   3.027   8.223  0.1749  0.2683 -1.2835
 2049SOL    HW217781   2.833   3.118   8.339  1.2909 -0.9582  0.5244
 2050SOL     OW17782   3.204   2.149  16.690 -1.1469 -0.2431  0.0814
 2050SOL    HW117783   3.298   2.152  16.713 -0.5215 -1.1866 -2.4357
 2050SOL    HW217784   3.174   2.206  16.761  0.7120  1.1630 -0.2526
 2051SOL     OW17785   2.485   1.153   4.455  0.5420 -0.3694 -0.3451
 2051SOL    HW117786   2.507   1.081   4.513  1.1832 -1.1167 -1.5128
 2051SOL    HW217787   2.511   1.123   4.368  1.4639 -1.6932  0.3907
 2052SOL     OW17788   2.745   0.936   7.139  0.1809  0.1488  0.1454
 2052SOL    HW117789   2.832   0.959   7.107  0.6064 -0.8943  0.5555
 2052SOL    HW217790   2.704   0.906   7.057  0.8381 -1.3933  0.3760
 2053SOL     OW17791   1.201   0.860   7.774  0.0871  0.2769 -0.1598
 2053SOL    HW117792   1.203   0.935   7.834  3.2929 -1.1503  1.4873
 2053SOL    HW217793   1.222   0.785   7.829 -0.0838 -0.2706 -0.8344
 2054SOL     OW17794   2.818   2.656   5.109  0.0636 -0.0879  0.3632
 2054SOL    HW117795   2.912   2.670   5.093 -0.2325 -0.5233 -1.7447
 2054SOL    HW217796   2.824   2.576   5.161 -1.0244 -0.1100  0.4540
 2055SOL     OW17797   0.071   1.258   5.373 -0.1058 -0.3031  0.8425
 2055SOL    HW117798   0.014   1.209   5.313 -0.6340 -2.1020  2.7762
 2055SOL    HW217799   0.068   1.345   5.335 -0.6511 -1.0332 -0.7858
 2056SOL     OW17800   1.697   0.795   7.533 -0.3776 -0.4350  0.0200
 2056SOL    HW117801   1.655   0.715   7.502 -0.1231 -0.4851 -0.1918
 2056SOL    HW217802   1.780   0.785   7.486  0.4242  2.1091  0.8629
 2057SOL     OW17803   3.814   3.365  16.848  0.0153  0.1480 -0.0399
 2057SOL    HW117804   3.846   3.447  16.886 -0.8963  0.8708 -0.8351
 2057SOL    HW217805   3.854   3.300  16.906  1.7677  0.2280 -1.1413
 2058SOL     OW17806   4.041   3.217   4.929  0.3242 -0.0945 -0.1265
 2058SOL    HW117807   4.008   3.128   4.913 -2.7447  0.8924  0.7202
 2058SOL    HW217808   4.001   3.265   4.857  2.0909  2.0204  0.3292
 2059SOL     OW17809   0.418   1.767  13.623  0.1395 -0.2822 -0.0677
 2059SOL    HW117810   0.425   1.841  13.683  1.2490 -1.0170  0.7048
 2059SOL    HW217811   0.409   1.807  13.536 -0.2746  2.7425  1.3720
 2060SOL     OW17812   3.846   0.452   2.093 -0.3906 -0.0007  0.6303
 2060SOL    HW117813   3.910   0.387   2.068  0.9069  1.9912 -1.2004
 2060SOL    HW217814   3.772   0.415   2.046 -1.3453  0.3274  1.8605
 2061SOL     OW17815   0.952   3.131   4.935 -0.8385  0.3121 -0.3233
 2061SOL    HW117816   0.933   3.037   4.929 -2.9212  0.6621  0.6346
 2061SOL    HW217817   1.011   3.142   4.861 -0.6035 -0.2016 -0.2147
 2062SOL     OW17818   2.794   4.317   2.139  0.2649  0.5439 -0.0530
 2062SOL    HW117819   2.803   4.277   2.052 -1.2624  0.3425 -0.1172
 2062SOL    HW217820   2.711   4.360   2.120  0.5414  0.6434 -1.0504
 2063SOL     OW17821   1.078   1.590  16.740 -0.1253 -0.7122 -0.3177
 2063SOL    HW117822   0.994   1.634  16.723  0.6908  0.4083 -1.4989
 2063SOL    HW217823   1.133   1.635  16.676  2.1645 -2.5703  0.3480
 2064SOL     OW17824   4.400   4.477   4.250  0.2790 -0.1396  0.5896
 2064SOL    HW117825   4.477   4.532   4.264  2.1555 -1.9594 -2.4442
 2064SOL    HW217826   4.367   4.483   4.340 -2.0563  0.0711 -0.2919
 2065SOL     OW17827   3.283   0.625  17.482 -0.0409 -0.0697  0.3350
 2065SOL    HW117828   3.286   0.698  17.420 -1.8980 -1.1620 -1.0345
 2065SOL    HW217829   3.264   0.671  17.563 -2.1407 -1.1349  0.4390
 2066SOL     OW17830   3.548   2.266   2.150 -0.3632 -0.4991 -0.4116
 2066SOL    HW117831   3.569   2.293   2.061 -2.6841  0.7848 -0.5819
 2066SOL    HW217832   3.516   2.347   2.190  1.9919  0.0773  0.3044
 2067SOL     OW17833   2.812   4.649   6.581  0.2542  0.2878 -0.1823
 2067SOL    HW117834   2.742   4.709   6.555 -0.2116 -0.4912 -0.7221
 2067SOL    HW217835   2.887   4.706   6.597  0.2693 -0.1717  1.3714
 2068SOL     OW17836   0.144   3.223   8.446 -0.1570 -0.3658 -0.0288
 2068SOL    HW117837   0.166   3.254   8.534  2.5086  1.9461 -1.5230
 2068SOL    HW217838   0.050   3.243   8.453 -0.1213 -0.1059 -0.3107
 2069SOL     OW17839   2.732   3.205   0.184 -0.0894 -0.3731  0.5715
 2069SOL    HW117840   2.669   3.148   0.142 -0.2918 -0.7161  1.3455
 2069SOL    HW217841   2.688   3.241   0.261 -0.4524 -0.0621  0.2197
 2070SOL     OW17842   2.922   1.347   5.756 -0.2577 -0.3894  0.1151
 2070SOL    HW117843   2.915   1.289   5.680  0.8168 -0.2697 -0.0668
 2070SOL    HW217844   3.016   1.364   5.761 -0.3689  0.3620 -0.4401
 2071SOL     OW17845   3.227   3.697   7.867 -0.7598  0.0240 -0.5088
 2071SOL    HW117846   3.131   3.702   7.858 -0.7913 -0.6994 -0.5568
 2071SOL    HW217847   3.234   3.604   7.888 -0.7808  0.7626  2.7805
 2072SOL     OW17848   1.685   1.827   5.896 -0.4279 -0.6009  0.2300
 2072SOL    HW117849   1.656   1.782   5.816 -1.4517 -1.1329  0.8968
 2072SOL    HW217850   1.623   1.790   5.958  0.4682 -0.0312  1.4711
 2073SOL     OW17851   0.587   2.184   3.695 -0.5373  0.2439  0.0111
 2073SOL    HW117852   0.524   2.111   3.690 -1.9127  1.6160 -2.9966
 2073SOL    HW217853   0.657   2.124   3.722 -0.2293  0.0888 -1.1473
 2074SOL     OW17854   2.760   3.041  11.482 -0.2102 -0.3361  0.1262
 2074SOL    HW117855   2.736   3.012  11.570  1.1726 -0.7956  0.3547
 2074SOL    HW217856   2.671   3.067  11.459 -0.7870 -2.4721  0.0042
 2075SOL     OW17857   0.019   0.011   8.081 -0.7468  0.4256  0.2287
 2075SOL    HW117858   0.033   4.727   8.174 -0.1677  2.1375  0.5115
 2075SOL    HW217859   0.048   4.674   8.027 -0.5364  0.1690  0.6814
 2076SOL     OW17860   3.253   3.226   0.788  0.0795  0.0460  0.5836
 2076SOL    HW117861   3.199   3.275   0.851 -1.2457 -1.4523  0.5959
 2076SOL    HW217862   3.300   3.171   0.850 -1.4812 -2.2890 -0.2952
 2077SOL     OW17863   2.341   0.826   6.685  0.4736 -0.2299  0.2778
 2077SOL    HW117864   2.436   0.826   6.685  0.4737  0.3379  0.2729
 2077SOL    HW217865   2.304   0.905   6.724 -0.4121 -0.3262 -0.3497
 2078SOL     OW17866   4.636   0.849   8.664 -0.3472  0.1572  0.3665
 2078SOL    HW117867   4.544   0.827   8.655 -0.4997  1.0192 -0.0834
 2078SOL    HW217868   4.637   0.915   8.733 -1.0651 -0.3916  0.9021
 2079SOL     OW17869   1.837   2.944   5.945 -0.4077  0.4166  0.3947
 2079SOL    HW117870   1.927   2.975   5.944 -0.5803  0.8181 -1.6512
 2079SOL    HW217871   1.816   2.987   5.862  2.7061  1.4690  0.1700
 2080SOL     OW17872   3.309   1.725   2.399  0.7895 -0.1834  0.1519
 2080SOL    HW117873   3.252   1.652   2.424  1.2136  0.1403  2.0326
 2080SOL    HW217874   3.290   1.748   2.308  1.0310  1.1165  0.4225
 2081SOL     OW17875   0.327   3.318   4.078 -0.7706  0.0783  0.1000
 2081SOL    HW117876   0.304   3.395   4.026 -1.1804 -0.4731 -0.5252
 2081SOL    HW217877   0.297   3.250   4.018  1.1078  1.3593 -2.2810
 2082SOL     OW17878   2.283   1.952   3.903 -0.0441  0.0589  0.1978
 2082SOL    HW117879   2.198   1.929   3.865  0.2209 -0.8317  0.1418
 2082SOL    HW217880   2.322   1.866   3.918  2.5845  1.4557  1.3183
 2083SOL     OW17881   0.028   3.158   9.608 -0.0587 -0.0112  0.3909
 2083SOL    HW117882   0.021   3.143   9.702  2.3369 -3.9329 -0.0315
 2083SOL    HW217883   4.720   3.081   9.571 -0.0339 -0.2138  0.7825
 2084SOL     OW17884   2.875   2.267   8.256  0.0031 -0.5087  0.1879
 2084SOL    HW117885   2.889   2.361   8.240 -1.4541 -0.2501  0.4104
 2084SOL    HW217886   2.881   2.242   8.164  2.0155  1.8080 -0.3167
 2085SOL     OW17887   3.859   2.105   3.425  0.4187  0.3213  0.0649
 2085SOL    HW117888   3.866   2.010   3.425 -0.2684  0.2695  0.5727
 2085SOL    HW217889   3.849   2.110   3.330  2.0675  2.1051 -0.0249
 2086SOL     OW17890   1.261   0.509   2.118 -0.0780  0.9711  0.0429
 2086SOL    HW117891   1.184   0.566   2.118  0.0613  1.1573 -1.0964
 2086SOL    HW217892   1.236   0.436   2.062 -0.2471  0.9138  0.1931
 2087SOL     OW17893   2.173   0.317   2.624  0.0566 -0.3534  0.2947
 2087SOL    HW117894   2.175   0.244   2.685  0.3795 -0.1045  0.5863
 2087SOL    HW217895   2.214   0.276   2.548  1.2923 -0.8286  1.2247
 2088SOL     OW17896   3.620   1.330   4.371 -0.3499 -0.2127  0.1034
 2088SOL    HW117897   3.540   1.380   4.352  0.1965  0.8630  0.6732
 2088SOL    HW217898   3.691   1.391   4.352  0.3020 -0.5804  1.3990
 2089SOL     OW17899   1.010   3.041   7.669 -0.2646  0.2879  0.2695
 2089SOL    HW117900   0.996   3.114   7.609 -0.5515  1.0044  1.2072
 2089SOL    HW217901   0.919   3.013   7.671 -0.2248  0.1284 -0.2641
 2090SOL     OW17902   2.449   2.510   7.711  0.4460 -0.2657 -0.1982
 2090SOL    HW117903   2.472   2.603   7.711  1.6370 -0.5610  0.6044
 2090SOL    HW217904   2.521   2.468   7.665  2.4872  1.1183  1.7362
 2091SOL     OW17905   4.477   1.712   0.946 -0.2478  0.0703 -0.0579
 2091SOL    HW117906   4.428   1.646   0.995  0.5169  0.9307  1.8585
 2091SOL    HW217907   4.407   1.764   0.906  0.8434  0.4070 -1.5488
 2092SOL     OW17908   4.246   1.123   6.151 -0.0730  0.0378  0.2319
 2092SOL    HW117909   4.304   1.075   6.210 -0.4095 -1.5631 -0.7470
 2092SOL    HW217910   4.315   1.156   6.094 -0.5560 -0.5843 -0.7034
 2093SOL     OW17911   0.234   3.982   5.191 -0.8051  0.1195  0.2925
 2093SOL    HW117912   0.248   4.015   5.279 -3.8647  0.7200  0.5555
 2093SOL    HW217913   0.317   4.000   5.146  0.8488  0.1821  3.3384
 2094SOL     OW17914   3.747   2.025   7.981  0.5015  0.3853  0.3371
 2094SOL    HW117915   3.745   1.967   8.057 -1.0923 -0.9319 -0.7070
 2094SOL    HW217916   3.787   2.107   8.009  0.0210  1.1171 -1.1753
 2095SOL     OW17917   0.960   0.057   6.838  0.1349 -0.1578  0.3639
 2095SOL    HW117918   0.966   0.152   6.844 -1.1637 -0.0834  0.6102
 2095SOL    HW217919   0.981   0.051   6.745 -3.1102  1.1826 -0.4676
 2096SOL     OW17920   2.545   3.051   7.768 -0.3458 -0.1676 -0.1368
 2096SOL    HW117921   2.543   3.074   7.675 -2.3326  1.1865  0.2487
 2096SOL    HW217922   2.635   3.075   7.791 -0.9243 -0.6459  2.6323
 2097SOL     OW17923   1.895   0.920   7.175 -0.0116  0.6659 -0.2599
 2097SOL    HW117924   1.866   0.843   7.225 -0.6289  0.4093 -1.0096
 2097SOL    HW217925   1.862   0.993   7.228  1.6043  2.7143 -2.1192
 2098SOL     OW17926   3.426   2.309   7.345  0.4329  0.3395 -0.1440
 2098SOL    HW117927   3.429   2.293   7.439  1.9956 -0.8699 -0.4053
 2098SOL    HW217928   3.367   2.242   7.312  0.1600  0.4588  0.1065
 2099SOL     OW17929   4.625   0.852   2.361 -0.3764 -0.3200 -0.4575
 2099SOL    HW117930   4.633   0.865   2.267  0.5798 -1.9925 -0.6216
 2099SOL    HW217931   4.588   0.763   2.362 -0.7974 -0.1308  0.7021
 2100SOL     OW17932   0.764   2.878   8.244  0.7667  0.4341 -0.2515
 2100SOL    HW117933   0.757   2.785   8.264  1.7050  0.5814  0.7242
 2100SOL    HW217934   0.674   2.893   8.214 -0.4140 -1.5540  2.3250
 2101SOL     OW17935   1.354   1.431   6.813 -0.4274  0.3147 -0.3028
 2101SOL    HW117936   1.366   1.490   6.740  2.2187  1.5398  1.1491
 2101SOL    HW217937   1.383   1.494   6.878  2.5835 -1.4730  0.1174
 2102SOL     OW17938   4.178   4.299   0.326  0.4158  0.0218 -0.3168
 2102SOL    HW117939   4.200   4.218   0.280  0.3325 -0.5159  0.5825
 2102SOL    HW217940   4.238   4.366   0.294 -1.2604  0.8735 -1.6509
 2103SOL     OW17941   4.693   2.273   5.175  0.5191  0.7431  0.1716
 2103SOL    HW117942   0.033   2.251   5.229 -0.0992 -1.3940  0.1641
 2103SOL    HW217943   4.636   2.296   5.249 -0.8677  1.0503 -0.9873
 2104SOL     OW17944   0.330   2.217   0.127 -0.4624  0.0547 -0.4064
 2104SOL    HW117945   0.361   2.301   0.093 -0.5642 -0.1614 -1.0307
 2104SOL    HW217946   0.244   2.243   0.158 -1.2646 -2.5186 -0.4778
 2105SOL     OW17947   0.263   1.113   7.204 -0.0340  0.3156  0.2429
 2105SOL    HW117948   0.357   1.127   7.197 -0.3466  2.2984  0.0970
 2105SOL    HW217949   0.240   1.159   7.285 -0.3216  0.4660  0.0753
 2106SOL     OW17950   1.321   2.837   6.240 -0.1412 -0.2472  0.1688
 2106SOL    HW117951   1.250   2.845   6.177  0.5792  0.0849 -0.5902
 2106SOL    HW217952   1.277   2.836   6.325  0.4305 -1.5736  0.4474
 2107SOL     OW17953   0.553   3.766   6.787  0.0019  0.0262 -0.1018
 2107SOL    HW117954   0.648   3.770   6.794  0.0076 -1.7473  0.8912
 2107SOL    HW217955   0.543   3.738   6.696  0.7581  1.2430 -0.5564
 2108SOL     OW17956   3.923   0.788   5.285 -0.0538  0.2844 -0.1046
 2108SOL    HW117957   3.948   0.842   5.360 -0.9015 -0.1802  0.5111
 2108SOL    HW217958   3.845   0.756   5.329 -0.3905  0.4867 -0.5546
 2109SOL     OW17959   3.596   4.505   2.879 -0.3219  0.0142 -0.3329
 2109SOL    HW117960   3.611   4.595   2.910  0.6547  0.2683 -1.4827
 2109SOL    HW217961   3.513   4.486   2.921  0.0280  0.3304  0.4925
 2110SOL     OW17962   3.974   0.039   5.803  0.1222  0.2331 -0.5118
 2110SOL    HW117963   3.898   0.097   5.806 -0.3332 -0.2108 -3.2361
 2110SOL    HW217964   4.034   0.096   5.851  0.7751 -0.3769 -0.6202
 2111SOL     OW17965   2.222   1.627   2.301 -0.1141  0.0856  0.2054
 2111SOL    HW117966   2.146   1.683   2.320 -0.2373  0.1364 -0.4251
 2111SOL    HW217967   2.240   1.572   2.377 -1.6659  2.1316  2.0744
 2112SOL     OW17968   2.089   0.256  11.288 -0.4527  0.2996  0.0688
 2112SOL    HW117969   2.031   0.180  11.298 -0.8231  0.7747  1.5084
 2112SOL    HW217970   2.032   0.322  11.328 -1.6934  0.6526 -2.2551
 2113SOL     OW17971   0.413   4.730   9.887  0.2463 -0.3115  0.0164
 2113SOL    HW117972   0.474   4.669   9.928  1.4948  0.3418 -0.8610
 2113SOL    HW217973   0.329   4.725   9.932 -0.8125 -0.7040 -1.9908
 2114SOL     OW17974   4.279   3.959   4.713 -0.1981  0.8093 -0.0578
 2114SOL    HW117975   4.278   3.893   4.643  1.0521  0.4140  0.2987
 2114SOL    HW217976   4.241   3.917   4.791 -0.1633 -1.9140 -1.4937
 2115SOL     OW17977   3.331   0.081   1.725  0.0154 -0.3988  0.3963
 2115SOL    HW117978   3.372   0.075   1.812  2.3423  1.4563 -0.5638
 2115SOL    HW217979   3.276   0.003   1.717 -1.5663  0.9168 -1.3434
 2116SOL     OW17980   0.797   1.657   9.354  0.4674 -0.4168  0.3112
 2116SOL    HW117981   0.738   1.582   9.347  0.5038 -0.1949 -2.5901
 2116SOL    HW217982   0.848   1.655   9.273  1.0384  0.0494  0.6644
 2117SOL     OW17983   1.473   2.486   6.278  0.2500 -0.1318 -0.5257
 2117SOL    HW117984   1.382   2.473   6.306  0.3619  1.1203  0.4116
 2117SOL    HW217985   1.475   2.421   6.208  0.6167 -1.6587  0.8967
 2118SOL     OW17986   0.452   3.724   2.013  0.3101  0.0830 -0.1686
 2118SOL    HW117987   0.483   3.807   1.975  0.2118 -1.0758 -2.7535
 2118SOL    HW217988   0.479   3.731   2.105 -0.1864  1.2601 -0.1087
 2119SOL     OW17989   3.535   1.334   9.003 -0.2455 -0.0832  0.3724
 2119SOL    HW117990   3.477   1.260   9.021 -0.7233  0.1575 -0.1487
 2119SOL    HW217991   3.555   1.331   8.909 -0.5804  0.7364  0.2766
 2120SOL     OW17992   0.190   1.301   6.411  0.2079  0.2970 -0.5525
 2120SOL    HW117993   0.211   1.314   6.318  0.0761  1.0911 -0.4691
 2120SOL    HW217994   0.183   1.387   6.451  0.7704 -0.8403  1.9846
 2121SOL     OW17995   1.323   3.369   7.000 -0.3259 -0.4505  0.0025
 2121SOL    HW117996   1.319   3.442   7.061  1.9917  0.8953 -1.4285
 2121SOL    HW217997   1.398   3.394   6.946 -0.5837 -2.2099 -1.1956
 2122SOL     OW17998   0.460   2.602   8.408  0.1391 -0.3592  0.0269
 2122SOL    HW117999   0.538   2.635   8.452  1.2146 -0.0687 -2.0816
 2122SOL    HW218000   0.445   2.515   8.447 -0.9121  0.2233  0.9328
 2123SOL     OW18001   0.829   0.032  13.848 -0.8139  0.0828  0.0758
 2123SOL    HW118002   0.810   0.084  13.770 -3.1517 -0.1204  0.5130
 2123SOL    HW218003   0.909   4.726  13.816 -0.3422 -1.7046  3.5748
 2124SOL     OW18004   0.426   3.158   1.913 -0.4181  0.0661 -0.3917
 2124SOL    HW118005   0.448   3.066   1.902 -2.2003 -0.4931  0.7271
 2124SOL    HW218006   0.507   3.207   1.929  0.0840 -0.7780 -0.3771
 2125SOL     OW18007   1.634   3.256   4.809  0.5395 -0.0715 -0.1911
 2125SOL    HW118008   1.605   3.217   4.726 -0.0417  2.6218 -1.2489
 2125SOL    HW218009   1.720   3.214   4.813  0.7606  0.3379 -0.6468
 2126SOL     OW18010   3.385   4.143   6.868 -0.3459  0.6371 -0.2712
 2126SOL    HW118011   3.296   4.114   6.891 -1.5518  2.6109 -2.4750
 2126SOL    HW218012   3.406   4.183   6.952  1.0552  1.9553 -1.2550
 2127SOL     OW18013   2.855   2.435   2.635  0.2863  0.1416 -0.1686
 2127SOL    HW118014   2.887   2.358   2.681 -0.7812  0.4063  1.0148
 2127SOL    HW218015   2.935   2.470   2.595  0.4053 -1.5737 -1.4423
 2128SOL     OW18016   2.110   0.807   3.287 -0.3319  0.1827 -0.5357
 2128SOL    HW118017   2.069   0.836   3.206 -2.5661  1.6842  1.1331
 2128SOL    HW218018   2.051   0.744   3.329  1.2047 -0.6941  0.3186
 2129SOL     OW18019   0.826   3.176   1.013 -0.3690 -0.5247  0.0484
 2129SOL    HW118020   0.849   3.084   1.005 -0.9491 -0.7949  1.3140
 2129SOL    HW218021   0.897   3.214   0.962 -1.4005 -0.2840 -1.2033
 2130SOL     OW18022   0.637   1.909   5.118  0.0204  0.1587 -0.3115
 2130SOL    HW118023   0.632   1.954   5.033  1.0358  1.4668  0.3351
 2130SOL    HW218024   0.626   1.818   5.091  1.9771 -0.5053  1.1159
 2131SOL     OW18025   1.135   2.314  17.741 -0.8463 -0.5889 -0.4337
 2131SOL    HW118026   1.071   2.384   0.001 -1.1306 -0.9086  0.9412
 2131SOL    HW218027   1.083   2.237   0.022 -1.0302 -1.2058 -2.8342
 2132SOL     OW18028   0.096   4.593  13.427 -0.4006  0.1571 -0.5748
 2132SOL    HW118029   0.122   4.552  13.510  1.0541 -0.3708 -1.3008
 2132SOL    HW218030   0.016   4.637  13.456 -1.1514 -1.1865 -0.5876
 2133SOL     OW18031   2.766   3.363   6.790  0.0485 -0.5544 -0.0012
 2133SOL    HW118032   2.842   3.421   6.783 -0.3970 -0.2905 -2.6299
 2133SOL    HW218033   2.790   3.304   6.719  0.0766  1.1703 -1.4293
 2134SOL     OW18034   2.893   0.773  16.771 -0.1586  0.4464  0.2153
 2134SOL    HW118035   2.861   0.851  16.817 -0.4511  1.1035 -1.0900
 2134SOL    HW218036   2.856   0.784  16.683  0.3063  0.5815  0.0359
 2135SOL     OW18037   2.641   4.199   6.735 -0.1423  0.9000 -0.2948
 2135SOL    HW118038   2.640   4.175   6.642  1.1607  2.8060 -0.8023
 2135SOL    HW218039   2.724   4.246   6.730  1.5568 -2.0614  0.0121
 2136SOL     OW18040   3.690   1.858   6.444 -0.0519  0.5269 -0.7928
 2136SOL    HW118041   3.782   1.833   6.457 -0.7761 -2.1919 -0.8697
 2136SOL    HW218042   3.634   1.793   6.487 -0.0090  2.0585  1.5983
 2137SOL     OW18043   3.772   0.749   8.725 -0.4732  0.8728  0.2614
 2137SOL    HW118044   3.808   0.702   8.801 -2.7722  0.1810  0.9165
 2137SOL    HW218045   3.771   0.678   8.661  0.6661  2.4136 -1.4520
 2138SOL     OW18046   3.943   0.339   6.389  0.9645  0.0282 -0.0296
 2138SOL    HW118047   3.945   0.434   6.380  0.6657 -0.0737 -1.1300
 2138SOL    HW218048   3.856   0.321   6.426 -0.6727  0.0957 -3.8266
 2139SOL     OW18049   1.917   2.687   4.262 -0.0060  0.0876 -0.2906
 2139SOL    HW118050   1.964   2.676   4.344 -0.1053 -0.9760 -0.3735
 2139SOL    HW218051   1.969   2.751   4.213  1.5562 -1.4648 -0.6648
 2140SOL     OW18052   1.341   2.869  11.036  0.1454 -0.2055  0.3246
 2140SOL    HW118053   1.283   2.938  11.069  0.6258 -0.1303  1.0127
 2140SOL    HW218054   1.285   2.792  11.046  1.4560 -1.1495  0.3896
 2141SOL     OW18055   0.746   3.365   7.673  0.3018  0.6182 -0.0451
 2141SOL    HW118056   0.747   3.365   7.769 -1.6969  1.6985 -0.0098
 2141SOL    HW218057   0.680   3.433   7.659  0.6728  0.9943  0.0419
 2142SOL     OW18058   1.865   1.422  15.190  0.1771 -0.0292  0.0689
 2142SOL    HW118059   1.877   1.348  15.250 -1.4731  1.1178  1.8140
 2142SOL    HW218060   1.814   1.379  15.121  1.1068  0.0043 -0.6367
 2143SOL     OW18061   1.799   2.752   3.923 -0.2033 -0.0566 -0.2666
 2143SOL    HW118062   1.857   2.822   3.892  1.9777 -1.7562 -0.0185
 2143SOL    HW218063   1.743   2.790   3.991 -1.2217 -0.7446 -0.7205
 2144SOL     OW18064   3.060   2.886   6.024 -0.2676  0.1685 -0.7301
 2144SOL    HW118065   2.977   2.932   6.012 -0.0325  0.4351 -1.3490
 2144SOL    HW218066   3.110   2.967   6.040 -1.0524  0.2949  1.1652
 2145SOL     OW18067   2.774   1.406   4.410  0.0271 -0.2290 -0.3390
 2145SOL    HW118068   2.759   1.330   4.354 -1.2938 -0.2325 -0.0051
 2145SOL    HW218069   2.780   1.472   4.342  0.0637 -1.1233 -1.2048
 2146SOL     OW18070   0.909   2.845   5.377 -0.2406  0.3073 -0.2982
 2146SOL    HW118071   0.866   2.827   5.461  2.8254  1.5734  1.5276
 2146SOL    HW218072   0.972   2.772   5.381  0.6404  1.1285  0.7255
 2147SOL     OW18073   0.944   0.901   7.426  1.1081 -0.2985 -0.0942
 2147SOL    HW118074   0.889   0.876   7.353 -0.4367 -1.2045  1.3885
 2147SOL    HW218075   0.942   0.997   7.421 -0.0979 -0.3677 -0.8051
 2148SOL     OW18076   3.695   1.892   5.459 -0.0475  0.4333 -0.0620
 2148SOL    HW118077   3.713   1.880   5.365  0.5952  0.5232  0.0459
 2148SOL    HW218078   3.739   1.974   5.479  0.8388 -0.2538  0.8236
 2149SOL     OW18079   4.192   3.650   1.479 -0.4539 -0.3909  0.3884
 2149SOL    HW118080   4.212   3.564   1.517  0.1154 -0.7510 -0.7406
 2149SOL    HW218081   4.278   3.691   1.472 -0.9498  0.7475  0.9296
 2150SOL     OW18082   4.531   2.916   5.694  0.2793  0.0016  0.4992
 2150SOL    HW118083   4.617   2.890   5.728  0.9151 -1.6374 -2.3049
 2150SOL    HW218084   4.481   2.838   5.716 -1.0600  0.7415  0.0732
 2151SOL     OW18085   1.224   0.192   8.969 -0.1231 -0.4214  0.2869
 2151SOL    HW118086   1.280   0.222   8.897  1.0565  0.9443  1.7798
 2151SOL    HW218087   1.288   0.184   9.040 -1.8801  0.5077  1.9706
 2152SOL     OW18088   2.100   2.240   2.990 -0.0038 -0.2203 -0.5333
 2152SOL    HW118089   2.106   2.193   2.907  0.9226 -3.2941  1.2550
 2152SOL    HW218090   2.084   2.327   2.954  0.3579 -0.9654 -2.5225
 2153SOL     OW18091   1.605   1.697   7.217 -0.3138  1.0133  0.4613
 2153SOL    HW118092   1.701   1.698   7.215 -0.2904 -3.2394  0.1340
 2153SOL    HW218093   1.586   1.791   7.218  0.3432  1.1421  1.9416
 2154SOL     OW18094   3.701   2.968   5.893 -0.6044 -0.6294 -0.4174
 2154SOL    HW118095   3.680   2.999   5.805 -2.0620 -0.0413  0.1452
 2154SOL    HW218096   3.758   3.040   5.917  0.7587 -2.2255  1.1569
 2155SOL     OW18097   0.496   2.394   0.469  0.4918  0.4524  0.5114
 2155SOL    HW118098   0.490   2.488   0.489 -0.1049  0.3747  0.6965
 2155SOL    HW218099   0.589   2.398   0.447 -0.1419  0.5114 -2.1694
 2156SOL     OW18100   4.376   0.607   8.825 -0.2205 -0.1956 -0.5554
 2156SOL    HW118101   4.431   0.538   8.790 -0.1350 -1.4750  2.1265
 2156SOL    HW218102   4.302   0.553   8.852  0.1469  0.4836  1.8175
 2157SOL     OW18103   3.092   3.316   2.413 -0.0257 -0.5033 -0.1872
 2157SOL    HW118104   3.052   3.401   2.431  2.0832  0.0608  1.7957
 2157SOL    HW218105   3.079   3.273   2.497  0.1564 -2.3580 -1.1170
 2158SOL     OW18106   3.879   3.066   5.559 -0.2988 -0.3927  0.3686
 2158SOL    HW118107   3.842   3.041   5.474  0.9526  0.4610 -0.4366
 2158SOL    HW218108   3.807   3.049   5.619  0.4283  0.5801  1.4972
 2159SOL     OW18109   2.390   4.526   5.558 -0.2667  0.1025 -0.0007
 2159SOL    HW118110   2.471   4.477   5.567 -1.2830 -2.0079 -2.4954
 2159SOL    HW218111   2.415   4.614   5.588  0.7841 -0.6405  1.2955
 2160SOL     OW18112   3.462   4.381  12.390 -0.3543  0.2595 -0.1276
 2160SOL    HW118113   3.460   4.357  12.297  0.0097  2.6107 -0.7483
 2160SOL    HW218114   3.374   4.367  12.424  0.5314  1.3624  2.6481
 2161SOL     OW18115   3.708   0.648  13.444  0.2685  0.4582 -0.0545
 2161SOL    HW118116   3.725   0.560  13.412 -2.4962  0.5861 -1.8757
 2161SOL    HW218117   3.748   0.686  13.366  2.1975  1.4008  1.3819
 2162SOL     OW18118   1.635   0.176   3.074  0.0923 -0.7970  0.2939
 2162SOL    HW118119   1.615   0.119   3.000 -0.9877 -1.7424  1.3165
 2162SOL    HW218120   1.571   0.247   3.076  0.9852  0.0547 -2.1402
 2163SOL     OW18121   2.667   0.324   4.401 -0.1300 -0.3188 -0.4129
 2163SOL    HW118122   2.709   0.299   4.484  1.2769 -0.5807 -1.1989
 2163SOL    HW218123   2.592   0.366   4.443  0.4626  0.3756 -0.0422
 2164SOL     OW18124   4.029   0.077  14.457  0.1477  0.0308 -0.4269
 2164SOL    HW118125   4.043   0.091  14.550  0.7165 -1.6536 -0.2560
 2164SOL    HW218126   4.043   0.165  14.423 -1.7617  0.2464 -0.6921
 2165SOL     OW18127   4.040   4.486   6.051  0.4803 -0.4204 -0.0902
 2165SOL    HW118128   3.964   4.428   6.056  1.6194 -2.2116 -3.0982
 2165SOL    HW218129   3.998   4.561   6.009 -3.2998 -3.0281 -0.9902
 2166SOL     OW18130   0.155   0.497   6.322 -0.2411  0.0763 -0.2800
 2166SOL    HW118131   0.119   0.585   6.326 -0.8377 -0.1144 -1.4598
 2166SOL    HW218132   0.177   0.488   6.415  0.4267  1.0332 -0.3505
 2167SOL     OW18133   1.834   2.685   3.356 -0.1591  0.1135 -0.1049
 2167SOL    HW118134   1.796   2.750   3.296  0.4903  0.1849 -0.4431
 2167SOL    HW218135   1.918   2.730   3.364 -1.0827  2.2395 -2.1016
 2168SOL     OW18136   4.584   4.239   5.303  0.3544 -0.3853  0.0082
 2168SOL    HW118137   4.542   4.154   5.294  1.8704 -0.9178 -1.9908
 2168SOL    HW218138   4.601   4.264   5.212 -0.9299  1.9877  0.4302
 2169SOL     OW18139   3.604   2.493  10.465 -0.0657 -0.4883  0.5774
 2169SOL    HW118140   3.528   2.498  10.522 -0.5863 -0.0520 -0.1658
 2169SOL    HW218141   3.649   2.411  10.487  1.4887 -0.4261 -2.2951
 2170SOL     OW18142   2.065   2.286   4.084  0.4897  0.1409 -0.4735
 2170SOL    HW118143   2.028   2.231   4.015 -0.2451 -1.4938  1.2260
 2170SOL    HW218144   1.989   2.332   4.120 -0.8281 -0.4683 -2.4760
 2171SOL     OW18145   4.384   1.912  11.238 -0.3869  0.1037  0.0185
 2171SOL    HW118146   4.425   1.892  11.323 -0.6504  1.9561  0.5765
 2171SOL    HW218147   4.378   1.826  11.196 -1.7025  1.5403 -2.6962
 2172SOL     OW18148   2.545   3.651  15.259  0.4007 -0.0745  0.4866
 2172SOL    HW118149   2.450   3.637  15.257  0.1977  1.4650 -0.5276
 2172SOL    HW218150   2.559   3.653  15.353  1.2464  1.9969  0.3089
 2173SOL     OW18151   3.655   3.681   3.606 -0.1932 -0.7862  0.4382
 2173SOL    HW118152   3.648   3.648   3.696 -0.6425  0.6529  0.9418
 2173SOL    HW218153   3.566   3.715   3.612  0.5050  1.1068  0.0753
 2174SOL     OW18154   0.342   4.107   5.486 -0.0817 -0.0051 -0.9466
 2174SOL    HW118155   0.349   4.116   5.581 -0.2416  1.1406 -1.0330
 2174SOL    HW218156   0.273   4.170   5.461  0.2581  0.4858 -0.6565
 2175SOL     OW18157   1.576   0.050   0.155  0.2471  0.3449 -0.3238
 2175SOL    HW118158   1.488   0.088   0.154 -0.8893 -2.3276 -1.5925
 2175SOL    HW218159   1.585   0.046   0.060  0.6241 -1.5881 -0.1946
 2176SOL     OW18160   0.862   2.206   1.907  0.3249 -0.0621 -0.3857
 2176SOL    HW118161   0.793   2.150   1.944 -0.0133  0.7307  0.1716
 2176SOL    HW218162   0.928   2.138   1.892 -0.4669 -1.2901  1.6935
 2177SOL     OW18163   0.914   3.656   2.742 -0.3828  0.0929 -0.2718
 2177SOL    HW118164   0.888   3.737   2.786  1.1636  0.4257  0.0373
 2177SOL    HW218165   0.865   3.586   2.786 -0.1303  0.6307  0.8651
 2178SOL     OW18166   0.803   2.424   0.722  0.8179 -0.0784 -0.0602
 2178SOL    HW118167   0.826   2.516   0.735 -0.2632  0.2055 -0.1424
 2178SOL    HW218168   0.781   2.419   0.629  0.5874 -0.4405  0.0137
 2179SOL     OW18169   0.405   2.663   0.456  0.2115 -0.5632  0.2293
 2179SOL    HW118170   0.374   2.704   0.537 -2.6418  2.2246 -2.2210
 2179SOL    HW218171   0.396   2.744   0.405 -0.6048 -0.9154 -0.1941
 2180SOL     OW18172   2.332   0.350   7.530 -0.2212  0.1659 -0.4337
 2180SOL    HW118173   2.316   0.372   7.622  1.1483  0.9166 -0.3735
 2180SOL    HW218174   2.371   0.430   7.495  0.0906  0.1885 -0.0336
 2181SOL     OW18175   0.804   3.908   3.549  0.2768 -0.1423 -0.1529
 2181SOL    HW118176   0.792   3.824   3.505 -0.0816  0.3642 -1.0207
 2181SOL    HW218177   0.792   3.890   3.642  0.3658 -1.0944 -0.3236
 2182SOL     OW18178   0.574   1.657   4.153  0.5706 -0.6684 -0.4120
 2182SOL    HW118179   0.571   1.566   4.183 -1.4402 -0.6072 -0.4155
 2182SOL    HW218180   0.620   1.657   4.069  0.4310  0.1893 -0.4905
 2183SOL     OW18181   4.285   2.311   1.288  0.2512 -0.5959  0.2193
 2183SOL    HW118182   4.326   2.397   1.293  1.6678 -1.1694 -1.3653
 2183SOL    HW218183   4.334   2.259   1.352  0.3937  2.4837  2.5987
 2184SOL     OW18184   2.110   2.179   2.280  0.2241 -0.1339 -0.2012
 2184SOL    HW118185   2.188   2.137   2.244  0.5742  0.8369 -0.5663
 2184SOL    HW218186   2.080   2.220   2.199 -0.1229  0.1016  0.0437
 2185SOL     OW18187   3.136   3.300  15.147  0.3623 -0.3278  0.0815
 2185SOL    HW118188   3.180   3.380  15.178 -0.5398  0.4756 -0.6992
 2185SOL    HW218189   3.042   3.316  15.143  0.0470 -2.6344 -1.7831
 2186SOL     OW18190   1.291   2.148   6.418  0.3612  0.2446 -0.3318
 2186SOL    HW118191   1.280   2.155   6.323 -1.3047 -1.9834 -0.2934
 2186SOL    HW218192   1.199   2.158   6.440  0.0070 -2.6268 -0.5867
 2187SOL     OW18193   1.684   0.818   9.916  0.3345 -0.2535 -0.5998
 2187SOL    HW118194   1.764   0.870   9.926 -0.1043  0.2230  0.4283
 2187SOL    HW218195   1.716   0.728   9.924  1.7603  0.0349 -2.9717
 2188SOL     OW18196   1.803   1.700  15.916 -0.0686 -0.6347 -0.3733
 2188SOL    HW118197   1.886   1.653  15.906  0.5801  0.6137 -0.7225
 2188SOL    HW218198   1.820   1.721  16.008  2.6990  1.5779 -1.4340
 2189SOL     OW18199   3.447   1.451   2.396 -0.3390  0.9787 -0.1339
 2189SOL    HW118200   3.411   1.464   2.484 -0.2255 -2.3466  0.3955
 2189SOL    HW218201   3.367   1.443   2.345 -0.4664 -3.2175  0.7377
 2190SOL     OW18202   0.591   2.525   5.080 -0.9669  0.3536  0.7998
 2190SOL    HW118203   0.600   2.551   5.172 -0.2537 -0.6176  1.0096
 2190SOL    HW218204   0.658   2.578   5.038  0.5270 -0.0310  2.7086
 2191SOL     OW18205   1.235   3.756   2.911 -0.1143  0.5426 -0.2361
 2191SOL    HW118206   1.237   3.662   2.926  0.6110  0.9725  2.3796
 2191SOL    HW218207   1.329   3.772   2.902  0.2598 -1.1924  0.5394
 2192SOL     OW18208   1.792   4.054   6.284 -0.4588 -0.2404  0.3075
 2192SOL    HW118209   1.802   4.065   6.378  1.4269 -0.7261  0.1676
 2192SOL    HW218210   1.784   4.144   6.253 -1.0411 -0.0292  1.0544
 2193SOL     OW18211   0.798   2.862  14.742  0.1498  0.0574  0.0755
 2193SOL    HW118212   0.841   2.860  14.828  0.8636  2.3187 -0.2275
 2193SOL    HW218213   0.826   2.779  14.705  0.5718 -0.5209  1.6800
 2194SOL     OW18214   3.640   3.718   4.032 -0.2741 -0.0406 -0.3381
 2194SOL    HW118215   3.634   3.810   4.005 -0.7579  0.4271  1.3315
 2194SOL    HW218216   3.666   3.725   4.124  1.6678 -1.0520 -0.8148
 2195SOL     OW18217   3.776   2.572   4.513  0.2940 -0.1191  0.5863
 2195SOL    HW118218   3.849   2.518   4.485  0.7802  1.3464 -0.9844
 2195SOL    HW218219   3.768   2.630   4.437 -1.8119 -2.0930 -0.6842
 2196SOL     OW18220   1.207   3.983   3.425 -0.3908  0.3991  0.0936
 2196SOL    HW118221   1.196   3.964   3.332 -0.3796  3.1381 -0.4476
 2196SOL    HW218222   1.286   4.036   3.432  0.7952 -1.4213  0.7801
 2197SOL     OW18223   1.347   3.659   3.199 -0.0304  0.3341  0.6342
 2197SOL    HW118224   1.324   3.567   3.186 -2.4077  0.9900  0.1017
 2197SOL    HW218225   1.403   3.680   3.124  1.4785 -0.3273  1.5864
 2198SOL     OW18226   4.517   3.737   4.713 -0.7732 -0.0333  0.2203
 2198SOL    HW118227   4.592   3.680   4.694 -0.4773  0.2419  0.5622
 2198SOL    HW218228   4.446   3.679   4.742 -1.0452 -0.4013 -1.2022
 2199SOL     OW18229   2.683   1.615   8.045  0.2929 -0.0167  0.5043
 2199SOL    HW118230   2.622   1.572   8.105 -0.3863 -0.9817 -0.8472
 2199SOL    HW218231   2.720   1.685   8.097 -0.9445 -0.6603  2.2485
 2200SOL     OW18232   0.277   0.415  10.008 -0.5031 -0.0138 -0.0855
 2200SOL    HW118233   0.340   0.367   9.954 -0.4716 -0.3026  0.2017
 2200SOL    HW218234   0.231   0.465   9.941  1.1459  2.6867  0.7808
 2201SOL     OW18235   4.420   4.510   3.787  0.5068  0.1056  0.1811
 2201SOL    HW118236   4.443   4.544   3.700  0.2778 -1.0877 -0.3560
 2201SOL    HW218237   4.499   4.517   3.841  0.9001 -0.2280 -0.3490
 2202SOL     OW18238   1.076   3.640   9.010 -0.2622 -0.1373 -0.2027
 2202SOL    HW118239   0.983   3.641   8.990 -0.5646  1.9115  1.3888
 2202SOL    HW218240   1.080   3.637   9.105  0.4536  0.9537 -0.1959
 2203SOL     OW18241   1.101   1.563   8.050 -0.4671 -0.6100  0.3066
 2203SOL    HW118242   1.047   1.520   8.116 -2.7982 -2.5892 -2.9054
 2203SOL    HW218243   1.171   1.589   8.111  1.7437 -0.5514 -2.2737
 2204SOL     OW18244   1.516   1.734   8.808 -0.5367 -0.0503  0.8132
 2204SOL    HW118245   1.533   1.672   8.737  1.7600 -0.1971  1.4943
 2204SOL    HW218246   1.601   1.778   8.809 -0.3313 -0.4777  2.6464
 2205SOL     OW18247   4.270   1.894   8.504  0.1517  0.3660  0.2927
 2205SOL    HW118248   4.239   1.966   8.559  0.7136  0.1885  0.8586
 2205SOL    HW218249   4.363   1.898   8.528  0.0813 -0.1140  0.6344
 2206SOL     OW18250   0.682   2.860   2.129  0.3437 -0.0722 -0.7034
 2206SOL    HW118251   0.713   2.942   2.168 -1.4395  0.3986 -0.2923
 2206SOL    HW218252   0.684   2.797   2.201  2.2317  1.8398  0.9549
 2207SOL     OW18253   4.302   0.341   4.844 -0.0865 -0.4140  0.0382
 2207SOL    HW118254   4.377   0.354   4.786 -0.3038  1.7563  0.2308
 2207SOL    HW218255   4.269   0.254   4.821  0.6216 -0.1268 -2.0078
 2208SOL     OW18256   2.884   1.548   4.660 -0.0994  0.6055 -0.1753
 2208SOL    HW118257   2.853   1.476   4.605  2.2433  0.0811 -0.8026
 2208SOL    HW218258   2.873   1.504   4.744  2.6088 -1.5419 -0.9367
 2209SOL     OW18259   2.871   0.783  13.657 -0.1629 -0.4286  0.1529
 2209SOL    HW118260   2.944   0.733  13.694  2.1516  3.2270  0.4933
 2209SOL    HW218261   2.799   0.760  13.715  0.8848 -0.3264  1.4785
 2210SOL     OW18262   0.846   1.754   6.752  0.6594 -0.2164  0.5246
 2210SOL    HW118263   0.928   1.760   6.801  0.4422  0.2918  0.8245
 2210SOL    HW218264   0.806   1.679   6.797 -0.9497  0.5802  0.4058
 2211SOL     OW18265   1.736   0.414   9.468  0.4832  0.1985  0.2202
 2211SOL    HW118266   1.646   0.382   9.476 -0.6454  3.1628 -0.4783
 2211SOL    HW218267   1.731   0.477   9.540  0.7705 -2.1702  2.3046
 2212SOL     OW18268   2.661   4.503   2.999 -0.2265  0.2945 -0.6421
 2212SOL    HW118269   2.623   4.443   3.063  0.0185  0.5963 -0.2236
 2212SOL    HW218270   2.609   4.494   2.919 -0.5268  0.1130 -0.4258
 2213SOL     OW18271   3.651   1.060   4.829  0.0024 -0.0733  0.1985
 2213SOL    HW118272   3.578   1.102   4.875 -0.1714  0.0960 -0.2339
 2213SOL    HW218273   3.659   1.128   4.762  1.3167  0.3522  0.7684
 2214SOL     OW18274   3.868   0.360   3.277 -0.6386 -0.4691 -0.4020
 2214SOL    HW118275   3.877   0.292   3.344  0.0475 -0.6488 -0.6732
 2214SOL    HW218276   3.955   0.401   3.273 -1.3459  1.2503  1.7924
 2215SOL     OW18277   2.244   2.622   8.386  0.7071  0.1632  0.0205
 2215SOL    HW118278   2.285   2.638   8.301 -2.5071  3.0866 -0.9703
 2215SOL    HW218279   2.289   2.692   8.431 -0.5660  0.8391  0.2493
 2216SOL     OW18280   4.178   3.920  11.731 -0.5427  0.5249  0.5561
 2216SOL    HW118281   4.227   3.874  11.662 -1.0070 -0.3627  0.8191
 2216SOL    HW218282   4.209   4.007  11.707 -1.3369  0.9939  1.2353
 2217SOL     OW18283   2.257   0.559   4.134  0.0768  0.2611  0.8332
 2217SOL    HW118284   2.194   0.629   4.152  0.8463  0.5010  2.5807
 2217SOL    HW218285   2.221   0.537   4.048 -2.3597 -0.3731  2.0319
 2218SOL     OW18286   1.890   2.268   7.920  0.3802  0.1348  0.3925
 2218SOL    HW118287   1.879   2.215   7.841  0.8511  0.4593  0.1070
 2218SOL    HW218288   1.859   2.352   7.886  0.1712 -0.5679 -1.1329
 2219SOL     OW18289   0.019   2.422   9.553  0.3879 -0.4262  0.5659
 2219SOL    HW118290   4.691   2.429   9.481  0.0596 -0.0538  0.8963
 2219SOL    HW218291   0.001   2.333   9.582  0.3723 -0.3160  0.8932
 2220SOL     OW18292   3.280   0.650   1.422 -0.5289 -0.2323  0.0231
 2220SOL    HW118293   3.347   0.587   1.396 -1.8111 -1.1980 -0.9709
 2220SOL    HW218294   3.295   0.674   1.513  0.1335 -0.9230  0.0962
 2221SOL     OW18295   0.436   4.672   7.577  0.2790  0.0252 -0.0605
 2221SOL    HW118296   0.422   0.029   7.592  0.2517  0.1297 -0.7285
 2221SOL    HW218297   0.371   4.646   7.511 -2.0927  0.8412  1.9752
 2222SOL     OW18298   2.418   0.573  17.189 -0.5402 -0.2465 -0.2762
 2222SOL    HW118299   2.431   0.540  17.101  1.5380 -0.3806  0.0760
 2222SOL    HW218300   2.509   0.565  17.217 -0.8295  1.9211  1.3574
 2223SOL     OW18301   0.059   4.736  11.676 -0.2179 -0.2573  0.0851
 2223SOL    HW118302   0.136   4.679  11.671  0.9719  1.4579 -0.8987
 2223SOL    HW218303   0.006   4.675  11.728  0.3363  1.9056  3.1749
 2224SOL     OW18304   2.742   0.184   6.026 -0.1293 -0.3470 -0.2050
 2224SOL    HW118305   2.750   0.091   6.007 -0.2313 -0.4965  0.4971
 2224SOL    HW218306   2.695   0.170   6.108  0.2470  0.7566  0.2053
 2225SOL     OW18307   3.726   4.605   0.373 -0.3996  0.1815 -0.2731
 2225SOL    HW118308   3.808   4.574   0.337 -0.1566  0.2113  0.2575
 2225SOL    HW218309   3.756   4.674   0.433 -1.3022 -0.4000  0.8656
 2226SOL     OW18310   3.454   2.699   0.638  0.2612 -0.1534  0.6099
 2226SOL    HW118311   3.545   2.708   0.611 -0.5399  1.0556 -1.6017
 2226SOL    HW218312   3.456   2.608   0.669 -0.7446 -0.8861 -1.4374
 2227SOL     OW18313   2.678   4.326   2.464  0.2716 -0.2949  0.0034
 2227SOL    HW118314   2.598   4.273   2.468  0.1651 -0.2757 -1.6811
 2227SOL    HW218315   2.739   4.267   2.419  0.9427 -0.1542  0.7321
 2228SOL     OW18316   2.330   0.313   9.902 -0.5960  0.7412  0.1288
 2228SOL    HW118317   2.407   0.287   9.851 -0.6349  2.1554 -0.6635
 2228SOL    HW218318   2.380   0.379   9.950  0.5863  0.9357 -1.3460
 2229SOL     OW18319   3.414   2.589   3.904  0.6265 -0.2283  0.3019
 2229SOL    HW118320   3.366   2.575   3.823 -1.2835  0.7571  1.2434
 2229SOL    HW218321   3.383   2.515   3.955 -0.5414 -0.7655 -1.2091
 2230SOL     OW18322   3.032   0.142   1.733  0.2867 -0.3184  0.2444
 2230SOL    HW118323   3.052   0.201   1.660 -0.5317  0.9812  1.0762
 2230SOL    HW218324   3.113   0.155   1.781  0.4401 -1.9887  0.4252
 2231SOL     OW18325   1.715   2.838   0.306 -0.3046  0.1174 -0.2797
 2231SOL    HW118326   1.767   2.773   0.260 -0.4170  0.6056 -1.0948
 2231SOL    HW218327   1.660   2.871   0.235  0.9131  2.3155 -0.1990
 2232SOL     OW18328   3.263   0.983   4.729 -0.0142  0.1561  0.3332
 2232SOL    HW118329   3.204   1.029   4.669  0.9559 -0.5839 -1.1885
 2232SOL    HW218330   3.333   0.956   4.669 -1.3775 -1.5471 -0.4850
 2233SOL     OW18331   3.946   2.497   6.477 -0.2725 -0.4080  0.4638
 2233SOL    HW118332   4.026   2.480   6.427 -0.9536 -0.7810 -0.5041
 2233SOL    HW218333   3.955   2.436   6.550  2.1718 -0.1778  0.3358
 2234SOL     OW18334   0.250   1.468  16.164 -0.1723 -0.4619  0.3782
 2234SOL    HW118335   0.309   1.462  16.089  1.7158 -1.3026  1.9360
 2234SOL    HW218336   0.165   1.469  16.119 -0.8512  0.2592  1.6678
 2235SOL     OW18337   2.066   1.584   0.659 -0.1564 -0.1094  0.1905
 2235SOL    HW118338   2.094   1.662   0.611 -0.1950  1.0631  2.0554
 2235SOL    HW218339   2.044   1.621   0.745 -1.7477 -0.4944 -0.0402
 2236SOL     OW18340   2.670   1.438   9.205 -0.1368  0.4344  0.3984
 2236SOL    HW118341   2.647   1.424   9.297 -1.5040 -0.9259 -0.1434
 2236SOL    HW218342   2.586   1.407   9.169  0.7328 -2.4454  0.8445
 2237SOL     OW18343   1.814   0.700   2.786  0.0148 -0.4145  0.6890
 2237SOL    HW118344   1.905   0.710   2.755 -0.1068 -2.8858 -0.4633
 2237SOL    HW218345   1.807   0.607   2.766 -1.2089 -0.7867  2.8326
 2238SOL     OW18346   4.212   4.451  11.638  0.2790 -0.3412 -0.5507
 2238SOL    HW118347   4.297   4.461  11.594 -0.7608 -1.2461 -2.7482
 2238SOL    HW218348   4.228   4.365  11.677  1.1018  0.4226  0.7972
 2239SOL     OW18349   1.743   2.883   7.157  0.3835 -0.4069 -0.7792
 2239SOL    HW118350   1.694   2.878   7.075  0.4673 -0.8092 -0.8030
 2239SOL    HW218351   1.750   2.791   7.182 -0.8627 -0.0362  0.9474
 2240SOL     OW18352   4.205   1.668   4.891  0.1200 -0.0573 -0.0833
 2240SOL    HW118353   4.110   1.681   4.883  0.2534  0.9570  0.0469
 2240SOL    HW218354   4.205   1.577   4.922 -0.2003 -0.3531 -0.9532
 2241SOL     OW18355   2.732   2.130   3.690 -0.1183 -0.0164  0.2017
 2241SOL    HW118356   2.737   2.214   3.735 -1.5207  0.6588 -0.8889
 2241SOL    HW218357   2.758   2.078   3.765 -0.7696 -0.8627 -0.1594
 2242SOL     OW18358   3.987   0.506  16.443  0.1113  0.2564  0.6883
 2242SOL    HW118359   4.037   0.586  16.454  1.3843 -0.7380  2.1325
 2242SOL    HW218360   3.931   0.525  16.368  0.0393  1.7208  1.1145
 2243SOL     OW18361   1.603   3.262   9.282 -0.2215 -0.0494 -0.8004
 2243SOL    HW118362   1.552   3.229   9.356  0.8278 -0.4499 -0.2637
 2243SOL    HW218363   1.572   3.214   9.205 -0.2124 -0.2807 -0.6625
 2244SOL     OW18364   3.317   4.662   9.153 -0.3918  0.1140  0.2981
 2244SOL    HW118365   3.322   0.021   9.164 -0.1628  0.4671 -2.9969
 2244SOL    HW218366   3.315   4.640   9.247 -1.7887  0.7502  0.4162
 2245SOL     OW18367   3.477   3.421   1.174  0.2739 -0.8773  0.0564
 2245SOL    HW118368   3.565   3.388   1.191  1.0364  1.1616  0.0299
 2245SOL    HW218369   3.460   3.474   1.252 -0.4023  1.9050 -1.9702
 2246SOL     OW18370   4.236   2.019  12.385  0.2104 -0.4851 -0.4291
 2246SOL    HW118371   4.287   2.000  12.463 -2.1111  0.7633  1.3671
 2246SOL    HW218372   4.229   1.929  12.352  0.2778 -0.7782  0.3652
 2247SOL     OW18373   3.177   4.190   1.487 -0.0516  0.3838 -0.6073
 2247SOL    HW118374   3.164   4.268   1.540  0.4876 -0.4062  0.6659
 2247SOL    HW218375   3.271   4.171   1.487 -0.3362 -0.9486  2.1443
 2248SOL     OW18376   1.714   1.958   5.605  0.1166  0.4998  0.0526
 2248SOL    HW118377   1.794   1.911   5.581 -0.4910 -0.9414  0.8253
 2248SOL    HW218378   1.728   2.032   5.546  1.3814 -1.4786 -2.1319
 2249SOL     OW18379   0.351   2.594   3.112  0.4330 -0.2429  0.0802
 2249SOL    HW118380   0.317   2.523   3.057 -2.2587  0.8212  0.4077
 2249SOL    HW218381   0.310   2.568   3.195  1.7564  1.5074  1.2914
 2250SOL     OW18382   1.629   3.485   5.331 -0.3704 -0.5504  0.2383
 2250SOL    HW118383   1.650   3.416   5.394  1.0884  0.0431  0.3911
 2250SOL    HW218384   1.534   3.497   5.340 -0.3298 -1.2745  1.6906
 2251SOL     OW18385   2.065   0.740   4.173 -0.4241 -0.5385 -0.1217
 2251SOL    HW118386   1.977   0.757   4.140  0.8637  2.1922 -2.2053
 2251SOL    HW218387   2.052   0.671   4.238  0.8061 -0.5670  0.1057
 2252SOL     OW18388   4.084   2.098   2.316 -0.1470  0.1680 -0.0764
 2252SOL    HW118389   4.004   2.061   2.277 -0.1701  1.7562 -1.5386
 2252SOL    HW218390   4.109   2.016   2.359  1.9577  0.1088 -1.4371
 2253SOL     OW18391   1.880   1.461   3.169  0.4423 -0.0446 -0.1941
 2253SOL    HW118392   1.917   1.377   3.142  0.3149  0.1468 -0.9610
 2253SOL    HW218393   1.785   1.453   3.155  0.3869 -1.0283  0.7345
 2254SOL     OW18394   4.711   4.075   7.282  0.0611 -0.1394 -0.2724
 2254SOL    HW118395   4.668   4.110   7.360  1.8603 -0.7297  0.9766
 2254SOL    HW218396   0.060   4.049   7.316  0.6942  0.9876 -0.9997
 2255SOL     OW18397   3.929   1.363   5.316 -0.0776 -0.7616 -0.2305
 2255SOL    HW118398   3.973   1.432   5.366 -1.3211  2.5912 -3.8224
 2255SOL    HW218399   3.855   1.404   5.273  0.3097 -0.2210 -0.3714
 2256SOL     OW18400   1.557   3.534   0.481 -0.3974 -0.1076  0.0013
 2256SOL    HW118401   1.524   3.523   0.391  0.0394 -3.3646  0.2400
 2256SOL    HW218402   1.633   3.587   0.456  1.3675 -1.7275  1.9964
 2257SOL     OW18403   3.257   0.306   8.035  0.3484  0.4636  0.0779
 2257SOL    HW118404   3.162   0.310   8.026  0.2928  0.8714  0.8382
 2257SOL    HW218405   3.264   0.367   8.108 -0.5806 -2.4236  2.5648
 2258SOL     OW18406   3.117   3.719   4.506 -0.6216  0.3149  0.0269
 2258SOL    HW118407   3.186   3.730   4.572  0.6047 -1.4297 -0.9615
 2258SOL    HW218408   3.040   3.731   4.562 -0.4226 -0.7233  0.5362
 2259SOL     OW18409   2.876   1.536   8.517  0.7260  0.1149 -0.2527
 2259SOL    HW118410   2.878   1.527   8.612 -0.9208  1.2387 -0.1043
 2259SOL    HW218411   2.929   1.615   8.505  0.8519  0.0717  0.0190
 2260SOL     OW18412   4.612   2.359   4.667  0.8382  0.1169  0.0729
 2260SOL    HW118413   4.543   2.404   4.715  1.3925  0.5600  0.4588
 2260SOL    HW218414   4.655   2.318   4.743 -1.5406  0.0123  1.3680
 2261SOL     OW18415   4.154   0.632   2.527  0.0891 -0.3824 -0.2585
 2261SOL    HW118416   4.232   0.638   2.582 -0.4242  2.7293  0.1541
 2261SOL    HW218417   4.190   0.646   2.440  1.1361 -0.9763  0.0799
 2262SOL     OW18418   1.727   3.880   8.090  0.4042 -0.0664  0.6307
 2262SOL    HW118419   1.688   3.929   8.018  0.7157  1.0675  1.2430
 2262SOL    HW218420   1.744   3.798   8.042 -0.2019  0.9760 -1.3733
 2263SOL     OW18421   4.717   4.658   9.250 -0.3295  0.3673  0.2880
 2263SOL    HW118422   0.040   4.712   9.303  1.8408  0.3677 -2.1007
 2263SOL    HW218423   0.003   4.571   9.283 -1.8420  0.3321  1.1725
 2264SOL     OW18424   0.213   1.559   8.534 -0.4023  0.1305 -0.6331
 2264SOL    HW118425   0.187   1.468   8.548 -2.6012  0.9209  0.4535
 2264SOL    HW218426   0.257   1.576   8.618 -1.8111 -1.0472  0.3528
 2265SOL     OW18427   0.375   2.348   5.153  0.4806 -0.3127 -0.7695
 2265SOL    HW118428   0.412   2.264   5.181 -1.1485 -0.2611  1.5205
 2265SOL    HW218429   0.457   2.395   5.135  2.4717 -4.0477 -1.3316
 2266SOL     OW18430   1.499   2.204  10.654 -0.1898  0.3887 -0.7494
 2266SOL    HW118431   1.503   2.121  10.700  1.7655  1.0055  0.1897
 2266SOL    HW218432   1.585   2.243  10.671  1.3053 -3.3021  0.0410
 2267SOL     OW18433   1.066   2.015   2.907 -0.1605  0.1227 -0.6212
 2267SOL    HW118434   1.032   2.037   2.821 -1.1774  0.1498 -0.2131
 2267SOL    HW218435   0.998   2.055   2.961  1.7417  1.6692  0.6365
 2268SOL     OW18436   1.374   3.504   1.972  0.2081 -0.2419 -0.6643
 2268SOL    HW118437   1.381   3.532   2.064  1.0885 -0.6862 -0.5922
 2268SOL    HW218438   1.283   3.477   1.972  0.1541 -0.0801  3.4111
 2269SOL     OW18439   1.536   1.669   7.848 -0.1024  0.2059 -0.2265
 2269SOL    HW118440   1.603   1.711   7.902 -0.8180  2.8740 -1.4146
 2269SOL    HW218441   1.513   1.603   7.913 -0.8195  0.4441 -0.2389
 2270SOL     OW18442   1.171   3.032   6.690 -0.1060  0.7809  0.3252
 2270SOL    HW118443   1.202   2.942   6.694  0.9115  1.0731 -1.0172
 2270SOL    HW218444   1.195   3.076   6.772  0.6533  2.2575 -0.6866
 2271SOL     OW18445   2.473   4.393   9.125  0.1203  0.2853 -0.1918
 2271SOL    HW118446   2.475   4.300   9.105  0.2002 -0.0648  1.3977
 2271SOL    HW218447   2.463   4.425   9.036  0.7714 -1.2186 -0.7966
 2272SOL     OW18448   1.800   1.980   9.320 -0.5740 -0.1269 -0.4392
 2272SOL    HW118449   1.737   1.984   9.392 -0.6886  1.7264 -0.6498
 2272SOL    HW218450   1.824   2.072   9.317  0.9777 -0.4997  0.8665
 2273SOL     OW18451   4.607   0.518   8.665 -0.4348  0.8634 -0.0099
 2273SOL    HW118452   4.611   0.613   8.653 -0.3718  1.0045  1.1173
 2273SOL    HW218453   4.668   0.508   8.738  0.2809  0.2018 -0.7086
 2274SOL     OW18454   1.755   0.831  15.785  0.3179  0.4205  0.4782
 2274SOL    HW118455   1.708   0.903  15.744 -0.0541  0.2891  0.6811
 2274SOL    HW218456   1.744   0.763  15.718 -0.1872  0.7606  0.2188
 2275SOL     OW18457   1.285   1.847  15.527 -0.3828  0.0810  0.0403
 2275SOL    HW118458   1.343   1.923  15.532 -0.6603  0.2756  0.2590
 2275SOL    HW218459   1.270   1.819  15.617  3.4026  0.7769  0.9247
 2276SOL     OW18460   0.832   1.571   2.118  0.4809  0.0217 -0.0093
 2276SOL    HW118461   0.777   1.542   2.191  2.6008 -0.4299  1.3818
 2276SOL    HW218462   0.795   1.531   2.039 -0.0468 -0.9622  0.7365
 2277SOL     OW18463   3.303   1.371   6.653 -0.1016 -0.2632 -0.0328
 2277SOL    HW118464   3.243   1.382   6.727 -0.2818 -1.2740 -0.0248
 2277SOL    HW218465   3.377   1.428   6.671 -0.3668  0.6452 -1.7970
 2278SOL     OW18466   3.754   0.725   1.882 -0.2272 -0.2585 -0.0317
 2278SOL    HW118467   3.758   0.632   1.862  1.1736 -0.4619  1.1338
 2278SOL    HW218468   3.677   0.728   1.938 -1.2659  1.3045 -1.5433
 2279SOL     OW18469   4.200   0.250  12.652 -0.2489 -0.2008 -0.1258
 2279SOL    HW118470   4.236   0.162  12.659  0.6122  0.0833 -1.0354
 2279SOL    HW218471   4.162   0.252  12.740 -2.0414  0.8461 -0.9127
 2280SOL     OW18472   0.793   3.789   6.843 -0.3164  0.2675  0.0132
 2280SOL    HW118473   0.783   3.874   6.886 -0.0872  0.0532  0.4901
 2280SOL    HW218474   0.821   3.729   6.912  1.4408  0.6050 -0.4138
 2281SOL     OW18475   0.024   4.114   6.897 -0.7814 -0.1856  0.2457
 2281SOL    HW118476   0.110   4.078   6.919 -0.4420  0.5875  0.1581
 2281SOL    HW218477   4.736   4.055   6.826  0.8002 -0.4979 -0.0328
 2282SOL     OW18478   4.657   0.802   0.077  0.2916 -0.2262 -1.0717
 2282SOL    HW118479   4.688   0.885   0.041 -0.4035  1.9548  3.3441
 2282SOL    HW218480   4.566   0.797   0.048  0.5957 -1.0578 -1.8878
 2283SOL     OW18481   4.458   0.051  16.009  0.6960  0.1494 -0.2454
 2283SOL    HW118482   4.474   0.091  16.094  1.3871 -1.4221  0.3735
 2283SOL    HW218483   4.381   4.730  16.018  1.2917 -0.4252  1.2395
 2284SOL     OW18484   2.767   3.884   9.127  0.1894  0.2640  0.3691
 2284SOL    HW118485   2.782   3.870   9.034  0.4641 -0.0794  0.4671
 2284SOL    HW218486   2.683   3.930   9.131  0.2130  0.4693 -1.7586
 2285SOL     OW18487   0.839   1.713   3.891  0.3333 -0.4605  0.0559
 2285SOL    HW118488   0.894   1.675   3.959  0.1117  0.7935  0.9455
 2285SOL    HW218489   0.892   1.687   3.816 -0.2929 -0.4865 -0.3803
 2286SOL     OW18490   0.908   4.126   6.507 -0.1133 -0.4058  0.1805
 2286SOL    HW118491   0.927   4.100   6.597 -0.8280 -0.2195  0.3859
 2286SOL    HW218492   0.967   4.201   6.496 -0.2143 -0.3409  0.0913
 2287SOL     OW18493   2.446   2.161   4.694  0.0519 -0.3194  0.2153
 2287SOL    HW118494   2.379   2.201   4.639 -0.2332 -0.4543  0.4636
 2287SOL    HW218495   2.520   2.158   4.633 -0.5167  2.5429 -0.6246
 2288SOL     OW18496   1.804   3.430   9.340  0.6350 -0.1364 -0.0460
 2288SOL    HW118497   1.733   3.366   9.344 -1.8058  2.4332 -2.0245
 2288SOL    HW218498   1.835   3.424   9.430 -1.6409  1.5865  0.8509
 2289SOL     OW18499   2.172   1.742   5.406 -0.3280 -0.2897  0.2658
 2289SOL    HW118500   2.242   1.694   5.451 -0.4423 -0.7597 -0.0603
 2289SOL    HW218501   2.155   1.682   5.333  0.3851 -0.1189 -0.0320
 2290SOL     OW18502   1.104   1.903   0.278  0.6372  0.0898  0.3796
 2290SOL    HW118503   1.102   1.905   0.374 -1.8440 -1.3534  0.3581
 2290SOL    HW218504   1.102   1.810   0.256  1.6442  0.5657 -1.6781
 2291SOL     OW18505   1.409   3.818   5.056  0.4895 -0.0132 -0.1475
 2291SOL    HW118506   1.436   3.905   5.082 -1.4314  1.0693 -1.7378
 2291SOL    HW218507   1.488   3.766   5.070  1.3134  1.1712 -0.4021
 2292SOL     OW18508   0.229   0.011   1.937  0.5914  0.4111 -0.3076
 2292SOL    HW118509   0.310   0.054   1.911  1.2276  0.1122  1.1588
 2292SOL    HW218510   0.260   4.672   1.989 -0.4177 -0.9927 -1.7190
 2293SOL     OW18511   3.412   2.615   4.398  0.1653 -0.1964 -0.3327
 2293SOL    HW118512   3.495   2.629   4.353 -0.8390 -0.9168 -2.4561
 2293SOL    HW218513   3.377   2.704   4.401 -0.2111 -0.3261 -0.8540
 2294SOL     OW18514   3.629   3.441   9.018 -0.0791  0.5634  0.0488
 2294SOL    HW118515   3.718   3.466   8.995  0.8841 -0.6570  2.4717
 2294SOL    HW218516   3.617   3.436   9.113 -0.7717 -0.0785 -0.0677
 2295SOL     OW18517   3.969   1.192   8.304  0.3210  0.1783  0.0635
 2295SOL    HW118518   4.041   1.216   8.244 -0.6770  1.2650 -0.7148
 2295SOL    HW218519   3.896   1.168   8.246 -0.3636 -1.3419  1.5689
 2296SOL     OW18520   0.645   1.085   3.751 -0.0543  0.0018 -0.1827
 2296SOL    HW118521   0.658   1.179   3.738 -2.5742  0.5201  0.9885
 2296SOL    HW218522   0.718   1.037   3.711 -0.7841 -0.9291 -0.3942
 2297SOL     OW18523   3.643   1.064   5.883  0.6949  0.4720 -0.1149
 2297SOL    HW118524   3.621   1.025   5.798  2.1450 -0.5631 -0.0046
 2297SOL    HW218525   3.594   1.146   5.881 -1.0559 -0.5087  2.6411
 2298SOL     OW18526   1.762   1.107   3.106 -0.3546  0.0083 -0.3222
 2298SOL    HW118527   1.671   1.101   3.078 -0.6548 -1.3971  0.9495
 2298SOL    HW218528   1.819   1.105   3.029  2.1676  0.4233  1.5393
 2299SOL     OW18529   4.118   0.935   8.030  0.0725 -0.1459 -0.2319
 2299SOL    HW118530   4.141   1.016   8.074  0.8254 -2.0552  2.9146
 2299SOL    HW218531   4.133   0.876   8.104  0.8512 -1.0269 -1.0896
 2300SOL     OW18532   1.755   3.661  15.577 -0.1321 -0.4061 -0.3942
 2300SOL    HW118533   1.672   3.697  15.546  1.9305  4.5391 -0.1738
 2300SOL    HW218534   1.729   3.573  15.552 -0.0214 -0.0319 -1.8488
 2301SOL     OW18535   3.378   3.013   6.655  0.4664 -0.3547  0.1128
 2301SOL    HW118536   3.434   2.936   6.648 -1.5405 -1.6157 -2.2137
 2301SOL    HW218537   3.327   3.009   6.574  2.9115  0.3251 -1.4336
 2302SOL     OW18538   4.726   1.425   6.181 -0.1369  0.6808  0.0448
 2302SOL    HW118539   4.632   1.438   6.196 -0.2611 -0.7201  0.4783
 2302SOL    HW218540   0.016   1.493   6.118  1.9566 -2.0000 -1.9568
 2303SOL     OW18541   3.827   3.134   0.065 -0.6040  0.3193  0.5550
 2303SOL    HW118542   3.798   3.201   0.127  1.3899 -2.2965  4.2599
 2303SOL    HW218543   3.920   3.150   0.080  0.0976 -2.6467 -0.7894
 2304SOL     OW18544   4.647   2.103  11.128 -0.0030 -0.8377  0.3762
 2304SOL    HW118545   4.628   2.141  11.213 -2.0043  0.6841 -0.7526
 2304SOL    HW218546   4.589   2.027  11.136  1.2728 -1.8105  0.3948
 2305SOL     OW18547   4.619   4.515   3.147 -0.1436 -0.5978  0.9251
 2305SOL    HW118548   4.699   4.535   3.196  0.4828 -1.4518  0.2562
 2305SOL    HW218549   4.554   4.576   3.181 -1.0534 -0.5876 -0.8076
 2306SOL     OW18550   3.675   0.921   8.419 -0.6534 -0.5014  0.2659
 2306SOL    HW118551   3.635   0.840   8.452 -1.8482  0.7370  1.8558
 2306SOL    HW218552   3.727   0.893   8.343 -0.1952  0.0727  0.3716
 2307SOL     OW18553   4.174   1.019   9.188 -0.1194  0.0389 -0.5029
 2307SOL    HW118554   4.190   1.100   9.237 -0.1330  0.0760 -0.5600
 2307SOL    HW218555   4.254   0.968   9.204 -1.9374 -2.1877  1.4674
 2308SOL     OW18556   3.325   4.392   2.344 -0.4504 -0.3314 -0.0533
 2308SOL    HW118557   3.260   4.348   2.290 -0.2413 -1.3942  0.5461
 2308SOL    HW218558   3.309   4.362   2.433 -1.5224  0.5819  0.0542
 2309SOL     OW18559   1.102   2.695   2.244 -0.0648 -0.4864 -0.8366
 2309SOL    HW118560   1.156   2.619   2.224 -0.3078 -1.2163  1.3177
 2309SOL    HW218561   1.117   2.741   2.161 -0.8006  1.8944  0.3414
 2310SOL     OW18562   3.182   2.745   5.809 -0.8290 -0.4435  0.0487
 2310SOL    HW118563   3.160   2.792   5.889  0.3538  0.6188 -0.2569
 2310SOL    HW218564   3.274   2.736   5.833  0.5135  3.9309 -3.5466
 2311SOL     OW18565   1.939   1.290   4.447  0.0986  0.0492 -0.2722
 2311SOL    HW118566   1.934   1.234   4.369 -2.6399  0.9510 -0.7562
 2311SOL    HW218567   1.946   1.228   4.519 -1.3914 -0.9542 -0.9948
 2312SOL     OW18568   0.179   0.026   9.413  0.4520 -0.6557  0.6406
 2312SOL    HW118569   0.145   0.044   9.501  1.3245 -1.5391  1.1511
 2312SOL    HW218570   0.271   0.004   9.422  1.2160  2.6082  0.4725
 2313SOL     OW18571   1.516   1.531   8.967 -0.1539 -0.1538  0.4270
 2313SOL    HW118572   1.512   1.614   8.920  0.2574  0.0285  0.7167
 2313SOL    HW218573   1.445   1.482   8.925 -1.4189  2.0146  0.0515
 2314SOL     OW18574   0.921   3.958   2.178  0.5101  0.4092 -0.1684
 2314SOL    HW118575   0.976   3.902   2.123 -0.2263 -0.3508 -0.1283
 2314SOL    HW218576   0.882   3.895   2.239 -1.3513  1.9940  0.2805
 2315SOL     OW18577   2.440   3.414   6.191  0.3889  0.2417  0.3756
 2315SOL    HW118578   2.350   3.430   6.218  0.3887 -1.2302  1.2085
 2315SOL    HW218579   2.490   3.483   6.234  1.2859  1.2859 -2.3119
 2316SOL     OW18580   0.613   1.812  10.186 -0.1975 -0.2103 -0.1752
 2316SOL    HW118581   0.702   1.793  10.217  0.4019 -2.2294 -3.1782
 2316SOL    HW218582   0.592   1.732  10.139 -0.5325 -0.5434  0.5324
 2317SOL     OW18583   3.762   1.862   0.764  0.0245  0.2050  1.1297
 2317SOL    HW118584   3.807   1.868   0.848  2.1073 -3.3190  0.2650
 2317SOL    HW218585   3.827   1.903   0.706 -1.3419  1.1473  0.2595
 2318SOL     OW18586   3.517   0.261   5.965  0.3015 -0.4001 -0.3272
 2318SOL    HW118587   3.458   0.336   5.973  0.8596  0.0521 -0.4693
 2318SOL    HW218588   3.467   0.197   6.016  0.9484 -0.8513 -0.2603
 2319SOL     OW18589   3.442   1.541   7.200  0.5325 -0.1788  0.1140
 2319SOL    HW118590   3.524   1.546   7.151  2.1240  1.1716  2.8918
 2319SOL    HW218591   3.466   1.580   7.284 -1.1575 -0.7030  0.8472
 2320SOL     OW18592   1.678   4.437   6.016 -0.1157 -0.6528  0.2443
 2320SOL    HW118593   1.655   4.458   5.925  2.9069  3.3106  0.3999
 2320SOL    HW218594   1.592   4.400   6.034 -0.3440  0.2236  0.9405
 2321SOL     OW18595   1.387   4.191  10.656 -0.3009  0.4059 -0.0159
 2321SOL    HW118596   1.434   4.181  10.573 -1.4337 -0.9286 -0.5119
 2321SOL    HW218597   1.361   4.105  10.689  0.9744  0.2563  0.5801
 2322SOL     OW18598   2.371   1.003   4.820 -0.7351 -0.3062 -0.4715
 2322SOL    HW118599   2.392   0.912   4.800 -0.5895 -0.6038  1.0222
 2322SOL    HW218600   2.311   1.029   4.750 -1.5134  1.5458  0.8679
 2323SOL     OW18601   4.221   4.324   1.393  0.4023 -0.5298 -0.4988
 2323SOL    HW118602   4.173   4.370   1.324 -0.5898 -1.0393 -0.1465
 2323SOL    HW218603   4.169   4.245   1.411  0.2080 -0.5901 -1.3475
 2324SOL     OW18604   2.672   1.061   7.633  0.4258  0.0509  0.4912
 2324SOL    HW118605   2.663   0.988   7.572 -1.3609  1.5937 -1.0853
 2324SOL    HW218606   2.665   1.141   7.580  0.2839  0.2725  0.8386
 2325SOL     OW18607   4.307   4.713   2.747 -0.2339 -0.1032 -0.0303
 2325SOL    HW118608   4.311   4.624   2.711  1.1489  0.5468 -1.4898
 2325SOL    HW218609   4.268   4.699   2.833 -0.6138  0.3455 -0.1255
 2326SOL     OW18610   0.939   2.881  14.996 -0.2692 -0.2490  0.1886
 2326SOL    HW118611   0.957   2.792  15.029  0.5798 -0.3425 -0.5330
 2326SOL    HW218612   0.862   2.896  15.051 -0.2394  0.7004 -0.0427
 2327SOL     OW18613   0.956   4.028   6.759 -0.1382 -0.4517  0.2372
 2327SOL    HW118614   0.919   4.104   6.804  0.1409 -1.2486  1.8176
 2327SOL    HW218615   0.994   3.989   6.838  0.2574 -0.4032  0.0683
 2328SOL     OW18616   3.139   4.233   2.141  0.3875 -0.0419 -0.5193
 2328SOL    HW118617   3.047   4.259   2.149  0.5710  0.3245  0.4559
 2328SOL    HW218618   3.144   4.208   2.049  3.3456  0.5190 -0.4993
 2329SOL     OW18619   1.292   3.381   0.297  0.4344  0.1538  0.0968
 2329SOL    HW118620   1.314   3.313   0.233 -0.6441 -1.1481  1.0927
 2329SOL    HW218621   1.355   3.446   0.266  2.3411 -2.1833 -0.9575
 2330SOL     OW18622   0.250   4.287   8.249 -0.0030 -0.9927  0.4438
 2330SOL    HW118623   0.209   4.297   8.163 -0.3018  3.3196  1.0919
 2330SOL    HW218624   0.176   4.286   8.310 -0.9101  0.2253 -0.6445
 2331SOL     OW18625   2.233   1.799   4.981  0.5076  0.5094 -0.1836
 2331SOL    HW118626   2.262   1.886   4.955  0.1101  1.4155  2.4019
 2331SOL    HW218627   2.262   1.804   5.072 -1.7682 -0.7693  0.6049
 2332SOL     OW18628   4.540   2.724  11.298  0.0103  0.1625  0.0060
 2332SOL    HW118629   4.570   2.802  11.251 -0.4651 -0.1458 -0.8204
 2332SOL    HW218630   4.515   2.758  11.384 -1.7473 -0.2562 -0.3399
 2333SOL     OW18631   2.809   0.694  12.921 -0.3159 -0.0862  0.0558
 2333SOL    HW118632   2.807   0.788  12.904  0.3413  0.3115  2.1584
 2333SOL    HW218633   2.739   0.659  12.865 -0.6167  0.3489  0.1581
 2334SOL     OW18634   0.266   4.007   4.369 -0.3444 -0.2926  0.2375
 2334SOL    HW118635   0.236   4.013   4.460 -2.3486 -1.2222 -0.3760
 2334SOL    HW218636   0.238   3.917   4.351  1.2804 -0.6069 -0.7560
 2335SOL     OW18637   1.658   0.747  17.545 -0.6686 -0.0770 -0.1920
 2335SOL    HW118638   1.598   0.727  17.473  0.6027 -2.2137 -0.6533
 2335SOL    HW218639   1.740   0.754  17.497  0.8150  1.3046  2.5786
 2336SOL     OW18640   3.128   1.923   7.978 -0.3657 -0.2557 -0.5830
 2336SOL    HW118641   3.199   1.973   8.019 -0.0908  0.3440 -1.7886
 2336SOL    HW218642   3.170   1.840   7.958 -0.0134 -0.0769 -0.5952
 2337SOL     OW18643   3.337   3.774   5.524 -0.1768 -0.3772 -0.0440
 2337SOL    HW118644   3.247   3.805   5.538  0.2782 -0.2504  2.6442
 2337SOL    HW218645   3.310   3.700   5.470  0.5022 -0.8253  0.2335
 2338SOL     OW18646   0.607   0.150   3.655  0.3549  0.4285 -0.2291
 2338SOL    HW118647   0.570   0.238   3.665 -1.6938 -0.2915 -1.3651
 2338SOL    HW218648   0.624   0.155   3.561  4.9742 -0.1413  0.5879
 2339SOL     OW18649   2.379   0.808   1.754  0.0237 -0.5583  0.0710
 2339SOL    HW118650   2.464   0.785   1.791 -0.0093  0.3039  0.6922
 2339SOL    HW218651   2.349   0.719   1.735 -0.9613 -0.5279  1.5466
 2340SOL     OW18652   3.894   2.462   0.807 -0.4156 -0.8106  0.6576
 2340SOL    HW118653   3.843   2.523   0.754  0.0506 -0.9583  0.0331
 2340SOL    HW218654   3.894   2.506   0.891 -0.3808  2.2694 -0.9594
 2341SOL     OW18655   0.246   4.083   7.805 -0.1304  0.0412  0.5482
 2341SOL    HW118656   0.220   4.023   7.735  2.0266 -0.8037  0.4652
 2341SOL    HW218657   0.335   4.093   7.773 -0.2499  1.8688  0.8054
 2342SOL     OW18658   2.648   3.767   8.338 -0.0786  0.2232  0.1549
 2342SOL    HW118659   2.569   3.817   8.361  1.5016  3.3209 -1.1517
 2342SOL    HW218660   2.673   3.806   8.254  1.2313 -0.4386  0.2466
 2343SOL     OW18661   2.074   3.814   1.411 -0.4008  0.2408  0.1500
 2343SOL    HW118662   2.055   3.759   1.335  0.4344 -0.1866  0.2482
 2343SOL    HW218663   2.132   3.756   1.460 -0.4635 -1.6917 -2.0650
 2344SOL     OW18664   0.496   1.853  14.585 -0.0205 -0.2849  0.7099
 2344SOL    HW118665   0.538   1.777  14.544 -1.1887 -0.3396 -0.3855
 2344SOL    HW218666   0.563   1.871  14.651  2.2496  0.6361 -1.8595
 2345SOL     OW18667   1.820   3.113   1.889 -0.4842 -0.1953 -0.0132
 2345SOL    HW118668   1.883   3.128   1.819 -0.6617 -0.3630 -0.2084
 2345SOL    HW218669   1.811   3.193   1.941  0.8921  0.9622 -1.5688
 2346SOL     OW18670   4.360   1.762   3.223  0.4007 -0.5829  0.4608
 2346SOL    HW118671   4.429   1.697   3.211  1.8111  0.8449  0.8386
 2346SOL    HW218672   4.365   1.776   3.318 -3.0291  2.3412  0.2055
 2347SOL     OW18673   3.501   0.671   8.463 -0.8167  0.0688  0.1333
 2347SOL    HW118674   3.455   0.622   8.395  1.5304  0.0813 -1.4682
 2347SOL    HW218675   3.435   0.733   8.494 -0.1012 -0.0419  1.9362
 2348SOL     OW18676   2.530   1.897   5.072  0.0167  0.1290 -0.3484
 2348SOL    HW118677   2.501   1.926   4.986 -1.5499 -0.6698 -0.0939
 2348SOL    HW218678   2.458   1.937   5.121  1.6241  1.2763  1.0679
 2349SOL     OW18679   0.130   3.105   9.267 -0.2353 -0.6971  0.4260
 2349SOL    HW118680   0.168   3.154   9.195  1.6359  1.0932  2.6433
 2349SOL    HW218681   0.138   3.177   9.330 -3.2779  1.1090 -1.2629
 2350SOL     OW18682   4.679   0.205   3.171  0.4884  0.7567 -0.0633
 2350SOL    HW118683   0.016   0.180   3.114 -0.7766 -0.5950 -1.0980
 2350SOL    HW218684   4.658   0.296   3.148 -0.8969  0.0680 -1.5522
 2351SOL     OW18685   3.605   3.919  14.068  0.0019 -0.4645 -0.1785
 2351SOL    HW118686   3.525   3.971  14.063  0.4025  0.2657  1.0342
 2351SOL    HW218687   3.576   3.828  14.062 -1.0578 -0.0421 -1.3097
 2352SOL     OW18688   2.791   0.882   8.135  0.1277  0.5675  0.3245
 2352SOL    HW118689   2.813   0.973   8.154  3.5837 -0.0964 -0.5198
 2352SOL    HW218690   2.736   0.897   8.058  1.2567  1.1337 -0.3742
 2353SOL     OW18691   1.161   3.916   3.122  0.3331 -0.0097  0.0083
 2353SOL    HW118692   1.185   3.834   3.078 -0.9526  0.3445 -1.3586
 2353SOL    HW218693   1.217   3.987   3.092  0.0500  0.1317 -0.1851
 2354SOL     OW18694   4.279   1.203  17.725  0.0745  0.1505  0.0207
 2354SOL    HW118695   4.187   1.178  17.715 -0.1742  0.8521  0.6709
 2354SOL    HW218696   4.295   1.186   0.075  1.0846 -0.7771 -0.3187
 2355SOL     OW18697   2.425   1.031  11.650 -0.1551 -0.4025  0.6930
 2355SOL    HW118698   2.516   1.012  11.627 -1.0851 -1.9114 -1.7553
 2355SOL    HW218699   2.390   1.041  11.561  0.8229  0.3175  0.3877
 2356SOL     OW18700   2.004   4.580   9.592  0.2964 -0.1549  0.3268
 2356SOL    HW118701   2.040   4.636   9.661  0.0426  0.1069  0.2465
 2356SOL    HW218702   2.070   4.576   9.523 -0.5110  1.6554 -0.5507
 2357SOL     OW18703   0.912   1.367   9.029 -0.6022  0.3956  0.2708
 2357SOL    HW118704   0.883   1.290   9.077 -1.5303  0.2093 -0.5797
 2357SOL    HW218705   0.899   1.357   8.935 -0.9058  2.2768  0.1179
 2358SOL     OW18706   4.345   4.054   1.835 -0.9234  0.5827 -0.3159
 2358SOL    HW118707   4.298   4.060   1.918 -1.0674 -0.0010 -0.3574
 2358SOL    HW218708   4.380   3.965   1.837  1.4900  1.5504  1.3134
 2359SOL     OW18709   2.524   0.975  16.575  0.1194  0.4408 -0.1506
 2359SOL    HW118710   2.461   1.001  16.508  0.9177  0.3083 -0.9396
 2359SOL    HW218711   2.533   1.060  16.617 -0.2250 -0.9258  2.7062
 2360SOL     OW18712   0.683   1.563   5.388 -0.1487  0.1049  0.2800
 2360SOL    HW118713   0.670   1.545   5.295 -2.3523 -2.3086  1.0452
 2360SOL    HW218714   0.644   1.483   5.423  0.2242  0.3523  1.2584
 2361SOL     OW18715   0.711   0.233   4.553  0.1450  0.4588  0.1216
 2361SOL    HW118716   0.658   0.310   4.577  4.1606  4.0071 -2.3847
 2361SOL    HW218717   0.686   0.161   4.611 -0.8651  1.3016  0.7237
 2362SOL     OW18718   0.658   0.409  10.195  0.5383 -0.1484 -0.1800
 2362SOL    HW118719   0.687   0.327  10.234  0.9147  0.0322 -0.0749
 2362SOL    HW218720   0.620   0.382  10.112 -0.9108 -0.9322  0.7378
 2363SOL     OW18721   3.113   1.164   6.249 -0.2074  0.4019 -0.0412
 2363SOL    HW118722   3.152   1.211   6.175  0.7061  0.6047  0.5661
 2363SOL    HW218723   3.115   1.239   6.308  1.3214  0.6187 -0.3893
 2364SOL     OW18724   4.391   3.974   5.057  0.1412  0.4426 -0.2465
 2364SOL    HW118725   4.479   3.969   5.019 -0.3654  0.0457 -1.3849
 2364SOL    HW218726   4.343   3.921   4.993  0.4721 -1.6936  1.2594
 2365SOL     OW18727   1.447   0.824   8.176 -0.3054  0.0471  0.2500
 2365SOL    HW118728   1.525   0.871   8.147 -0.4291 -1.0852 -1.8930
 2365SOL    HW218729   1.381   0.894   8.177 -0.0230  0.3097  0.4506
 2366SOL     OW18730   1.820   1.395  14.063 -0.5193 -0.1128 -0.2954
 2366SOL    HW118731   1.743   1.446  14.088  0.0894  0.6302  0.0739
 2366SOL    HW218732   1.777   1.339  13.998  0.3808 -1.3446  0.1765
 2367SOL     OW18733   0.502   3.771   2.839  0.5193 -0.1733  0.2423
 2367SOL    HW118734   0.559   3.773   2.762  0.2771 -1.0638  0.0441
 2367SOL    HW218735   0.543   3.831   2.901  1.3850 -1.2865  0.7232
 2368SOL     OW18736   3.972   4.226   3.232  0.0354  0.3698  0.0781
 2368SOL    HW118737   4.017   4.250   3.151 -0.0718  1.6197  0.3899
 2368SOL    HW218738   3.905   4.294   3.223  2.9354  2.9884 -1.8156
 2369SOL     OW18739   1.172   1.448   2.215 -0.1455  0.2058 -0.3113
 2369SOL    HW118740   1.157   1.390   2.140  1.5130  2.2391 -2.2053
 2369SOL    HW218741   1.255   1.413   2.248  0.4501 -0.1598 -2.1855
 2370SOL     OW18742   1.771   3.305  10.033  0.1857  0.2786 -0.2052
 2370SOL    HW118743   1.779   3.400  10.042 -0.6133  0.3549 -0.3157
 2370SOL    HW218744   1.695   3.291  10.089 -1.6836 -0.5265 -2.9395
 2371SOL     OW18745   1.310   4.012   6.705 -0.7626  0.1398 -0.2360
 2371SOL    HW118746   1.303   3.936   6.647  1.6762  0.7824 -1.3530
 2371SOL    HW218747   1.316   4.093   6.655  1.4372  0.1319  0.0265
 2372SOL     OW18748   4.323   1.638   6.852 -0.2242  0.6376 -0.0788
 2372SOL    HW118749   4.277   1.582   6.789 -0.7596  2.1451 -1.0491
 2372SOL    HW218750   4.360   1.704   6.792  0.7268 -0.7366 -0.9968
 2373SOL     OW18751   0.082   4.047   2.873 -1.1976 -0.1881 -0.2062
 2373SOL    HW118752   0.083   4.069   2.779  0.9904 -2.4772 -0.7344
 2373SOL    HW218753   4.732   4.076   2.901 -1.5002  0.5087 -1.8546
 2374SOL     OW18754   4.437   2.848   3.259  0.1474 -0.2142  0.4693
 2374SOL    HW118755   4.444   2.910   3.186  0.6878  0.3347  0.9933
 2374SOL    HW218756   4.351   2.814   3.233 -0.6504  0.7582  1.8222
 2375SOL     OW18757   0.295   3.025  11.456  0.2421 -0.3776 -1.0367
 2375SOL    HW118758   0.341   2.984  11.383 -1.1522 -0.7119 -1.7335
 2375SOL    HW218759   0.286   3.115  11.425 -0.8635 -0.2124 -0.2579
 2376SOL     OW18760   4.217   4.633   7.860 -0.4087 -0.0373  0.7402
 2376SOL    HW118761   4.305   4.602   7.881  0.7067  1.0644 -2.1477
 2376SOL    HW218762   4.168   4.556   7.831 -0.2084 -0.3539  1.2556
 2377SOL     OW18763   4.266   2.361  10.483 -0.4026 -0.2979  0.0187
 2377SOL    HW118764   4.279   2.274  10.521 -0.1734 -0.1761  0.2171
 2377SOL    HW218765   4.176   2.359  10.448  0.0536 -0.7056 -1.1311
 2378SOL     OW18766   0.340   3.637   4.095 -0.0848 -0.2022  0.2166
 2378SOL    HW118767   0.306   3.585   4.022 -0.5294  1.1780 -0.5597
 2378SOL    HW218768   0.428   3.646   4.058 -0.7154  0.4885 -1.1339
 2379SOL     OW18769   3.358   2.097   7.666 -0.3108  0.5602 -0.4419
 2379SOL    HW118770   3.432   2.153   7.642  0.7869 -0.6685  0.1118
 2379SOL    HW218771   3.405   2.029   7.714  1.3539  3.6513  2.3341
 2380SOL     OW18772   2.767   3.727   8.617  0.0972  0.0203 -0.0019
 2380SOL    HW118773   2.688   3.707   8.566 -0.5712  0.0866  1.0050
 2380SOL    HW218774   2.773   3.652   8.676  2.0461  0.6095  0.5471
 2381SOL     OW18775   1.147   1.382   2.839 -0.0911  0.3242  0.0877
 2381SOL    HW118776   1.068   1.351   2.795  0.5729 -1.4457  0.1332
 2381SOL    HW218777   1.156   1.468   2.797  3.3247 -0.1671 -0.1878
 2382SOL     OW18778   3.411   1.328  12.728 -0.0787  0.6960  0.6067
 2382SOL    HW118779   3.464   1.382  12.670  0.1121  0.7147  0.7994
 2382SOL    HW218780   3.325   1.370  12.732 -0.5656 -0.1643 -0.7759
 2383SOL     OW18781   1.738   1.421   6.609 -0.5269  0.9973 -0.2616
 2383SOL    HW118782   1.706   1.495   6.557 -1.9754  1.1819  0.8909
 2383SOL    HW218783   1.694   1.351   6.561  0.4548  0.6282 -0.6274
 2384SOL     OW18784   1.220   4.698   3.864  0.5866 -0.5877 -0.3760
 2384SOL    HW118785   1.159   0.030   3.893  3.1815  1.5861 -0.0761
 2384SOL    HW218786   1.249   4.663   3.948  1.6191  0.3163 -0.3624
 2385SOL     OW18787   4.037   0.736  13.092 -0.3979 -0.8041 -0.1431
 2385SOL    HW118788   4.019   0.642  13.097  2.1948 -1.2817  0.4158
 2385SOL    HW218789   4.111   0.744  13.153 -0.3437 -0.2194 -0.2910
 2386SOL     OW18790   3.662   2.901   3.398 -0.4968 -0.2854  0.3293
 2386SOL    HW118791   3.584   2.928   3.446 -1.0797 -0.2208 -0.6673
 2386SOL    HW218792   3.618   2.838   3.341  0.8835  0.1237 -1.1651
 2387SOL     OW18793   3.215   2.515   2.493  0.0380  0.4977 -0.0388
 2387SOL    HW118794   3.181   2.527   2.404 -2.0001 -0.6328  0.5919
 2387SOL    HW218795   3.198   2.422   2.504  2.0319  0.0023 -1.1118
 2388SOL     OW18796   1.719   4.195   7.696  0.0799 -0.2064  0.3602
 2388SOL    HW118797   1.793   4.255   7.706 -0.1663 -0.2981  2.6203
 2388SOL    HW218798   1.736   4.150   7.613 -1.9206 -1.2639  0.5151
 2389SOL     OW18799   0.763   1.948   9.390  0.3795  0.8181 -0.1342
 2389SOL    HW118800   0.783   1.855   9.379  1.4579  1.1572 -0.9701
 2389SOL    HW218801   0.710   1.941   9.470  3.5700  0.5047  1.9394
 2390SOL     OW18802   1.709   4.169   8.525  0.1630 -0.0591  0.2470
 2390SOL    HW118803   1.740   4.119   8.600  0.7946 -1.5726 -1.0082
 2390SOL    HW218804   1.671   4.099   8.471  0.0700  0.2215 -0.0544
 2391SOL     OW18805   2.271   2.932   8.173 -0.1318 -0.4816  0.2054
 2391SOL    HW118806   2.283   2.965   8.083 -2.8380  0.4143  0.1760
 2391SOL    HW218807   2.329   2.856   8.165 -0.8372 -0.9639 -0.2866
 2392SOL     OW18808   2.542   3.088   6.574  0.0623 -0.3769 -0.0414
 2392SOL    HW118809   2.602   3.014   6.574 -0.3827 -0.7427  0.0130
 2392SOL    HW218810   2.553   3.126   6.487  0.3493  0.3490  0.3111
 2393SOL     OW18811   3.640   4.400  13.292 -0.0851 -1.1969  0.8734
 2393SOL    HW118812   3.573   4.464  13.267 -0.0482 -2.1619 -1.6833
 2393SOL    HW218813   3.586   4.332  13.332 -2.1875 -0.0016  0.0396
 2394SOL     OW18814   3.938   3.188   9.690 -0.2756 -0.1837 -0.1258
 2394SOL    HW118815   4.018   3.139   9.669  0.7434  1.8015 -0.9102
 2394SOL    HW218816   3.863   3.131   9.673  0.5057 -1.9396  2.4035
 2395SOL     OW18817   3.411   3.193   4.185 -0.0091  0.6170  0.2877
 2395SOL    HW118818   3.352   3.203   4.260 -2.3195 -0.6611 -1.3482
 2395SOL    HW218819   3.357   3.233   4.117 -0.8609  1.3082  1.3668
 2396SOL     OW18820   1.318   3.042   2.549 -0.1276 -0.1185  0.2565
 2396SOL    HW118821   1.270   3.104   2.602  0.6803 -1.1157  2.1518
 2396SOL    HW218822   1.253   3.011   2.486 -1.0221  1.4615  0.4112
 2397SOL     OW18823   0.420   1.563  17.263  0.1243  0.5500  0.0500
 2397SOL    HW118824   0.353   1.612  17.216  0.6130  1.9431  0.8194
 2397SOL    HW218825   0.495   1.599  17.217  0.3031  1.3749  0.9825
 2398SOL     OW18826   0.691   3.331   0.503 -0.8193 -0.0196  0.3183
 2398SOL    HW118827   0.776   3.294   0.479 -0.9285  0.9589 -1.5886
 2398SOL    HW218828   0.641   3.326   0.421  2.2924 -1.6737 -1.4785
 2399SOL     OW18829   2.506   2.922   1.778  0.4389 -0.0980 -0.1892
 2399SOL    HW118830   2.586   2.962   1.814 -0.1846  1.0792 -0.1210
 2399SOL    HW218831   2.543   2.865   1.712 -2.1467 -0.8068 -1.0140
 2400SOL     OW18832   1.596   1.072   6.977  1.0597  0.1696  0.2019
 2400SOL    HW118833   1.521   1.124   6.948  2.4214  1.0465 -1.7974
 2400SOL    HW218834   1.652   1.135   7.023  0.0277  1.7655 -0.7136
 2401SOL     OW18835   3.103   1.517   2.700  0.2311 -0.4137 -0.0324
 2401SOL    HW118836   3.067   1.520   2.789 -1.0981  1.5367 -0.6494
 2401SOL    HW218837   3.126   1.610   2.695  0.2870 -0.3166  2.0139
 2402SOL     OW18838   0.973   0.572  15.280 -0.1992 -0.0748  0.5088
 2402SOL    HW118839   1.027   0.638  15.324  2.3968 -0.4068 -2.1692
 2402SOL    HW218840   0.898   0.618  15.240 -1.9373 -0.0430  3.8319
 2403SOL     OW18841   2.638   0.387   5.861 -0.0548  0.1822  0.4015
 2403SOL    HW118842   2.647   0.303   5.907 -0.2511  0.8499  1.6705
 2403SOL    HW218843   2.698   0.353   5.795 -0.4916 -1.5746  0.8974
 2404SOL     OW18844   0.353   3.549  10.722  0.2558  0.2187  0.2409
 2404SOL    HW118845   0.445   3.568  10.704 -0.0666 -0.6603 -2.4411
 2404SOL    HW218846   0.326   3.514  10.637 -1.4965 -1.3204  1.4240
 2405SOL     OW18847   1.838   3.546  12.773  0.0289 -0.5172  0.2993
 2405SOL    HW118848   1.880   3.524  12.856  0.7027  1.2508  0.4264
 2405SOL    HW218849   1.908   3.505  12.722  0.2800  0.0099  0.2228
 2406SOL     OW18850   3.175   1.477   1.124  0.3539 -0.5151  0.2485
 2406SOL    HW118851   3.116   1.544   1.089 -1.0108 -1.9531 -0.1661
 2406SOL    HW218852   3.156   1.479   1.218  3.8043 -0.6660  0.9645
 2407SOL     OW18853   3.875   0.839  11.597 -0.0077  0.4289  0.7497
 2407SOL    HW118854   3.877   0.829  11.693 -0.2226  1.9834  0.9098
 2407SOL    HW218855   3.908   0.760  11.553 -1.5005  1.5071 -2.2470
 2408SOL     OW18856   0.850   4.637   5.604 -0.2437 -0.0530 -0.4588
 2408SOL    HW118857   0.773   4.661   5.656  0.7170  2.8175 -0.3779
 2408SOL    HW218858   0.877   4.551   5.638 -0.4119  1.5545  3.6863
 2409SOL     OW18859   0.993   3.836  13.758 -0.2427 -0.1530 -0.4151
 2409SOL    HW118860   0.915   3.795  13.794 -0.2128  2.0760  2.1483
 2409SOL    HW218861   1.042   3.873  13.832  0.3363 -0.1159 -0.8172
 2410SOL     OW18862   1.763   3.485   4.943 -0.0143  0.2351 -0.5792
 2410SOL    HW118863   1.695   3.418   4.942 -1.6595  1.9054 -0.4395
 2410SOL    HW218864   1.838   3.444   4.900  0.9576 -1.2626  2.5395
 2411SOL     OW18865   2.332   2.549   6.079  0.4449 -0.0314 -0.6215
 2411SOL    HW118866   2.265   2.606   6.040 -0.6113 -1.7462 -1.3180
 2411SOL    HW218867   2.290   2.527   6.162  2.0738  0.3395  0.3005
 2412SOL     OW18868   0.357   0.255   7.190 -0.1191 -0.2530 -0.5249
 2412SOL    HW118869   0.429   0.203   7.226 -0.8559 -1.7709 -1.2488
 2412SOL    HW218870   0.363   0.340   7.234 -1.7354 -0.5549  0.2571
 2413SOL     OW18871   0.770   1.514   1.081  0.0275  0.2005  0.1097
 2413SOL    HW118872   0.828   1.520   1.006  0.7299 -0.3685  0.6028
 2413SOL    HW218873   0.824   1.449   1.125  0.3135 -0.2538 -0.9312
 2414SOL     OW18874   2.208   0.721  14.449  0.1117 -0.4651 -0.1254
 2414SOL    HW118875   2.262   0.666  14.506 -0.9130 -1.3068  0.0385
 2414SOL    HW218876   2.270   0.775  14.400  2.3722 -0.8423  2.3212
 2415SOL     OW18877   3.272   0.201   5.051 -0.5411 -0.3119  0.3712
 2415SOL    HW118878   3.351   0.172   5.097  0.5480 -1.0076 -1.9364
 2415SOL    HW218879   3.203   0.155   5.097  0.2286 -0.2384  1.5898
 2416SOL     OW18880   4.024   0.978  12.947  0.2586  0.4502  0.3671
 2416SOL    HW118881   4.042   0.893  12.987  2.2056  1.0214  0.7225
 2416SOL    HW218882   3.971   1.021  13.014  1.2225 -0.2565  1.5876
 2417SOL     OW18883   2.459   1.043   7.856 -0.0770  0.1422 -0.1411
 2417SOL    HW118884   2.540   1.079   7.893 -1.2803  1.2203  1.4557
 2417SOL    HW218885   2.473   1.071   7.766 -1.2713  2.3163  0.3525
 2418SOL     OW18886   3.700   1.925   6.158 -0.4884 -0.0675 -0.2114
 2418SOL    HW118887   3.611   1.958   6.150 -0.6298 -0.6208 -0.9415
 2418SOL    HW218888   3.686   1.901   6.250 -1.1726 -2.0467 -0.8110
 2419SOL     OW18889   0.848   0.091  13.529  0.3062 -0.1448 -0.5118
 2419SOL    HW118890   0.848   0.060  13.438  1.1389 -0.7411 -0.2985
 2419SOL    HW218891   0.929   0.141  13.538 -0.3257  0.8983 -0.5384
 2420SOL     OW18892   2.240   0.692   0.368 -0.4073  0.0365 -0.1001
 2420SOL    HW118893   2.189   0.645   0.302 -0.2402  1.7195 -1.4550
 2420SOL    HW218894   2.231   0.786   0.347  1.7246  0.3030  0.2550
 2421SOL     OW18895   4.587   2.145   3.464 -0.1064  0.2485  0.1474
 2421SOL    HW118896   4.606   2.090   3.388 -1.9225  0.9688 -0.8188
 2421SOL    HW218897   4.570   2.067   3.518 -4.2609  1.5780  0.7399
 2422SOL     OW18898   0.838   4.355  11.448 -0.1327 -0.7617 -0.5898
 2422SOL    HW118899   0.775   4.282  11.449  0.4866 -1.2816  1.4382
 2422SOL    HW218900   0.834   4.374  11.542 -1.4771  0.6878 -0.9451
 2423SOL     OW18901   0.067   3.268   2.574 -0.2657 -0.7406 -0.3212
 2423SOL    HW118902   0.080   3.339   2.636 -0.5180  1.2618 -2.5917
 2423SOL    HW218903   4.729   3.308   2.530  1.4439 -1.1771 -3.5988
 2424SOL     OW18904   4.133   1.145   5.389  0.6850 -0.3818 -0.0707
 2424SOL    HW118905   4.050   1.172   5.426  0.3055 -1.7808  0.0917
 2424SOL    HW218906   4.106   1.082   5.322 -0.2933  0.7987 -0.7877
 2425SOL     OW18907   1.955   1.951   6.905 -0.6294 -0.0659 -0.4103
 2425SOL    HW118908   2.032   1.979   6.856 -1.0698  0.2089 -0.9479
 2425SOL    HW218909   1.934   2.033   6.950 -0.5886 -0.7410  0.8374
 2426SOL     OW18910   2.184   0.212   8.314  0.7078 -0.0293 -0.0210
 2426SOL    HW118911   2.120   0.157   8.359 -0.6401  0.1238 -1.7355
 2426SOL    HW218912   2.233   0.150   8.260  0.2968  2.1680 -2.9082
 2427SOL     OW18913   4.554   3.557  15.198  0.6630  0.5060 -0.0975
 2427SOL    HW118914   4.490   3.603  15.251 -0.1798 -1.5452  0.6470
 2427SOL    HW218915   4.585   3.634  15.151 -4.3053  0.9476 -2.6593
 2428SOL     OW18916   4.712   1.050   6.390 -0.1863 -0.3388 -0.2355
 2428SOL    HW118917   0.004   1.119   6.450  0.7043  2.0599 -3.4045
 2428SOL    HW218918   0.009   1.083   6.307  1.6801 -0.0773  0.6085
 2429SOL     OW18919   3.049   2.280   8.672 -0.2003 -0.0520 -0.1140
 2429SOL    HW118920   3.099   2.289   8.590 -1.0584  3.6645 -0.2385
 2429SOL    HW218921   3.083   2.197   8.706 -0.6623  0.6463  2.0507
 2430SOL     OW18922   2.699   3.613   7.075  0.5936 -0.3800 -0.0014
 2430SOL    HW118923   2.671   3.610   7.166  1.2263 -1.2259  0.1548
 2430SOL    HW218924   2.794   3.623   7.078  0.9564 -3.6597 -0.4654
 2431SOL     OW18925   3.370   4.390   5.837 -0.1283  0.0535 -0.3016
 2431SOL    HW118926   3.355   4.297   5.855 -0.4605 -0.1191 -1.4927
 2431SOL    HW218927   3.452   4.401   5.886 -0.0015  2.4872 -1.0639
 2432SOL     OW18928   1.392   0.515   9.377  0.1051 -0.1018 -0.3053
 2432SOL    HW118929   1.402   0.569   9.455  1.1701  1.4768 -1.5213
 2432SOL    HW218930   1.308   0.546   9.344  0.9094  2.6562  0.2535
 2433SOL     OW18931   4.402   4.386   7.095  0.1665  0.6593  0.1307
 2433SOL    HW118932   4.454   4.452   7.048  1.2209  0.7367  1.3783
 2433SOL    HW218933   4.477   4.333   7.123 -1.4480 -0.5224  2.1864
 2434SOL     OW18934   0.238   1.044   2.699  0.4856 -0.1911  0.0491
 2434SOL    HW118935   0.248   0.951   2.718  0.5269 -0.0601  0.6653
 2434SOL    HW218936   0.183   1.043   2.621 -0.0510  2.4178  0.3852
 2435SOL     OW18937   1.923   3.602   3.377 -0.2337  0.2844 -0.2077
 2435SOL    HW118938   1.897   3.550   3.453  1.5661  1.4160  1.2028
 2435SOL    HW218939   1.935   3.685   3.424  2.1583  0.3022 -0.8227
 2436SOL     OW18940   1.046   4.518   7.146  0.0366  0.2334 -0.3143
 2436SOL    HW118941   1.079   4.479   7.228 -2.7343 -0.8385  0.3035
 2436SOL    HW218942   1.107   4.592   7.144  0.2390  0.1291  1.5411
 2437SOL     OW18943   3.972   1.552   8.787 -0.3118 -0.2259 -0.2199
 2437SOL    HW118944   3.929   1.563   8.872 -0.0745 -0.8954 -0.0149
 2437SOL    HW218945   4.064   1.567   8.810 -0.8092  0.8335  1.1175
 2438SOL     OW18946   4.676   2.835   1.369  0.2951  0.4220  0.6689
 2438SOL    HW118947   4.616   2.880   1.428  1.6973  3.4809 -0.2524
 2438SOL    HW218948   0.012   2.806   1.425  0.0776  2.3304  1.9145
 2439SOL     OW18949   0.861   2.012   7.176 -0.7464 -0.3356  0.1931
 2439SOL    HW118950   0.842   1.944   7.241 -2.6528  1.7453  1.8015
 2439SOL    HW218951   0.937   1.980   7.127 -2.7407  0.0446 -3.1524
 2440SOL     OW18952   3.207   1.261   3.211  0.7849 -0.2281 -0.7677
 2440SOL    HW118953   3.223   1.169   3.192 -0.7194 -1.2679  2.8627
 2440SOL    HW218954   3.243   1.286   3.296 -0.2963 -2.5163  0.3712
 2441SOL     OW18955   1.331   1.989   2.836  0.2965 -0.5180 -0.1239
 2441SOL    HW118956   1.237   1.998   2.847  0.2065 -0.8061 -0.6674
 2441SOL    HW218957   1.367   2.028   2.916  0.2103 -0.7291  0.0179
 2442SOL     OW18958   2.108   2.380   6.805 -0.2038 -0.2827  0.1635
 2442SOL    HW118959   2.017   2.386   6.834 -0.2006 -0.0766  0.1274
 2442SOL    HW218960   2.151   2.443   6.864  1.0340 -0.9388 -0.0465
 2443SOL     OW18961   4.540   2.214   9.254  0.2048  0.5056  0.1588
 2443SOL    HW118962   4.596   2.167   9.193  0.4631 -1.1257  1.6362
 2443SOL    HW218963   4.520   2.160   9.331  0.9608 -1.1427 -0.8020
 2444SOL     OW18964   1.669   3.366   5.888  0.2959  0.3073  0.3250
 2444SOL    HW118965   1.639   3.455   5.905  0.3540  0.0595  1.7176
 2444SOL    HW218966   1.690   3.335   5.976  1.6868 -1.0991 -0.4942
 2445SOL     OW18967   0.390   2.776  16.326  0.2024  0.4730  0.0020
 2445SOL    HW118968   0.343   2.850  16.287 -2.2375 -1.5614 -0.8464
 2445SOL    HW218969   0.470   2.777  16.273 -0.2547  0.9932 -0.6818
 2446SOL     OW18970   0.891   2.274   3.304  0.2441 -0.1108  0.0175
 2446SOL    HW118971   0.921   2.312   3.387  0.6954  0.5309 -0.4432
 2446SOL    HW218972   0.878   2.353   3.252 -2.0715 -0.3415  0.2233
 2447SOL     OW18973   0.662   2.567  11.110  0.2280 -0.0700  0.1596
 2447SOL    HW118974   0.587   2.509  11.093  0.1252 -0.3265  1.4352
 2447SOL    HW218975   0.623   2.617  11.183  0.0912 -1.0742  0.7783
 2448SOL     OW18976   0.010   1.650  16.767 -0.7872 -0.3130  0.0960
 2448SOL    HW118977   4.724   1.688  16.681 -1.3780  2.1062  1.3223
 2448SOL    HW218978   0.084   1.591  16.756  0.1591  1.0126 -0.7390
 2449SOL     OW18979   2.473   2.846  17.383 -0.2429  0.5976 -0.3436
 2449SOL    HW118980   2.478   2.924  17.438  0.3702 -0.9488  1.7997
 2449SOL    HW218981   2.420   2.790  17.439  0.7507 -0.4071 -0.3963
 2450SOL     OW18982   3.208   4.139   5.089  0.1740  0.1273  0.3002
 2450SOL    HW118983   3.190   4.205   5.022  0.3612  0.8024  0.9130
 2450SOL    HW218984   3.303   4.133   5.089  0.0112 -2.6374 -0.9107
 2451SOL     OW18985   2.391   2.664   7.278  0.1154 -0.3378  0.3525
 2451SOL    HW118986   2.321   2.678   7.343 -0.8415  1.7591 -1.1603
 2451SOL    HW218987   2.465   2.709   7.318 -0.9396  1.5015  0.2328
 2452SOL     OW18988   3.981   2.423   7.560 -0.0288 -0.4446  0.1797
 2452SOL    HW118989   3.940   2.506   7.585  0.8709  0.5815 -1.7842
 2452SOL    HW218990   4.015   2.390   7.643  1.1350  0.0078 -0.1248
 2453SOL     OW18991   0.279   1.998   3.771  0.4631  0.3708 -0.2763
 2453SOL    HW118992   0.266   2.071   3.710 -0.6099  2.1576  2.0763
 2453SOL    HW218993   0.191   1.981   3.806  0.0383  1.0493 -1.0047
 2454SOL     OW18994   0.891   1.779  10.200 -0.2508 -0.0721 -0.0016
 2454SOL    HW118995   0.901   1.873  10.184  2.2072  0.1030  2.4918
 2454SOL    HW218996   0.960   1.741  10.145 -0.0886 -1.3126  1.0548
 2455SOL     OW18997   1.752   0.103   2.748  0.2807  0.1501 -0.0412
 2455SOL    HW118998   1.830   0.087   2.801  1.0348  3.1827 -0.1925
 2455SOL    HW218999   1.801   0.113   2.666 -1.4879  0.3242 -1.0637
 2456SOL     OW19000   4.142   1.558   6.108  0.0054  0.0823  0.5476
 2456SOL    HW119001   4.204   1.536   6.038 -2.3628 -2.7013 -0.6823
 2456SOL    HW219002   4.085   1.481   6.108 -0.6386  0.5576  0.0771
 2457SOL     OW19003   3.037   2.469   3.836 -0.6247 -0.1316  0.1833
 2457SOL    HW119004   3.078   2.406   3.895 -0.0451  0.5892  0.5532
 2457SOL    HW219005   2.956   2.426   3.808 -0.0209 -2.1267  1.5055
 2458SOL     OW19006   4.007   1.709   1.742 -0.4351  0.5324  0.1321
 2458SOL    HW119007   3.912   1.699   1.740 -0.2278 -1.5095  0.5577
 2458SOL    HW219008   4.036   1.640   1.682  2.1355  3.6751 -2.2398
 2459SOL     OW19009   4.597   3.520   6.521 -0.0646 -0.0203  0.8207
 2459SOL    HW119010   4.617   3.462   6.595 -1.8812 -0.4065  1.0049
 2459SOL    HW219011   4.524   3.465   6.495  1.1096 -0.1524 -2.1612
 2460SOL     OW19012   2.012   3.407   8.326  0.4649 -0.3415  0.2956
 2460SOL    HW119013   2.087   3.367   8.282 -1.2014 -2.9493 -0.1500
 2460SOL    HW219014   1.971   3.448   8.250  3.3826 -0.9025 -1.5538
 2461SOL     OW19015   0.793   1.687   2.870  0.0917 -0.1755  0.0857
 2461SOL    HW119016   0.804   1.673   2.964 -0.6480  0.9201  0.3397
 2461SOL    HW219017   0.761   1.601   2.841 -3.0078  0.8534  0.4622
 2462SOL     OW19018   2.829   2.248   9.076 -0.0978  0.0167  1.0135
 2462SOL    HW119019   2.764   2.308   9.112 -2.1624 -0.7891 -1.3921
 2462SOL    HW219020   2.782   2.231   8.994  1.7147 -0.3387  0.0503
 2463SOL     OW19021   1.237   2.997   0.461  0.4008  0.1689  0.1648
 2463SOL    HW119022   1.217   3.032   0.548 -0.4671  0.4183 -0.1399
 2463SOL    HW219023   1.292   2.922   0.486  2.0765  1.1312 -0.6374
 2464SOL     OW19024   4.555   3.086   6.523  0.3421  0.0466 -0.1206
 2464SOL    HW119025   4.650   3.080   6.535  0.0498  0.4610  2.3122
 2464SOL    HW219026   4.549   3.080   6.428 -1.9625 -0.3334  0.0493
 2465SOL     OW19027   4.461   2.367   1.652 -0.0455  0.1114 -0.0405
 2465SOL    HW119028   4.490   2.297   1.711  0.3019  0.7976  0.6062
 2465SOL    HW219029   4.416   2.321   1.581 -2.7899 -1.7099  2.9012
 2466SOL     OW19030   0.695   1.455   2.781  0.0932 -0.0497 -0.1123
 2466SOL    HW119031   0.616   1.431   2.830  1.4691  0.5826  2.4059
 2466SOL    HW219032   0.678   1.416   2.696  0.3279  1.0962 -0.6858
 2467SOL     OW19033   0.417   2.772  17.387  0.0461  0.1171 -0.2189
 2467SOL    HW119034   0.377   2.847  17.429 -0.4014 -1.8967  2.9377
 2467SOL    HW219035   0.501   2.764  17.432  0.1895  0.9968 -0.3441
 2468SOL     OW19036   1.519   4.439   7.661 -0.1075  0.0399 -0.6817
 2468SOL    HW119037   1.556   4.365   7.708 -0.5429  0.9023  1.0058
 2468SOL    HW219038   1.434   4.443   7.704 -0.0977 -1.1211 -0.5523
 2469SOL     OW19039   2.495   3.388   7.247  0.3387 -0.3917 -0.1768
 2469SOL    HW119040   2.529   3.389   7.158  1.4371  0.4716  0.2582
 2469SOL    HW219041   2.456   3.301   7.241  0.4878 -0.5211  0.7284
 2470SOL     OW19042   1.259   2.113   2.593 -0.1364  0.1641 -0.1014
 2470SOL    HW119043   1.231   2.026   2.566 -0.4680  0.2012  0.1269
 2470SOL    HW219044   1.309   2.085   2.670 -0.9435  0.1761  0.4274
 2471SOL     OW19045   0.176   3.527  14.886 -0.0027  0.1909  0.7792
 2471SOL    HW119046   0.224   3.608  14.869  0.4042 -0.4431 -1.1057
 2471SOL    HW219047   0.124   3.515  14.807  3.5080  2.6838 -1.8845
 2472SOL     OW19048   0.847   3.638   7.383  0.2824  0.1157 -0.1505
 2472SOL    HW119049   0.924   3.598   7.424  0.9243  0.8529 -0.6241
 2472SOL    HW219050   0.888   3.638   7.296  2.1828  1.1338  0.7457
 2473SOL     OW19051   1.364   2.966   1.599 -0.2723 -0.2110 -0.5781
 2473SOL    HW119052   1.303   2.894   1.615  1.4374 -1.5467 -0.0027
 2473SOL    HW219053   1.418   2.971   1.678 -0.8494 -1.8170 -0.0811
 2474SOL     OW19054   4.694   2.056  17.516  0.0609 -0.1209 -0.3127
 2474SOL    HW119055   4.624   1.990  17.524 -0.5792  0.5886 -0.0908
 2474SOL    HW219056   0.018   2.019  17.451 -0.1591 -0.9556 -0.0381
 2475SOL     OW19057   2.909   3.753   6.544 -0.2263 -0.0905 -1.0947
 2475SOL    HW119058   2.986   3.697   6.553  0.2874  1.3359  3.1845
 2475SOL    HW219059   2.858   3.734   6.622 -0.4830  1.2226 -0.9533
 2476SOL     OW19060   2.480   2.920   5.722  0.0416 -0.0559 -0.2371
 2476SOL    HW119061   2.498   2.896   5.813  2.2418  1.3730 -0.2788
 2476SOL    HW219062   2.464   2.836   5.679 -2.5677  1.9091 -3.1258
 2477SOL     OW19063   3.004   3.884   9.448  0.0747 -0.1106  0.2595
 2477SOL    HW119064   2.932   3.915   9.502  0.1361 -1.3056  1.0213
 2477SOL    HW219065   3.007   3.946   9.375  0.9267 -0.3552  0.0874
 2478SOL     OW19066   2.367   3.016   3.427  0.3536 -0.2037  0.1271
 2478SOL    HW119067   2.376   3.081   3.357  1.4048 -0.2538  0.2210
 2478SOL    HW219068   2.427   3.049   3.494  1.1892 -0.5832 -0.4393
 2479SOL     OW19069   0.781   2.967   0.385  0.1806  0.1100 -0.0333
 2479SOL    HW119070   0.831   2.973   0.304 -0.1881  2.5466 -0.0772
 2479SOL    HW219071   0.801   3.053   0.422 -0.1056  0.2354 -0.1657
 2480SOL     OW19072   0.056   0.775   6.436  0.1096  0.3190 -0.0742
 2480SOL    HW119073   0.013   0.741   6.515 -0.0310 -2.0816 -1.1893
 2480SOL    HW219074   4.734   0.847   6.410  1.4930  1.4162 -0.1161
 2481SOL     OW19075   2.034   0.003  17.187 -0.0534  0.0983 -0.3860
 2481SOL    HW119076   2.065   0.090  17.163 -1.9597  0.8858 -0.0174
 2481SOL    HW219077   2.083   4.728  17.268 -2.9985  3.0059  1.8106
 2482SOL     OW19078   1.009   4.509  11.247  0.3759 -0.1329 -0.2808
 2482SOL    HW119079   1.024   4.601  11.268 -1.5563  0.0476  0.3527
 2482SOL    HW219080   0.939   4.475  11.303 -0.8195 -0.2785 -1.8779
 2483SOL     OW19081   3.675   3.404   5.322  0.3876  0.1716  0.2697
 2483SOL    HW119082   3.704   3.476   5.266 -2.3027 -0.8117 -2.3731
 2483SOL    HW219083   3.705   3.329   5.271 -1.4326 -0.0465 -0.4867
 2484SOL     OW19084   4.733   3.698   0.797  0.3033 -0.2069 -0.0971
 2484SOL    HW119085   0.032   3.618   0.835  0.8525 -1.3460 -2.9864
 2484SOL    HW219086   4.682   3.659   0.725 -0.3387  0.3885  0.0328
 2485SOL     OW19087   1.579   1.199   3.564 -0.2446 -0.4079  0.3423
 2485SOL    HW119088   1.591   1.148   3.484 -0.4100 -0.5935  0.4338
 2485SOL    HW219089   1.523   1.272   3.538  1.5920  0.6387 -0.5808
 2486SOL     OW19090   3.469   1.939  12.882 -0.1919  0.1223  0.1143
 2486SOL    HW119091   3.398   1.980  12.833  0.8463  3.4216  1.2926
 2486SOL    HW219092   3.449   1.846  12.882  0.6208 -0.0676  1.8596
 2487SOL     OW19093   1.056   0.694   2.089 -0.1464  0.3221 -0.2244
 2487SOL    HW119094   1.107   0.726   2.015 -2.1102  1.1669 -1.1879
 2487SOL    HW219095   0.979   0.648   2.056 -0.4555  0.0236  0.9150
 2488SOL     OW19096   0.710   2.050   9.137  0.0246 -0.0503 -0.4265
 2488SOL    HW119097   0.672   2.129   9.176 -0.1810  1.0449 -2.8340
 2488SOL    HW219098   0.719   1.988   9.208 -0.7544  1.8665  1.3506
 2489SOL     OW19099   2.966   3.897   7.481  0.2827 -0.1341 -0.2529
 2489SOL    HW119100   2.875   3.900   7.451  0.5021  1.4461 -0.7657
 2489SOL    HW219101   2.977   3.802   7.478 -1.4586 -0.3661  0.6215
 2490SOL     OW19102   4.182   2.988  16.745 -0.1010  0.5273 -0.0070
 2490SOL    HW119103   4.264   2.938  16.746  0.0249  0.7487  1.0011
 2490SOL    HW219104   4.190   3.017  16.654  1.3990  1.6691  0.4887
 2491SOL     OW19105   3.065   0.882  13.216 -0.1513 -0.2355 -0.2367
 2491SOL    HW119106   3.007   0.807  13.201  0.3266 -0.2910 -1.7377
 2491SOL    HW219107   3.063   0.890  13.312 -2.7936 -2.9092 -0.0661
 2492SOL     OW19108   4.380   1.347   8.253  0.0354  0.1891  0.1410
 2492SOL    HW119109   4.382   1.409   8.326  2.0849  0.3004 -0.0059
 2492SOL    HW219110   4.377   1.263   8.299 -1.9616  0.6104  0.7831
 2493SOL     OW19111   2.192   1.346   2.523 -0.5379  0.5947  0.1480
 2493SOL    HW119112   2.152   1.294   2.454 -1.5158  0.6163  0.6977
 2493SOL    HW219113   2.283   1.322   2.509 -0.9450 -0.2232 -1.0249
 2494SOL     OW19114   0.766   2.920   9.443 -0.2052  0.0515  1.0407
 2494SOL    HW119115   0.681   2.931   9.401  1.7885  4.1177 -1.9181
 2494SOL    HW219116   0.756   2.828   9.466  1.6219 -0.0503  1.4440
 2495SOL     OW19117   0.257   2.520   3.742 -0.5039 -0.3713 -0.2914
 2495SOL    HW119118   0.210   2.596   3.776  0.2200 -0.3190  0.5698
 2495SOL    HW219119   0.337   2.514   3.793  0.8747 -0.3380 -2.4378
 2496SOL     OW19120   0.985   4.718  16.353  0.0976  0.2105  0.3049
 2496SOL    HW119121   1.033   4.712  16.271 -1.3264  2.4526 -0.6956
 2496SOL    HW219122   1.054   4.699  16.416  1.1441 -0.0395 -0.9328
 2497SOL     OW19123   2.305   1.570  16.632 -0.1416  0.2231 -0.5465
 2497SOL    HW119124   2.306   1.590  16.539  1.5348  1.0353 -0.3499
 2497SOL    HW219125   2.378   1.511  16.647 -1.2646 -1.3596 -1.2931
 2498SOL     OW19126   2.775   3.860   2.945  0.2085 -0.9112 -0.0053
 2498SOL    HW119127   2.737   3.843   2.859 -1.5883  4.6986 -0.3166
 2498SOL    HW219128   2.712   3.812   2.999  0.0297 -0.0345  0.5626
 2499SOL     OW19129   3.450   2.757   9.899 -0.7128 -0.3512 -0.1625
 2499SOL    HW119130   3.533   2.726   9.864  1.1181  2.9645  1.2638
 2499SOL    HW219131   3.474   2.827   9.960  0.0453 -2.0289  1.4589
 2500SOL     OW19132   3.892   0.984   1.369  0.1294  0.0211 -0.3635
 2500SOL    HW119133   3.985   1.003   1.382  0.0202 -0.8038  1.6596
 2500SOL    HW219134   3.884   0.908   1.312 -1.8804 -2.3466  3.0918
 2501SOL     OW19135   3.301   3.025   4.961  0.1424  0.5607  0.1938
 2501SOL    HW119136   3.219   3.068   4.938 -0.0722 -0.1913 -0.4787
 2501SOL    HW219137   3.309   2.956   4.895  0.8935  0.3933  0.4710
 2502SOL     OW19138   4.406   1.990   3.895  0.2217  0.5865  0.7993
 2502SOL    HW119139   4.312   2.006   3.903 -0.5353 -2.2327 -2.3198
 2502SOL    HW219140   4.431   1.959   3.982 -0.4997  0.3405  0.9192
 2503SOL     OW19141   3.134   0.768  15.185 -0.5108  0.0306 -0.1628
 2503SOL    HW119142   3.145   0.817  15.104  1.2709 -1.7512 -0.9913
 2503SOL    HW219143   3.053   0.806  15.219  1.1216  1.8624  1.6751
 2504SOL     OW19144   2.989   0.266  11.973  0.0505 -0.0992  0.4451
 2504SOL    HW119145   2.998   0.195  11.908 -0.1898  0.0915  0.2013
 2504SOL    HW219146   3.053   0.336  11.963  0.5444 -0.3224  2.0984
 2505SOL     OW19147   2.014   1.429   2.738  0.1200 -0.0631  0.3335
 2505SOL    HW119148   2.063   1.509   2.717  0.5875 -0.7525 -1.1562
 2505SOL    HW219149   2.039   1.369   2.667  2.7099 -0.7586  1.8260
 2506SOL     OW19150   4.385   0.366   1.452 -0.4763  0.1836 -0.3482
 2506SOL    HW119151   4.422   0.442   1.497 -0.4438 -0.4268  0.6570
 2506SOL    HW219152   4.333   0.321   1.519  0.5470 -0.9457 -0.2905
 2507SOL     OW19153   4.574   1.113   2.043 -0.3429 -0.0880  0.3203
 2507SOL    HW119154   4.584   1.018   2.046  1.4096  0.0476 -1.3318
 2507SOL    HW219155   4.634   1.126   1.969  2.2652 -0.7499  2.2918
 2508SOL     OW19156   1.613   4.080   4.481  0.0811 -0.0206 -0.1801
 2508SOL    HW119157   1.539   4.040   4.435  0.3296 -2.0447  1.1929
 2508SOL    HW219158   1.675   4.008   4.486  0.4941  0.5698  3.2762
 2509SOL     OW19159   4.732   1.729  10.331  0.5708 -0.0028  0.2477
 2509SOL    HW119160   4.663   1.780  10.287  1.9938  0.2219 -1.6912
 2509SOL    HW219161   4.677   1.654  10.356 -0.0524  0.8765  1.4969
 2510SOL     OW19162   2.798   3.874  10.824  0.1237  0.0933  0.0019
 2510SOL    HW119163   2.704   3.861  10.832  0.3913  0.1872  3.3097
 2510SOL    HW219164   2.821   3.844  10.912  1.6794  1.2925  0.0144
 2511SOL     OW19165   2.108   0.954   7.676 -0.0595 -0.1299  0.0283
 2511SOL    HW119166   2.134   0.937   7.767  1.4450  0.9488 -0.1972
 2511SOL    HW219167   2.189   0.963   7.627 -0.3864 -0.8959 -0.6387
 2512SOL     OW19168   2.938   2.659   7.598  0.5907 -0.4766 -0.1794
 2512SOL    HW119169   3.002   2.606   7.645  1.5149  1.6239  0.9718
 2512SOL    HW219170   2.898   2.705   7.672  3.2228 -0.0822  1.0061
 2513SOL     OW19171   3.030   2.733  17.199 -0.0650  0.0514 -0.0534
 2513SOL    HW119172   3.003   2.668  17.133 -1.7731  0.1089  0.5996
 2513SOL    HW219173   2.983   2.812  17.172  0.5650 -0.2765 -2.1800
 2514SOL     OW19174   3.159   2.627   5.457  0.2653  0.4798 -0.0268
 2514SOL    HW119175   3.134   2.634   5.365  0.3748  2.0994  0.0663
 2514SOL    HW219176   3.146   2.716   5.489 -0.5284 -0.2635  1.7244
 2515SOL     OW19177   3.653   0.408  10.891  0.4572 -0.2009  0.1809
 2515SOL    HW119178   3.651   0.490  10.939 -0.3066  0.1628 -0.4771
 2515SOL    HW219179   3.747   0.396  10.878 -0.0395 -2.1907 -1.6515
 2516SOL     OW19180   1.199   0.108   4.601  1.1401  0.3333 -0.5024
 2516SOL    HW119181   1.190   0.090   4.694 -0.5161 -2.1768 -1.1439
 2516SOL    HW219182   1.151   0.189   4.586 -0.1923 -0.4604 -0.6160
 2517SOL     OW19183   1.387   2.534   7.179  0.3076 -0.6201  0.0869
 2517SOL    HW119184   1.417   2.575   7.261  0.4911 -1.0913  0.2536
 2517SOL    HW219185   1.300   2.574   7.176  1.0776  1.2337  1.9437
 2518SOL     OW19186   1.674   0.206  17.674 -0.0448  0.3612  0.2635
 2518SOL    HW119187   1.754   0.238  17.716  2.0482 -3.7828 -0.5411
 2518SOL    HW219188   1.707   0.189  17.586 -2.4087 -0.3831 -0.4938
 2519SOL     OW19189   2.900   3.389   7.827  0.1242  1.3350  0.6190
 2519SOL    HW119190   2.845   3.429   7.759  1.2561  2.6946  0.4995
 2519SOL    HW219191   2.984   3.429   7.804  2.3060 -2.7049  1.5546
 2520SOL     OW19192   0.489   2.918   5.048  0.6621 -0.1156 -0.3145
 2520SOL    HW119193   0.547   2.976   5.000  0.2424 -0.9823 -1.8670
 2520SOL    HW219194   0.556   2.874   5.101 -1.0233 -2.5019 -0.1446
 2521SOL     OW19195   2.828   3.698   5.127 -0.2929 -0.1957  0.4821
 2521SOL    HW119196   2.786   3.783   5.120  0.5169  0.1512 -0.1865
 2521SOL    HW219197   2.825   3.656   5.041 -0.0285 -1.1044  0.9130
 2522SOL     OW19198   2.561   3.322  17.557  0.3887 -0.0946  0.6274
 2522SOL    HW119199   2.492   3.364  17.609 -0.7428 -0.2350 -0.7554
 2522SOL    HW219200   2.523   3.328  17.469  1.9393 -2.7953 -0.1903
 2523SOL     OW19201   3.025   2.229   6.024  0.1442 -0.4971 -0.2910
 2523SOL    HW119202   3.059   2.143   6.050 -3.3165 -1.7172  0.0766
 2523SOL    HW219203   3.067   2.241   5.939 -0.4178  0.1948 -0.4686
 2524SOL     OW19204   3.419   1.424   7.966  0.3129 -0.0747  0.5348
 2524SOL    HW119205   3.450   1.337   7.942 -0.8021 -0.4851  0.5434
 2524SOL    HW219206   3.344   1.425   7.907 -1.8533 -1.9690  3.2133
 2525SOL     OW19207   3.991   1.443  10.899  0.1618  0.3530 -0.5787
 2525SOL    HW119208   4.026   1.402  10.978  0.0103 -1.7253 -1.5847
 2525SOL    HW219209   3.912   1.482  10.935 -1.6466 -1.8535 -2.1646
 2526SOL     OW19210   0.967   0.778   3.721  0.4327  0.0501 -0.4017
 2526SOL    HW119211   1.037   0.828   3.763  0.3494 -0.6449  0.5664
 2526SOL    HW219212   1.001   0.689   3.714  0.7483  0.2670 -1.6866
 2527SOL     OW19213   1.558   2.119   4.763 -0.0347  0.3929 -0.0861
 2527SOL    HW119214   1.641   2.166   4.753  0.9738 -1.6636 -1.4444
 2527SOL    HW219215   1.546   2.077   4.677 -0.8202  0.9274 -0.2400
 2528SOL     OW19216   3.778   2.190  12.117 -0.4811  0.0421  0.7013
 2528SOL    HW119217   3.859   2.180  12.167 -0.4934 -2.8398  0.1038
 2528SOL    HW219218   3.707   2.191  12.182 -0.9902 -0.4559  0.1545
 2529SOL     OW19219   0.779   0.766  15.183 -0.1408 -0.2620 -0.4273
 2529SOL    HW119220   0.700   0.757  15.130 -0.6575  1.9353 -0.0602
 2529SOL    HW219221   0.748   0.849  15.219 -1.7589 -0.1298 -2.1197
 2530SOL     OW19222   1.321   1.653   3.635 -0.6151  0.4317 -0.4247
 2530SOL    HW119223   1.329   1.730   3.580  0.1810 -0.6059 -1.7435
 2530SOL    HW219224   1.394   1.596   3.611  0.6521  1.0514  1.9089
 2531SOL     OW19225   1.445   1.045   2.632 -0.8094 -0.3748  0.7568
 2531SOL    HW119226   1.533   1.067   2.601 -0.6528  1.3131  2.4321
 2531SOL    HW219227   1.435   1.120   2.690  3.0581 -0.8749  2.0170
 2532SOL     OW19228   1.319   3.006   1.345 -0.5949  0.1159 -0.0130
 2532SOL    HW119229   1.389   2.959   1.298 -0.1144 -0.3940  1.2131
 2532SOL    HW219230   1.339   2.988   1.437  0.6785  0.5433 -0.2084
 2533SOL     OW19231   0.185   1.059   5.636  0.4131  0.2196  0.1822
 2533SOL    HW119232   0.231   1.010   5.704 -1.1949 -2.8919 -0.9768
 2533SOL    HW219233   0.128   0.990   5.602  0.1807  1.5464 -2.0550
 2534SOL     OW19234   2.604   0.724  10.799 -0.2018  0.7952  0.2942
 2534SOL    HW119235   2.523   0.690  10.759  0.3538  0.0658 -0.2068
 2534SOL    HW219236   2.634   0.649  10.849  0.1322  0.8623  0.1967
 2535SOL     OW19237   1.179   3.407   2.371  0.3452  0.4141 -0.0647
 2535SOL    HW119238   1.152   3.438   2.284 -1.5496 -1.8031 -0.2503
 2535SOL    HW219239   1.130   3.464   2.430  2.3755  1.7619  0.3054
 2536SOL     OW19240   1.963   4.516   4.756 -0.0871  0.2378  0.0560
 2536SOL    HW119241   1.963   4.533   4.851 -1.3311 -0.5265  0.1944
 2536SOL    HW219242   1.957   4.420   4.756  1.5191  0.1331  3.0239
 2537SOL     OW19243   4.262   0.141   5.546 -0.3986  0.3924  0.5192
 2537SOL    HW119244   4.332   0.168   5.606  0.8761 -0.7111 -0.4825
 2537SOL    HW219245   4.231   0.225   5.513 -2.9845 -0.6708  0.2507
 2538SOL     OW19246   3.011   2.763   2.127 -0.2147  0.5534  0.2212
 2538SOL    HW119247   2.995   2.724   2.041 -2.3170  2.9970 -0.5198
 2538SOL    HW219248   3.010   2.857   2.106 -0.3983  0.4423 -0.2490
 2539SOL     OW19249   0.526   3.523   1.679  0.0974 -0.3093 -0.2656
 2539SOL    HW119250   0.492   3.438   1.651 -1.8970  1.7589 -4.1056
 2539SOL    HW219251   0.609   3.490   1.712 -0.4118  0.4389  1.7910
 2540SOL     OW19252   2.019   0.647  14.234 -0.6445 -0.6580 -0.0174
 2540SOL    HW119253   1.964   0.569  14.235 -2.7449  0.8793  2.2951
 2540SOL    HW219254   2.071   0.649  14.314  0.3024 -3.4858 -0.5818
 2541SOL     OW19255   1.417   3.325   0.748  0.0540 -0.0369 -0.2713
 2541SOL    HW119256   1.479   3.399   0.750 -2.2606  1.8607  1.5385
 2541SOL    HW219257   1.445   3.266   0.818  1.9960 -1.4225 -2.2045
 2542SOL     OW19258   4.301   0.190   8.445  0.2829 -0.0439  0.0318
 2542SOL    HW119259   4.363   0.142   8.390  0.0263 -0.4344  0.0817
 2542SOL    HW219260   4.355   0.269   8.456  0.0021  0.1317  0.1404
 2543SOL     OW19261   1.673   3.633   2.424  0.2356 -0.3823 -0.8289
 2543SOL    HW119262   1.628   3.677   2.352  0.1329  0.5874 -0.1846
 2543SOL    HW219263   1.713   3.705   2.473 -0.2876 -0.7923  0.2112
 2544SOL     OW19264   2.155   4.320  17.216 -0.6382 -0.1816 -0.1554
 2544SOL    HW119265   2.110   4.358  17.140 -1.5960  0.9111  0.9607
 2544SOL    HW219266   2.089   4.274  17.268 -0.2871  1.1067  1.3909
 2545SOL     OW19267   4.398   1.450   7.342 -0.6520 -0.2644 -0.2772
 2545SOL    HW119268   4.344   1.452   7.264  0.0842  0.8182 -0.7559
 2545SOL    HW219269   4.461   1.521   7.329  0.7916 -0.9999  2.6642
 2546SOL     OW19270   0.580   4.654   2.723 -1.0451 -0.2540 -0.0603
 2546SOL    HW119271   0.553   4.703   2.801  2.0525 -1.9594  2.0736
 2546SOL    HW219272   0.557   4.722   2.660 -2.8788 -1.4788 -0.7197
 2547SOL     OW19273   2.460   3.735   4.735 -0.3238 -0.3504 -0.2152
 2547SOL    HW119274   2.390   3.720   4.671  0.8733 -1.2063 -1.3150
 2547SOL    HW219275   2.436   3.688   4.815 -2.7441 -1.2292 -1.4477
 2548SOL     OW19276   3.413   3.210   8.953 -0.2050 -0.1400  0.2682
 2548SOL    HW119277   3.507   3.211   8.974 -0.4760  0.5046  1.4840
 2548SOL    HW219278   3.378   3.157   9.024 -0.2498 -0.1295  0.2535
 2549SOL     OW19279   2.049   4.694   3.649  0.1323 -0.1776 -0.8231
 2549SOL    HW119280   2.022   0.028   3.708  1.6781  0.6159 -1.0360
 2549SOL    HW219281   1.978   4.696   3.585  0.3346  2.0172 -0.9870
 2550SOL     OW19282   2.105   3.820  15.381 -0.3570  0.0272  0.1236
 2550SOL    HW119283   2.132   3.907  15.352 -1.6360 -0.0266 -1.2356
 2550SOL    HW219284   2.179   3.776  15.337 -0.9476 -0.9821  0.1250
 2551SOL     OW19285   3.058   2.600   4.142 -0.0662 -0.9021 -0.3705
 2551SOL    HW119286   3.006   2.548   4.204 -1.0772  2.5538  1.6773
 2551SOL    HW219287   3.143   2.559   4.153  0.9534  1.8769  2.0308
 2552SOL     OW19288   4.434   1.335   4.471  0.2410 -0.2361  0.2142
 2552SOL    HW119289   4.457   1.395   4.399  1.2213 -2.1696 -1.0827
 2552SOL    HW219290   4.350   1.364   4.507 -0.2756 -0.7466 -0.5850
 2553SOL     OW19291   4.426   0.879  17.418 -0.0482  0.7128  0.2495
 2553SOL    HW119292   4.404   0.846  17.504  1.5450  0.9589  0.7550
 2553SOL    HW219293   4.439   0.972  17.437 -2.8252  0.7839  1.8106
 2554SOL     OW19294   3.588   3.191   2.229 -0.2523  0.0401 -0.3377
 2554SOL    HW119295   3.563   3.191   2.136 -1.1034 -0.3115 -0.1100
 2554SOL    HW219296   3.523   3.255   2.259  0.2187  0.1043  0.5217
 2555SOL     OW19297   0.477   1.768   0.740  0.6667  0.2545  0.5302
 2555SOL    HW119298   0.469   1.703   0.671 -1.0815  0.8806  0.1427
 2555SOL    HW219299   0.443   1.712   0.810  0.6449 -1.1116 -0.5795
 2556SOL     OW19300   0.805   3.483   4.425  0.1613 -0.0592 -0.7540
 2556SOL    HW119301   0.825   3.390   4.439 -1.8733 -0.2297  1.1322
 2556SOL    HW219302   0.848   3.520   4.502 -1.4778 -0.6904  0.4629
 2557SOL     OW19303   2.255   0.654   2.227  0.8181 -0.5280 -0.0703
 2557SOL    HW119304   2.171   0.635   2.186  1.0179  1.1850 -1.2754
 2557SOL    HW219305   2.233   0.615   2.311 -2.7216  1.6949  0.0221
 2558SOL     OW19306   1.166   4.210   4.519 -0.0142 -1.0543 -0.0232
 2558SOL    HW119307   1.245   4.155   4.517  0.5593 -0.1877 -1.1427
 2558SOL    HW219308   1.186   4.284   4.462 -0.0454 -0.6689  0.4633
 2559SOL     OW19309   3.617   0.641   1.165  0.3914 -0.2917 -0.3440
 2559SOL    HW119310   3.692   0.691   1.196  0.8779 -0.8532 -0.6107
 2559SOL    HW219311   3.637   0.618   1.074 -0.3630  0.5536 -0.7225
 2560SOL     OW19312   0.073   3.753   7.000  0.6327  0.5637 -0.0546
 2560SOL    HW119313   0.059   3.796   7.085  0.4771 -0.5065  0.4550
 2560SOL    HW219314   0.161   3.715   7.007 -0.2161 -1.3569 -0.0804
 2561SOL     OW19315   1.534   4.616  11.172 -0.4589 -0.1941 -0.4490
 2561SOL    HW119316   1.576   4.669  11.241 -1.7750 -0.7819  0.7912
 2561SOL    HW219317   1.587   4.643  11.096 -0.4290 -1.9501 -1.0372
 2562SOL     OW19318   2.975   1.192  17.078 -0.2491 -0.8789 -0.0638
 2562SOL    HW119319   3.016   1.268  17.036 -0.7163  0.3352  1.6964
 2562SOL    HW219320   2.910   1.250  17.117 -1.4152 -1.6319 -0.8925
 2563SOL     OW19321   4.078   3.189  15.234  0.7328  0.6529  0.5778
 2563SOL    HW119322   4.125   3.265  15.267 -1.0431  2.1557 -0.3791
 2563SOL    HW219323   4.138   3.120  15.204  1.3624  0.9195  1.2136
 2564SOL     OW19324   1.566   3.974   4.820 -0.1254 -0.0746  0.0248
 2564SOL    HW119325   1.658   3.964   4.797 -0.0829 -0.4505  0.3488
 2564SOL    HW219326   1.543   3.891   4.860 -2.6327  1.0415  0.9333
 2565SOL     OW19327   1.503   4.013   8.949  0.4576  0.2961 -0.1021
 2565SOL    HW119328   1.555   4.091   8.969 -0.5461  0.4443  2.0477
 2565SOL    HW219329   1.554   3.984   8.874 -2.3535 -0.1773 -1.8323
 2566SOL     OW19330   0.540   3.103  10.905  0.2286 -0.0180  0.3937
 2566SOL    HW119331   0.600   3.164  10.862  0.5321 -0.2575  0.4754
 2566SOL    HW219332   0.591   3.022  10.903  2.9562  1.7012  0.4946
 2567SOL     OW19333   0.230   0.767   2.722  0.1369  0.1564 -0.1588
 2567SOL    HW119334   0.201   0.676   2.734  0.4833  0.1591  0.6761
 2567SOL    HW219335   0.246   0.755   2.629 -0.4769 -0.9057 -0.1319
 2568SOL     OW19336   2.892   4.404  13.675  0.5567 -1.1368  0.3927
 2568SOL    HW119337   2.901   4.446  13.590  0.5762  0.0672  0.9929
 2568SOL    HW219338   2.820   4.341  13.664  0.3849 -1.1196  1.3517
 2569SOL     OW19339   4.317   3.118  11.531 -0.1784 -0.1764 -0.0749
 2569SOL    HW119340   4.288   3.204  11.560  0.4328  0.5100 -1.4938
 2569SOL    HW219341   4.408   3.145  11.520 -0.0389 -0.9741 -0.8867
 2570SOL     OW19342   0.838   4.733   6.003 -0.2296  0.3190  0.3227
 2570SOL    HW119343   0.744   0.014   5.998 -0.1044  1.0676  0.4550
 2570SOL    HW219344   0.884   0.066   5.954 -3.5784  1.6600 -0.9003
 2571SOL     OW19345   2.102   4.333   5.152  0.0217 -0.1803 -0.0690
 2571SOL    HW119346   2.031   4.390   5.123  2.3166  0.2397 -4.8327
 2571SOL    HW219347   2.139   4.383   5.225 -0.9269 -1.0931  1.0653
 2572SOL     OW19348   4.414   1.338  13.582  0.3361 -0.1152  0.2051
 2572SOL    HW119349   4.339   1.333  13.523 -0.0401 -0.3896  0.7037
 2572SOL    HW219350   4.433   1.431  13.582  1.1052 -0.2707 -0.2974
 2573SOL     OW19351   0.271   1.182   8.274  0.5302  0.6737 -0.4887
 2573SOL    HW119352   0.189   1.146   8.307 -0.5854  2.0926 -1.7617
 2573SOL    HW219353   0.328   1.174   8.351  0.9768 -1.8402 -1.0609
 2574SOL     OW19354   2.750   0.123  17.048 -0.3348 -0.7037 -0.6741
 2574SOL    HW119355   2.826   0.153  16.999 -0.6874  2.0444  0.4693
 2574SOL    HW219356   2.710   0.206  17.077  1.4175 -0.2059  0.2839
 2575SOL     OW19357   1.107   1.326  16.774  0.1346  0.4088 -0.1744
 2575SOL    HW119358   1.197   1.325  16.806  0.3098  1.0969 -0.6374
 2575SOL    HW219359   1.086   1.419  16.765 -2.2867 -0.2629 -1.5750
 2576SOL     OW19360   3.233   2.457  12.998  0.3477 -0.2942  0.3105
 2576SOL    HW119361   3.278   2.542  12.990 -2.1880  0.8015 -2.3722
 2576SOL    HW219362   3.240   2.451  13.093 -0.1400 -2.8549  0.1588
 2577SOL     OW19363   0.471   3.288   3.817 -0.1374  0.0838  0.1530
 2577SOL    HW119364   0.426   3.337   3.748  1.7609  0.4933 -0.7851
 2577SOL    HW219365   0.401   3.226   3.840 -1.9921  2.3794  0.7539
 2578SOL     OW19366   2.615   1.988   0.595 -0.2447 -0.1320  0.3277
 2578SOL    HW119367   2.699   1.946   0.577 -0.7303 -1.0491  0.2026
 2578SOL    HW219368   2.597   1.966   0.687  1.4953  0.0752  0.7084
 2579SOL     OW19369   0.834   0.085  11.094 -0.2380  0.3952  0.3997
 2579SOL    HW119370   0.907   0.106  11.151  1.4117 -0.0496 -1.5428
 2579SOL    HW219371   0.777   0.033  11.151  1.3444  0.5391  2.0990
 2580SOL     OW19372   0.684   2.928   3.782  0.4582 -0.4806 -0.1004
 2580SOL    HW119373   0.591   2.906   3.787  0.0341  1.6334  1.1486
 2580SOL    HW219374   0.698   2.944   3.689  3.5326  1.5379  0.7008
 2581SOL     OW19375   2.980   4.118   8.786 -0.1904 -0.0103  0.0245
 2581SOL    HW119376   2.996   4.116   8.692 -1.7069 -1.0821 -0.2178
 2581SOL    HW219377   3.054   4.171   8.814 -0.7845 -0.1268  1.7871
 2582SOL     OW19378   1.340   1.987   1.903 -0.3945  0.3312 -0.0727
 2582SOL    HW119379   1.403   1.925   1.941 -0.0407  1.0281  0.4645
 2582SOL    HW219380   1.342   2.055   1.969  0.6785 -0.3123  0.5589
 2583SOL     OW19381   3.024   2.023   8.526 -0.2099  0.2171  0.0283
 2583SOL    HW119382   3.062   2.059   8.446  0.7370 -0.6791  0.0777
 2583SOL    HW219383   2.937   2.064   8.520 -1.3266 -1.8721  1.7858
 2584SOL     OW19384   2.016   2.896   7.183 -0.8043  0.5136  0.8091
 2584SOL    HW119385   1.928   2.874   7.153  0.6785  1.7217 -4.5326
 2584SOL    HW219386   2.046   2.940   7.103  0.9804 -1.1345  0.5828
 2585SOL     OW19387   3.281   4.601  14.061  0.5259 -0.0908 -0.5990
 2585SOL    HW119388   3.193   4.564  14.060 -0.0217  1.1784  0.8928
 2585SOL    HW219389   3.304   4.593  14.153 -0.5027 -1.5222 -0.4646
 2586SOL     OW19390   4.146   4.294   8.344  0.1911  0.5550  1.1346
 2586SOL    HW119391   4.086   4.289   8.269  2.0305 -0.4451 -0.2521
 2586SOL    HW219392   4.105   4.365   8.393 -0.9800  1.7155 -1.5220
 2587SOL     OW19393   4.683   2.421  15.579 -0.3370  0.0793 -0.3321
 2587SOL    HW119394   4.639   2.506  15.589  0.7667  0.6544 -0.3287
 2587SOL    HW219395   4.734   2.431  15.499 -0.4193  2.3996 -0.0973
 2588SOL     OW19396   2.869   1.073   3.718  0.1535  0.3891  0.1833
 2588SOL    HW119397   2.798   1.136   3.730  0.3564  0.6692 -0.0933
 2588SOL    HW219398   2.939   1.122   3.675  0.4418  0.4335  0.7072
 2589SOL     OW19399   1.622   3.988   7.866 -0.1336 -0.1954  0.0973
 2589SOL    HW119400   1.669   4.044   7.805  1.3781 -1.3732  0.1862
 2589SOL    HW219401   1.542   4.034   7.889 -0.3471 -0.6880  0.3574
 2590SOL     OW19402   1.976   0.560  13.752 -0.1214  0.3931  0.1275
 2590SOL    HW119403   2.039   0.521  13.693  1.4152 -0.3849  2.2829
 2590SOL    HW219404   1.900   0.514  13.716  0.4359  0.5273 -1.2064
 2591SOL     OW19405   3.223   0.895   3.647 -0.2309  0.2528 -0.4827
 2591SOL    HW119406   3.210   0.923   3.557 -2.4712 -0.1564 -0.2693
 2591SOL    HW219407   3.218   0.799   3.641 -1.8961  0.1611  2.2296
 2592SOL     OW19408   0.489   2.712   1.356 -0.6230  0.5856  0.5767
 2592SOL    HW119409   0.442   2.698   1.438 -2.3682 -0.8991 -0.6868
 2592SOL    HW219410   0.424   2.740   1.291 -0.9889 -1.5108  0.0437
 2593SOL     OW19411   3.594   2.262   7.138 -0.4700 -0.3411  0.0132
 2593SOL    HW119412   3.591   2.169   7.161  0.8523  0.0538  1.7902
 2593SOL    HW219413   3.539   2.288   7.212 -1.1198 -0.9138 -0.2626
 2594SOL     OW19414   0.116   2.007   2.360  0.3829  0.5696  0.6803
 2594SOL    HW119415   0.209   1.999   2.376  0.4071  0.4149  0.4691
 2594SOL    HW219416   0.087   1.926   2.402 -2.3810  1.7016  0.9757
 2595SOL     OW19417   4.302   2.179   9.095  0.1114  0.2831 -0.2216
 2595SOL    HW119418   4.372   2.230   9.053 -0.8620  1.5298 -0.3307
 2595SOL    HW219419   4.301   2.110   9.028  1.6422  0.1932 -0.1571
 2596SOL     OW19420   0.262   2.639   6.669 -0.5188  0.0496  0.5215
 2596SOL    HW119421   0.309   2.649   6.586  0.5535  1.7950  1.3614
 2596SOL    HW219422   0.234   2.549   6.651 -0.2818 -0.0041  0.4200
 2597SOL     OW19423   3.473   2.673   2.788 -0.0719 -0.1574 -0.3228
 2597SOL    HW119424   3.459   2.654   2.695 -0.2474 -3.6936  0.4269
 2597SOL    HW219425   3.488   2.767   2.780 -1.0139 -0.1651 -2.2934
 2598SOL     OW19426   2.256   1.542   3.882 -0.1818  0.2437  0.3972
 2598SOL    HW119427   2.340   1.588   3.892 -0.4024  0.7781 -0.2526
 2598SOL    HW219428   2.264   1.472   3.818 -1.2599 -0.0340  0.5712
 2599SOL     OW19429   4.728   2.038   6.574  0.0870  0.1093 -0.5178
 2599SOL    HW119430   0.010   2.082   6.657 -1.2008 -0.9313  0.3211
 2599SOL    HW219431   0.083   2.012   6.560 -0.2681 -0.7937 -1.1594
 2600SOL     OW19432   4.485   0.433   4.189 -0.3696  0.0361 -0.0746
 2600SOL    HW119433   4.570   0.405   4.157  0.4294  0.7046  1.4906
 2600SOL    HW219434   4.436   0.385   4.122  0.5241 -1.4870  0.3756
 2601SOL     OW19435   2.532   4.397   4.461  0.3623 -0.0175  0.4666
 2601SOL    HW119436   2.611   4.441   4.429  0.6537 -0.1637  0.9727
 2601SOL    HW219437   2.520   4.440   4.546 -1.0542  0.1550  0.1741
 2602SOL     OW19438   2.653   2.941  11.701 -0.0635 -0.0591 -0.6491
 2602SOL    HW119439   2.593   2.993  11.754  0.5106  0.1175 -0.1774
 2602SOL    HW219440   2.600   2.861  11.690 -1.5857  0.8588  0.0600
 2603SOL     OW19441   2.383   4.566   8.356  0.0116  0.2491  0.0025
 2603SOL    HW119442   2.354   4.503   8.289  1.7913 -0.6687  0.1026
 2603SOL    HW219443   2.435   4.622   8.299  3.7627 -1.3904  1.8510
 2604SOL     OW19444   0.737   0.562  17.262  0.4618  0.2119  0.0509
 2604SOL    HW119445   0.778   0.475  17.255  0.4478  0.4825 -3.3727
 2604SOL    HW219446   0.714   0.559  17.354 -3.2703 -2.2095 -0.9583
 2605SOL     OW19447   0.439   2.934  11.247  0.0126  0.3582 -0.0980
 2605SOL    HW119448   0.385   2.902  11.176 -2.0118  0.5974  1.3384
 2605SOL    HW219449   0.519   2.883  11.232  0.5078  1.5561 -1.5240
 2606SOL     OW19450   2.648   3.703   4.064 -0.4209  0.5265 -0.1481
 2606SOL    HW119451   2.651   3.756   4.144 -2.2525  0.8875 -0.3015
 2606SOL    HW219452   2.583   3.639   4.096  1.5793 -0.8605  1.1330
 2607SOL     OW19453   1.177   1.020  10.799 -0.0404  0.5191  0.0205
 2607SOL    HW119454   1.104   1.021  10.861 -0.6958  1.3052 -0.7641
 2607SOL    HW219455   1.233   1.087  10.838 -0.1918 -0.5405  2.1197
 2608SOL     OW19456   0.380   0.882   5.183 -0.1824 -0.4876 -0.3814
 2608SOL    HW119457   0.470   0.855   5.162 -0.1054 -0.4233 -0.1422
 2608SOL    HW219458   0.377   0.876   5.279 -3.2967  1.3636 -0.3545
 2609SOL     OW19459   4.471   3.967  11.766 -0.6490  0.3531  0.2620
 2609SOL    HW119460   4.509   3.934  11.684 -0.1925  1.1227  0.1604
 2609SOL    HW219461   4.473   3.881  11.808 -2.7253 -0.1277 -0.6399
 2610SOL     OW19462   0.608   1.269   1.261 -0.3262 -0.1177  0.3008
 2610SOL    HW119463   0.664   1.321   1.203 -1.6934  1.3349  0.2935
 2610SOL    HW219464   0.532   1.324   1.276 -0.6141 -0.8423  1.5184
 2611SOL     OW19465   1.303   1.041   8.163  0.4523  0.5195  0.0300
 2611SOL    HW119466   1.230   1.086   8.205  0.6605  1.1263 -0.2613
 2611SOL    HW219467   1.269   1.039   8.073  0.7231 -1.4030 -0.0334
 2612SOL     OW19468   0.014   0.534  11.569 -0.2769 -0.4048  0.0994
 2612SOL    HW119469   0.027   0.565  11.658 -2.1304 -1.3310  0.7092
 2612SOL    HW219470   0.097   0.491  11.548 -0.5939 -0.3861 -1.1826
 2613SOL     OW19471   3.404   1.177   2.185 -0.2400 -0.3500  0.4528
 2613SOL    HW119472   3.444   1.161   2.270 -1.0207 -2.8841  0.3292
 2613SOL    HW219473   3.315   1.195   2.215 -1.3349 -1.3824 -2.2100
 2614SOL     OW19474   1.946   4.144   7.141 -0.3645  0.2489  0.6838
 2614SOL    HW119475   2.018   4.085   7.166  0.3117  1.2763  1.1556
 2614SOL    HW219476   1.984   4.228   7.165 -0.0454  0.0038  1.0514
 2615SOL     OW19477   1.553   1.578  10.350 -0.2236 -0.1025 -0.5754
 2615SOL    HW119478   1.640   1.550  10.322  0.4313  0.5410  0.8204
 2615SOL    HW219479   1.563   1.568  10.445 -2.4787  0.6583 -0.2485
 2616SOL     OW19480   3.186   2.212  16.437  0.3570  0.2714 -0.6498
 2616SOL    HW119481   3.178   2.308  16.436  1.7539  0.3921 -0.4237
 2616SOL    HW219482   3.184   2.190  16.530 -1.0003 -0.7116 -0.9083
 2617SOL     OW19483   3.802   0.513   9.609 -0.0641 -0.1424  0.3997
 2617SOL    HW119484   3.718   0.537   9.649  0.3697  1.0463  0.5961
 2617SOL    HW219485   3.860   0.494   9.684 -0.1586  0.2613  0.5751
 2618SOL     OW19486   4.697   0.614  16.049  0.1527 -0.2558  0.4271
 2618SOL    HW119487   0.010   0.579  16.123 -1.1590 -1.0048  0.9297
 2618SOL    HW219488   0.018   0.690  16.036  1.5548 -1.4961 -0.8000
 2619SOL     OW19489   3.207   3.440   6.500 -0.1632  0.2893 -0.2379
 2619SOL    HW119490   3.187   3.347   6.501 -0.0648  0.2627 -1.8955
 2619SOL    HW219491   3.161   3.473   6.423 -0.9274 -0.3306 -0.0539
 2620SOL     OW19492   2.698   4.039   3.559 -0.4624 -0.0469  0.0418
 2620SOL    HW119493   2.622   3.993   3.523 -1.3795  0.4792  1.3445
 2620SOL    HW219494   2.732   4.068   3.474 -1.9382  2.4136  0.3101
 2621SOL     OW19495   1.474   1.656   6.638 -0.2440  0.2931 -0.2476
 2621SOL    HW119496   1.451   1.732   6.585 -0.7924  0.0406 -0.3787
 2621SOL    HW219497   1.544   1.626   6.580  0.2432  1.7613 -0.4050
 2622SOL     OW19498   4.244   0.682   4.922  0.0878  0.4679 -0.3956
 2622SOL    HW119499   4.235   0.608   4.981 -1.1724 -1.0402 -2.4785
 2622SOL    HW219500   4.337   0.670   4.902 -0.4966 -0.7259 -2.4251
 2623SOL     OW19501   3.274   2.973   6.387 -0.0712  0.4616 -0.0668
 2623SOL    HW119502   3.312   3.026   6.317  0.6937  1.4019  1.0631
 2623SOL    HW219503   3.315   2.888   6.372 -3.3007 -1.0648 -0.2863
 2624SOL     OW19504   1.681   1.477   6.140  1.3764  0.4952 -0.5034
 2624SOL    HW119505   1.685   1.459   6.046  2.8147 -1.7273 -0.0230
 2624SOL    HW219506   1.666   1.385   6.163  0.3431  0.4631 -1.3229
 2625SOL     OW19507   0.472   4.542   4.822  0.7738 -0.0836 -0.2368
 2625SOL    HW119508   0.468   4.447   4.824 -2.2692  0.0735  1.2199
 2625SOL    HW219509   0.540   4.563   4.887 -0.4471  0.1741  0.9489
 2626SOL     OW19510   0.595   3.100   1.572  0.6734  0.2490  0.9467
 2626SOL    HW119511   0.610   3.076   1.663  0.0962  2.1218  1.5387
 2626SOL    HW219512   0.684   3.100   1.536  0.9293  2.8902  1.5737
 2627SOL     OW19513   0.307   3.270   6.061  0.0757  0.3564  0.3601
 2627SOL    HW119514   0.259   3.198   6.101  1.0724 -0.5823 -0.1294
 2627SOL    HW219515   0.236   3.333   6.048 -0.5283 -0.0989  1.5323
 2628SOL     OW19516   1.404   1.318   5.299  0.0591 -0.1592  0.4542
 2628SOL    HW119517   1.371   1.399   5.340  1.0064  0.8653 -0.8062
 2628SOL    HW219518   1.479   1.348   5.248  0.1163 -0.0874  0.5776
 2629SOL     OW19519   0.535   4.233  17.311  0.5014 -0.0640  1.0117
 2629SOL    HW119520   0.523   4.144  17.346 -1.1356 -0.4702 -0.6063
 2629SOL    HW219521   0.471   4.292  17.350  0.0098  0.7101 -0.9858
 2630SOL     OW19522   3.946   4.501   7.453 -0.0912 -0.0342 -0.0352
 2630SOL    HW119523   4.020   4.462   7.405  0.9226  0.5055  1.0861
 2630SOL    HW219524   3.883   4.487   7.383 -0.5424  0.5430  0.2601
 2631SOL     OW19525   3.607   0.572   7.199 -0.0866 -0.0419 -0.1624
 2631SOL    HW119526   3.692   0.560   7.157  1.0997  1.4959  1.8228
 2631SOL    HW219527   3.584   0.637   7.133 -0.4345  0.3685  0.3632
 2632SOL     OW19528   4.146   0.241   9.590 -0.1352  0.5200  0.3749
 2632SOL    HW119529   4.056   0.213   9.578 -1.1965  4.2273 -0.1732
 2632SOL    HW219530   4.180   0.226   9.502 -3.2988 -1.6412 -0.4600
 2633SOL     OW19531   2.322   0.950   7.463 -0.4307  0.0607 -0.5944
 2633SOL    HW119532   2.250   0.966   7.402  0.5877 -0.8875 -2.0799
 2633SOL    HW219533   2.371   1.032   7.457  2.9860 -1.6745  3.2171
 2634SOL     OW19534   4.346   4.100   7.235 -0.1660 -0.5280 -0.0601
 2634SOL    HW119535   4.253   4.118   7.223 -0.2784 -1.8153 -1.1722
 2634SOL    HW219536   4.381   4.156   7.166 -1.6458 -0.7844 -1.0117
 2635SOL     OW19537   4.246   4.335   3.620 -0.4314 -0.3477  0.1935
 2635SOL    HW119538   4.298   4.350   3.700 -2.6754  0.9059  1.4159
 2635SOL    HW219539   4.167   4.287   3.647 -0.9519 -0.2784 -1.2323
 2636SOL     OW19540   0.687   1.785  17.634 -0.4234 -0.1914 -0.2344
 2636SOL    HW119541   0.672   1.699  17.594 -2.0042 -1.4069  3.0307
 2636SOL    HW219542   0.742   1.813  17.561  1.8186  0.2056  1.6168
 2637SOL     OW19543   2.141   3.077   2.855 -0.2631  0.0476  0.0605
 2637SOL    HW119544   2.076   3.099   2.922  0.0486 -0.7785  0.6312
 2637SOL    HW219545   2.126   3.149   2.794  0.4995 -0.9663 -1.3149
 2638SOL     OW19546   2.968   2.328   4.201 -0.1235  0.1833 -0.6516
 2638SOL    HW119547   3.037   2.284   4.251 -2.1177 -2.2357 -0.0012
 2638SOL    HW219548   2.915   2.256   4.167  2.3130 -1.5742 -0.7986
 2639SOL     OW19549   1.782   1.966   4.966  0.2178 -0.0812  0.3457
 2639SOL    HW119550   1.755   1.885   4.922  1.8920  0.2010 -1.1914
 2639SOL    HW219551   1.836   1.938   5.039  0.7608  0.8883  0.3105
 2640SOL     OW19552   2.501   0.499  12.401 -1.0470 -0.1579 -0.1194
 2640SOL    HW119553   2.569   0.462  12.345 -0.4296  1.4197 -0.3997
 2640SOL    HW219554   2.477   0.420  12.450  0.0068 -1.0561 -1.0448
 2641SOL     OW19555   1.483   0.015   5.426  0.0568 -0.2330  0.2214
 2641SOL    HW119556   1.469   4.674   5.372  1.4612  0.7608 -1.5481
 2641SOL    HW219557   1.560   4.719   5.473 -0.6228 -1.4012  0.5330
 2642SOL     OW19558   1.507   4.388  15.213 -0.1610  0.2996 -0.6089
 2642SOL    HW119559   1.465   4.304  15.234 -0.6909  0.3080 -1.6002
 2642SOL    HW219560   1.481   4.407  15.122  0.6602 -0.4242 -0.9963
 2643SOL     OW19561   4.459   0.204   2.983 -0.2312 -0.0450  0.1532
 2643SOL    HW119562   4.516   0.206   3.060  0.1616  0.7833 -0.1601
 2643SOL    HW219563   4.408   0.124   2.993  1.2784 -1.1405 -0.9500
 2644SOL     OW19564   0.025   1.060   1.475 -0.7445 -0.5646 -0.2017
 2644SOL    HW119565   0.072   1.141   1.458 -0.1153 -0.2368  3.1495
 2644SOL    HW219566   4.722   1.052   1.388  1.1401 -1.5702 -0.9506
 2645SOL     OW19567   3.872   0.223   9.521 -0.3305 -0.1787 -0.8944
 2645SOL    HW119568   3.832   0.272   9.593 -1.0390 -1.0798 -0.6657
 2645SOL    HW219569   3.819   0.254   9.447  0.8930  1.9157 -0.8904
 2646SOL     OW19570   1.317   1.066   5.331  0.0349  0.3054 -0.0030
 2646SOL    HW119571   1.362   1.036   5.253  0.7323  0.5320  0.3197
 2646SOL    HW219572   1.349   1.156   5.335 -1.0516  0.6282  1.6163
 2647SOL     OW19573   0.628   3.811   7.383  0.0877 -0.0231  0.3778
 2647SOL    HW119574   0.604   3.817   7.476 -0.1573 -0.2469  0.3252
 2647SOL    HW219575   0.719   3.781   7.384  0.1915  0.3230  1.4872
 2648SOL     OW19576   0.531   1.944   5.516  0.3453 -0.2684 -0.0299
 2648SOL    HW119577   0.539   1.867   5.571  1.5294  0.4932  0.8741
 2648SOL    HW219578   0.457   1.991   5.554  1.1194 -0.1669  1.3520
 2649SOL     OW19579   3.219   0.376   4.647  0.5518 -0.0600  0.3464
 2649SOL    HW119580   3.190   0.347   4.560  0.8085  0.3699  0.1130
 2649SOL    HW219581   3.235   0.469   4.630 -0.1218  0.0874  0.5159
 2650SOL     OW19582   4.728   1.365   3.067 -0.1901 -0.1288  0.3175
 2650SOL    HW119583   0.039   1.442   3.098 -2.2276  0.8608  0.9814
 2650SOL    HW219584   0.013   1.361   2.974  0.5148  1.8594  0.3913
 2651SOL     OW19585   0.033   3.172   2.291 -0.1439  0.3532 -0.4798
 2651SOL    HW119586   4.724   3.199   2.210 -0.4900 -1.0650 -0.7621
 2651SOL    HW219587   4.735   3.235   2.355  2.5744  1.1839  0.1260
 2652SOL     OW19588   3.718   1.027   1.869 -0.6007  0.1249 -0.0575
 2652SOL    HW119589   3.723   1.021   1.965  1.5721 -0.2090 -0.1965
 2652SOL    HW219590   3.752   0.941   1.843  0.8101  0.6721 -0.0593
 2653SOL     OW19591   2.563   0.426   6.438 -0.2904  0.0967 -0.1249
 2653SOL    HW119592   2.503   0.455   6.506  2.4501  2.7389  1.1793
 2653SOL    HW219593   2.498   0.362   6.408 -0.5943  0.2928  0.1165
 2654SOL     OW19594   0.182   1.218  11.316  0.4220  0.3653  0.6847
 2654SOL    HW119595   0.150   1.307  11.306 -0.2044 -0.2497 -3.0609
 2654SOL    HW219596   0.240   1.214  11.239  1.2247  1.0172  1.2518
 2655SOL     OW19597   3.393   3.565   4.497 -0.3285 -0.1416 -0.4654
 2655SOL    HW119598   3.454   3.630   4.462 -0.2860  0.6701  1.1260
 2655SOL    HW219599   3.455   3.492   4.490 -0.0188  0.2223 -1.6283
 2656SOL     OW19600   2.135   0.053   1.896 -0.0363  0.4408  0.0448
 2656SOL    HW119601   2.053   0.036   1.850 -0.4051  0.0783  0.8358
 2656SOL    HW219602   2.116   0.135   1.940 -0.1141  0.0081  0.8186
 2657SOL     OW19603   1.368   1.156   6.854  0.9082  0.4375 -0.4229
 2657SOL    HW119604   1.368   1.247   6.825  2.2307  1.0052  1.3560
 2657SOL    HW219605   1.311   1.118   6.787  0.2088  0.7029  0.0180
 2658SOL     OW19606   4.151   2.921  11.397  0.2251 -0.4995 -0.7146
 2658SOL    HW119607   4.197   2.985  11.451  1.1746 -2.4586  0.8362
 2658SOL    HW219608   4.097   2.977  11.341 -4.8310 -2.0114  2.5697
 2659SOL     OW19609   2.067   0.327   9.148 -0.0177  0.1424 -0.9054
 2659SOL    HW119610   2.054   0.421   9.134 -0.1440  0.6698  2.9414
 2659SOL    HW219611   2.084   0.316   9.241  0.8896  0.3288 -1.0504
 2660SOL     OW19612   1.767   0.649   8.227  0.3231  0.2772  0.2285
 2660SOL    HW119613   1.735   0.724   8.177 -0.0280  1.4217  2.1475
 2660SOL    HW219614   1.757   0.585   8.156 -1.6484  0.2668  0.4955
 2661SOL     OW19615   3.410   1.139   4.929  0.0568 -0.0660  0.7840
 2661SOL    HW119616   3.354   1.206   4.969 -2.7795 -1.9693  0.0243
 2661SOL    HW219617   3.345   1.091   4.876  2.9160 -0.8494 -1.9709
 2662SOL     OW19618   1.895   3.717   9.839 -0.3395 -0.0990  0.4368
 2662SOL    HW119619   1.870   3.745   9.752 -0.6574  1.2709  0.9745
 2662SOL    HW219620   1.909   3.800   9.884  0.9305  0.4731 -1.0403
 2663SOL     OW19621   4.387   0.431   3.494 -0.5146  0.3727  0.2954
 2663SOL    HW119622   4.415   0.434   3.403 -2.1809 -1.9268 -0.3024
 2663SOL    HW219623   4.413   0.520   3.518  0.0146  0.3355 -0.1540
 2664SOL     OW19624   3.120   1.628   3.783 -0.0992 -0.2008 -0.3733
 2664SOL    HW119625   3.107   1.631   3.689 -0.6023  4.0551 -0.1446
 2664SOL    HW219626   3.214   1.611   3.792 -0.2844 -0.5098  1.0092
 2665SOL     OW19627   3.333   0.471   5.917  0.7034  0.0456 -0.2445
 2665SOL    HW119628   3.249   0.425   5.922  0.3459  0.9435  1.8227
 2665SOL    HW219629   3.309   0.549   5.867  1.4130 -0.4457 -1.3606
 2666SOL     OW19630   2.608   4.528  16.135  0.3965  0.0725  0.4803
 2666SOL    HW119631   2.694   4.525  16.094 -0.7176  1.7538 -1.9930
 2666SOL    HW219632   2.556   4.541  16.055  0.2836 -0.1631  0.5145
 2667SOL     OW19633   0.295   4.036  10.295  0.5623 -0.2592  0.0027
 2667SOL    HW119634   0.235   3.962  10.305  1.8413 -1.3139 -0.1105
 2667SOL    HW219635   0.326   4.037  10.386  1.6632 -2.6844 -0.3373
 2668SOL     OW19636   3.184   3.433   7.967  0.6226  0.1602  0.2367
 2668SOL    HW119637   3.243   3.420   8.041  1.8175 -0.3236 -0.7905
 2668SOL    HW219638   3.105   3.394   8.004  0.5712  0.5346  0.5273
 2669SOL     OW19639   3.738   4.260   2.885  0.2314 -0.3750 -0.3841
 2669SOL    HW119640   3.709   4.348   2.908 -0.9086 -0.5749 -1.0688
 2669SOL    HW219641   3.722   4.262   2.791  2.2597  0.0468 -0.7127
 2670SOL     OW19642   3.604   0.786  16.959  0.1557 -0.0185 -0.2112
 2670SOL    HW119643   3.513   0.795  16.930  0.4091 -0.4169 -1.1631
 2670SOL    HW219644   3.654   0.844  16.901 -2.5750  2.0388 -0.5005
 2671SOL     OW19645   2.742   3.246  11.811 -0.4550  0.0086  0.0920
 2671SOL    HW119646   2.807   3.215  11.876 -1.5008 -1.2630  0.5386
 2671SOL    HW219647   2.662   3.205  11.844 -0.7348  1.8784  1.7553
 2672SOL     OW19648   4.060   0.174  17.063 -0.4821 -0.5549  0.3355
 2672SOL    HW119649   3.971   0.179  17.096 -1.5581 -0.3940 -2.5864
 2672SOL    HW219650   4.044   0.171  16.969 -1.2331 -1.7458  0.5022
 2673SOL     OW19651   3.803   3.792  10.417 -0.3539 -0.0718  0.0033
 2673SOL    HW119652   3.812   3.883  10.388  1.2246  1.2759  4.8270
 2673SOL    HW219653   3.710   3.771  10.417 -0.3368 -0.1489 -0.5991
 2674SOL     OW19654   0.432   3.852   8.268  0.2394  0.0247  0.0800
 2674SOL    HW119655   0.397   3.887   8.351 -2.9089 -0.4549 -1.0339
 2674SOL    HW219656   0.459   3.934   8.226  0.0812  0.6166  1.1122
 2675SOL     OW19657   2.869   1.809  14.865 -0.3977  0.3130  0.3154
 2675SOL    HW119658   2.931   1.824  14.937  0.0193 -1.9361  0.4112
 2675SOL    HW219659   2.798   1.766  14.912 -0.1826 -0.7766 -0.3878
 2676SOL     OW19660   2.219   2.952   7.364  0.6105 -0.0326 -0.0412
 2676SOL    HW119661   2.208   2.860   7.390 -1.8082  1.1441  3.0591
 2676SOL    HW219662   2.142   2.957   7.307 -0.1943  1.2465  1.1613
 2677SOL     OW19663   3.101   3.883   2.244 -0.6869 -0.2621  0.1117
 2677SOL    HW119664   3.039   3.837   2.300  1.5570 -2.8047  0.5510
 2677SOL    HW219665   3.043   3.923   2.180  0.2052  0.7405 -0.0797
 2678SOL     OW19666   0.183   4.240   0.353 -0.2070  0.5474  0.1841
 2678SOL    HW119667   0.213   4.330   0.367 -0.8554  1.1940 -2.5736
 2678SOL    HW219668   0.093   4.246   0.321 -0.4589 -0.0088  0.7926
 2679SOL     OW19669   1.941   2.367   0.074  0.5215 -0.0569 -0.0953
 2679SOL    HW119670   1.980   2.299   0.018  1.1612  0.3055 -0.0930
 2679SOL    HW219671   2.016   2.386   0.131 -0.2602 -1.7422  1.4875
 2680SOL     OW19672   2.170   1.087   9.693  0.8296 -0.2701  0.2078
 2680SOL    HW119673   2.110   1.112   9.763 -0.1297  0.2480 -0.7837
 2680SOL    HW219674   2.152   0.994   9.686  4.0678 -0.9621  1.0121
 2681SOL     OW19675   1.953   4.518  17.449 -0.1710 -0.5652 -0.1748
 2681SOL    HW119676   1.964   4.424  17.436 -2.0498 -0.7294 -0.6405
 2681SOL    HW219677   2.034   4.543  17.405  0.4742  1.1589  1.9737
 2682SOL     OW19678   2.680   2.907   4.387  0.2102 -0.8117 -0.1160
 2682SOL    HW119679   2.685   2.835   4.449 -0.6406  0.5338  1.5281
 2682SOL    HW219680   2.749   2.890   4.323 -1.0863 -1.4711 -1.3371
 2683SOL     OW19681   3.577   0.788  16.603  0.5218  0.2694  0.9371
 2683SOL    HW119682   3.525   0.716  16.568  2.1251 -0.7847  0.6894
 2683SOL    HW219683   3.556   0.859  16.543 -0.0762 -0.3352  0.4345
 2684SOL     OW19684   1.874   4.355   2.889  0.1720  0.2959 -0.2398
 2684SOL    HW119685   1.822   4.429   2.920  0.7291  1.1398 -1.3319
 2684SOL    HW219686   1.808   4.328   2.825  1.8720 -3.0995 -0.5578
 2685SOL     OW19687   0.236   1.592   0.812  0.2813 -0.1523  0.2921
 2685SOL    HW119688   0.165   1.537   0.845  1.2378 -2.1183 -0.9206
 2685SOL    HW219689   0.239   1.662   0.878 -2.6402  0.0240  0.2457
 2686SOL     OW19690   3.300   0.217   9.286 -0.2676 -0.5214  0.4872
 2686SOL    HW119691   3.381   0.254   9.320 -2.4750  3.0275  1.8398
 2686SOL    HW219692   3.239   0.290   9.297  0.3767 -0.0624  0.9739
 2687SOL     OW19693   2.926   0.008   6.300  0.0119  0.0575  0.1011
 2687SOL    HW119694   2.843   4.697   6.314  0.0022  0.1945  0.5160
 2687SOL    HW219695   2.979   4.664   6.290 -0.5135 -0.1656 -0.8567
 2688SOL     OW19696   1.136   2.321   4.569 -0.2810 -0.0206  0.0193
 2688SOL    HW119697   1.160   2.253   4.631  3.4245 -0.8246 -2.3156
 2688SOL    HW219698   1.160   2.402   4.615  0.6622 -0.2252 -0.1140
 2689SOL     OW19699   0.254   3.006  12.515  0.0205 -0.6621  0.6569
 2689SOL    HW119700   0.242   2.976  12.605 -2.0543  0.4672  0.7513
 2689SOL    HW219701   0.349   3.020  12.513  0.1347 -1.6828 -1.1604
 2690SOL     OW19702   1.295   0.839   6.851  0.6412  0.1280 -0.2354
 2690SOL    HW119703   1.259   0.913   6.901 -2.1015 -1.2805 -0.1485
 2690SOL    HW219704   1.216   0.786   6.854  1.4005 -1.1549 -2.8391
 2691SOL     OW19705   4.148   0.801   9.613  0.2136 -0.0489  0.0875
 2691SOL    HW119706   4.057   0.795   9.585  0.2945  1.1995 -0.4381
 2691SOL    HW219707   4.195   0.795   9.530 -1.6443 -0.9607 -0.8824
 2692SOL     OW19708   4.168   3.803   2.466  0.5624 -0.3180 -0.4789
 2692SOL    HW119709   4.179   3.851   2.547  0.4333  2.0552 -1.8773
 2692SOL    HW219710   4.075   3.780   2.459  1.1625 -2.0958 -2.7840
 2693SOL     OW19711   2.505   0.330   3.920  0.0525  0.1330  0.2713
 2693SOL    HW119712   2.512   0.255   3.979  0.5177 -1.4133 -1.7529
 2693SOL    HW219713   2.526   0.399   3.984  1.4052 -1.4635  1.5291
 2694SOL     OW19714   2.135   2.590   6.979  0.2667  0.3235  0.4382
 2694SOL    HW119715   2.199   2.653   7.013  0.0804  0.1903  1.0262
 2694SOL    HW219716   2.096   2.559   7.060 -3.1396  0.9571 -0.9531
 2695SOL     OW19717   3.541   2.035   0.790  0.0697  0.1745 -0.1834
 2695SOL    HW119718   3.629   2.072   0.790  1.0713 -2.1992 -1.5686
 2695SOL    HW219719   3.549   1.940   0.792  1.2784  0.3015  0.9239
 2696SOL     OW19720   3.985   2.789   6.077  0.6757 -0.3699  0.0401
 2696SOL    HW119721   3.967   2.866   6.131 -0.0158  0.6156 -1.5819
 2696SOL    HW219722   4.078   2.776   6.094  0.4077 -2.0377  0.2039
 2697SOL     OW19723   1.309   2.837  17.693  0.1542 -0.0094 -0.3867
 2697SOL    HW119724   1.282   2.906  17.632  0.0228  1.1378  0.9779
 2697SOL    HW219725   1.371   2.783  17.645 -0.1541 -1.3221  0.6850
 2698SOL     OW19726   1.640   4.225   2.784 -0.0571  0.3720 -0.4551
 2698SOL    HW119727   1.577   4.171   2.736  0.4589 -1.3462  0.7943
 2698SOL    HW219728   1.603   4.226   2.872 -0.7191 -2.4376 -0.7201
 2699SOL     OW19729   2.631   2.215   2.886  0.1605  0.8882  0.3644
 2699SOL    HW119730   2.583   2.290   2.921 -1.5821 -0.2044  0.3199
 2699SOL    HW219731   2.719   2.229   2.922  0.1296 -2.5441  1.7733
 2700SOL     OW19732   4.011   3.491   2.110  0.4075 -0.1927  0.0941
 2700SOL    HW119733   4.007   3.408   2.062  1.1198 -0.7317  0.9520
 2700SOL    HW219734   3.983   3.457   2.195  1.1011 -1.9358 -0.3593
 2701SOL     OW19735   1.293   2.540   1.634  0.1657 -0.8479 -0.3004
 2701SOL    HW119736   1.263   2.629   1.618  4.2239  0.4706 -0.4317
 2701SOL    HW219737   1.325   2.510   1.549  1.0675  0.0559 -0.2715
 2702SOL     OW19738   4.054   2.311   5.022  0.2946 -0.6187 -0.3989
 2702SOL    HW119739   4.027   2.377   4.958  0.4576 -1.3886 -1.2681
 2702SOL    HW219740   4.062   2.370   5.097 -1.2297  0.0349 -0.7484
 2703SOL     OW19741   1.430   4.410   3.515 -0.5498 -0.4040  0.2309
 2703SOL    HW119742   1.348   4.401   3.467 -0.7272 -2.1764  0.8531
 2703SOL    HW219743   1.411   4.492   3.559 -1.6624 -0.6735  0.2312
 2704SOL     OW19744   3.704   0.256   9.844  0.0607  0.4443 -0.4313
 2704SOL    HW119745   3.630   0.310   9.868 -0.9806 -0.8499 -0.7246
 2704SOL    HW219746   3.681   0.171   9.883  1.2699 -0.0926 -0.8650
 2705SOL     OW19747   3.532   1.883   1.506  0.2741 -0.3253 -0.7079
 2705SOL    HW119748   3.436   1.890   1.505  0.1335 -1.9128  1.8393
 2705SOL    HW219749   3.539   1.790   1.528  0.2117  0.5743  3.0575
 2706SOL     OW19750   1.069   3.358  17.515  0.4854 -0.1837  0.1728
 2706SOL    HW119751   0.997   3.421  17.517  1.1497  0.5240  1.5881
 2706SOL    HW219752   1.046   3.297  17.444 -1.3409  0.2573  0.4028
 2707SOL     OW19753   2.493   0.200   8.007  0.1284  0.7664  0.4550
 2707SOL    HW119754   2.501   0.187   7.913 -2.0422 -0.7349  0.4929
 2707SOL    HW219755   2.449   0.285   8.010 -1.7097 -0.1192 -1.7462
 2708SOL     OW19756   0.989   3.087  12.015 -0.2476 -0.2529 -0.0332
 2708SOL    HW119757   0.998   2.993  12.001  1.4555  0.1244 -1.4198
 2708SOL    HW219758   1.038   3.120  11.939  2.0148 -1.2287  1.0134
 2709SOL     OW19759   4.442   0.757   5.697 -0.5672  0.2290  0.7712
 2709SOL    HW119760   4.400   0.671   5.683  0.2844  0.1050 -1.0951
 2709SOL    HW219761   4.366   0.814   5.701  0.4325  1.6789 -0.9791
 2710SOL     OW19762   0.358   4.011   0.255 -0.0479 -0.2394 -0.2348
 2710SOL    HW119763   0.289   4.071   0.282  0.3295  1.0054 -2.0070
 2710SOL    HW219764   0.331   3.926   0.291 -0.6398 -1.1934 -2.9273
 2711SOL     OW19765   2.125   1.401   8.775 -0.0736  0.0620 -0.0942
 2711SOL    HW119766   2.049   1.407   8.834  0.0357  4.2150 -0.3650
 2711SOL    HW219767   2.079   1.369   8.697 -0.3065 -2.0840  0.9329
 2712SOL     OW19768   3.112   2.609  15.417  0.1278 -0.4756 -0.3299
 2712SOL    HW119769   3.043   2.644  15.361 -0.6485 -2.0712 -0.3925
 2712SOL    HW219770   3.170   2.684  15.421 -0.1756 -0.3613  1.7384
 2713SOL     OW19771   1.885   0.630   2.310 -0.4520  0.6725  0.3282
 2713SOL    HW119772   1.970   0.594   2.334 -1.1586  0.0654  1.8957
 2713SOL    HW219773   1.824   0.591   2.372  0.9499  0.6124  1.6629
 2714SOL     OW19774   0.937   2.313   4.349  0.1781 -0.2292 -0.5182
 2714SOL    HW119775   0.896   2.227   4.347 -2.3063  0.9522 -0.7669
 2714SOL    HW219776   0.997   2.308   4.423  1.4858 -0.0321 -1.5564
 2715SOL     OW19777   2.001   1.036   3.503 -0.5448  0.3515 -0.0827
 2715SOL    HW119778   1.977   1.072   3.588  2.5842 -2.9980  2.2214
 2715SOL    HW219779   1.992   0.941   3.514  2.0672  0.1879  0.5041
 2716SOL     OW19780   0.145   3.146   6.248 -1.1747 -0.6136 -0.3974
 2716SOL    HW119781   0.185   3.225   6.285  0.6708 -0.6627 -2.3145
 2716SOL    HW219782   0.178   3.072   6.299 -3.3017 -1.3650 -0.1193
 2717SOL     OW19783   3.332   0.792  10.592 -0.1278  0.4400  0.1513
 2717SOL    HW119784   3.271   0.828  10.656  1.6422  0.2109  1.9638
 2717SOL    HW219785   3.386   0.869  10.577 -1.7571  1.4474 -0.6077
 2718SOL     OW19786   2.708   1.756   1.942 -0.4343 -0.2004  0.1922
 2718SOL    HW119787   2.789   1.775   1.990 -0.6866 -0.4936  0.7396
 2718SOL    HW219788   2.650   1.798   2.006 -0.8939 -0.0545 -0.3185
 2719SOL     OW19789   0.323   2.058   1.412 -0.1960  0.0195  0.2631
 2719SOL    HW119790   0.344   1.968   1.434 -0.3938 -0.3412 -1.0231
 2719SOL    HW219791   0.286   2.042   1.326  1.2294 -0.3060 -0.2826
 2720SOL     OW19792   2.188   4.026   3.656  0.0661 -0.1672  0.2907
 2720SOL    HW119793   2.185   4.117   3.624  2.0768  0.4569  1.9146
 2720SOL    HW219794   2.185   4.043   3.750 -0.4255  0.4435  0.1711
 2721SOL     OW19795   3.388   3.540   6.051  0.3268  0.3627  0.2291
 2721SOL    HW119796   3.396   3.630   6.018 -1.1241  0.6288  0.6348
 2721SOL    HW219797   3.322   3.495   6.000  1.0607  1.2977 -1.5533
 2722SOL     OW19798   2.968   4.568  11.656 -0.4127 -0.2540  0.2888
 2722SOL    HW119799   2.966   4.486  11.704 -0.9567  0.0865  0.8399
 2722SOL    HW219800   3.004   4.549  11.569 -2.0882  0.9411 -0.6559
 2723SOL     OW19801   2.239   1.393   4.605 -0.6942  0.3047  0.3017
 2723SOL    HW119802   2.267   1.435   4.525  1.0364  0.4783  1.0091
 2723SOL    HW219803   2.201   1.465   4.655 -0.7121 -0.4570  1.4066
 2724SOL     OW19804   1.195   0.633   9.235  0.9588 -0.6277 -0.2390
 2724SOL    HW119805   1.257   0.699   9.206 -0.1919  0.0833 -1.0748
 2724SOL    HW219806   1.117   0.678   9.268  2.1137  0.4344  1.0546
 2725SOL     OW19807   2.710   3.190  16.844  0.3270 -0.8963  0.2380
 2725SOL    HW119808   2.647   3.212  16.913 -0.1764 -1.1177 -0.1451
 2725SOL    HW219809   2.662   3.150  16.771 -1.3762  1.3966  0.1271
 2726SOL     OW19810   3.044   3.977   6.472  0.2033 -0.4963  0.6933
 2726SOL    HW119811   3.064   3.944   6.384 -2.1206 -1.5734  0.5804
 2726SOL    HW219812   2.985   3.909   6.503 -1.3396  0.4229 -0.2713
 2727SOL     OW19813   1.730   3.814   8.944 -0.3299  0.3157 -0.1661
 2727SOL    HW119814   1.676   3.748   8.901  1.0848 -0.7776 -0.2556
 2727SOL    HW219815   1.680   3.821   9.026  1.2789  3.6857  0.5452
 2728SOL     OW19816   1.788   4.255   4.565  0.0989 -0.4049 -0.1778
 2728SOL    HW119817   1.858   4.242   4.501  0.3165  1.6105 -0.3682
 2728SOL    HW219818   1.710   4.214   4.529 -0.0834 -0.5141  0.3399
 2729SOL     OW19819   3.693   1.934   4.532 -0.2094 -0.2185 -0.4811
 2729SOL    HW119820   3.684   1.971   4.444  1.4035  1.4695  0.0515
 2729SOL    HW219821   3.673   1.843   4.513 -2.5043  0.1478  0.1498
 2730SOL     OW19822   1.983   3.113   8.063  0.2074  0.1465  0.2051
 2730SOL    HW119823   1.912   3.157   8.109  0.9526  2.3982 -0.8104
 2730SOL    HW219824   1.981   3.028   8.107 -0.1153  0.4081  0.6923
 2731SOL     OW19825   3.195   3.746   1.622  0.3855  0.0530  0.2145
 2731SOL    HW119826   3.278   3.729   1.576  0.5382 -2.1486  1.2702
 2731SOL    HW219827   3.160   3.661   1.651  0.1616 -0.0435 -0.3293
 2732SOL     OW19828   1.698   2.071   6.033 -0.1018 -0.0952 -0.2882
 2732SOL    HW119829   1.721   2.002   5.971  0.2476 -1.4143  1.3154
 2732SOL    HW219830   1.658   2.133   5.972  2.0222  1.6373  0.0798
 2733SOL     OW19831   1.324   0.826  14.970  0.0861 -0.5690  0.0044
 2733SOL    HW119832   1.263   0.783  14.911 -0.2340  0.5840 -0.5078
 2733SOL    HW219833   1.295   0.765  15.037 -1.6487 -1.1152 -1.2602
 2734SOL     OW19834   1.325   3.670   7.103  0.6393 -0.3871 -0.0853
 2734SOL    HW119835   1.407   3.701   7.139  0.6691 -1.3386  0.6728
 2734SOL    HW219836   1.326   3.722   7.023 -3.3230 -0.4688 -0.2098
 2735SOL     OW19837   0.275   1.099   6.548  0.3591  0.9235 -0.3477
 2735SOL    HW119838   0.257   1.183   6.507 -0.5265  1.2796  0.7575
 2735SOL    HW219839   0.192   1.094   6.596 -0.5063  1.2828 -1.8147
 2736SOL     OW19840   4.583   3.575   1.004  0.3085  0.0791 -0.5328
 2736SOL    HW119841   4.611   3.656   1.047 -0.6633  0.2292 -0.1844
 2736SOL    HW219842   4.649   3.512   1.033 -0.8219 -1.9660 -2.4140
 2737SOL     OW19843   3.297   1.068  12.598 -0.3421  0.5255  0.2835
 2737SOL    HW119844   3.321   1.155  12.632  0.4644  0.1079  0.7751
 2737SOL    HW219845   3.343   1.012  12.660  1.3595  1.8022  0.1892
 2738SOL     OW19846   0.587   3.647   5.247  0.2253  0.4675 -0.1174
 2738SOL    HW119847   0.528   3.588   5.201 -2.5919  1.6162  2.0315
 2738SOL    HW219848   0.627   3.706   5.183  0.6077 -1.4975 -1.6837
 2739SOL     OW19849   4.373   1.753   4.385 -0.2722  0.7358 -0.4936
 2739SOL    HW119850   4.322   1.798   4.452  0.9546  1.9585 -0.3816
 2739SOL    HW219851   4.314   1.682   4.358 -0.0343  0.6971 -0.9024
 2740SOL     OW19852   1.875   3.170   6.822 -0.0849  0.0271 -0.4150
 2740SOL    HW119853   1.943   3.107   6.798  0.0233  0.1148 -0.3372
 2740SOL    HW219854   1.838   3.130   6.901  1.2307  1.1374  0.7479
 2741SOL     OW19855   2.982   1.461   7.150  0.4640 -0.0858  0.4114
 2741SOL    HW119856   2.939   1.393   7.098  0.4549  0.6695 -0.5711
 2741SOL    HW219857   2.962   1.440   7.241  1.5533 -1.6090  0.3001
 2742SOL     OW19858   0.539   2.227  14.393  0.0031  0.5094 -0.1091
 2742SOL    HW119859   0.500   2.313  14.408 -1.4124 -0.0183 -0.7344
 2742SOL    HW219860   0.473   2.172  14.435  0.4937  0.5859  0.7716
 2743SOL     OW19861   2.519   0.039  15.166  0.1350  0.6550 -0.1717
 2743SOL    HW119862   2.560   0.124  15.186 -0.6983  1.5116 -2.1083
 2743SOL    HW219863   2.585   0.002  15.107 -0.3690  0.7100 -0.7628
 2744SOL     OW19864   1.701   3.770  13.675  0.3815  0.2048 -0.2484
 2744SOL    HW119865   1.682   3.679  13.653 -1.2330  0.5225 -0.1809
 2744SOL    HW219866   1.701   3.747  13.768  0.6842  1.3726  0.0345
 2745SOL     OW19867   2.709   2.340   7.831  0.2745  0.6131  0.0562
 2745SOL    HW119868   2.687   2.326   7.923 -1.1873 -0.1555 -0.4081
 2745SOL    HW219869   2.802   2.361   7.834  0.1678  1.0329  0.4661
 2746SOL     OW19870   0.976   2.784   3.402  0.4925 -0.2092 -0.0100
 2746SOL    HW119871   1.049   2.753   3.348  0.5419  0.0592 -0.0948
 2746SOL    HW219872   0.997   2.733   3.480 -0.8918 -0.2293  0.3379
 2747SOL     OW19873   1.200   0.563   1.770 -0.4104  0.1203  0.3490
 2747SOL    HW119874   1.106   0.546   1.777 -0.5529  0.5014 -0.7612
 2747SOL    HW219875   1.202   0.656   1.751 -0.9376  0.3952  1.5983
 2748SOL     OW19876   3.056   4.432   7.992 -0.3579  0.3102  0.3280
 2748SOL    HW119877   3.038   4.521   8.021  0.2355  0.9094 -1.1324
 2748SOL    HW219878   3.071   4.397   8.080 -0.7782 -2.0100 -0.5298
 2749SOL     OW19879   2.849   4.273  16.026 -0.7191  0.2424 -0.1723
 2749SOL    HW119880   2.850   4.369  16.033 -1.6638  0.2252  0.2147
 2749SOL    HW219881   2.940   4.247  16.036 -0.2053  0.9608 -3.0323
 2750SOL     OW19882   3.172   1.870  10.895  0.5578  0.4863  1.1035
 2750SOL    HW119883   3.087   1.838  10.925 -0.0602  0.0517 -1.0651
 2750SOL    HW219884   3.208   1.796  10.845 -2.9267 -1.2973  1.1750
 2751SOL     OW19885   3.126   4.443   9.107  0.3881  0.0279  1.0276
 2751SOL    HW119886   3.132   4.536   9.129 -1.8243  0.5356 -0.4712
 2751SOL    HW219887   3.180   4.427   9.029 -1.6760 -0.1528 -0.3613
 2752SOL     OW19888   3.537   4.270   8.214 -0.0688 -0.2024  0.5017
 2752SOL    HW119889   3.469   4.212   8.249 -0.1000  0.2579  1.2021
 2752SOL    HW219890   3.490   4.344   8.176 -0.4611 -0.4678  0.4698
 2753SOL     OW19891   4.637   2.613   8.883 -0.3745  0.2507 -0.1147
 2753SOL    HW119892   4.721   2.638   8.845  0.3722  1.4009  2.2986
 2753SOL    HW219893   4.668   2.559   8.955 -0.8984  1.0018  0.6772
 2754SOL     OW19894   3.056   1.487   5.476 -0.9398 -0.2920  0.0876
 2754SOL    HW119895   3.125   1.538   5.433 -0.5291 -2.0133 -1.2890
 2754SOL    HW219896   3.085   1.397   5.458 -0.2314  0.0686 -0.5930
 2755SOL     OW19897   2.414   3.449   5.323  0.4563  0.8690 -0.4475
 2755SOL    HW119898   2.326   3.416   5.344  0.1600  1.2600 -1.0529
 2755SOL    HW219899   2.388   3.520   5.264 -1.3247 -1.8072 -2.8362
 2756SOL     OW19900   0.944   3.329   6.066  0.1897  0.2211  0.2366
 2756SOL    HW119901   0.899   3.272   6.129  0.7653 -0.3256  0.1497
 2756SOL    HW219902   1.006   3.379   6.121 -1.5154  4.1203 -1.3710
 2757SOL     OW19903   0.332   0.192  10.717 -0.1782  0.3785 -0.2861
 2757SOL    HW119904   0.397   0.210  10.785 -0.7802 -0.0263  0.3947
 2757SOL    HW219905   0.247   0.221  10.749  0.1216 -0.3838  1.2069
 2758SOL     OW19906   2.274   1.093   3.164  0.1748 -0.0094  0.4532
 2758SOL    HW119907   2.179   1.103   3.162  0.1751 -0.0388  0.3019
 2758SOL    HW219908   2.287   1.102   3.259  2.1691  0.4346  0.1417
 2759SOL     OW19909   3.634   1.188   6.773  0.0506  0.4404  0.7415
 2759SOL    HW119910   3.712   1.160   6.821  0.2810 -0.5376 -0.1987
 2759SOL    HW219911   3.629   1.114   6.712 -0.9381  0.9597  0.1873
 2760SOL     OW19912   3.772   3.569  10.032 -0.2239 -0.3250 -0.7848
 2760SOL    HW119913   3.847   3.593  10.086 -1.4056 -0.4585  0.9306
 2760SOL    HW219914   3.806   3.586   9.944 -1.4095 -0.3762 -1.2554
 2761SOL     OW19915   2.982   0.139  12.511  0.1496  0.1833  0.0071
 2761SOL    HW119916   2.899   0.150  12.558 -0.8952  0.0229 -1.8205
 2761SOL    HW219917   2.949   0.150  12.422 -0.3450  0.0974  0.1832
 2762SOL     OW19918   2.922   0.213  13.789 -0.1104  0.5060 -0.0024
 2762SOL    HW119919   2.949   0.206  13.880 -2.1418  0.3938  0.5947
 2762SOL    HW219920   2.863   0.287  13.808  1.6641  1.3070  2.3546
 2763SOL     OW19921   3.655   1.428   6.642  0.0434  0.2107 -0.1969
 2763SOL    HW119922   3.633   1.353   6.698  1.7579  0.7289  1.1744
 2763SOL    HW219923   3.750   1.436   6.634  0.1811 -1.1734  0.1510
 2764SOL     OW19924   3.813   3.617   4.573 -0.0232  0.0986 -0.2489
 2764SOL    HW119925   3.816   3.711   4.590  1.3098  0.0385 -0.1578
 2764SOL    HW219926   3.906   3.614   4.593  0.1319  1.4410 -0.8281
 2765SOL     OW19927   1.801   3.219  12.672 -0.0198  0.1059  0.1946
 2765SOL    HW119928   1.864   3.285  12.645  0.6647 -1.0700 -1.0521
 2765SOL    HW219929   1.855   3.193  12.747 -0.5191 -0.7086  0.2758
 2766SOL     OW19930   3.913   2.856   9.323  0.1531  0.1584  0.1048
 2766SOL    HW119931   3.955   2.810   9.396 -0.5045 -0.0141  0.3810
 2766SOL    HW219932   3.905   2.794   9.251 -1.2118  0.7074 -0.2080
 2767SOL     OW19933   2.069   0.352   3.579 -0.3488  0.3446  0.1550
 2767SOL    HW119934   1.979   0.344   3.610 -0.9821  0.4947 -1.6685
 2767SOL    HW219935   2.123   0.317   3.650 -1.8830  0.3990  1.3464
 2768SOL     OW19936   1.514   2.226   5.845 -0.4149  0.4880 -0.1995
 2768SOL    HW119937   1.569   2.297   5.812  1.3780 -0.2217  1.2632
 2768SOL    HW219938   1.429   2.266   5.861 -0.5610 -0.0525  0.3724
 2769SOL     OW19939   2.874   1.572   6.332  0.1020 -0.1669  0.2482
 2769SOL    HW119940   2.913   1.536   6.252  0.3527  1.3535 -0.3158
 2769SOL    HW219941   2.920   1.655   6.349  1.0248 -0.4537 -0.8475
 2770SOL     OW19942   4.521   2.616   8.621 -0.2058  0.2108 -0.4122
 2770SOL    HW119943   4.516   2.589   8.712 -1.2678 -0.8339 -0.7961
 2770SOL    HW219944   4.580   2.691   8.636 -0.9758  0.5570  0.8820
 2771SOL     OW19945   2.238   3.149  12.323  0.3462 -0.3489 -0.0704
 2771SOL    HW119946   2.147   3.149  12.353 -0.0760 -0.3580 -1.3472
 2771SOL    HW219947   2.266   3.235  12.355  2.2769  0.2266 -3.2835
 2772SOL     OW19948   0.279   2.985   8.394 -0.9034 -0.6410 -0.2504
 2772SOL    HW119949   0.324   3.006   8.313 -1.1082 -0.9633 -0.4461
 2772SOL    HW219950   0.241   3.071   8.412 -1.2257 -1.0598  1.0737
 2773SOL     OW19951   4.411   0.036   7.260 -0.6202  0.0895  0.5439
 2773SOL    HW119952   4.390   0.101   7.327  0.5204  0.6635  0.3493
 2773SOL    HW219953   4.329   0.027   7.211 -0.3788  0.1164  0.1311
 2774SOL     OW19954   0.093   1.165   6.169 -0.2392  0.2641  0.4923
 2774SOL    HW119955   0.177   1.202   6.143 -1.1605  1.6407 -0.5400
 2774SOL    HW219956   0.035   1.241   6.166 -0.7396 -0.1358  0.0596
 2775SOL     OW19957   4.277   2.269  16.509 -0.4394 -0.0512 -0.2899
 2775SOL    HW119958   4.276   2.358  16.473 -0.3956 -0.5712 -1.5576
 2775SOL    HW219959   4.359   2.239  16.470 -0.1377 -0.2127  0.4600
 2776SOL     OW19960   0.129   1.776   8.026 -0.7020 -0.5558  0.0346
 2776SOL    HW119961   0.134   1.691   7.981 -0.0370 -1.7752  2.4045
 2776SOL    HW219962   0.056   1.753   8.084  0.1407 -0.1991  1.2379
 2777SOL     OW19963   1.168   0.482   9.007 -0.5640 -0.0796  0.6820
 2777SOL    HW119964   1.209   0.408   9.052 -0.1353  0.1872  0.7231
 2777SOL    HW219965   1.184   0.546   9.076  1.3366  0.0684  0.0946
 2778SOL     OW19966   3.127   1.517   2.380  0.5631  0.0598 -0.3374
 2778SOL    HW119967   3.074   1.590   2.347 -1.6621 -1.0146  0.8107
 2778SOL    HW219968   3.051   1.466   2.408  0.1909  0.2404 -1.0208
 2779SOL     OW19969   0.813   4.541  16.085 -0.2951 -0.3260 -0.1321
 2779SOL    HW119970   0.801   4.610  16.151  3.0462  0.5273 -0.4048
 2779SOL    HW219971   0.790   4.575  15.999 -0.4307 -0.9363 -0.3356
 2780SOL     OW19972   0.188   1.459   2.438 -0.6288  0.1528 -0.1753
 2780SOL    HW119973   0.237   1.452   2.520 -0.1120 -1.5974 -0.6501
 2780SOL    HW219974   0.101   1.435   2.468 -0.3919 -0.3145  0.1348
 2781SOL     OW19975   2.434   1.229   6.714 -0.1532 -0.7274 -0.3731
 2781SOL    HW119976   2.481   1.229   6.797 -0.4404 -1.2223 -0.2099
 2781SOL    HW219977   2.355   1.178   6.730 -1.9804  2.4058  0.6466
 2782SOL     OW19978   2.113   3.145   2.193  0.4144  0.0296  0.1619
 2782SOL    HW119979   2.022   3.156   2.219  0.5103 -2.0581  1.3389
 2782SOL    HW219980   2.117   3.050   2.194  1.2823  0.0541 -1.2470
 2783SOL     OW19981   1.444   2.151  10.943  0.2728 -0.6793 -0.2870
 2783SOL    HW119982   1.432   2.082  10.877 -1.7122 -1.0690  0.4847
 2783SOL    HW219983   1.508   2.101  10.994  0.3499 -0.2725  0.0192
 2784SOL     OW19984   3.181   3.950   8.480 -0.3313  0.4128  0.8678
 2784SOL    HW119985   3.118   4.017   8.507 -0.1321  0.1537  1.9733
 2784SOL    HW219986   3.131   3.869   8.479  0.0617  0.1534  2.3670
 2785SOL     OW19987   1.648   4.385  16.647 -0.2515  0.1684 -0.0371
 2785SOL    HW119988   1.674   4.376  16.738  0.7301  1.1981 -0.2267
 2785SOL    HW219989   1.716   4.349  16.590  0.0664  0.7186 -0.0070
 2786SOL     OW19990   4.150   2.730   7.527 -0.4690  0.3184 -0.2774
 2786SOL    HW119991   4.112   2.693   7.606 -0.6035 -3.0800 -1.9304
 2786SOL    HW219992   4.088   2.803   7.520  0.1565  0.8078 -0.8172
 2787SOL     OW19993   2.193   2.592  11.935  0.2860  0.5736 -0.1640
 2787SOL    HW119994   2.144   2.571  11.855  1.9697  0.4591 -1.1814
 2787SOL    HW219995   2.127   2.590  12.004 -0.6415 -1.5445 -1.1195
 2788SOL     OW19996   4.000   4.683   0.362  0.3872  0.3364 -0.4695
 2788SOL    HW119997   4.034   0.033   0.387 -0.3678  0.4901  0.0244
 2788SOL    HW219998   3.946   4.709   0.288 -0.6007  2.8013  1.1087
 2789SOL     OW19999   3.091   0.807   6.056  0.3797  0.3931 -0.3583
 2789SOL    HW120000   3.139   0.889   6.044 -1.2813  0.9899 -2.9545
 2789SOL    HW220001   3.007   0.832   6.018  0.6690  2.2707  0.2206
 2790SOL     OW20002   1.862   0.362   0.077  0.2716 -0.0725 -0.2085
 2790SOL    HW120003   1.912   0.381   0.156  2.1188 -1.7846 -0.9588
 2790SOL    HW220004   1.806   0.438   0.067 -0.3437 -0.4851  0.0839
 2791SOL     OW20005   1.314   2.390   7.947 -0.5716 -0.5761 -0.4019
 2791SOL    HW120006   1.301   2.429   7.860 -0.0288  0.2465 -0.1088
 2791SOL    HW220007   1.409   2.390   7.956 -0.7552 -0.7166  1.3609
 2792SOL     OW20008   1.496   2.999   3.617 -0.1829 -0.4549  0.0441
 2792SOL    HW120009   1.407   2.969   3.598 -0.3563  1.3442 -1.9330
 2792SOL    HW220010   1.495   3.093   3.634 -1.1250 -0.8752  2.2591
 2793SOL     OW20011   2.713   0.204   2.888  0.0891 -0.2105 -0.5067
 2793SOL    HW120012   2.802   0.196   2.853 -0.4587  0.3975 -2.0402
 2793SOL    HW220013   2.733   0.258   2.964 -4.2032 -0.9262  1.0946
 2794SOL     OW20014   3.414   3.489   5.715  0.2778 -0.2532  0.1690
 2794SOL    HW120015   3.466   3.567   5.695 -0.5546 -0.1241 -1.4822
 2794SOL    HW220016   3.350   3.489   5.644  0.3450 -1.4832  0.1081
 2795SOL     OW20017   4.706   0.432   0.013 -0.2404  0.1781 -0.0972
 2795SOL    HW120018   4.725   0.340  17.734  2.2292  0.4240  1.0340
 2795SOL    HW220019   0.037   0.475  17.703 -0.0126 -1.1837 -0.9187
 2796SOL     OW20020   1.173   3.841   7.338 -0.6472 -0.0708  0.2950
 2796SOL    HW120021   1.118   3.830   7.416  0.6106 -1.6427  0.9572
 2796SOL    HW220022   1.237   3.770   7.350 -2.2231 -1.5504 -0.0485
 2797SOL     OW20023   4.012   3.157   6.722 -0.1486 -0.0202  0.3344
 2797SOL    HW120024   3.952   3.087   6.749 -0.8464  0.2693 -0.4632
 2797SOL    HW220025   3.960   3.217   6.669 -1.2576 -1.1575  0.1229
 2798SOL     OW20026   4.665   0.113   6.693 -0.5472 -0.3197 -0.2609
 2798SOL    HW120027   4.702   0.050   6.754 -2.7177 -2.1371 -0.8165
 2798SOL    HW220028   4.653   0.053   6.619  2.7580 -0.0003 -1.0518
 2799SOL     OW20029   1.775   2.472   2.375  0.0130 -0.3472  0.4936
 2799SOL    HW120030   1.768   2.567   2.371  0.1828 -0.4197 -1.7226
 2799SOL    HW220031   1.695   2.449   2.422 -0.9554 -0.3828 -1.1719
 2800SOL     OW20032   2.729   0.068   4.318 -0.0533  0.3337 -0.4900
 2800SOL    HW120033   2.733   0.164   4.323  1.1873  0.0718  3.1713
 2800SOL    HW220034   2.819   0.036   4.323 -0.1858 -0.2741 -1.8397
 2801SOL     OW20035   4.388   0.142   1.885  0.4612  0.0375  0.4140
 2801SOL    HW120036   4.396   0.141   1.980 -1.4413 -2.1694  0.5431
 2801SOL    HW220037   4.480   0.140   1.857  0.1217  2.5034 -0.8625
 2802SOL     OW20038   2.756   0.600   9.673  0.3146  0.0561 -0.0488
 2802SOL    HW120039   2.713   0.582   9.589  0.5896 -2.5054  0.3629
 2802SOL    HW220040   2.824   0.665   9.655 -0.7778  1.3350  0.5354
 2803SOL     OW20041   4.724   2.455   7.231 -0.2374 -0.1290 -0.0020
 2803SOL    HW120042   0.036   2.451   7.148 -0.6242 -0.4179 -0.2113
 2803SOL    HW220043   4.717   2.365   7.261  0.0935 -0.0490  0.3150
 2804SOL     OW20044   0.953   3.972   9.016 -0.0037 -0.4371 -0.5009
 2804SOL    HW120045   0.865   3.978   8.980  0.1921 -1.9376 -1.2245
 2804SOL    HW220046   1.004   3.930   8.947 -0.0273  0.6200 -1.1643
 2805SOL     OW20047   2.092   4.218   7.669 -0.6406 -0.1296  0.0288
 2805SOL    HW120048   2.128   4.229   7.581 -0.9650 -2.9259 -0.4427
 2805SOL    HW220049   2.094   4.124   7.688  1.4398 -0.1855 -0.4015
 2806SOL     OW20050   3.879   4.241   5.957  0.6629 -0.3179 -0.1077
 2806SOL    HW120051   3.943   4.171   5.950 -0.3002 -1.3793  1.7476
 2806SOL    HW220052   3.854   4.232   6.049 -0.5542 -1.9698 -0.6107
 2807SOL     OW20053   1.697   1.054   5.052  0.5793  0.3667 -0.7518
 2807SOL    HW120054   1.729   0.990   5.115  1.6438  1.0491 -0.5803
 2807SOL    HW220055   1.717   1.138   5.094  1.3219 -1.4854  2.5697
 2808SOL     OW20056   2.125   0.946   1.390 -0.4402  0.2355 -0.7399
 2808SOL    HW120057   2.043   0.927   1.437  0.3781  0.5100  0.8065
 2808SOL    HW220058   2.112   0.920   1.299 -1.0108 -1.8910 -0.0434
 2809SOL     OW20059   1.725   1.493   6.874 -0.3223 -0.0100  0.4093
 2809SOL    HW120060   1.791   1.562   6.865 -0.1539 -0.0174  1.5985
 2809SOL    HW220061   1.741   1.447   6.791 -3.2302  1.1046 -0.7578
 2810SOL     OW20062   1.723   0.475   8.020  0.6578 -0.0092  0.3001
 2810SOL    HW120063   1.745   0.395   7.972 -0.6818 -1.1705  1.6184
 2810SOL    HW220064   1.698   0.531   7.946 -0.8504  0.8823  1.4806
 2811SOL     OW20065   1.703   1.178  16.697 -0.2265 -0.0578 -0.4302
 2811SOL    HW120066   1.732   1.090  16.720  0.1528  0.2139  0.1556
 2811SOL    HW220067   1.646   1.183  16.774  0.3703 -2.1584  0.1513
 2812SOL     OW20068   2.695   1.473   9.819 -0.4865  0.3956  0.0756
 2812SOL    HW120069   2.683   1.416   9.895  0.7106 -0.2273 -0.1996
 2812SOL    HW220070   2.760   1.431   9.763  0.2677 -1.8063  2.5716
 2813SOL     OW20071   1.332   1.631   4.457 -0.5181  0.4330  1.0245
 2813SOL    HW120072   1.405   1.693   4.453 -1.6583  1.8120  1.3077
 2813SOL    HW220073   1.333   1.588   4.371  2.6585  0.8361  0.8507
 2814SOL     OW20074   0.027   3.482   3.520  0.0034  0.5137 -0.6917
 2814SOL    HW120075   0.006   3.464   3.611 -0.7925 -0.5445 -1.0894
 2814SOL    HW220076   0.038   3.393   3.487  0.1227  0.7214 -1.2176
 2815SOL     OW20077   3.180   0.639  11.610 -0.0830  0.0585 -0.2613
 2815SOL    HW120078   3.236   0.714  11.630 -1.5844  0.8770  0.8311
 2815SOL    HW220079   3.237   0.592  11.549 -1.2961  0.4572 -1.7129
 2816SOL     OW20080   4.547   4.717   1.590 -0.0135  0.2094 -0.2303
 2816SOL    HW120081   4.575   0.040   1.520  0.8756 -2.0258 -1.7610
 2816SOL    HW220082   4.459   0.015   1.604 -0.6713 -1.2908 -0.7365
 2817SOL     OW20083   0.049   0.796   8.071  0.9066 -0.1103 -0.1694
 2817SOL    HW120084   0.038   0.886   8.041 -0.0522  0.3251  1.4520
 2817SOL    HW220085   0.130   0.774   8.026  0.0235 -3.0187 -0.3313
 2818SOL     OW20086   0.260   1.658   4.724  0.5041 -0.2347  0.0101
 2818SOL    HW120087   0.277   1.723   4.655  0.5150  2.1356  2.2463
 2818SOL    HW220088   0.287   1.576   4.684  0.5574 -0.7760  1.1720
 2819SOL     OW20089   1.440   4.327   6.114  0.3217  0.4434 -0.2218
 2819SOL    HW120090   1.371   4.371   6.064  0.0431  1.3122  0.9268
 2819SOL    HW220091   1.412   4.241   6.082 -1.5309  1.1103 -0.4384
 2820SOL     OW20092   2.082   0.119   8.987 -0.3383 -0.0882  0.9608
 2820SOL    HW120093   2.061   0.198   9.036 -1.6267  1.1245 -1.5874
 2820SOL    HW220094   2.118   0.071   9.062 -0.4889 -1.2427  0.2917
 2821SOL     OW20095   2.590   4.245   2.856 -0.2253  0.6045 -0.2707
 2821SOL    HW120096   2.602   4.319   2.796  0.6832 -0.6577 -1.6343
 2821SOL    HW220097   2.496   4.227   2.854  0.2366 -1.6312 -2.5719
 2822SOL     OW20098   2.757   2.529   9.133 -0.6232  0.3835 -0.7764
 2822SOL    HW120099   2.698   2.603   9.145  0.2555  1.0912 -0.7986
 2822SOL    HW220100   2.833   2.553   9.187  0.6140 -2.0498 -1.4603
 2823SOL     OW20101   0.475   0.120   5.126  0.0652 -0.7037  0.1412
 2823SOL    HW120102   0.414   0.125   5.053  0.9401 -3.2428 -0.7716
 2823SOL    HW220103   0.414   0.128   5.199 -0.9319 -1.2329 -0.6448
 2824SOL     OW20104   1.834   1.927   4.266  0.0520 -0.3210 -0.0442
 2824SOL    HW120105   1.803   1.836   4.267 -0.6576 -0.0742  0.2582
 2824SOL    HW220106   1.770   1.974   4.214 -0.3188  1.1432  1.7262
 2825SOL     OW20107   3.322   3.452   3.594  0.0075 -0.2325  0.2449
 2825SOL    HW120108   3.306   3.374   3.647  3.1448 -1.2404 -0.2991
 2825SOL    HW220109   3.374   3.503   3.657  0.0722  0.6017 -0.4835
 2826SOL     OW20110   4.314   1.842  15.677 -0.3030  0.2522  0.5552
 2826SOL    HW120111   4.365   1.765  15.650 -1.5726 -0.0691 -0.9722
 2826SOL    HW220112   4.258   1.803  15.744  0.3422  0.5647  1.2659
 2827SOL     OW20113   3.543   2.287   8.083  0.3304 -0.0254 -0.1934
 2827SOL    HW120114   3.534   2.341   8.004  3.4290  1.4217  0.4526
 2827SOL    HW220115   3.514   2.348   8.150  0.2208 -0.2315 -0.0548
 2828SOL     OW20116   1.233   3.212   5.113 -0.1650  0.0223  0.0560
 2828SOL    HW120117   1.143   3.240   5.094 -0.4712 -0.5801  0.6281
 2828SOL    HW220118   1.213   3.134   5.165 -0.8192  0.5322  0.5656
 2829SOL     OW20119   4.137   3.733   1.054  0.4593  0.1710 -1.1018
 2829SOL    HW120120   4.204   3.796   1.080  0.8352 -0.8782  0.4835
 2829SOL    HW220121   4.053   3.779   1.062  0.2592 -0.6699  1.4079
 2830SOL     OW20122   1.030   2.769   4.515  0.4620  0.8115  0.8955
 2830SOL    HW120123   0.957   2.830   4.525  0.5039  0.8066  1.2373
 2830SOL    HW220124   0.985   2.710   4.455 -1.5774  1.5485  1.7048
 2831SOL     OW20125   1.261   2.020  14.120  0.3728  0.1211  0.1120
 2831SOL    HW120126   1.255   1.968  14.040 -2.3425  1.5354 -0.6240
 2831SOL    HW220127   1.326   1.972  14.170 -0.0093  2.7793  3.1917
 2832SOL     OW20128   2.603   0.797  13.802  0.6345 -0.4949  0.4466
 2832SOL    HW120129   2.651   0.854  13.863  2.3663 -1.0887 -0.3396
 2832SOL    HW220130   2.523   0.769  13.846 -1.1656 -2.7107 -4.2156
 2833SOL     OW20131   4.683   1.269   5.616 -0.0714  0.1019  0.3609
 2833SOL    HW120132   4.648   1.179   5.615  0.1628  0.0055  1.1571
 2833SOL    HW220133   4.733   1.280   5.535 -1.3163  1.5040 -0.2024
 2834SOL     OW20134   3.886   4.050   3.786 -0.0060  0.0232 -0.3087
 2834SOL    HW120135   3.911   4.139   3.810  0.3469 -0.6241  1.7234
 2834SOL    HW220136   3.971   4.005   3.783 -0.4071 -0.9055  2.5176
 2835SOL     OW20137   2.797   4.142   0.742 -0.2697 -0.4229 -0.0774
 2835SOL    HW120138   2.851   4.064   0.746  0.4029  0.1542  2.4600
 2835SOL    HW220139   2.856   4.210   0.774 -0.1367 -0.0119 -1.2035
 2836SOL     OW20140   1.147   0.469   4.699  0.4045 -0.2904  0.4447
 2836SOL    HW120141   1.202   0.511   4.633 -1.6745 -2.3865 -2.6110
 2836SOL    HW220142   1.100   0.400   4.651  1.5198 -0.1103 -0.9142
 2837SOL     OW20143   1.967   4.248   4.315  0.1786  0.5304  0.3636
 2837SOL    HW120144   2.000   4.319   4.260  0.1721  0.3353  0.1072
 2837SOL    HW220145   2.049   4.201   4.332  0.7269  1.1356 -0.5557
 2838SOL     OW20146   2.940   4.627  13.828 -0.5205  0.3847 -0.0036
 2838SOL    HW120147   2.890   4.691  13.777  1.7283 -0.1682 -2.8926
 2838SOL    HW220148   2.899   4.548  13.792  0.4205 -0.4082  0.6621
 2839SOL     OW20149   1.755   3.707   1.206 -0.6420  0.4075  0.9318
 2839SOL    HW120150   1.717   3.622   1.184  0.2087  0.2637  0.0368
 2839SOL    HW220151   1.745   3.761   1.128  0.7975  1.0535  1.2022
 2840SOL     OW20152   3.308   3.883   3.930  0.1296 -0.1326 -0.2555
 2840SOL    HW120153   3.391   3.896   3.977  0.1542 -2.4573  0.3389
 2840SOL    HW220154   3.270   3.968   3.954  0.1875 -0.3327  0.5337
 2841SOL     OW20155   3.510   3.529   8.782  0.0351  0.3391 -0.7235
 2841SOL    HW120156   3.529   3.514   8.875 -0.2695 -0.8009 -0.8432
 2841SOL    HW220157   3.594   3.559   8.746 -0.4090 -0.6764 -2.6044
 2842SOL     OW20158   3.543   2.929   1.985  0.6396 -0.0997  0.3414
 2842SOL    HW120159   3.570   2.972   1.903  0.6521 -1.0914 -0.1722
 2842SOL    HW220160   3.630   2.924   2.025  0.3926  4.3098  1.4304
 2843SOL     OW20161   1.849   2.282   3.538  0.4263  0.3134  0.6651
 2843SOL    HW120162   1.812   2.326   3.462 -0.4868  0.1365  1.0048
 2843SOL    HW220163   1.808   2.340   3.603  0.9337 -1.4792  2.5985
 2844SOL     OW20164   0.624   3.487  10.308 -0.2012  0.0602  0.4455
 2844SOL    HW120165   0.665   3.572  10.323  2.8875 -0.8209 -3.2476
 2844SOL    HW220166   0.537   3.505  10.346 -0.1323  0.1052  0.5839
 2845SOL     OW20167   3.213   3.280   4.335  0.4469  0.2459 -0.2079
 2845SOL    HW120168   3.164   3.277   4.253  2.4509  0.1310 -1.3908
 2845SOL    HW220169   3.229   3.375   4.342  0.0457  0.2571  0.6221
 2846SOL     OW20170   3.419   2.748   6.970 -0.0358 -0.6822 -0.0432
 2846SOL    HW120171   3.435   2.689   7.043  0.9731 -2.5867 -1.8129
 2846SOL    HW220172   3.421   2.836   7.009 -1.0618 -0.0465 -1.4045
 2847SOL     OW20173   0.689   4.240   1.236 -0.4862 -0.3387  0.0312
 2847SOL    HW120174   0.679   4.278   1.148 -2.1186  1.4518  1.0091
 2847SOL    HW220175   0.706   4.318   1.289  0.8743  0.2594 -1.2383
 2848SOL     OW20176   2.439   4.252  17.739  0.3107 -0.3540 -0.6899
 2848SOL    HW120177   2.392   4.215  17.664 -0.4267 -0.2559 -0.2692
 2848SOL    HW220178   2.512   4.297  17.695 -0.3448  0.7885 -0.6032
 2849SOL     OW20179   3.838   2.041   2.207  0.1816 -0.1900 -0.5786
 2849SOL    HW120180   3.792   2.034   2.123 -0.9067 -0.8702  0.0773
 2849SOL    HW220181   3.837   1.948   2.229 -2.1321 -0.0348 -0.0003
 2850SOL     OW20182   2.692   4.190   6.437 -0.5388 -0.2758 -0.0698
 2850SOL    HW120183   2.761   4.255   6.425 -1.2535  1.0408  2.7429
 2850SOL    HW220184   2.626   4.251   6.404 -0.8574 -0.6651 -0.1533
 2851SOL     OW20185   1.825   0.171  17.379  0.4574  0.0968  0.0773
 2851SOL    HW120186   1.903   0.203  17.333  0.2548  1.9770  1.0865
 2851SOL    HW220187   1.800   0.094  17.327  0.5886 -0.3663  0.6990
 2852SOL     OW20188   3.199   2.289  14.990  0.5763 -0.1162 -0.3311
 2852SOL    HW120189   3.277   2.328  15.030 -0.8720  4.0960 -1.5248
 2852SOL    HW220190   3.145   2.308  15.066  0.8705  0.2470 -0.2118
 2853SOL     OW20191   1.292   2.213   3.832  0.5848 -0.1015 -0.1460
 2853SOL    HW120192   1.220   2.170   3.786  0.4678  0.8445 -0.8486
 2853SOL    HW220193   1.295   2.296   3.785  0.4285  0.0569  0.1272
 2854SOL     OW20194   0.389   4.404   4.087 -0.1403 -0.3138  0.5850
 2854SOL    HW120195   0.464   4.373   4.138  0.4009  1.0044  0.5850
 2854SOL    HW220196   0.436   4.428   4.007 -2.1628  1.4024 -0.0996
 2855SOL     OW20197   4.468   4.040   8.056 -0.2521  0.0250  1.3773
 2855SOL    HW120198   4.495   3.962   8.006  0.5421  1.3417 -0.2691
 2855SOL    HW220199   4.384   4.009   8.089 -0.5662 -0.1322  0.4273
 2856SOL     OW20200   2.984   2.040   4.647 -0.7734  0.4042 -0.5484
 2856SOL    HW120201   2.932   1.970   4.687  1.3958 -0.9579 -0.0839
 2856SOL    HW220202   2.991   2.107   4.715  0.3170  0.2473 -0.5014
 2857SOL     OW20203   1.405   2.848   8.467 -0.7994 -0.1459  0.4405
 2857SOL    HW120204   1.314   2.852   8.499 -0.9248  2.3546 -0.2121
 2857SOL    HW220205   1.451   2.854   8.551  0.4419 -1.4693 -0.1508
 2858SOL     OW20206   1.691   3.961   8.712 -0.4916  0.2374 -0.4788
 2858SOL    HW120207   1.732   3.913   8.640  1.2316  0.1258  0.5894
 2858SOL    HW220208   1.719   3.914   8.790 -1.5303  1.9874  0.9728
 2859SOL     OW20209   1.242   0.876   7.279 -0.1494 -0.2209 -0.3745
 2859SOL    HW120210   1.178   0.812   7.247  0.6233 -0.4545 -1.4491
 2859SOL    HW220211   1.187   0.951   7.256  0.9564  1.5019  2.6407
 2860SOL     OW20212   1.847   1.657   4.536  0.1579 -0.4906 -0.4678
 2860SOL    HW120213   1.880   1.724   4.595 -1.4216 -0.5813  0.5231
 2860SOL    HW220214   1.927   1.637   4.488 -0.2005  1.2285 -1.7750
 2861SOL     OW20215   3.929   3.429   9.490  0.1364  0.1833 -0.2725
 2861SOL    HW120216   3.951   3.369   9.561 -1.8667  0.3349  0.4932
 2861SOL    HW220217   4.009   3.431   9.438  1.8009 -1.2796  2.2549
 2862SOL     OW20218   1.259   3.664   8.378 -0.5947 -0.3922 -0.0815
 2862SOL    HW120219   1.250   3.758   8.393 -1.7076 -0.1930 -1.8636
 2862SOL    HW220220   1.312   3.663   8.298  0.0086 -2.7533  0.3596
 2863SOL     OW20221   1.391   2.729   9.288  0.0045 -0.4986 -0.4006
 2863SOL    HW120222   1.378   2.810   9.239  2.1530  1.0621  1.5848
 2863SOL    HW220223   1.389   2.753   9.380 -0.2154 -2.4478  0.1092
 2864SOL     OW20224   4.379   3.408   2.841  0.1038 -0.2668 -0.4382
 2864SOL    HW120225   4.424   3.438   2.920  0.0799  1.1767 -0.9725
 2864SOL    HW220226   4.432   3.425   2.763  0.7318 -0.9902 -0.1738
 2865SOL     OW20227   4.317   3.256   9.194  0.1450  0.0574 -0.0457
 2865SOL    HW120228   4.329   3.238   9.101 -2.2538  0.5926 -0.4585
 2865SOL    HW220229   4.407   3.259   9.227  0.3086  2.1919 -0.6947
 2866SOL     OW20230   0.725   2.980  15.128 -0.2948  0.2552  0.1525
 2866SOL    HW120231   0.769   3.059  15.160 -0.9016  0.8326 -0.4331
 2866SOL    HW220232   0.635   2.976  15.162 -0.7051 -0.3491 -1.0208
 2867SOL     OW20233   3.052   0.561   3.588 -0.5582 -0.0020 -0.2613
 2867SOL    HW120234   3.042   0.525   3.500 -1.6639 -2.0675  0.7195
 2867SOL    HW220235   3.146   0.544   3.582  0.0231  1.6850  4.3397
 2868SOL     OW20236   3.704   2.670   8.383  0.1912  0.1172 -0.4745
 2868SOL    HW120237   3.704   2.730   8.458 -0.5001  0.2987 -0.6170
 2868SOL    HW220238   3.677   2.717   8.304  0.7814  0.5916 -0.3955
 2869SOL     OW20239   1.974   1.302  13.112  1.1855  0.5405  0.5801
 2869SOL    HW120240   2.057   1.266  13.080 -0.0278 -3.0641  1.4808
 2869SOL    HW220241   2.000   1.367  13.177  0.3041  0.6810  0.7919
 2870SOL     OW20242   1.163   1.889   9.208 -0.2809  0.5529 -0.1853
 2870SOL    HW120243   1.166   1.856   9.298 -1.4957 -1.9161 -1.0493
 2870SOL    HW220244   1.241   1.848   9.172 -1.1118 -2.2129  1.2217
 2871SOL     OW20245   1.868   1.664   7.233  0.2476 -0.2471 -0.6021
 2871SOL    HW120246   1.922   1.645   7.310 -0.2938  2.2497  0.3800
 2871SOL    HW220247   1.932   1.698   7.171  1.2468  2.3908  1.8982
 2872SOL     OW20248   2.858   2.640   3.963  0.3844  0.1015 -0.1531
 2872SOL    HW120249   2.903   2.638   3.879  1.2841 -3.0164  0.4237
 2872SOL    HW220250   2.926   2.607   4.022  0.0602 -1.1265 -0.4592
 2873SOL     OW20251   3.808   0.249  16.281 -0.1272 -0.3099 -0.1613
 2873SOL    HW120252   3.740   0.182  16.291  2.4960 -3.1198 -1.0884
 2873SOL    HW220253   3.799   0.277  16.372  1.2179 -0.2389 -0.0504
 2874SOL     OW20254   1.039   0.522   6.388 -0.6494 -0.3225  0.1286
 2874SOL    HW120255   1.038   0.427   6.401  0.1720 -0.2216  0.8916
 2874SOL    HW220256   1.106   0.534   6.321 -1.2911  0.9059 -0.3017
 2875SOL     OW20257   0.923   4.050  15.419  0.2884 -0.0454  0.9148
 2875SOL    HW120258   0.909   4.098  15.501  0.5573  0.3819  0.7098
 2875SOL    HW220259   0.849   4.074  15.364 -0.8993  1.1853  3.0631
 2876SOL     OW20260   2.435   3.937   3.527 -0.4306  0.1312 -0.6324
 2876SOL    HW120261   2.356   3.987   3.550  0.7229  1.4090  0.6238
 2876SOL    HW220262   2.415   3.899   3.442  1.1210  0.6700 -1.2424
 2877SOL     OW20263   1.014   2.370   7.226 -0.4700 -0.1248  0.2282
 2877SOL    HW120264   1.052   2.308   7.163  0.7389 -0.6630  1.4679
 2877SOL    HW220265   0.926   2.333   7.230 -1.2444  1.4746 -2.1614
 2878SOL     OW20266   0.412   2.310   6.721  0.3860  0.2319 -0.3703
 2878SOL    HW120267   0.396   2.215   6.717 -0.8292  0.5020 -1.7606
 2878SOL    HW220268   0.349   2.336   6.654 -1.0750 -0.4021  0.7440
 2879SOL     OW20269   0.981   3.363   6.822 -0.8903 -0.0420 -0.1347
 2879SOL    HW120270   1.041   3.411   6.765 -1.7860 -2.5225 -3.2320
 2879SOL    HW220271   0.914   3.333   6.760 -0.3994 -2.0446  0.3029
 2880SOL     OW20272   1.623   4.507   4.688 -0.7351 -0.3432  0.3999
 2880SOL    HW120273   1.659   4.595   4.695  0.0063 -0.6226  0.1588
 2880SOL    HW220274   1.703   4.456   4.674  0.1665  0.8109  1.2894
 2881SOL     OW20275   3.601   3.651  13.200  0.2959 -0.2724 -0.0102
 2881SOL    HW120276   3.598   3.628  13.107  0.9881 -0.5155  0.0294
 2881SOL    HW220277   3.657   3.585  13.241  0.5610 -0.5706 -0.8578
 2882SOL     OW20278   3.453   0.597   2.886  0.2003  0.6968 -0.1732
 2882SOL    HW120279   3.545   0.621   2.873 -0.2363  1.6620 -1.5304
 2882SOL    HW220280   3.405   0.657   2.828  0.1563 -0.5541 -1.4358
 2883SOL     OW20281   1.113   3.261   8.863  0.4060  0.5102 -0.8653
 2883SOL    HW120282   1.164   3.180   8.855 -1.2847 -0.7147  0.7030
 2883SOL    HW220283   1.046   3.233   8.801 -0.6679  1.9826 -0.3574
 2884SOL     OW20284   4.488   1.630  10.695  0.6769  0.1487 -0.0303
 2884SOL    HW120285   4.467   1.709  10.745 -4.4962  0.1619 -2.2439
 2884SOL    HW220286   4.436   1.561  10.737 -0.3200 -0.3440 -2.0965
 2885SOL     OW20287   4.341   0.645   4.293  0.2596  0.8839  0.6537
 2885SOL    HW120288   4.389   0.569   4.261 -0.7250 -0.4305  2.3214
 2885SOL    HW220289   4.409   0.712   4.292  0.6951  0.3913 -3.3068
 2886SOL     OW20290   1.012   4.471  17.574  0.2635  0.7477 -0.2013
 2886SOL    HW120291   0.934   4.417  17.559 -0.7945  1.9753  0.8076
 2886SOL    HW220292   0.980   4.561  17.570 -1.3760  0.2547  1.7121
 2887SOL     OW20293   4.569   0.925   4.644 -0.3807  0.1838 -0.1059
 2887SOL    HW120294   4.492   0.952   4.695  0.7347  0.6851  1.3212
 2887SOL    HW220295   4.591   1.003   4.594  2.3551 -0.5212  0.0268
 2888SOL     OW20296   0.242   2.537   5.862 -0.4724  0.2165  0.4362
 2888SOL    HW120297   0.286   2.540   5.947  1.7336  0.0646 -0.6890
 2888SOL    HW220298   0.166   2.482   5.877 -0.2783 -0.1463  0.0916
 2889SOL     OW20299   0.744   3.122   2.177  0.5225 -0.1748  0.3183
 2889SOL    HW120300   0.662   3.156   2.213  0.5508  0.5959 -0.3463
 2889SOL    HW220301   0.801   3.173   2.235 -0.9711  1.3225  0.4893
 2890SOL     OW20302   0.872   4.539   6.184 -0.2288  0.0222 -0.4712
 2890SOL    HW120303   0.794   4.564   6.233 -0.1400  0.1442 -0.3905
 2890SOL    HW220304   0.891   4.613   6.127  1.1430 -0.7889 -1.0657
 2891SOL     OW20305   2.913   1.904   7.378  0.5160  0.0309  0.2192
 2891SOL    HW120306   2.920   1.831   7.316  1.3059  1.1142 -0.9818
 2891SOL    HW220307   2.821   1.899   7.405  0.8998  1.6587  1.8374
 2892SOL     OW20308   3.648   3.989   3.943  0.1619  0.4609  0.8427
 2892SOL    HW120309   3.720   3.991   3.880  0.5045 -0.5234  1.1955
 2892SOL    HW220310   3.596   4.060   3.905 -0.0787  1.0038  2.1617
 2893SOL     OW20311   1.327   3.866   9.338  0.5055  0.2011  0.0193
 2893SOL    HW120312   1.235   3.862   9.311 -0.3423  1.0002  2.8097
 2893SOL    HW220313   1.365   3.787   9.298 -0.0688  0.4412 -0.9841
 2894SOL     OW20314   4.047   1.767   7.558  0.0100 -0.2638 -0.4466
 2894SOL    HW120315   4.068   1.716   7.637  1.1304 -0.6328 -0.9851
 2894SOL    HW220316   4.068   1.703   7.490  0.5303 -0.3701 -0.1862
 2895SOL     OW20317   2.209   2.450   5.464  0.5409 -0.3619 -0.6318
 2895SOL    HW120318   2.165   2.508   5.526  0.4742 -2.3581  1.1960
 2895SOL    HW220319   2.192   2.494   5.381  0.6088 -0.6478 -0.7998
 2896SOL     OW20320   2.672   4.520   4.146  0.3913  0.1525 -0.1993
 2896SOL    HW120321   2.647   4.431   4.170 -0.8050  0.8904  1.2706
 2896SOL    HW220322   2.765   4.509   4.125  0.2767 -3.0599  1.1608
 2897SOL     OW20323   2.461   1.650   9.230  0.5971 -0.3490 -0.0952
 2897SOL    HW120324   2.455   1.559   9.201 -1.8444 -0.3769  0.5458
 2897SOL    HW220325   2.424   1.648   9.318  0.7470  1.6672  0.0045
 2898SOL     OW20326   2.252   2.664   3.084  0.0929  0.3941  0.1305
 2898SOL    HW120327   2.215   2.618   3.159  2.0768 -2.9869 -0.9613
 2898SOL    HW220328   2.198   2.743   3.088  1.8480  1.5141  1.5423
 2899SOL     OW20329   0.110   4.330  11.980 -0.1125 -0.1930  0.6793
 2899SOL    HW120330   0.065   4.351  12.062  1.8778 -0.4116  1.8376
 2899SOL    HW220331   0.086   4.240  11.958 -1.9934  0.8303 -1.4868
 2900SOL     OW20332   3.859   0.443   8.169 -0.3248 -0.3740  0.8981
 2900SOL    HW120333   3.788   0.380   8.181 -0.3252 -0.9693 -2.3989
 2900SOL    HW220334   3.855   0.466   8.076 -0.2165 -0.6370  0.8296
 2901SOL     OW20335   1.740   0.351   7.020  0.2444  0.4878  0.0734
 2901SOL    HW120336   1.727   0.441   7.048 -0.2197  1.1875 -2.4423
 2901SOL    HW220337   1.698   0.296   7.086 -0.4943 -0.1037 -0.8948
 2902SOL     OW20338   2.725   1.472   2.883  0.1510 -0.4121 -0.2962
 2902SOL    HW120339   2.799   1.510   2.835  1.5947  1.7850  3.6401
 2902SOL    HW220340   2.757   1.471   2.974  1.4437  2.0200 -0.7251
 2903SOL     OW20341   4.342   2.179   1.515  0.2136  0.8988 -0.0165
 2903SOL    HW120342   4.311   2.117   1.581 -0.2349 -0.1565 -1.2072
 2903SOL    HW220343   4.424   2.140   1.484  0.2918  0.1884  1.0848
 2904SOL     OW20344   3.213   1.190   3.676 -0.1173  0.4918 -0.5582
 2904SOL    HW120345   3.246   1.214   3.589  2.2310  1.4865  0.6174
 2904SOL    HW220346   3.235   1.097   3.675  0.1476  0.5412  1.8845
 2905SOL     OW20347   0.873   0.740   6.440 -0.0549 -0.5795  0.6456
 2905SOL    HW120348   0.944   0.804   6.430 -0.9958  0.2769 -0.6545
 2905SOL    HW220349   0.927   0.662   6.442  1.6208  0.6278  2.6591
 2906SOL     OW20350   4.193   2.170   5.402 -0.4045  0.2036  0.6467
 2906SOL    HW120351   4.135   2.111   5.354  0.3756  0.8744 -1.1193
 2906SOL    HW220352   4.241   2.214   5.332  0.3299  1.2379  1.8130
 2907SOL     OW20353   3.020   0.507  14.254 -0.3710 -0.1396  0.8031
 2907SOL    HW120354   3.100   0.497  14.304  0.8392  0.1564 -1.0755
 2907SOL    HW220355   2.953   0.461  14.305  0.1274 -1.3387  0.3658
 2908SOL     OW20356   2.915   2.725   8.891 -0.3774  0.0152  0.0075
 2908SOL    HW120357   2.905   2.629   8.892 -0.8946  0.0709  0.1038
 2908SOL    HW220358   2.998   2.717   8.843 -0.0009  0.3924  0.5915
 2909SOL     OW20359   1.015   4.196   7.031  0.2531 -0.2836  0.2940
 2909SOL    HW120360   1.042   4.167   7.118 -1.2791 -1.1930  0.4689
 2909SOL    HW220361   1.101   4.191   6.989  1.2081  1.2706  2.0794
 2910SOL     OW20362   2.307   0.209   3.440  0.8990  0.2653  0.0549
 2910SOL    HW120363   2.242   0.259   3.489  0.2109 -1.8478  1.2507
 2910SOL    HW220364   2.382   0.262   3.467  1.0410  0.0597  0.0657
 2911SOL     OW20365   0.194   0.703   4.805  0.4178 -0.1290  0.3249
 2911SOL    HW120366   0.197   0.707   4.900 -4.1983 -1.1464  0.4925
 2911SOL    HW220367   0.175   0.794   4.784  0.0638 -0.1307  0.6486
 2912SOL     OW20368   2.943   0.257   9.353 -0.2817  0.6863  0.1629
 2912SOL    HW120369   2.877   0.303   9.404 -1.8898 -1.2466 -0.1621
 2912SOL    HW220370   2.988   0.335   9.319 -2.0749  1.1406 -1.1621
 2913SOL     OW20371   3.720   0.173   6.235  0.5576  0.1093 -0.2434
 2913SOL    HW120372   3.665   0.242   6.197  1.9358  0.3591 -1.7557
 2913SOL    HW220373   3.806   0.212   6.223  0.6253 -0.0975 -0.4419
 2914SOL     OW20374   3.257   1.477   4.096  0.1434 -0.1049 -0.1217
 2914SOL    HW120375   3.315   1.553   4.099  0.7840 -0.5279 -1.9201
 2914SOL    HW220376   3.306   1.427   4.031 -0.6715  2.7193 -2.8993
 2915SOL     OW20377   0.924   2.985  15.417  0.3602 -0.3589 -0.4570
 2915SOL    HW120378   0.845   2.931  15.408  0.4220 -0.8165  1.5992
 2915SOL    HW220379   0.916   3.039  15.339 -0.9963  1.0794  0.6770
 2916SOL     OW20380   3.584   3.645  11.562  0.2322  0.5190  0.7065
 2916SOL    HW120381   3.623   3.713  11.506  1.1784 -1.1738 -0.7095
 2916SOL    HW220382   3.637   3.660  11.640  1.4231 -0.2666  0.0525
 2917SOL     OW20383   2.993   4.136   8.518 -0.1267 -0.0053  0.6456
 2917SOL    HW120384   2.904   4.173   8.519 -0.0645  0.1531 -0.5808
 2917SOL    HW220385   3.037   4.205   8.468  0.4564 -0.1365  0.9769
 2918SOL     OW20386   4.599   4.487   7.447  0.4398  0.1235 -1.0452
 2918SOL    HW120387   4.620   4.511   7.356  0.5454 -0.3977 -1.1585
 2918SOL    HW220388   4.669   4.528   7.497 -0.6021  1.2834 -0.5310
 2919SOL     OW20389   4.245   2.362   3.022  0.1030 -0.1805 -0.4187
 2919SOL    HW120390   4.205   2.280   3.050 -0.8512  0.9420  1.5761
 2919SOL    HW220391   4.275   2.336   2.935 -0.5012  1.8753 -1.2518
 2920SOL     OW20392   1.216   0.750   2.438 -0.5413 -0.2156 -0.5747
 2920SOL    HW120393   1.294   0.725   2.389 -0.5868 -1.3782 -0.0652
 2920SOL    HW220394   1.250   0.790   2.519  0.3913  2.1004 -2.1129
 2921SOL     OW20395   3.965   2.663   7.729  0.1527  0.0177 -0.4892
 2921SOL    HW120396   3.994   2.729   7.792 -1.8359  0.9896 -0.5989
 2921SOL    HW220397   3.933   2.585   7.774  0.7649  1.9745  3.2923
 2922SOL     OW20398   3.856   0.811   1.168 -0.6789  0.4371 -0.0186
 2922SOL    HW120399   3.835   0.881   1.106  1.0072  0.9335 -0.0260
 2922SOL    HW220400   3.940   0.768   1.153 -0.0663  0.8342  2.2791
 2923SOL     OW20401   4.496   0.144   4.420  0.4356  0.3247 -0.0657
 2923SOL    HW120402   4.449   0.101   4.491 -1.4811  0.0151 -1.5121
 2923SOL    HW220403   4.547   0.210   4.466  0.2824 -0.3910  1.1165
 2924SOL     OW20404   1.116   1.344   7.844  0.1587  0.2908 -0.0829
 2924SOL    HW120405   1.041   1.365   7.788 -0.1823  0.6113  0.4960
 2924SOL    HW220406   1.094   1.395   7.921  0.6538  0.6340 -0.1710
 2925SOL     OW20407   0.924   1.396   9.504  0.7495 -0.3261  0.0558
 2925SOL    HW120408   0.915   1.453   9.581  0.6846 -1.0771  0.6030
 2925SOL    HW220409   0.876   1.320   9.538  0.5514 -0.1538  0.1650
 2926SOL     OW20410   0.694   2.972   5.983  0.2820  0.1996 -0.0224
 2926SOL    HW120411   0.607   2.933   5.982  1.0098 -1.3823 -1.4860
 2926SOL    HW220412   0.687   3.063   6.012 -3.4740  0.4808 -1.8736
 2927SOL     OW20413   3.013   1.816   6.124 -0.3326 -0.7305 -0.1751
 2927SOL    HW120414   3.067   1.886   6.161  0.3744 -0.3698 -1.8677
 2927SOL    HW220415   2.926   1.854   6.140 -0.2573 -1.1831  1.3388
 2928SOL     OW20416   2.558   0.730  12.276 -0.1938  0.0903 -0.6496
 2928SOL    HW120417   2.605   0.769  12.350 -1.4813 -2.3680  1.4717
 2928SOL    HW220418   2.521   0.650  12.313  1.0749 -0.3612 -0.3525
 2929SOL     OW20419   4.111   0.613  17.604  0.6315 -0.2284  0.0317
 2929SOL    HW120420   4.142   0.537  17.652 -0.2742 -0.7529 -0.2208
 2929SOL    HW220421   4.048   0.651  17.664  0.5514  0.3202 -0.3965
 2930SOL     OW20422   4.566   3.374   5.560 -0.3556 -0.5488  0.0959
 2930SOL    HW120423   4.502   3.328   5.507  0.5837 -0.8415 -0.7772
 2930SOL    HW220424   4.515   3.425   5.623  1.2862 -0.0612  1.0465
 2931SOL     OW20425   1.200   3.561  11.567  0.1930 -0.2964 -0.0821
 2931SOL    HW120426   1.135   3.629  11.583 -1.9105 -1.9601 -1.4072
 2931SOL    HW220427   1.172   3.495  11.631 -0.9503 -1.7748 -2.0807
 2932SOL     OW20428   1.931   0.558   3.805 -0.0012  0.2884  0.3608
 2932SOL    HW120429   1.901   0.491   3.866 -0.1398 -0.8616 -0.9822
 2932SOL    HW220430   1.885   0.542   3.723 -0.5289  0.7504  0.5681
 2933SOL     OW20431   1.924   4.472  14.521  0.1194  0.2256 -0.2533
 2933SOL    HW120432   1.929   4.393  14.466  1.1763  0.4693 -0.5201
 2933SOL    HW220433   1.881   4.529  14.458 -0.1785  0.4967  0.1991
 2934SOL     OW20434   3.137   4.296   2.990 -0.5140 -0.3867  0.2417
 2934SOL    HW120435   3.164   4.218   3.038 -2.6983 -0.8121  0.7606
 2934SOL    HW220436   3.046   4.303   3.018 -0.5164  0.0362  0.1298
 2935SOL     OW20437   4.500   2.617  17.187  0.3234 -0.8357 -0.8306
 2935SOL    HW120438   4.527   2.528  17.210 -0.1490 -0.4882  1.0407
 2935SOL    HW220439   4.588   2.655  17.192  0.4734 -1.5843  1.8422
 2936SOL     OW20440   2.496   1.122  12.134 -0.3351  0.2047 -0.3100
 2936SOL    HW120441   2.472   1.101  12.044 -0.0995 -1.4161  0.0098
 2936SOL    HW220442   2.423   1.097  12.191 -0.9892 -0.3060 -1.3778
 2937SOL     OW20443   1.219   3.819   6.560 -0.0604  0.4379  0.2614
 2937SOL    HW120444   1.177   3.848   6.479  2.3089 -1.9127 -1.8040
 2937SOL    HW220445   1.222   3.725   6.545 -1.6942  0.3677  0.3669
 2938SOL     OW20446   1.071   4.366   6.163 -0.0480  0.4431 -0.2866
 2938SOL    HW120447   1.084   4.370   6.068  1.9957  0.7158  0.0098
 2938SOL    HW220448   1.006   4.434   6.180 -1.7920 -1.2232 -0.2308
 2939SOL     OW20449   3.233   0.681   9.126 -0.0171  0.0907 -0.7247
 2939SOL    HW120450   3.201   0.764   9.091  1.3750  1.3241  0.9531
 2939SOL    HW220451   3.256   0.620   9.056 -0.5208 -0.3106 -0.5450
 2940SOL     OW20452   3.571   3.519   7.550 -0.5592 -0.2798  0.1227
 2940SOL    HW120453   3.640   3.506   7.486  1.6387 -1.8322  2.8136
 2940SOL    HW220454   3.615   3.555   7.627 -1.7454 -1.3929  1.3463
 2941SOL     OW20455   4.403   1.167   1.742 -0.3913 -0.1817 -0.7716
 2941SOL    HW120456   4.472   1.209   1.793 -0.4352 -1.5213  0.4012
 2941SOL    HW220457   4.370   1.242   1.692  2.5850  0.9731 -1.0056
 2942SOL     OW20458   3.907   0.546   8.442  0.5394  0.0798  0.0261
 2942SOL    HW120459   3.821   0.552   8.484  0.9531  0.5782  0.7828
 2942SOL    HW220460   3.881   0.518   8.354  0.1455  0.5355 -0.0035
 2943SOL     OW20461   2.541   0.690  10.245 -0.3461 -0.6108 -0.5680
 2943SOL    HW120462   2.478   0.748  10.286  1.0920 -0.3294  1.2315
 2943SOL    HW220463   2.568   0.635  10.318 -0.9433 -1.7094 -1.1798
 2944SOL     OW20464   1.176   1.088   1.902 -0.3224 -0.0953 -0.0068
 2944SOL    HW120465   1.123   1.081   1.982 -2.2679 -0.6279 -1.3644
 2944SOL    HW220466   1.223   1.170   1.918 -1.8767  0.5880  1.0367
 2945SOL     OW20467   2.213   2.168  12.608  0.2841  0.2708  0.4540
 2945SOL    HW120468   2.141   2.110  12.584 -1.0571  2.5510 -1.0539
 2945SOL    HW220469   2.190   2.201  12.695 -0.2271 -2.0588  1.2141
 2946SOL     OW20470   0.946   3.462   6.507 -0.1938  0.3055 -0.1215
 2946SOL    HW120471   0.864   3.416   6.525  0.2396 -1.2267 -1.9713
 2946SOL    HW220472   0.910   3.534   6.456  1.1304  1.2271  0.2565
 2947SOL     OW20473   0.533   0.601   2.840 -0.7402 -0.9990 -0.8509
 2947SOL    HW120474   0.529   0.630   2.931  0.8099 -1.6730 -0.5648
 2947SOL    HW220475   0.461   0.648   2.798 -0.6813 -0.7750 -0.7000
 2948SOL     OW20476   4.252   3.906   8.118  0.2626  0.4816 -0.0943
 2948SOL    HW120477   4.165   3.903   8.078 -1.0000  1.8503  2.5678
 2948SOL    HW220478   4.287   3.819   8.098 -1.1760  0.1480 -1.1984
 2949SOL     OW20479   0.417   2.685   4.918  0.0088  0.1645 -0.1531
 2949SOL    HW120480   0.424   2.769   4.964  1.7251  0.7374 -1.5019
 2949SOL    HW220481   0.415   2.625   4.993 -1.1222  0.1749 -0.1775
 2950SOL     OW20482   2.832   1.971  16.936  0.2514  0.5466 -0.4171
 2950SOL    HW120483   2.767   2.001  16.873 -0.7961  1.5300  1.1347
 2950SOL    HW220484   2.852   1.885  16.900 -1.3290 -0.1770  0.4587
 2951SOL     OW20485   2.179   3.617   1.584 -0.0846 -0.7361  0.2755
 2951SOL    HW120486   2.262   3.610   1.632 -1.0964 -0.6932  2.0422
 2951SOL    HW220487   2.124   3.547   1.619 -0.9215 -0.4077 -0.3897
 2952SOL     OW20488   0.540   1.653   2.547 -0.1284  0.2486  0.4075
 2952SOL    HW120489   0.538   1.749   2.554  2.8117  0.4224 -0.8343
 2952SOL    HW220490   0.631   1.624   2.535 -0.1676 -0.2345  1.2888
 2953SOL     OW20491   3.093   3.955   5.958  0.3068  0.0348  0.2702
 2953SOL    HW120492   3.001   3.936   5.975 -0.4676  1.5884 -2.2576
 2953SOL    HW220493   3.110   3.887   5.894  1.7035 -0.1477  0.8255
 2954SOL     OW20494   0.961   0.315   8.679  0.0099 -0.4316 -0.1699
 2954SOL    HW120495   0.933   0.298   8.589 -0.9638 -0.1797  0.0921
 2954SOL    HW220496   0.962   0.224   8.710 -2.5862  0.0451  1.2296
 2955SOL     OW20497   0.748   4.692   8.045  0.3865 -0.2628  0.4932
 2955SOL    HW120498   0.807   4.700   8.120  1.2963  2.0337 -0.4735
 2955SOL    HW220499   0.679   0.005   8.090  2.6625  1.5372  2.0256
 2956SOL     OW20500   2.992   2.657  14.446 -0.2511  0.2312  0.2634
 2956SOL    HW120501   3.086   2.670  14.434  0.4079 -3.0924  1.8448
 2956SOL    HW220502   2.962   2.748  14.455  3.0015  1.2833  0.6261
 2957SOL     OW20503   0.144   4.658  16.797 -0.0368 -0.5402 -0.5562
 2957SOL    HW120504   0.202   4.582  16.807  1.8837  1.0746  0.6062
 2957SOL    HW220505   0.193   4.736  16.824 -1.8058 -0.6970  3.0434
 2958SOL     OW20506   1.113   1.383   4.276 -0.2919 -0.6628  0.5105
 2958SOL    HW120507   1.143   1.300   4.313  2.6429  0.5410  0.8289
 2958SOL    HW220508   1.190   1.423   4.235 -0.1891 -1.2789  0.0959
 2959SOL     OW20509   2.755   4.494  15.720  0.2467 -0.1756  0.1616
 2959SOL    HW120510   2.726   4.529  15.637  0.1250  1.6059  0.9681
 2959SOL    HW220511   2.770   4.573  15.771  0.0218 -1.2370  1.9032
 2960SOL     OW20512   4.721   2.123   1.066 -0.3551  0.5601  0.5478
 2960SOL    HW120513   0.038   2.147   0.990 -1.0872 -1.0441 -0.4568
 2960SOL    HW220514   4.676   2.046   1.031  1.2794 -0.4765  0.7403
 2961SOL     OW20515   4.568   4.365   9.755  0.2069 -0.4818  0.5648
 2961SOL    HW120516   4.632   4.294   9.748  0.5987 -0.1303  0.5771
 2961SOL    HW220517   4.487   4.315   9.769 -0.3365 -0.3870 -2.0728
 2962SOL     OW20518   4.165   4.201   1.681 -0.2198  0.0493 -0.0543
 2962SOL    HW120519   4.108   4.197   1.758 -0.9330 -0.1689 -0.5953
 2962SOL    HW220520   4.245   4.160   1.711  0.4298  1.4067  0.0853
 2963SOL     OW20521   3.942   3.274   6.959  0.3670 -0.5617  0.3089
 2963SOL    HW120522   3.982   3.230   6.884  0.2951 -0.6491  0.3211
 2963SOL    HW220523   3.891   3.349   6.929  1.9766 -0.1407 -1.3080
 2964SOL     OW20524   2.158   1.872  13.363 -0.0272 -0.3816  0.5274
 2964SOL    HW120525   2.177   1.880  13.456 -0.0358  0.9142  0.4133
 2964SOL    HW220526   2.249   1.890  13.339 -0.6413  2.1917  0.1722
 2965SOL     OW20527   4.520   2.341   9.988  0.2508  0.0028 -0.3446
 2965SOL    HW120528   4.560   2.270  10.039  1.3483 -0.3596 -1.7012
 2965SOL    HW220529   4.511   2.409  10.055 -0.3185 -0.7757  0.3801
 2966SOL     OW20530   0.572   2.670   7.493  0.9854 -0.6024  0.2499
 2966SOL    HW120531   0.504   2.615   7.454  2.5752 -1.6679 -1.0447
 2966SOL    HW220532   0.572   2.745   7.432 -1.4309 -1.9446 -1.4036
 2967SOL     OW20533   4.306   2.722   3.696 -0.3291 -0.5226  0.5338
 2967SOL    HW120534   4.359   2.703   3.619  1.7281 -0.4515  1.9561
 2967SOL    HW220535   4.381   2.728   3.755  0.0698  0.3093 -0.0507
 2968SOL     OW20536   4.475   2.654   3.501 -0.0768  0.8304  0.3463
 2968SOL    HW120537   4.565   2.670   3.471 -0.3537 -1.2901 -1.5926
 2968SOL    HW220538   4.432   2.652   3.416  0.8565 -1.6037 -0.0522
 2969SOL     OW20539   0.442   0.492   4.144  0.3350 -0.2827 -1.2115
 2969SOL    HW120540   0.412   0.579   4.119 -0.2659  0.5339  2.3018
 2969SOL    HW220541   0.362   0.441   4.130 -0.6557  0.6599  0.9144
 2970SOL     OW20542   2.788   0.270   8.807 -0.2176  0.3240 -0.0884
 2970SOL    HW120543   2.718   0.322   8.768  1.3606  2.8518  0.4312
 2970SOL    HW220544   2.766   0.260   8.899 -1.7294  0.2927 -0.4474
 2971SOL     OW20545   2.825   2.841  17.465  0.0312 -0.0982 -1.1016
 2971SOL    HW120546   2.765   2.898  17.513 -0.7154 -2.5481  0.8697
 2971SOL    HW220547   2.765   2.767  17.460  0.6075 -0.7189  1.0943
 2972SOL     OW20548   0.192   4.532   0.331  0.5600 -0.3819 -0.5793
 2972SOL    HW120549   0.129   4.552   0.262  1.9779 -1.6472 -2.2499
 2972SOL    HW220550   0.156   4.583   0.404  3.0090 -0.7189  0.8625
 2973SOL     OW20551   1.554   2.214   1.916  0.3711 -0.7070 -0.4332
 2973SOL    HW120552   1.571   2.308   1.919 -1.2738 -0.2963 -3.2216
 2973SOL    HW220553   1.496   2.205   1.991 -1.1739  0.1988 -1.5149
 2974SOL     OW20554   4.547   0.907   8.247 -0.4865 -0.0366  0.7034
 2974SOL    HW120555   4.620   0.866   8.201  0.4742 -1.0270  3.1250
 2974SOL    HW220556   4.498   0.835   8.287 -1.2672 -0.1599 -0.4871
 2975SOL     OW20557   0.833   0.574   7.179 -0.4134  0.7713  0.1933
 2975SOL    HW120558   0.814   0.496   7.230 -0.5621  0.6819  0.0020
 2975SOL    HW220559   0.751   0.617   7.204 -0.0645  1.4365  0.1999
 2976SOL     OW20560   0.145   1.390   2.825  0.1470 -0.3003  0.4624
 2976SOL    HW120561   0.206   1.361   2.894  0.6915  0.4999  0.3233
 2976SOL    HW220562   0.206   1.457   2.795  0.3682 -0.9140 -0.4621
 2977SOL     OW20563   2.784   0.235   6.504  0.2516 -0.2160 -0.5228
 2977SOL    HW120564   2.844   0.308   6.518 -0.4977  0.0437  1.3701
 2977SOL    HW220565   2.703   0.282   6.485  1.5066  2.5799  0.9978
 2978SOL     OW20566   3.645   0.263   8.240  0.6683  0.2196 -0.0060
 2978SOL    HW120567   3.733   0.227   8.250  0.6423  0.1541 -0.0158
 2978SOL    HW220568   3.604   0.192   8.288  0.3506  1.3136  1.3194
 2979SOL     OW20569   3.343   3.210   3.700  0.2549 -0.5566  0.1770
 2979SOL    HW120570   3.424   3.250   3.668 -0.0505 -0.3233 -0.2969
 2979SOL    HW220571   3.355   3.119   3.674  1.1229 -0.8727  1.6498
 2980SOL     OW20572   4.081   0.298   2.007 -0.8039 -0.3332 -0.3390
 2980SOL    HW120573   4.085   0.372   1.947 -2.3158  0.0830  0.0875
 2980SOL    HW220574   4.168   0.306   2.046  0.3032 -1.6355 -2.5412
 2981SOL     OW20575   1.006   1.878  15.478 -0.1524 -0.0924  0.1330
 2981SOL    HW120576   1.100   1.892  15.481 -0.3667  1.3227  0.4925
 2981SOL    HW220577   0.998   1.811  15.546 -0.0060 -0.0585  0.1829
 2982SOL     OW20578   1.612   4.676  10.699 -1.0783 -0.0223 -0.2579
 2982SOL    HW120579   1.557   4.600  10.720 -0.4926 -1.0542 -2.4378
 2982SOL    HW220580   1.560   4.726  10.637 -3.4254 -0.3968  1.3942
 2983SOL     OW20581   2.067   1.810   8.966 -0.8973  0.1105  0.2652
 2983SOL    HW120582   2.052   1.863   9.045 -1.7487  0.6858 -0.2854
 2983SOL    HW220583   2.088   1.727   9.008 -0.7425  0.8122  1.5851
 2984SOL     OW20584   2.571   3.503   0.678 -1.2163 -0.2857  0.9381
 2984SOL    HW120585   2.565   3.597   0.662  1.4951 -0.5709 -1.8984
 2984SOL    HW220586   2.547   3.471   0.591  1.9872  2.7317 -1.0631
 2985SOL     OW20587   1.617   0.033  10.961 -0.5093 -0.2080 -0.2320
 2985SOL    HW120588   1.538   0.081  10.937  0.3353  0.3443 -1.8690
 2985SOL    HW220589   1.648   0.018  10.872 -1.3257  2.5074 -0.9755
 2986SOL     OW20590   4.106   0.542   6.988  0.0936  0.1783  0.2580
 2986SOL    HW120591   4.085   0.613   6.927 -2.3574 -1.3067 -0.6424
 2986SOL    HW220592   4.085   0.468   6.932 -2.5312  1.9046 -1.0378
 2987SOL     OW20593   3.376   3.727   3.671  0.0105  0.0894 -0.5669
 2987SOL    HW120594   3.359   3.799   3.732 -0.9318 -1.0570  0.5136
 2987SOL    HW220595   3.305   3.728   3.607  1.6748  1.7588 -2.4135
 2988SOL     OW20596   3.819   4.426   6.963  0.2289  0.6772 -0.6247
 2988SOL    HW120597   3.865   4.463   7.039  0.4975 -0.3256 -0.2970
 2988SOL    HW220598   3.771   4.501   6.927 -0.2560  1.1247  0.9276
 2989SOL     OW20599   1.296   1.191  10.962  0.2825 -0.4081 -0.4909
 2989SOL    HW120600   1.363   1.258  10.947  2.7866 -2.9636 -0.7138
 2989SOL    HW220601   1.306   1.178  11.056  0.9236 -1.7845 -0.7459
 2990SOL     OW20602   2.607   1.118   6.507  0.3539  0.1285 -0.0949
 2990SOL    HW120603   2.578   1.184   6.570 -0.2928 -1.1214  0.9321
 2990SOL    HW220604   2.676   1.169   6.466 -1.2679  0.6557 -2.1460
 2991SOL     OW20605   4.403   1.485   8.506 -0.3547 -0.4926  0.1685
 2991SOL    HW120606   4.493   1.517   8.514 -1.0992  1.3371  1.5567
 2991SOL    HW220607   4.378   1.472   8.598 -2.5586 -0.9237 -0.4866
 2992SOL     OW20608   1.037   2.655  15.338 -0.0638 -0.2175  0.5015
 2992SOL    HW120609   1.091   2.713  15.284  0.1302  0.2650  1.2235
 2992SOL    HW220610   1.050   2.691  15.425 -0.6721  1.5696 -0.1413
 2993SOL     OW20611   3.179   1.144  10.032  0.8113 -0.1206  0.5311
 2993SOL    HW120612   3.098   1.094  10.035  0.2557  0.6833 -1.3000
 2993SOL    HW220613   3.206   1.155  10.123  2.3936 -2.9520  0.4155
 2994SOL     OW20614   2.550   4.612   0.295  0.6895  1.3050  0.0239
 2994SOL    HW120615   2.497   4.538   0.324  1.1876  1.6813  1.8591
 2994SOL    HW220616   2.633   4.576   0.328  0.5097  0.7324 -0.1453
 2995SOL     OW20617   3.007   1.936   6.851 -0.0932  0.2068 -0.2655
 2995SOL    HW120618   2.921   1.976   6.863  0.0925  0.5003  0.1002
 2995SOL    HW220619   3.046   1.997   6.788 -0.6893  1.5091  0.6339
 2996SOL     OW20620   3.829   3.744   9.543 -0.2586  0.1747 -0.2829
 2996SOL    HW120621   3.840   3.811   9.476  3.7076 -0.9812 -0.8062
 2996SOL    HW220622   3.865   3.668   9.497 -1.4842 -0.6281  0.0624
 2997SOL     OW20623   2.341   0.601   1.467 -0.3007  0.5196 -0.0400
 2997SOL    HW120624   2.256   0.558   1.474 -1.1630  2.1357 -0.5094
 2997SOL    HW220625   2.374   0.591   1.556  0.8767 -2.8433 -0.8617
 2998SOL     OW20626   0.528   3.108   4.760 -0.3522  0.0686  0.2410
 2998SOL    HW120627   0.444   3.070   4.734  0.8696 -2.2471 -0.4037
 2998SOL    HW220628   0.557   3.155   4.682  0.7922 -0.2681  0.4558
 2999SOL     OW20629   3.097   4.371   9.407 -0.5910  0.3519 -0.2288
 2999SOL    HW120630   3.098   4.374   9.312 -1.1046 -2.2169 -0.3102
 2999SOL    HW220631   3.053   4.455   9.424  0.3448  0.7335  0.3471
 3000SOL     OW20632   4.425   3.855   9.004 -0.6151  0.4303  0.6842
 3000SOL    HW120633   4.425   3.790   9.074 -0.7158 -0.8613 -0.5165
 3000SOL    HW220634   4.500   3.836   8.947  0.5197  2.3906  1.5018
 3001SOL     OW20635   3.045   4.287   0.862  0.4926  0.2597 -0.7384
 3001SOL    HW120636   3.040   4.377   0.831  3.1863 -0.6246 -3.6563
 3001SOL    HW220637   3.113   4.248   0.807  1.5973 -0.1974  0.9470
 3002SOL     OW20638   4.063   2.386   2.285 -0.1208  0.3632 -0.4686
 3002SOL    HW120639   4.032   2.296   2.300  0.8379  0.4039  1.8616
 3002SOL    HW220640   4.149   2.382   2.244 -0.2538 -1.5550 -0.5755
 3003SOL     OW20641   4.541   2.493   0.987 -0.0855 -0.0159 -0.1812
 3003SOL    HW120642   4.559   2.499   0.893 -1.0140  0.3561 -0.3331
 3003SOL    HW220643   4.622   2.536   1.015  0.1723 -1.3202  1.0476
 3004SOL     OW20644   2.656   4.469  11.763  0.0026 -0.2471 -0.1981
 3004SOL    HW120645   2.641   4.480  11.857  4.0680 -2.1928  0.6914
 3004SOL    HW220646   2.684   4.556  11.736  0.8422 -1.1062 -2.0824
 3005SOL     OW20647   0.355   4.092   8.401 -0.1424  0.0542  0.4348
 3005SOL    HW120648   0.320   4.169   8.355  0.1488  0.7385  1.3693
 3005SOL    HW220649   0.274   4.044   8.417  0.0549 -0.9956 -1.6334
 3006SOL     OW20650   3.668   1.310   2.327 -0.2937  0.1087  0.4622
 3006SOL    HW120651   3.578   1.339   2.316 -0.3063  1.2077  3.4118
 3006SOL    HW220652   3.685   1.262   2.246  1.7535  0.6164  0.5723
 3007SOL     OW20653   3.921   1.114  16.709 -0.1157  0.0272 -0.2323
 3007SOL    HW120654   3.927   1.021  16.686  1.0812  0.2234 -0.7339
 3007SOL    HW220655   3.870   1.150  16.636 -0.5503  0.5507  0.3346
 3008SOL     OW20656   0.756   0.049  17.056  0.4055 -0.1064 -0.2850
 3008SOL    HW120657   0.807   0.060  16.976 -0.5505 -1.7911 -1.1204
 3008SOL    HW220658   0.832   0.061  17.114 -0.4738 -1.3181  1.1336
 3009SOL     OW20659   1.025   2.086  12.146 -0.7585 -0.1094 -0.1938
 3009SOL    HW120660   1.069   2.136  12.215 -1.7932  2.2838 -1.2736
 3009SOL    HW220661   0.967   2.147  12.101 -1.4575  1.0235  2.2893
 3010SOL     OW20662   3.945   1.623   9.500 -0.2482 -0.4083  0.6761
 3010SOL    HW120663   3.964   1.570   9.422 -0.5719  1.3777 -0.6052
 3010SOL    HW220664   3.999   1.700   9.482 -0.1605 -0.4603  0.7186
 3011SOL     OW20665   0.976   0.919  15.526 -0.0201  0.8506 -0.0238
 3011SOL    HW120666   1.005   0.829  15.542 -2.7110 -0.1003 -0.4675
 3011SOL    HW220667   1.040   0.946  15.461 -1.5121 -0.1998 -1.9412
 3012SOL     OW20668   2.052   4.649   7.228 -0.6814 -0.0722 -0.1574
 3012SOL    HW120669   1.958   4.666   7.219 -1.1386 -1.9509  1.1392
 3012SOL    HW220670   2.092   4.717   7.173 -1.5003 -0.1043 -0.7969
 3013SOL     OW20671   1.676   4.411   2.421 -0.0769 -0.0274  1.0283
 3013SOL    HW120672   1.627   4.330   2.430 -0.0712 -0.4651 -2.9932
 3013SOL    HW220673   1.683   4.416   2.326  0.5450  1.3293  1.1378
 3014SOL     OW20674   3.424   2.893   3.128 -0.2423  0.3327  0.6507
 3014SOL    HW120675   3.480   2.821   3.154  1.2838  0.3820 -2.4580
 3014SOL    HW220676   3.482   2.969   3.119  0.2105 -0.0995 -0.1453
 3015SOL     OW20677   1.509   1.793   1.990  0.0157 -0.0477  0.0035
 3015SOL    HW120678   1.484   1.700   1.996 -1.6910  0.5848  2.7289
 3015SOL    HW220679   1.594   1.791   1.946 -1.0145  2.8333 -2.0410
 3016SOL     OW20680   3.533   3.733  10.382  0.6615 -0.0122 -0.0425
 3016SOL    HW120681   3.547   3.819  10.343 -0.6364  0.9789  1.7324
 3016SOL    HW220682   3.512   3.684  10.302 -1.0605 -0.2673  0.5844
 3017SOL     OW20683   3.687   2.405   3.921  0.6122  0.1516  0.4797
 3017SOL    HW120684   3.609   2.454   3.894  0.6347  0.0111  0.1567
 3017SOL    HW220685   3.754   2.470   3.899  2.1596 -2.2084 -1.7098
 3018SOL     OW20686   0.208   0.233   8.274 -0.3356 -0.0466 -0.0198
 3018SOL    HW120687   0.233   0.161   8.216  1.8030  1.2545 -0.7105
 3018SOL    HW220688   0.138   0.189   8.323  0.6259 -1.8341 -0.2460
 3019SOL     OW20689   1.596   1.224   4.078  0.1260  0.1629 -0.3983
 3019SOL    HW120690   1.636   1.265   4.002  2.7123 -2.5979 -0.5431
 3019SOL    HW220691   1.650   1.145   4.085 -2.1122 -1.2178  1.2366
 3020SOL     OW20692   2.711   0.853   2.056 -0.0365  1.0824  0.4238
 3020SOL    HW120693   2.626   0.837   2.097  0.7577 -4.1483  0.0252
 3020SOL    HW220694   2.671   0.848   1.969  0.5480  1.5671  0.1258
 3021SOL     OW20695   2.944   2.620  12.146  0.3794 -0.0238  0.5131
 3021SOL    HW120696   2.995   2.601  12.068  2.5214 -0.4686  2.0337
 3021SOL    HW220697   2.975   2.705  12.176  1.0537 -0.1290  0.1159
 3022SOL     OW20698   0.652   1.445   1.896 -0.3342  0.0197  0.1690
 3022SOL    HW120699   0.723   1.381   1.889  2.3623  2.7462  2.7101
 3022SOL    HW220700   0.577   1.386   1.897  0.4358 -0.9826 -0.7043
 3023SOL     OW20701   3.056   3.991   7.874 -0.1280 -0.0593 -0.4039
 3023SOL    HW120702   3.009   3.922   7.920 -0.0432  0.2440  0.1306
 3023SOL    HW220703   3.104   3.947   7.804 -0.3335  0.0903 -0.6414
 3024SOL     OW20704   4.385   2.627  14.192 -0.4273 -0.4954 -0.0192
 3024SOL    HW120705   4.415   2.710  14.154 -0.4844 -0.0713  0.8510
 3024SOL    HW220706   4.431   2.564  14.137  0.3004  0.6162 -0.6909
 3025SOL     OW20707   2.715   0.764   8.551  0.0715  0.3251 -0.0613
 3025SOL    HW120708   2.642   0.818   8.580  0.3946 -0.2666  1.8958
 3025SOL    HW220709   2.790   0.819   8.573  0.6027 -1.3302  2.3390
 3026SOL     OW20710   0.738   0.662  16.652  0.1666  0.4505 -0.0023
 3026SOL    HW120711   0.682   0.739  16.644  0.2471  0.4187 -0.9172
 3026SOL    HW220712   0.808   0.678  16.589 -0.4146  2.1661 -0.2054
 3027SOL     OW20713   0.650   1.478   5.133  0.3696 -0.0151  0.1534
 3027SOL    HW120714   0.641   1.542   5.063 -1.7950  0.7273  1.1157
 3027SOL    HW220715   0.724   1.427   5.100  2.0876  1.6078  1.5155
 3028SOL     OW20716   2.597   3.719   7.335  0.0213 -0.0696  0.3810
 3028SOL    HW120717   2.508   3.755   7.331  0.5092  1.1553  0.5896
 3028SOL    HW220718   2.632   3.800   7.372 -0.5644 -0.0815  0.9557
 3029SOL     OW20719   2.166   3.352   1.990 -0.1679 -0.3319 -0.1233
 3029SOL    HW120720   2.126   3.272   2.023 -1.9760  0.1688 -1.1282
 3029SOL    HW220721   2.213   3.324   1.911 -1.1725  2.8443 -1.8768
 3030SOL     OW20722   0.391   1.232   4.636  0.3630  0.5492 -0.0001
 3030SOL    HW120723   0.302   1.227   4.602  0.4703 -1.7610  0.0950
 3030SOL    HW220724   0.420   1.322   4.620  0.1193  1.0540  2.4222
 3031SOL     OW20725   0.740   1.988   7.779 -0.0689 -0.3493  0.0239
 3031SOL    HW120726   0.681   2.049   7.734 -0.8736 -1.4527 -0.4334
 3031SOL    HW220727   0.788   2.046   7.839 -0.1354 -0.0192 -0.2388
 3032SOL     OW20728   2.672   1.397   4.787 -0.0966 -0.0155  0.5577
 3032SOL    HW120729   2.603   1.332   4.787 -1.3806  1.3665  2.3662
 3032SOL    HW220730   2.614   1.473   4.789 -0.7670 -0.5372  0.9108
 3033SOL     OW20731   4.328   4.571   8.443  0.3154  0.3649 -0.4918
 3033SOL    HW120732   4.262   4.529   8.389  0.1248  1.6123 -1.2407
 3033SOL    HW220733   4.279   4.600   8.520 -0.5919 -1.4991 -0.3834
 3034SOL     OW20734   1.460   0.623  11.178 -0.0699 -0.0903  0.2239
 3034SOL    HW120735   1.395   0.691  11.157 -1.0928 -1.1362 -0.0556
 3034SOL    HW220736   1.435   0.561  11.108 -0.4071  0.9809 -0.6140
 3035SOL     OW20737   1.238   4.381   4.894 -0.1427 -0.2982 -0.2865
 3035SOL    HW120738   1.324   4.340   4.909 -1.0830 -1.5207  1.8504
 3035SOL    HW220739   1.265   4.447   4.830 -2.2715  1.0892  0.2617
 3036SOL     OW20740   0.771   2.470   7.982 -0.3472 -0.7584 -0.0138
 3036SOL    HW120741   0.679   2.487   7.958 -0.3196 -1.6718 -0.7886
 3036SOL    HW220742   0.813   2.532   7.922 -0.4764  0.1858  0.8787
 3037SOL     OW20743   3.358   0.061   0.458 -0.4735 -0.9265  0.1829
 3037SOL    HW120744   3.295   0.017   0.515 -2.8503  2.5412  0.2716
 3037SOL    HW220745   3.374   0.145   0.502  1.4757 -0.3491 -1.6794
 3038SOL     OW20746   2.519   0.161   0.815  0.2135  0.0696  0.1904
 3038SOL    HW120747   2.558   0.183   0.730  1.7597 -0.5097  0.7494
 3038SOL    HW220748   2.546   0.238   0.865 -1.8074  1.9065 -1.5534
 3039SOL     OW20749   0.777   2.504   9.135  0.1074 -0.3544  0.7599
 3039SOL    HW120750   0.806   2.595   9.133  0.4865 -0.4697  0.8610
 3039SOL    HW220751   0.868   2.473   9.131  1.1250  2.4844  2.0682
 3040SOL     OW20752   3.553   2.558   3.505  0.0849 -0.3966 -0.3567
 3040SOL    HW120753   3.466   2.577   3.542 -0.8018 -1.0257 -2.0946
 3040SOL    HW220754   3.610   2.566   3.582  1.0775 -1.7237 -0.9694
 3041SOL     OW20755   2.086   0.810  12.073  0.2624 -0.4593 -0.1377
 3041SOL    HW120756   2.076   0.758  12.152 -0.1186 -0.3558 -0.1177
 3041SOL    HW220757   2.168   0.773  12.041 -0.1164 -1.3448 -0.0769
 3042SOL     OW20758   0.659   0.358   9.899 -0.2341  0.4311 -0.3909
 3042SOL    HW120759   0.749   0.390   9.906 -0.3814  0.5018  1.2905
 3042SOL    HW220760   0.629   0.423   9.836  0.5882  1.5752  0.3626
 3043SOL     OW20761   4.281   0.296   1.676 -0.1148  0.0771  0.2081
 3043SOL    HW120762   4.315   0.236   1.743  1.8264  2.0678  0.9835
 3043SOL    HW220763   4.221   0.356   1.720 -0.8398 -0.5057  0.0157
 3044SOL     OW20764   1.274   4.520   3.204 -0.2357 -0.6573  0.3410
 3044SOL    HW120765   1.237   4.475   3.280  0.3146  1.6552  2.0044
 3044SOL    HW220766   1.366   4.521   3.229 -0.1883 -1.9507  0.1932
 3045SOL     OW20767   2.556   2.511   3.674 -0.2104 -0.2234 -0.1022
 3045SOL    HW120768   2.516   2.466   3.748  2.8130 -1.2211  0.9195
 3045SOL    HW220769   2.492   2.484   3.608 -1.6029 -0.5591  1.3878
 3046SOL     OW20770   2.961   2.128  10.192  0.6562  0.7122 -1.0888
 3046SOL    HW120771   2.919   2.146  10.276  1.0777 -0.9871 -0.5187
 3046SOL    HW220772   3.036   2.071  10.202 -1.7073 -2.0312  1.0833
 3047SOL     OW20773   0.284   4.131  12.406 -0.2135  0.0760 -0.1682
 3047SOL    HW120774   0.284   4.075  12.484  2.4739 -0.1557 -0.3377
 3047SOL    HW220775   0.230   4.090  12.338  2.0501 -0.9186 -1.3644
 3048SOL     OW20776   0.407   2.260  16.350 -0.3399 -0.4158  0.5601
 3048SOL    HW120777   0.397   2.208  16.429  1.5739 -1.3452  0.2030
 3048SOL    HW220778   0.460   2.327  16.394  0.8708 -1.2664  0.4096
 3049SOL     OW20779   1.013   4.596   6.492  0.2960  0.0187  0.4630
 3049SOL    HW120780   1.099   4.622   6.458  0.6802 -1.1149  0.5747
 3049SOL    HW220781   0.970   4.677   6.464  2.2176  1.0717  0.5434
 3050SOL     OW20782   3.757   2.259   4.182 -0.2119  0.5861  0.6916
 3050SOL    HW120783   3.715   2.326   4.128  0.4467  0.3516 -0.1117
 3050SOL    HW220784   3.756   2.297   4.270 -0.6260 -1.0906  1.4157
 3051SOL     OW20785   3.634   1.293   4.673 -0.3757 -0.2824 -1.1697
 3051SOL    HW120786   3.625   1.280   4.578 -1.8689 -0.4104 -1.0106
 3051SOL    HW220787   3.584   1.372   4.692  1.1448  0.9064 -2.0668
 3052SOL     OW20788   2.103   1.867  15.879  0.1188  0.0549  0.2233
 3052SOL    HW120789   2.060   1.783  15.889  0.1542  0.2152  1.6644
 3052SOL    HW220790   2.081   1.912  15.960  1.3529  3.7288 -1.4677
 3053SOL     OW20791   4.344   2.279   7.163 -0.6025 -0.6967 -0.8598
 3053SOL    HW120792   4.289   2.328   7.225  0.3887 -0.3639 -0.2483
 3053SOL    HW220793   4.309   2.193   7.187  0.1438 -0.1772  2.0885
 3054SOL     OW20794   2.358   0.724  12.095 -0.1198  0.1590 -0.6742
 3054SOL    HW120795   2.300   0.667  12.145 -1.3255  2.0911  0.1153
 3054SOL    HW220796   2.444   0.703  12.133 -0.9176 -3.1645 -0.6763
 3055SOL     OW20797   3.377   1.662  12.374 -0.1769 -0.1797 -0.3870
 3055SOL    HW120798   3.320   1.585  12.365  1.7625 -1.6621  0.2218
 3055SOL    HW220799   3.414   1.642  12.460  1.2648 -0.3653 -1.0687
 3056SOL     OW20800   3.612   1.602   9.862 -1.0405 -0.1642 -0.0130
 3056SOL    HW120801   3.692   1.570   9.821 -0.6876  0.9982 -0.2187
 3056SOL    HW220802   3.641   1.691   9.880 -0.4735 -0.7611  1.9897
 3057SOL     OW20803   1.812   0.416   2.692  0.4321  0.1917  0.0778
 3057SOL    HW120804   1.899   0.401   2.728  1.0166  1.0095 -1.0008
 3057SOL    HW220805   1.774   0.328   2.702  3.3461 -1.1981 -1.1168
 3058SOL     OW20806   2.816   3.764   2.222  0.2010 -0.6100  0.4357
 3058SOL    HW120807   2.728   3.801   2.221  0.7642  0.6733 -0.4573
 3058SOL    HW220808   2.792   3.678   2.255 -2.1510 -0.3278 -0.5914
 3059SOL     OW20809   2.065   1.476   9.370 -0.3178 -0.0239  0.3205
 3059SOL    HW120810   2.079   1.534   9.445 -0.6533 -0.9203  1.0704
 3059SOL    HW220811   2.129   1.408   9.393 -0.1926 -0.1093 -0.2831
 3060SOL     OW20812   2.527   4.725  13.239  0.1314 -0.2809 -0.1028
 3060SOL    HW120813   2.600   4.722  13.177  0.0625 -1.3290 -0.1317
 3060SOL    HW220814   2.579   4.675  13.303 -0.2521 -1.3457 -0.6228
 3061SOL     OW20815   1.809   2.017   8.585  0.5917  0.2192 -0.3738
 3061SOL    HW120816   1.825   2.072   8.661  0.2056 -0.6249  0.3169
 3061SOL    HW220817   1.842   2.082   8.523  2.1349  1.1666  1.4357
 3062SOL     OW20818   4.303   3.879   7.404 -0.0208 -0.5080 -0.3178
 3062SOL    HW120819   4.307   3.967   7.365 -3.0790 -0.4405 -0.4710
 3062SOL    HW220820   4.340   3.886   7.492  1.6832  1.7604 -1.2171
 3063SOL     OW20821   3.722   3.322   1.192 -0.6386 -0.0121  0.1375
 3063SOL    HW120822   3.664   3.280   1.128  2.3155 -3.1784 -0.4118
 3063SOL    HW220823   3.781   3.367   1.132 -1.7659 -1.2381 -1.8948
 3064SOL     OW20824   2.972   3.793   0.956 -0.1285 -0.2247  0.2463
 3064SOL    HW120825   3.014   3.859   1.011  1.8178 -1.4640  0.2338
 3064SOL    HW220826   2.949   3.728   1.022 -1.0551  0.0802  0.2252
 3065SOL     OW20827   0.876   4.216  16.028 -0.0975 -0.2662 -0.0964
 3065SOL    HW120828   0.927   4.287  16.066 -1.7215  0.7752  0.1062
 3065SOL    HW220829   0.832   4.262  15.957 -1.0738 -2.8692 -1.1859
 3066SOL     OW20830   3.704   1.098   9.389  0.2793  0.3990 -0.4413
 3066SOL    HW120831   3.793   1.081   9.358 -0.2514  0.5024 -1.9989
 3066SOL    HW220832   3.714   1.182   9.434  2.8694  0.1390 -0.5542
 3067SOL     OW20833   1.800   0.519   9.044  0.3683  0.1262 -0.5398
 3067SOL    HW120834   1.861   0.569   9.099  1.8925 -0.4565 -1.6940
 3067SOL    HW220835   1.736   0.494   9.111 -0.5980  0.0323 -1.5070
 3068SOL     OW20836   3.812   2.749   7.060  0.1610  0.4367 -0.4495
 3068SOL    HW120837   3.822   2.843   7.072  1.1734  0.0426  1.9357
 3068SOL    HW220838   3.732   2.734   7.112  0.9967 -0.5768  0.5589
 3069SOL     OW20839   3.205   0.221   5.439 -0.0281  0.0995 -0.4796
 3069SOL    HW120840   3.252   0.179   5.367  0.1671  0.8024 -0.7529
 3069SOL    HW220841   3.271   0.223   5.510 -1.7302 -0.8754  1.1421
 3070SOL     OW20842   4.433   1.152   6.383 -0.0938  0.6052 -0.3276
 3070SOL    HW120843   4.523   1.122   6.382 -0.1707  0.3551  0.1215
 3070SOL    HW220844   4.451   1.246   6.392 -3.1985  1.1156  0.6949
 3071SOL     OW20845   1.338   2.399  17.596 -0.1713 -0.1828 -0.5669
 3071SOL    HW120846   1.379   2.323  17.555  1.0771  0.6063 -0.8101
 3071SOL    HW220847   1.273   2.356  17.651  0.7444 -0.9355 -0.0759
 3072SOL     OW20848   1.112   1.512   3.642 -0.0948  0.4889 -0.3422
 3072SOL    HW120849   1.204   1.530   3.662  0.0926 -0.1702 -0.5976
 3072SOL    HW220850   1.093   1.549   3.556 -2.0629  0.0159 -0.1207
 3073SOL     OW20851   4.145   4.578   6.977  0.3468 -0.3552  0.2366
 3073SOL    HW120852   4.104   4.644   6.922  0.4080 -1.3115 -0.9560
 3073SOL    HW220853   4.131   4.606   7.067  0.9540 -0.3288  0.3249
 3074SOL     OW20854   2.813   0.316   4.654  0.3896 -0.0393 -0.3462
 3074SOL    HW120855   2.876   0.258   4.696 -1.7779  0.6631  3.9333
 3074SOL    HW220856   2.863   0.397   4.658 -1.7419  1.2101  1.5824
 3075SOL     OW20857   3.216   3.722   0.812 -0.1676 -0.0395  0.1611
 3075SOL    HW120858   3.129   3.709   0.851  0.8910 -0.3448  2.4008
 3075SOL    HW220859   3.218   3.815   0.835 -0.7551  0.1138 -0.4024
 3076SOL     OW20860   1.959   4.606  11.625 -0.0557 -0.1846 -0.2823
 3076SOL    HW120861   1.989   4.622  11.715 -2.4083 -1.3066  0.7140
 3076SOL    HW220862   1.864   4.610  11.639  0.1185  1.7031  0.3489
 3077SOL     OW20863   2.843   3.800   0.691  0.4011  0.1827 -0.3455
 3077SOL    HW120864   2.888   3.789   0.775 -1.4404 -1.3868  0.4375
 3077SOL    HW220865   2.917   3.842   0.647  0.8144 -0.1461  0.0238
 3078SOL     OW20866   0.316   0.800   4.497  0.5044  0.4995 -0.2531
 3078SOL    HW120867   0.373   0.728   4.469 -0.6177  0.3349 -2.1355
 3078SOL    HW220868   0.375   0.867   4.531  0.2002 -0.2113  1.6463
 3079SOL     OW20869   2.666   2.181  14.557  0.2701  0.1185 -0.3468
 3079SOL    HW120870   2.571   2.170  14.549  0.1537  1.4168 -0.7673
 3079SOL    HW220871   2.685   2.259  14.505 -0.0577  1.8179  2.0987
 3080SOL     OW20872   0.667   0.549   8.812  0.0234 -0.1776  0.3847
 3080SOL    HW120873   0.650   0.489   8.740 -1.6586 -0.0359  0.6748
 3080SOL    HW220874   0.763   0.551   8.821  0.2259 -2.3064 -1.2544
 3081SOL     OW20875   1.412   2.460   4.941 -0.0834  0.4804 -0.1800
 3081SOL    HW120876   1.414   2.484   4.848  0.1191  0.4784 -0.1755
 3081SOL    HW220877   1.335   2.514   4.964 -0.5199  0.0334 -0.6084
 3082SOL     OW20878   2.345   4.212   6.443  0.6675  0.2556  0.1695
 3082SOL    HW120879   2.335   4.181   6.533  0.6478 -2.6426 -0.8077
 3082SOL    HW220880   2.410   4.282   6.448  0.3947  0.5229 -0.0335
 3083SOL     OW20881   1.585   2.551   9.256 -0.2847  0.1495 -0.3392
 3083SOL    HW120882   1.546   2.484   9.200  2.2636 -1.6964  0.0936
 3083SOL    HW220883   1.513   2.612   9.274 -0.7273 -0.6938  0.7023
 3084SOL     OW20884   4.604   3.867   4.215 -0.0293  0.2047 -0.1350
 3084SOL    HW120885   4.643   3.950   4.243  0.4546  0.3413 -1.1926
 3084SOL    HW220886   4.622   3.856   4.121 -1.8768 -3.5251 -0.0362
 3085SOL     OW20887   1.768   4.137   3.833 -0.2690 -0.4383 -0.2468
 3085SOL    HW120888   1.829   4.071   3.803  3.3457  2.7283  0.1584
 3085SOL    HW220889   1.779   4.119   3.926 -1.0386  0.4654  0.0262
 3086SOL     OW20890   2.821   1.097   9.828  0.3474  0.3787  0.2768
 3086SOL    HW120891   2.784   1.064   9.747  0.1539  2.1082 -0.3414
 3086SOL    HW220892   2.898   1.142   9.792 -0.3293  1.6741  0.4378
 3087SOL     OW20893   0.081   0.536   3.219 -0.0976 -0.1060  0.5750
 3087SOL    HW120894   0.050   0.626   3.213  1.6096  0.5164  1.1216
 3087SOL    HW220895   0.066   0.521   3.312 -0.9033 -0.1398  0.4389
 3088SOL     OW20896   3.505   3.736  14.437 -0.6222  0.4143 -0.1000
 3088SOL    HW120897   3.442   3.756  14.368  0.6299 -0.2043 -1.4308
 3088SOL    HW220898   3.583   3.710  14.387 -0.2670 -0.1824  0.7669
 3089SOL     OW20899   3.201   0.226   2.040  0.3632  0.4662 -0.2206
 3089SOL    HW120900   3.187   0.136   2.012  0.1123  0.1507  0.9472
 3089SOL    HW220901   3.292   0.245   2.063  0.9510 -2.9656  0.2906
 3090SOL     OW20902   1.687   1.327   7.094  0.4268 -0.1895 -0.2103
 3090SOL    HW120903   1.718   1.377   7.018 -0.2091  0.3562 -0.1122
 3090SOL    HW220904   1.768   1.323   7.144 -0.5916 -1.7078  1.3247
 3091SOL     OW20905   0.619   1.086   8.947  0.0844  0.0167 -0.0069
 3091SOL    HW120906   0.702   1.040   8.964  0.6010  0.7632 -0.5399
 3091SOL    HW220907   0.570   1.077   9.029  1.1918  2.5117  0.9103
 3092SOL     OW20908   3.488   0.771   8.757  0.4782 -0.3134 -0.6447
 3092SOL    HW120909   3.580   0.765   8.732  0.3307  0.0484 -1.2621
 3092SOL    HW220910   3.446   0.819   8.686 -0.9575 -1.1581 -0.3710
 3093SOL     OW20911   2.453   2.252  15.980 -0.4834 -0.2201  0.3588
 3093SOL    HW120912   2.441   2.237  15.886 -0.2815 -1.1105  0.4744
 3093SOL    HW220913   2.539   2.212  15.995  0.0250  0.6429 -0.2817
 3094SOL     OW20914   3.145   3.727   5.829 -0.1798 -0.1196  0.0377
 3094SOL    HW120915   3.229   3.755   5.865  0.2399 -0.0305 -1.0127
 3094SOL    HW220916   3.151   3.633   5.843  2.4178  0.0148 -0.2752
 3095SOL     OW20917   2.734   3.447   9.348  0.0900  0.2353 -1.3177
 3095SOL    HW120918   2.811   3.410   9.392  0.1877  0.5603 -1.2132
 3095SOL    HW220919   2.752   3.541   9.361  0.4870  0.1450 -1.2165
 3096SOL     OW20920   2.275   4.646   6.372  0.2833  0.4044  0.3535
 3096SOL    HW120921   2.275   4.606   6.286 -1.0279  3.8417 -1.2566
 3096SOL    HW220922   2.241   4.578   6.430 -2.5788  1.0459 -0.5637
 3097SOL     OW20923   0.039   2.749   5.817 -0.0847  0.0067 -0.4464
 3097SOL    HW120924   0.080   2.787   5.739 -0.7670 -2.6770 -2.1253
 3097SOL    HW220925   0.114   2.707   5.860  0.0908  0.3340 -0.4323
 3098SOL     OW20926   3.460   2.745   9.092 -0.1535 -0.5721  0.2351
 3098SOL    HW120927   3.395   2.813   9.111 -1.1265 -1.0892 -1.3170
 3098SOL    HW220928   3.470   2.752   8.997  0.1670  2.4372  0.4707
 3099SOL     OW20929   2.153   3.384   6.834 -0.2785 -0.1970 -0.9636
 3099SOL    HW120930   2.180   3.396   6.925 -0.9666  1.4369 -0.9637
 3099SOL    HW220931   2.196   3.302   6.812  0.9136  0.6453 -1.8029
 3100SOL     OW20932   2.520   2.544   8.531  0.1976  0.2746 -0.4095
 3100SOL    HW120933   2.449   2.607   8.521 -0.4435 -0.1087  1.8854
 3100SOL    HW220934   2.551   2.555   8.621 -0.2485 -2.4479  0.0870
 3101SOL     OW20935   1.295   0.174   5.718 -0.7187 -0.0922 -0.0011
 3101SOL    HW120936   1.202   0.153   5.713 -0.6707 -0.1903 -0.5499
 3101SOL    HW220937   1.304   0.178   5.622  0.0578  3.1658  0.1940
 3102SOL     OW20938   1.996   4.681   2.745  0.1434  0.4051  0.3171
 3102SOL    HW120939   1.925   4.618   2.733 -0.5356  1.3279 -0.4846
 3102SOL    HW220940   2.041   4.651   2.824 -0.1418 -0.9856 -0.0416
 3103SOL     OW20941   0.089   3.836  11.810 -0.7012  0.1038 -0.2549
 3103SOL    HW120942   0.059   3.868  11.725  2.6243  0.1615 -1.4080
 3103SOL    HW220943   0.052   3.748  11.815  1.6327 -0.8307  0.6051
 3104SOL     OW20944   1.683   4.079  15.326 -0.0418  0.4660  0.1063
 3104SOL    HW120945   1.697   4.113  15.238  0.1791 -3.9677 -1.5276
 3104SOL    HW220946   1.595   4.112  15.343 -1.1213 -1.9723 -0.8787
 3105SOL     OW20947   2.539   3.169  12.420 -0.0377  0.0673 -0.3488
 3105SOL    HW120948   2.585   3.170  12.337  1.7799 -0.2170  0.6498
 3105SOL    HW220949   2.493   3.252  12.408 -0.0975  0.2014  0.7811
 3106SOL     OW20950   4.355   2.993   6.948  0.1866 -0.9140 -0.2085
 3106SOL    HW120951   4.390   2.968   6.862  1.1078 -0.5607  0.0635
 3106SOL    HW220952   4.407   2.931   6.998 -0.7764 -0.3905  1.4416
 3107SOL     OW20953   0.664   3.246   6.415 -0.6820 -0.0342  0.4223
 3107SOL    HW120954   0.649   3.298   6.494 -0.5137 -0.3856  0.6847
 3107SOL    HW220955   0.651   3.306   6.341 -1.5700 -0.9341 -0.1441
 3108SOL     OW20956   2.013   1.178   9.892 -0.2346 -0.5681 -0.4343
 3108SOL    HW120957   2.063   1.222   9.962  1.8228  0.2808 -2.4325
 3108SOL    HW220958   1.988   1.251   9.836  0.7036  1.4824  1.7962
 3109SOL     OW20959   3.767   0.978   0.978 -0.3054 -0.1223  0.0606
 3109SOL    HW120960   3.691   0.927   0.950  0.5500 -1.0600 -0.5736
 3109SOL    HW220961   3.765   1.055   0.922 -2.0759 -0.1362  0.1055
 3110SOL     OW20962   2.891   3.671  11.383 -1.1495  0.5259 -0.6754
 3110SOL    HW120963   2.823   3.738  11.398  0.6127  2.0648  0.4444
 3110SOL    HW220964   2.856   3.599  11.436  0.5191  0.4988  0.3913
 3111SOL     OW20965   0.560   2.371   5.460  0.1905 -0.4948 -0.4170
 3111SOL    HW120966   0.493   2.332   5.404  0.6288 -1.0437 -0.5574
 3111SOL    HW220967   0.499   2.396   5.530 -0.3960 -1.2644 -0.6597
 3112SOL     OW20968   3.078   3.664  16.488  0.7119 -0.4189 -0.6055
 3112SOL    HW120969   3.034   3.664  16.403 -1.6223 -0.0190  0.6117
 3112SOL    HW220970   3.095   3.569  16.493 -1.4509 -0.7334  0.7587
 3113SOL     OW20971   0.317   0.325   1.834  0.0367  0.3518 -0.5120
 3113SOL    HW120972   0.367   0.244   1.828  0.3847  0.4518  0.8529
 3113SOL    HW220973   0.357   0.355   1.916 -0.0056  2.2508 -1.1837
 3114SOL     OW20974   2.816   0.612   7.932  0.4177 -0.0006  0.2724
 3114SOL    HW120975   2.771   0.528   7.944 -1.2206  0.5718 -2.0518
 3114SOL    HW220976   2.770   0.674   7.989  0.9489  0.3947  0.2757
 3115SOL     OW20977   0.261   0.539   5.264  0.4145  0.3861  0.3692
 3115SOL    HW120978   0.267   0.585   5.348  1.5690 -1.0133  1.0609
 3115SOL    HW220979   0.256   0.617   5.208 -0.1281 -1.9491 -2.8070
 3116SOL     OW20980   4.640   0.094   7.493  0.1850  0.2545 -0.4811
 3116SOL    HW120981   4.650   0.124   7.403 -1.1394 -1.5951 -1.2277
 3116SOL    HW220982   4.701   0.163   7.521  0.5647 -0.2133 -0.1667
 3117SOL     OW20983   1.649   0.668  15.573  0.0579  0.3023 -0.0843
 3117SOL    HW120984   1.683   0.700  15.490 -0.8186  2.5144  0.4189
 3117SOL    HW220985   1.565   0.713  15.583  0.6462  1.6077 -1.0704
 3118SOL     OW20986   0.886   2.197   3.894  0.3745 -0.1908 -0.1011
 3118SOL    HW120987   0.886   2.125   3.831 -0.8399 -0.6474  0.4270
 3118SOL    HW220988   0.872   2.273   3.838  0.4458  0.4143  0.7112
 3119SOL     OW20989   2.284   3.639  16.461  0.3200 -0.1538  0.2285
 3119SOL    HW120990   2.358   3.675  16.411 -0.0636 -3.1150 -2.4323
 3119SOL    HW220991   2.286   3.670  16.552 -1.2502  0.7910 -0.0701
 3120SOL     OW20992   0.584   1.352   4.060 -0.1494 -0.1936 -0.7120
 3120SOL    HW120993   0.649   1.282   4.071  0.6437  0.6749  0.1283
 3120SOL    HW220994   0.508   1.321   4.109  1.6170 -1.4379  1.2843
 3121SOL     OW20995   4.081   3.654   8.133  0.3195 -0.1717 -0.0820
 3121SOL    HW120996   4.075   3.657   8.037  3.1209 -2.9410 -0.3691
 3121SOL    HW220997   4.079   3.561   8.157  1.6524  0.6661  3.3415
 3122SOL     OW20998   2.280   3.168   6.650  0.3651 -0.0414  0.2861
 3122SOL    HW120999   2.371   3.151   6.624  0.3001 -0.2526  0.1945
 3122SOL    HW221000   2.246   3.240   6.597 -1.7892  1.0321  3.1194
 3123SOL     OW21001   4.558   2.626   1.692 -0.6715 -0.0456  0.1374
 3123SOL    HW121002   4.554   2.532   1.680 -3.2479 -0.3108  2.9642
 3123SOL    HW221003   4.651   2.639   1.670 -1.1543  1.5312 -1.0045
 3124SOL     OW21004   3.488   1.021   1.304  0.0566  0.0574  0.4886
 3124SOL    HW121005   3.526   0.974   1.378  1.1416  0.3187  0.0951
 3124SOL    HW221006   3.453   0.953   1.246  0.1372  0.2691  0.1930
 3125SOL     OW21007   3.303   3.656   7.150  0.1727  0.3577  0.3788
 3125SOL    HW121008   3.288   3.697   7.065  1.9467  1.6329  0.6758
 3125SOL    HW221009   3.283   3.726   7.212  0.0676  1.0714 -0.4543
 3126SOL     OW21010   3.785   2.195   6.525 -0.0507 -0.1480  0.1806
 3126SOL    HW121011   3.855   2.137   6.495 -2.3957 -2.4664 -0.7308
 3126SOL    HW221012   3.819   2.249   6.596  1.0264 -1.1150  0.3986
 3127SOL     OW21013   1.478   3.822   3.958 -0.7921  0.0461 -0.0551
 3127SOL    HW121014   1.401   3.811   4.013  0.3502 -0.9209  1.3334
 3127SOL    HW221015   1.494   3.738   3.915  1.1256  2.8014 -4.8473
 3128SOL     OW21016   4.511   0.666   9.102  0.2616 -0.1334  0.0996
 3128SOL    HW121017   4.490   0.632   9.015  0.1275  1.4943 -0.5011
 3128SOL    HW221018   4.511   0.588   9.158  0.5699 -1.6214 -1.9990
 3129SOL     OW21019   0.047   2.160   2.583  0.4530 -0.0879  0.4568
 3129SOL    HW121020   0.073   2.107   2.508 -0.5106  2.5627 -1.7574
 3129SOL    HW221021   4.693   2.134   2.602 -0.1813  3.7151  2.7240
 3130SOL     OW21022   2.256   0.254   5.605 -0.2996  0.0389 -0.4616
 3130SOL    HW121023   2.212   0.251   5.690  2.6978 -0.2592  1.0983
 3130SOL    HW221024   2.181   0.270   5.548 -0.1629  1.1665 -0.3301
 3131SOL     OW21025   0.315   2.423   2.897 -0.4792  0.5116  0.5230
 3131SOL    HW121026   0.312   2.426   2.801 -0.3352  0.7505  0.5258
 3131SOL    HW221027   0.354   2.338   2.915 -1.1812 -0.0238 -0.4585
 3132SOL     OW21028   4.690   0.669   6.686 -0.2047  0.2613  0.2023
 3132SOL    HW121029   4.694   0.658   6.781  0.1461  1.5927  0.3456
 3132SOL    HW221030   4.639   0.591   6.664  2.5662 -1.7217  0.8392
 3133SOL     OW21031   2.234   3.028   9.005  0.0196 -0.7045 -0.1312
 3133SOL    HW121032   2.308   3.082   9.032  0.8458 -2.1624  0.5390
 3133SOL    HW221033   2.161   3.075   9.046  1.3051  1.5155 -0.3995
 3134SOL     OW21034   4.472   2.579   6.719  0.7210 -0.4507  0.1848
 3134SOL    HW121035   4.419   2.509   6.756 -0.0713  0.5736  0.9802
 3134SOL    HW221036   4.553   2.571   6.770  1.8592 -1.9352 -1.8539
 3135SOL     OW21037   0.696   4.727  16.235 -0.2705 -0.0424 -0.2627
 3135SOL    HW121038   0.729   0.076  16.205  2.1271 -1.3752 -1.4244
 3135SOL    HW221039   0.603   4.727  16.211 -0.7046  0.8820  1.4275
 3136SOL     OW21040   2.045   3.816   2.851 -0.2474  0.1041  0.2151
 3136SOL    HW121041   2.012   3.894   2.807  0.6552 -1.0589 -2.5015
 3136SOL    HW221042   1.965   3.764   2.840 -0.8049  0.3227  3.3341
 3137SOL     OW21043   1.897   1.632   0.133 -0.0254  0.0290 -0.4508
 3137SOL    HW121044   1.950   1.607   0.209 -0.1012 -0.1036 -0.4421
 3137SOL    HW221045   1.865   1.550   0.096 -0.8640  0.0268  0.2961
 3138SOL     OW21046   0.587   1.871   6.973 -0.1112  0.2818  0.0116
 3138SOL    HW121047   0.524   1.943   6.971 -1.5051 -0.9805 -1.1268
 3138SOL    HW221048   0.635   1.882   7.055 -0.5323  2.2491 -0.0055
 3139SOL     OW21049   2.627   0.908   0.728  0.1043  0.3931  0.1160
 3139SOL    HW121050   2.547   0.961   0.721 -0.3889 -0.3151  0.4038
 3139SOL    HW221051   2.629   0.877   0.637  2.7728 -2.6703  1.2239
 3140SOL     OW21052   3.322   3.223  10.810  0.0335 -0.2830 -0.2493
 3140SOL    HW121053   3.387   3.244  10.877  0.0299  0.4700 -0.4779
 3140SOL    HW221054   3.380   3.214  10.735 -1.0957 -1.7549 -0.9620
 3141SOL     OW21055   3.662   4.641   4.661 -0.0387  0.0577 -0.1610
 3141SOL    HW121056   3.636   4.711   4.720  0.3763 -0.2410  0.3724
 3141SOL    HW221057   3.648   4.565   4.718  0.7680  1.0421  1.3344
 3142SOL     OW21058   0.287   2.800   7.872 -0.0610  0.4887 -0.1430
 3142SOL    HW121059   0.316   2.891   7.858 -5.0601  2.0204 -0.6451
 3142SOL    HW221060   0.239   2.802   7.955 -0.9497 -0.1101 -0.6429
 3143SOL     OW21061   3.226   1.894   4.543  0.0303  0.2810  0.2778
 3143SOL    HW121062   3.160   1.925   4.481  1.2291  2.3726  0.0560
 3143SOL    HW221063   3.178   1.927   4.619 -2.8798 -1.5698 -0.7533
 3144SOL     OW21064   2.865   1.904   0.496 -0.4831 -0.3626 -0.2293
 3144SOL    HW121065   2.916   1.837   0.541  0.3588  0.6839  0.3714
 3144SOL    HW221066   2.927   1.976   0.488 -2.0578  0.8652 -1.4821
 3145SOL     OW21067   0.627   0.324   6.609  0.4379 -0.4833  0.2021
 3145SOL    HW121068   0.560   0.260   6.634  1.2384 -0.5216  2.2863
 3145SOL    HW221069   0.583   0.379   6.544 -0.4991 -1.6927 -0.2051
 3146SOL     OW21070   4.583   3.585   7.212 -0.2798  0.8018 -0.1386
 3146SOL    HW121071   4.532   3.556   7.136  2.9426  1.3980 -2.5400
 3146SOL    HW221072   4.564   3.679   7.217  2.3784  1.2522  1.3936
 3147SOL     OW21073   4.462   0.566   6.021  0.2027  0.6023 -0.5324
 3147SOL    HW121074   4.518   0.559   5.944 -1.9530  0.6189 -2.0863
 3147SOL    HW221075   4.378   0.597   5.988  0.9540  2.3492 -0.8125
 3148SOL     OW21076   2.988   4.039   9.216 -0.9631 -0.0822  0.2613
 3148SOL    HW121077   2.967   4.128   9.186  1.4761  0.9669  1.7110
 3148SOL    HW221078   2.915   3.981   9.195 -0.9106 -1.0932  2.9157
 3149SOL     OW21079   3.770   1.607   3.641 -0.3286 -0.4301  0.0569
 3149SOL    HW121080   3.854   1.585   3.601 -0.5459  0.1771 -0.7256
 3149SOL    HW221081   3.722   1.530   3.611  0.1330 -0.8635  0.4495
 3150SOL     OW21082   4.423   0.288   9.589 -0.4721 -0.0126  0.3689
 3150SOL    HW121083   4.453   0.209   9.543 -1.1388 -0.9603  1.5575
 3150SOL    HW221084   4.332   0.257   9.592 -0.6140  0.3046 -0.6841
 3151SOL     OW21085   0.096   2.791  14.758 -0.1847 -0.4890 -0.1528
 3151SOL    HW121086   0.033   2.780  14.686 -0.1590 -0.3081 -0.2039
 3151SOL    HW221087   0.174   2.838  14.727  0.1135 -1.0767 -0.2946
 3152SOL     OW21088   4.129   0.877   1.496 -0.2828  0.7045  0.0347
 3152SOL    HW121089   4.078   0.875   1.577 -0.5110  0.7022 -0.1093
 3152SOL    HW221090   4.112   0.788   1.465 -0.0681  0.2422  1.2734
 3153SOL     OW21091   3.978   2.662   8.958  0.2465  0.1924  0.4212
 3153SOL    HW121092   3.974   2.575   8.918 -1.5578  0.4347  0.0628
 3153SOL    HW221093   3.913   2.649   9.027 -1.1328 -0.4370 -0.9763
 3154SOL     OW21094   4.547   2.622   5.833  0.3600  0.3158  0.8285
 3154SOL    HW121095   4.555   2.588   5.922 -0.1840 -0.9628  0.3935
 3154SOL    HW221096   4.639   2.649   5.829  0.6706 -0.6640  1.2920
 3155SOL     OW21097   4.199   2.359   7.367 -0.8489  0.4107  0.2559
 3155SOL    HW121098   4.236   2.309   7.440  0.0375 -0.9176 -1.1302
 3155SOL    HW221099   4.132   2.407   7.416  0.7600  2.0573  0.8199
 3156SOL     OW21100   0.680   2.823   5.197 -0.4516 -1.3499  0.1552
 3156SOL    HW121101   0.682   2.741   5.247 -0.0467 -1.5093 -0.1272
 3156SOL    HW221102   0.766   2.854   5.225 -1.2812  2.3237 -1.4010
 3157SOL     OW21103   0.155   4.716   2.430  0.7300  0.1618  0.0567
 3157SOL    HW121104   0.170   0.038   2.505  0.5388 -1.0514  1.0536
 3157SOL    HW221105   0.060   4.704   2.434  0.4866  1.6624 -1.4764
 3158SOL     OW21106   0.893   1.062   9.167 -0.3406 -0.1496 -0.0508
 3158SOL    HW121107   0.929   1.005   9.235  0.4711  2.2082  1.4612
 3158SOL    HW221108   0.846   1.127   9.219 -0.6402  0.6951 -1.3619
 3159SOL     OW21109   3.688   2.983   9.768 -0.6699 -0.1774 -0.0968
 3159SOL    HW121110   3.713   2.899   9.805 -1.3631 -1.0075 -1.4901
 3159SOL    HW221111   3.626   3.018   9.832 -0.9389 -1.2878  0.2572
 3160SOL     OW21112   3.348   3.315   8.394  0.3538  0.6092  0.6483
 3160SOL    HW121113   3.256   3.306   8.368  0.6762  0.9564 -0.6154
 3160SOL    HW221114   3.357   3.410   8.399 -1.4912  0.8783 -1.0361
 3161SOL     OW21115   0.058   1.249   7.063 -0.7019 -0.5119  0.4322
 3161SOL    HW121116   0.059   1.337   7.098 -1.2992 -0.5775  0.6173
 3161SOL    HW221117   0.109   1.199   7.126 -0.3211 -0.6129  0.0470
 3162SOL     OW21118   4.281   1.386   3.114 -0.6136  0.5922  0.8564
 3162SOL    HW121119   4.353   1.448   3.116  0.5097 -0.6011 -1.6122
 3162SOL    HW221120   4.268   1.370   3.207 -2.1816  1.5084  0.7985
 3163SOL     OW21121   4.495   0.456   3.853  0.6393 -0.2288  0.4446
 3163SOL    HW121122   4.468   0.364   3.863  0.2065 -0.3060 -1.3862
 3163SOL    HW221123   4.416   0.497   3.817  1.2212 -3.0987 -4.0738
 3164SOL     OW21124   3.198   0.595   3.899  0.6505  0.0551 -0.4147
 3164SOL    HW121125   3.111   0.634   3.906  1.4496  2.0158 -1.3114
 3164SOL    HW221126   3.242   0.676   3.924  0.1681 -0.3517  1.7196
 3165SOL     OW21127   3.489   0.048   4.841 -0.4231 -0.3227 -0.7123
 3165SOL    HW121128   3.512   0.021   4.930  1.3706 -0.5636 -1.2499
 3165SOL    HW221129   3.403   0.009   4.827 -1.6375  1.9224  0.5271
 3166SOL     OW21130   2.539   0.693   4.150 -0.1118  0.7003 -0.3483
 3166SOL    HW121131   2.446   0.680   4.132 -0.2928  0.7874  0.5228
 3166SOL    HW221132   2.581   0.606   4.152  1.0755  1.3005  0.6653
 3167SOL     OW21133   4.569   4.120  11.958 -0.8171  0.7084  0.2092
 3167SOL    HW121134   4.575   4.210  11.925 -0.9763  0.6545  0.0321
 3167SOL    HW221135   4.509   4.083  11.892 -0.4977 -1.1892  0.9964
 3168SOL     OW21136   3.758   3.659  14.456 -0.3923  0.5443  0.3880
 3168SOL    HW121137   3.849   3.640  14.434 -1.3190 -3.1031 -0.3099
 3168SOL    HW221138   3.767   3.711  14.536  1.9311 -0.8107  1.0143
 3169SOL     OW21139   2.710   4.125   3.312  0.0440 -0.1258 -0.0781
 3169SOL    HW121140   2.650   4.198   3.327  1.2814  1.1947 -1.5391
 3169SOL    HW221141   2.708   4.124   3.216 -1.7047  0.3451 -0.0507
 3170SOL     OW21142   2.390   1.350  10.778 -0.0973 -0.9996  0.1648
 3170SOL    HW121143   2.423   1.414  10.841 -0.8284  0.9152 -1.3803
 3170SOL    HW221144   2.417   1.384  10.692  0.6573  2.4484  1.7406
 3171SOL     OW21145   1.725   2.151   0.665  0.0443  0.3014 -1.0033
 3171SOL    HW121146   1.716   2.151   0.760  1.3933  0.2158 -0.8688
 3171SOL    HW221147   1.633   2.167   0.645  0.0504  1.0490 -0.4551
 3172SOL     OW21148   3.870   3.953   2.444 -0.0368  0.2681  0.2413
 3172SOL    HW121149   3.867   3.861   2.419 -0.1256  0.4163 -0.2975
 3172SOL    HW221150   3.793   3.970   2.389  0.1069  0.2363  0.0268
 3173SOL     OW21151   1.149   0.824   1.854  0.2172 -0.2316  0.8285
 3173SOL    HW121152   1.082   0.844   1.789 -0.1401  1.3904  1.6874
 3173SOL    HW221153   1.179   0.912   1.878 -1.5743  0.4122  0.6820
 3174SOL     OW21154   2.668   1.142   8.416  0.0555  0.0211  0.5238
 3174SOL    HW121155   2.717   1.111   8.492  1.1769 -1.0449 -0.6086
 3174SOL    HW221156   2.737   1.126   8.351  1.9248 -0.6831  2.6633
 3175SOL     OW21157   3.555   1.457   9.411  0.7399  0.1601 -0.1545
 3175SOL    HW121158   3.555   1.367   9.445 -0.4132 -0.1722 -1.0375
 3175SOL    HW221159   3.562   1.518   9.485  0.3758  0.8329 -0.6723
 3176SOL     OW21160   4.260   1.819   0.837  0.4610 -0.9646  0.4445
 3176SOL    HW121161   4.224   1.783   0.755  2.1850 -0.6009 -0.4777
 3176SOL    HW221162   4.257   1.914   0.822 -1.5733 -1.2936 -1.2734
 3177SOL     OW21163   2.175   1.914   8.725 -0.1405  0.6554  0.1594
 3177SOL    HW121164   2.171   1.869   8.809 -3.0049 -0.2119 -0.4350
 3177SOL    HW221165   2.116   1.863   8.669 -0.1547  0.8998 -0.0478
 3178SOL     OW21166   2.617   2.062   1.875 -0.0430  0.4766 -0.6045
 3178SOL    HW121167   2.611   2.133   1.939  2.3029  1.0223 -0.9976
 3178SOL    HW221168   2.633   2.100   1.789 -0.3516  0.3439 -0.7214
 3179SOL     OW21169   1.652   4.404   9.283  0.1787 -0.4977 -0.0240
 3179SOL    HW121170   1.573   4.395   9.336  2.2053 -0.4319  3.0392
 3179SOL    HW221171   1.684   4.492   9.306  0.8376 -0.6751 -0.2459
 3180SOL     OW21172   4.240   3.148   7.137  0.2906  0.3145  0.5276
 3180SOL    HW121173   4.282   3.091   7.072  0.0199  1.1098 -0.3433
 3180SOL    HW221174   4.309   3.179   7.196  1.6892 -3.3362  0.8087
 3181SOL     OW21175   2.142   0.221  12.164 -0.2802  0.2475  0.1202
 3181SOL    HW121176   2.231   0.185  12.155 -0.5004 -0.2460 -0.0931
 3181SOL    HW221177   2.089   0.144  12.183 -0.3934  0.0585 -0.9786
 3182SOL     OW21178   4.618   3.874  12.060  0.4096  0.4021 -0.6233
 3182SOL    HW121179   4.560   3.901  12.131  1.7752  0.5107  0.4575
 3182SOL    HW221180   4.651   3.954  12.020  2.8616 -1.0277 -1.4358
 3183SOL     OW21181   1.763   3.846   4.549 -0.2096  0.3607 -0.7940
 3183SOL    HW121182   1.713   3.779   4.596  0.9387 -1.4447 -2.1475
 3183SOL    HW221183   1.811   3.883   4.624 -1.3606 -1.7226  0.9787
 3184SOL     OW21184   2.018   3.909   6.758 -0.3463  0.3671 -0.5397
 3184SOL    HW121185   2.073   3.918   6.837 -2.4511 -0.5495  1.0210
 3184SOL    HW221186   2.047   3.827   6.717 -0.8295  0.5250 -1.1948
 3185SOL     OW21187   4.520   3.150   1.855  0.3821 -0.3836  0.3881
 3185SOL    HW121188   4.443   3.101   1.825  0.9978 -0.9161 -0.3103
 3185SOL    HW221189   4.539   3.205   1.779  1.0587  1.0917  1.6185
 3186SOL     OW21190   1.602   4.382  14.915  0.2672  0.2915  0.6623
 3186SOL    HW121191   1.646   4.418  14.837  0.4446  0.1258  0.6859
 3186SOL    HW221192   1.533   4.344  14.861  0.6439 -3.3108  2.7629
 3187SOL     OW21193   3.679   1.422   8.787 -0.0573 -0.4186  0.2472
 3187SOL    HW121194   3.755   1.443   8.734  1.6912 -0.7744  2.5989
 3187SOL    HW221195   3.670   1.505   8.833 -1.2621 -0.0338 -0.6854
 3188SOL     OW21196   4.164   3.397   8.534 -0.0024  0.2247  0.1267
 3188SOL    HW121197   4.160   3.492   8.528 -0.2108  0.0929 -1.8293
 3188SOL    HW221198   4.133   3.366   8.619 -0.7532  1.2172  0.2092
 3189SOL     OW21199   1.438   2.624  14.615  0.1655  0.1257 -0.0745
 3189SOL    HW121200   1.375   2.695  14.599  2.4737  1.8615 -1.3436
 3189SOL    HW221201   1.394   2.577  14.686 -1.6896  1.7226 -0.1646
 3190SOL     OW21202   1.623   1.556   4.650  0.9994  0.2178  0.3212
 3190SOL    HW121203   1.573   1.636   4.668 -3.2388 -2.5725  0.8821
 3190SOL    HW221204   1.702   1.589   4.607  1.5832  1.3858  2.2720
 3191SOL     OW21205   1.765   1.846   9.618  0.4738  0.4374 -0.2454
 3191SOL    HW121206   1.717   1.912   9.669  1.1335  1.1867 -0.5907
 3191SOL    HW221207   1.854   1.868   9.646 -0.4899  0.7857  2.4797
 3192SOL     OW21208   3.212   0.268   3.939 -0.0533  0.4829  0.3344
 3192SOL    HW121209   3.160   0.232   3.867 -1.1812  1.2024  0.7882
 3192SOL    HW221210   3.269   0.331   3.896  2.9378 -0.4122  2.9429
 3193SOL     OW21211   2.796   1.207   4.233  0.0387  0.2293 -0.3113
 3193SOL    HW121212   2.731   1.137   4.237 -0.2125  0.4408 -0.6281
 3193SOL    HW221213   2.801   1.231   4.140  0.6890  1.0571 -0.0590
 3194SOL     OW21214   0.230   3.297   7.322  0.3662 -0.8141  0.2278
 3194SOL    HW121215   0.302   3.254   7.369  0.9386 -1.2549 -1.0510
 3194SOL    HW221216   0.262   3.312   7.234  2.6866  1.6575  1.5025
 3195SOL     OW21217   3.542   3.319   1.930  0.2697 -0.3303  0.7897
 3195SOL    HW121218   3.487   3.252   1.890 -2.3718  1.3546  1.5788
 3195SOL    HW221219   3.630   3.283   1.919  1.5413  2.4526  1.8954
 3196SOL     OW21220   1.838   2.212   0.328 -0.2384  0.1851  0.1346
 3196SOL    HW121221   1.751   2.239   0.355 -1.1727 -1.9673 -0.6954
 3196SOL    HW221222   1.843   2.229   0.234 -1.7153 -0.7572 -0.1125
 3197SOL     OW21223   1.288   2.337   6.924  0.2426  0.2720  0.2552
 3197SOL    HW121224   1.250   2.400   6.985 -0.6461 -1.0467  1.0759
 3197SOL    HW221225   1.228   2.266   6.948  0.3222 -1.2702 -4.1541
 3198SOL     OW21226   1.348   2.818   5.537 -0.1636  0.1764 -0.0875
 3198SOL    HW121227   1.354   2.828   5.632 -0.5388 -1.2152  0.0771
 3198SOL    HW221228   1.396   2.737   5.522  0.4571  0.7363 -1.0852
 3199SOL     OW21229   2.075   4.489   6.455 -0.3255  0.4839  0.4658
 3199SOL    HW121230   1.986   4.523   6.445 -0.8519 -1.5206 -1.6566
 3199SOL    HW221231   2.057   4.422   6.520 -2.1758 -1.1336 -1.7080
 3200SOL     OW21232   1.103   2.176  15.781 -0.0123 -0.2059 -0.3426
 3200SOL    HW121233   1.162   2.249  15.761 -0.9155  0.0608 -2.0935
 3200SOL    HW221234   1.135   2.161  15.870 -0.6150  2.1856  0.2898
 3201SOL     OW21235   3.202   1.429   8.152 -0.0986  0.0581 -0.5201
 3201SOL    HW121236   3.233   1.386   8.232  0.8910 -1.3997 -1.6733
 3201SOL    HW221237   3.289   1.433   8.112  1.1452  0.5758  2.2380
 3202SOL     OW21238   3.817   3.804   5.010 -0.0746 -0.1452  0.3957
 3202SOL    HW121239   3.813   3.763   4.923 -0.3582  0.8005 -0.0375
 3202SOL    HW221240   3.845   3.893   4.990  0.9097 -0.9368 -1.6770
 3203SOL     OW21241   2.252   2.877   2.668 -0.0671 -0.0367 -0.4521
 3203SOL    HW121242   2.265   2.953   2.725 -0.6881  0.3995 -0.8982
 3203SOL    HW221243   2.321   2.820   2.703 -2.4265 -1.9268  1.1139
 3204SOL     OW21244   2.089   4.284   3.766  0.0663 -0.4926 -0.3039
 3204SOL    HW121245   2.031   4.359   3.781  0.5892 -0.3581  1.1022
 3204SOL    HW221246   2.049   4.244   3.843 -1.7630  0.5706 -0.7071
 3205SOL     OW21247   4.600   0.472   2.127  0.1249 -0.0949 -0.5409
 3205SOL    HW121248   4.586   0.452   2.034  0.6287  0.4747 -0.7375
 3205SOL    HW221249   4.598   0.379   2.149  1.6052  0.3773  1.5502
 3206SOL     OW21250   3.781   1.787   9.706 -0.5920 -0.1506  0.3857
 3206SOL    HW121251   3.767   1.741   9.623  1.9408 -0.8542  0.3472
 3206SOL    HW221252   3.734   1.868   9.688 -1.5420 -0.9440 -0.7351
 3207SOL     OW21253   0.754   4.673   9.218  0.0793 -0.5885  0.4737
 3207SOL    HW121254   0.660   4.657   9.228  0.1652 -1.0284  0.5876
 3207SOL    HW221255   0.790   4.605   9.161  0.4979  0.4379 -0.5004
 3208SOL     OW21256   1.007   4.101   2.609 -0.2858  0.1101 -0.1133
 3208SOL    HW121257   0.963   4.175   2.649 -1.9867 -0.9887  0.0490
 3208SOL    HW221258   1.008   4.039   2.682 -0.2278  0.2123 -0.0278
 3209SOL     OW21259   1.587   0.666   4.569 -0.5032  0.0362 -0.9933
 3209SOL    HW121260   1.558   0.740   4.623  0.6407 -0.1344 -0.1633
 3209SOL    HW221261   1.680   0.685   4.556 -0.5417 -1.3200 -3.3089
 3210SOL     OW21262   3.500   3.191  10.614 -0.3919  0.2326 -0.6764
 3210SOL    HW121263   3.541   3.277  10.621 -1.0289  0.4667  0.1654
 3210SOL    HW221264   3.579   3.140  10.595  0.3997  0.6707  1.4641
 3211SOL     OW21265   3.209   4.328   7.608  0.3404  0.1887 -0.3883
 3211SOL    HW121266   3.255   4.363   7.532  0.9811  2.6914  1.1132
 3211SOL    HW221267   3.126   4.299   7.570  0.9599 -1.6986 -0.2887
 3212SOL     OW21268   0.015   4.504  10.202 -0.0274  0.3732 -0.0757
 3212SOL    HW121269   4.690   4.498  10.276  0.7411  1.5656  0.6757
 3212SOL    HW221270   0.077   4.432  10.201  0.3434  0.6842  0.2866
 3213SOL     OW21271   1.287   1.101  16.670  0.2431 -0.0277 -0.1701
 3213SOL    HW121272   1.294   1.185  16.715  1.4280 -0.4358  0.4222
 3213SOL    HW221273   1.248   1.135  16.590  0.9844 -0.3121 -0.6516
 3214SOL     OW21274   3.707   2.241  11.865  0.0692  0.0732  0.1742
 3214SOL    HW121275   3.704   2.335  11.883  1.5565  0.2079 -0.2561
 3214SOL    HW221276   3.743   2.218  11.951  1.1897 -2.3600 -0.9308
 3215SOL     OW21277   0.714   0.435  15.142  1.0212  0.1524  0.5126
 3215SOL    HW121278   0.783   0.475  15.090 -1.7794  2.4828 -1.3984
 3215SOL    HW221279   0.693   0.354  15.094  2.6624 -0.8004  1.4000
 3216SOL     OW21280   0.818   2.498  15.602  0.1561  0.0886  0.0594
 3216SOL    HW121281   0.849   2.407  15.595  1.6376  0.5800  0.2738
 3216SOL    HW221282   0.895   2.552  15.617  1.8775 -2.1040 -0.9655
 3217SOL     OW21283   2.349   0.174   6.263  0.0059  0.1236  0.2988
 3217SOL    HW121284   2.442   0.158   6.247 -0.1403 -1.2196  0.8131
 3217SOL    HW221285   2.321   0.094   6.307  0.6629  0.6896  1.7588
 3218SOL     OW21286   1.429   4.126   7.979 -0.6269  0.2578  0.0642
 3218SOL    HW121287   1.441   4.151   8.070  3.0290  1.5242 -0.7901
 3218SOL    HW221288   1.416   4.216   7.948 -2.9897  0.1604  0.7359
 3219SOL     OW21289   4.570   4.599   3.518  0.7623 -0.5464 -0.4564
 3219SOL    HW121290   4.631   4.662   3.556 -0.9035 -0.8613  2.6892
 3219SOL    HW221291   4.619   4.517   3.522 -0.9076 -1.4236  1.4315
 3220SOL     OW21292   2.826   2.832   4.800  0.4719 -0.2455 -0.1412
 3220SOL    HW121293   2.784   2.858   4.882  0.5105  0.9623 -0.5042
 3220SOL    HW221294   2.812   2.737   4.795  1.5681 -0.4532  0.6963
 3221SOL     OW21295   2.646   0.662   6.285 -0.1102 -0.7379  0.5470
 3221SOL    HW121296   2.598   0.599   6.340 -0.7966 -0.8960 -0.2385
 3221SOL    HW221297   2.692   0.716   6.349 -0.3107  0.4579 -0.3140
 3222SOL     OW21298   4.025   2.419   3.829  0.2205 -0.5862  0.3280
 3222SOL    HW121299   4.016   2.364   3.751  1.1092 -1.0699  0.5622
 3222SOL    HW221300   4.019   2.507   3.792  1.7031 -0.6477 -0.0872
 3223SOL     OW21301   2.104   1.715  11.968 -0.2012 -0.5697 -0.0854
 3223SOL    HW121302   2.168   1.644  11.973  1.4156  0.8449 -0.5470
 3223SOL    HW221303   2.112   1.761  12.052 -0.6447 -1.6741  0.5617
 3224SOL     OW21304   2.333   4.065   2.256 -0.2525 -0.2891  0.3909
 3224SOL    HW121305   2.326   4.157   2.280 -1.3520 -1.0371  3.0123
 3224SOL    HW221306   2.310   4.066   2.163 -0.7739  1.7958  0.5440
 3225SOL     OW21307   2.139   4.216   4.058  0.0888  0.1139 -0.1167
 3225SOL    HW121308   2.152   4.311   4.062 -0.4162  0.1811 -0.0589
 3225SOL    HW221309   2.183   4.183   4.136  0.8159  1.9781  0.2663
 3226SOL     OW21310   0.461   3.139   2.687  0.1268  0.0808 -0.0909
 3226SOL    HW121311   0.406   3.076   2.640 -0.6494  0.0146  0.8960
 3226SOL    HW221312   0.548   3.100   2.689  0.2873  0.6741  3.8229
 3227SOL     OW21313   4.485   1.330   5.317 -0.2705 -0.1708 -0.3736
 3227SOL    HW121314   4.511   1.268   5.249 -0.6327  1.2513 -1.8199
 3227SOL    HW221315   4.574   1.354   5.346 -1.0914 -0.0041  2.0120
 3228SOL     OW21316   3.479   2.582   2.533  0.3248 -0.9283  0.1963
 3228SOL    HW121317   3.390   2.546   2.524 -0.2224  0.5572 -0.2904
 3228SOL    HW221318   3.531   2.508   2.564  1.4625 -0.1214  0.2093
 3229SOL     OW21319   3.481   4.191   7.610 -0.0591 -0.2357 -0.5558
 3229SOL    HW121320   3.398   4.238   7.609 -0.3307 -0.6727  0.5865
 3229SOL    HW221321   3.513   4.199   7.520  1.2007 -1.6879 -0.2357
 3230SOL     OW21322   1.016   4.267   3.703 -0.2174  0.0317 -0.4208
 3230SOL    HW121323   0.989   4.193   3.648  1.2022 -0.2365 -0.7597
 3230SOL    HW221324   1.104   4.236   3.726 -0.4391  2.1128  3.2765
 3231SOL     OW21325   4.531   0.670   2.906 -0.0382  0.1328  0.3769
 3231SOL    HW121326   4.610   0.725   2.904 -1.5199  2.1564 -2.3696
 3231SOL    HW221327   4.477   0.722   2.966 -1.7928  0.9245 -1.8520
 3232SOL     OW21328   0.433   1.117   0.845  0.5935 -0.1760 -0.3554
 3232SOL    HW121329   0.396   1.054   0.906  1.4481 -1.2575 -0.9465
 3232SOL    HW221330   0.439   1.195   0.900  1.8395  0.5243 -1.4727
 3233SOL     OW21331   4.397   0.284   8.916  0.1991  0.7089  0.0556
 3233SOL    HW121332   4.448   0.275   8.836  1.5249 -1.6866  1.1315
 3233SOL    HW221333   4.312   0.317   8.886  0.0446  0.6823  0.4599
 3234SOL     OW21334   1.221   2.567  12.604 -0.2937  0.1809  0.2840
 3234SOL    HW121335   1.164   2.490  12.613 -0.7514  0.4118 -0.7462
 3234SOL    HW221336   1.277   2.561  12.682 -1.8363 -1.6443  1.2676
 3235SOL     OW21337   1.502   0.103   0.958 -0.1518  0.2248  0.0004
 3235SOL    HW121338   1.409   0.081   0.970 -0.2827  0.8919  0.1893
 3235SOL    HW221339   1.501   0.136   0.868  4.2238  0.5483  0.0791
 3236SOL     OW21340   4.558   4.195   7.484  0.1951  0.0346 -0.2603
 3236SOL    HW121341   4.616   4.263   7.517 -0.5757 -1.3469  3.9417
 3236SOL    HW221342   4.480   4.240   7.451  0.5401  1.2926  0.6574
 3237SOL     OW21343   0.547   3.045  17.067  0.2639  0.0839  0.0462
 3237SOL    HW121344   0.495   3.007  17.138  0.7911  1.0683  0.9792
 3237SOL    HW221345   0.497   3.013  16.992 -2.8244  0.9327  1.7323
 3238SOL     OW21346   2.947   4.526   8.799  0.7615  0.0066  0.2661
 3238SOL    HW121347   2.977   4.569   8.879  0.5346  1.3274 -0.3607
 3238SOL    HW221348   2.903   4.597   8.752  1.1834  0.5012  0.6146
 3239SOL     OW21349   3.379   3.093  17.317 -0.1614 -0.3789 -0.5007
 3239SOL    HW121350   3.344   3.099  17.406  0.8842  0.6550 -0.1690
 3239SOL    HW221351   3.296   3.063  17.279 -0.4482  1.0886 -1.0417
 3240SOL     OW21352   4.231   1.753   2.186  0.3076  0.3770 -0.4471
 3240SOL    HW121353   4.160   1.773   2.124 -0.4906 -0.7098  0.1116
 3240SOL    HW221354   4.300   1.748   2.120  0.6204  0.6939 -0.1424
 3241SOL     OW21355   2.915   1.379   2.445 -0.3918  0.4203 -0.2807
 3241SOL    HW121356   2.888   1.322   2.517 -0.3433 -1.4801 -1.7697
 3241SOL    HW221357   2.849   1.359   2.379 -0.3592 -0.7215  0.0395
 3242SOL     OW21358   0.613   3.078   7.938  0.2453  0.1930  0.0513
 3242SOL    HW121359   0.676   3.104   8.005  0.6926 -1.3397  0.2269
 3242SOL    HW221360   0.561   3.030   8.003 -0.9744  2.4432  0.7277
 3243SOL     OW21361   4.101   1.431  16.550 -0.0218  0.5736  0.1962
 3243SOL    HW121362   4.054   1.511  16.574  0.8844  1.1475  0.0561
 3243SOL    HW221363   4.136   1.394  16.632 -0.4859 -1.5694 -0.5748
 3244SOL     OW21364   1.679   0.936   3.530  0.0528  0.0620  0.0891
 3244SOL    HW121365   1.611   0.999   3.555  2.3754  2.1661  1.1973
 3244SOL    HW221366   1.680   0.944   3.435  3.9142 -1.6766 -0.0150
 3245SOL     OW21367   1.879   3.172   8.355  0.0164 -0.5315 -0.0401
 3245SOL    HW121368   1.959   3.132   8.390 -0.8253 -1.3493  0.9414
 3245SOL    HW221369   1.917   3.260   8.347 -2.8549  0.8733  1.9035
 3246SOL     OW21370   4.412   2.426   3.821 -0.1586  0.7578 -0.8369
 3246SOL    HW121371   4.325   2.466   3.826 -0.4716 -0.2837  1.6650
 3246SOL    HW221372   4.432   2.423   3.727  0.1489  1.1698 -0.7907
 3247SOL     OW21373   0.031   4.104   3.231  0.2856 -0.2400  0.5690
 3247SOL    HW121374   0.023   4.123   3.138 -0.0264  1.0126  0.8564
 3247SOL    HW221375   0.118   4.138   3.253  0.5664  0.4008 -1.5856
 3248SOL     OW21376   0.969   3.874   8.557  0.5956 -0.5597  0.6308
 3248SOL    HW121377   0.893   3.906   8.509  0.1031 -1.6058  0.7209
 3248SOL    HW221378   0.983   3.785   8.524 -0.0917 -0.3342 -0.2783
 3249SOL     OW21379   0.164   0.588   5.755  0.2261  0.5912  0.3024
 3249SOL    HW121380   0.160   0.551   5.843 -1.5487 -1.8820 -0.8299
 3249SOL    HW221381   0.108   0.663   5.777  1.4943  1.2110  1.3828
 3250SOL     OW21382   0.523   4.248  14.156 -0.3003 -0.0262  0.7654
 3250SOL    HW121383   0.437   4.256  14.115 -2.1169 -1.2526  4.2975
 3250SOL    HW221384   0.573   4.325  14.130 -0.5728 -0.4005 -0.8653
 3251SOL     OW21385   1.154   4.260  17.694  0.0495 -0.2391 -0.0339
 3251SOL    HW121386   1.130   4.348  17.666 -0.1201 -0.5298 -0.7993
 3251SOL    HW221387   1.135   4.201  17.621 -1.4060 -0.4019  0.4699
 3252SOL     OW21388   0.862   0.584  13.125 -0.0095  0.3827  0.2548
 3252SOL    HW121389   0.877   0.583  13.031 -0.8687  1.2846  0.1098
 3252SOL    HW221390   0.876   0.679  13.136  0.4785  0.3569 -0.1466
 3253SOL     OW21391   4.314   3.025   1.400  0.0157 -0.2068 -0.0029
 3253SOL    HW121392   4.288   3.085   1.469  0.8235  1.7276 -1.3897
 3253SOL    HW221393   4.409   3.036   1.411 -0.5050  1.3131  2.9036
 3254SOL     OW21394   2.869   0.731   5.363 -0.5508  0.1791 -0.0475
 3254SOL    HW121395   2.865   0.746   5.458  3.0662  1.1233 -0.0399
 3254SOL    HW221396   2.935   0.664   5.348  1.9899  2.5076  0.6320
 3255SOL     OW21397   3.761   2.375   2.333  0.3593  0.0211 -0.4031
 3255SOL    HW121398   3.851   2.396   2.309  1.2270 -0.5213  2.2763
 3255SOL    HW221399   3.728   2.317   2.265  0.3646 -2.3510  1.6197
 3256SOL     OW21400   0.008   1.718   8.576  0.0090  0.2767  0.1499
 3256SOL    HW121401   0.086   1.682   8.534 -0.9374  0.7605 -2.0267
 3256SOL    HW221402   0.042   1.716   8.665 -1.5966 -1.2943  0.7198
 3257SOL     OW21403   0.521   1.438   6.347  0.2035  0.0094 -0.2312
 3257SOL    HW121404   0.547   1.526   6.377 -3.1631  1.5055 -1.6983
 3257SOL    HW221405   0.510   1.402   6.435 -0.2318 -0.4463 -0.4771
 3258SOL     OW21406   1.509   3.468   6.710  0.0706  0.4542 -0.4624
 3258SOL    HW121407   1.432   3.424   6.674  1.4217 -1.1890 -1.3376
 3258SOL    HW221408   1.487   3.552   6.670 -1.6104  0.3038  0.1359
 3259SOL     OW21409   4.425   1.740   3.527 -0.1351 -0.3480 -0.0998
 3259SOL    HW121410   4.340   1.781   3.542 -0.6769 -1.6323  0.3504
 3259SOL    HW221411   4.473   1.784   3.597  2.2671  0.7313 -2.4361
 3260SOL     OW21412   1.918   3.435   7.071  0.1839 -0.0483  0.2825
 3260SOL    HW121413   1.980   3.494   7.027  0.5053  0.1096  0.9485
 3260SOL    HW221414   1.845   3.428   7.010 -0.8045  0.2074  1.4511
 3261SOL     OW21415   0.239   1.666   1.461  0.4522  0.3088  0.3226
 3261SOL    HW121416   0.290   1.678   1.381 -1.3244  0.1724 -0.8310
 3261SOL    HW221417   0.298   1.630   1.527  0.6773 -0.3475 -0.2371
 3262SOL     OW21418   1.233   2.739   6.704 -0.4226 -0.3341 -0.3747
 3262SOL    HW121419   1.209   2.673   6.768  0.9052  1.1134  1.6117
 3262SOL    HW221420   1.325   2.718   6.685 -0.2710  0.3641 -0.4110
 3263SOL     OW21421   4.355   4.113   3.805  0.3352  0.3651 -0.3738
 3263SOL    HW121422   4.378   4.083   3.717  0.6570 -0.0756 -0.1446
 3263SOL    HW221423   4.310   4.038   3.844  1.5027  1.3714  2.8481
 3264SOL     OW21424   4.098   0.743   4.460  0.1391  0.3457  0.1576
 3264SOL    HW121425   4.095   0.711   4.551  0.4955  0.1357  0.0940
 3264SOL    HW221426   4.138   0.670   4.413 -0.9380 -1.2384  1.6822
 3265SOL     OW21427   2.515   2.810   4.785  0.1747  0.5255 -1.0048
 3265SOL    HW121428   2.588   2.871   4.776 -1.1638  2.6048  2.4401
 3265SOL    HW221429   2.509   2.801   4.880 -0.0569  3.1820 -0.7619
 3266SOL     OW21430   1.008   1.704  15.702  0.3660 -0.7615 -0.0721
 3266SOL    HW121431   0.978   1.789  15.735  1.5969 -1.5632  3.1454
 3266SOL    HW221432   1.058   1.673  15.778 -0.0261  0.0605  0.5258
 3267SOL     OW21433   1.516   3.707   2.939  0.1769  0.0213  0.4047
 3267SOL    HW121434   1.570   3.758   2.878 -1.9636  2.0236  0.1698
 3267SOL    HW221435   1.562   3.626   2.963 -2.0693 -0.1117  4.1712
 3268SOL     OW21436   2.992   0.713  14.061 -0.2984  0.3959  0.1309
 3268SOL    HW121437   3.026   0.646  14.001 -1.0162  1.8309 -1.8904
 3268SOL    HW221438   3.006   0.666  14.143  1.1055  1.1010  0.2917
 3269SOL     OW21439   0.221   0.345   6.847  0.2702  0.4214  0.1066
 3269SOL    HW121440   0.254   0.255   6.858 -0.7521  0.0952  0.4627
 3269SOL    HW221441   0.126   0.341   6.858  0.0241 -0.2170 -2.2109
 3270SOL     OW21442   0.094   2.272   0.217 -0.1488  0.1095 -0.0245
 3270SOL    HW121443   0.047   2.265   0.134  1.8177  2.9440 -1.3902
 3270SOL    HW221444   0.046   2.344   0.258  1.4833  0.3997  1.3702
 3271SOL     OW21445   3.390   0.343   3.178 -0.0865 -0.0245  0.3599
 3271SOL    HW121446   3.426   0.322   3.091  0.5601  3.3211 -0.1887
 3271SOL    HW221447   3.460   0.322   3.239 -0.4613 -1.5597  0.2450
 3272SOL     OW21448   0.499   2.334   4.055  0.3416 -0.9796  0.8341
 3272SOL    HW121449   0.566   2.344   4.122  0.5489 -2.9325  0.9122
 3272SOL    HW221450   0.420   2.377   4.088  0.3220  0.2379 -0.7627
 3273SOL     OW21451   2.193   3.446   6.319 -0.3902 -0.4582 -0.7834
 3273SOL    HW121452   2.139   3.515   6.282  0.9032  0.5497 -0.7663
 3273SOL    HW221453   2.147   3.415   6.397  1.3162 -0.7750  0.0813
 3274SOL     OW21454   2.958   3.214   0.949  0.3440  0.1076 -0.1730
 3274SOL    HW121455   2.902   3.279   0.906 -2.0642 -1.3380  0.7803
 3274SOL    HW221456   3.021   3.268   0.996  2.0802 -1.2274 -0.9624
 3275SOL     OW21457   4.705   3.080   7.899 -0.4348 -0.0088 -0.1994
 3275SOL    HW121458   4.679   2.993   7.869 -1.6509  0.9781 -2.0212
 3275SOL    HW221459   4.698   3.071   7.994  0.9045  1.6684  0.0528
 3276SOL     OW21460   2.969   3.343   3.260  0.7435  0.0613 -0.0441
 3276SOL    HW121461   2.965   3.429   3.219 -0.3852  1.7571  3.6038
 3276SOL    HW221462   3.059   3.340   3.293  0.1198  1.0149  1.7560
 3277SOL     OW21463   2.575   0.902   3.239  0.2182  0.2883 -0.1654
 3277SOL    HW121464   2.496   0.928   3.191  0.7939  3.1025  0.3781
 3277SOL    HW221465   2.536   0.827   3.284  1.6719 -0.3426  0.0256
 3278SOL     OW21466   0.770   4.627   3.962 -0.1206 -0.5152 -0.3626
 3278SOL    HW121467   0.808   4.637   4.049  0.6784 -2.6828 -0.4657
 3278SOL    HW221468   0.847   4.584   3.924 -0.7312 -1.4151 -0.5913
 3279SOL     OW21469   4.094   0.235   6.623  0.5809  0.1415  0.5579
 3279SOL    HW121470   4.188   0.222   6.613  0.7657  0.1261  2.2122
 3279SOL    HW221471   4.079   0.283   6.542  1.0673  0.8469  0.8846
 3280SOL     OW21472   2.023   2.534   3.746  1.1010 -0.7398 -0.4662
 3280SOL    HW121473   1.968   2.610   3.765  0.3220 -1.4921  0.3259
 3280SOL    HW221474   1.945   2.481   3.732 -0.0035  0.4547  1.1702
 3281SOL     OW21475   2.786   3.501  11.888  0.1967 -0.0872 -0.3637
 3281SOL    HW121476   2.872   3.519  11.850  0.8982  1.8286  2.1215
 3281SOL    HW221477   2.756   3.427  11.835  1.0465 -0.6644 -0.0303
 3282SOL     OW21478   0.882   2.273   7.724 -0.4835  0.0635 -0.0708
 3282SOL    HW121479   0.847   2.246   7.809 -1.0956 -1.7980 -0.8955
 3282SOL    HW221480   0.894   2.367   7.736 -1.1331  0.0051  1.0656
 3283SOL     OW21481   2.367   2.181   6.852 -0.1010 -0.1205 -0.0648
 3283SOL    HW121482   2.297   2.245   6.840 -1.9746 -2.1880 -0.2895
 3283SOL    HW221483   2.329   2.107   6.804  1.6757  0.4617 -2.3147
 3284SOL     OW21484   2.738   1.879   9.910  0.0136 -0.0299  0.0162
 3284SOL    HW121485   2.721   1.959   9.860 -0.6045 -0.6026 -0.6913
 3284SOL    HW221486   2.649   1.860   9.939 -1.2315  3.0986 -1.7471
 3285SOL     OW21487   4.339   1.958   6.096  0.3738  0.3681 -0.1916
 3285SOL    HW121488   4.332   1.907   6.015  0.1965  0.4939 -0.2540
 3285SOL    HW221489   4.433   1.976   6.103  0.2032  1.6483 -1.2899
 3286SOL     OW21490   2.563   3.645   5.514 -0.1613 -0.0161  0.5456
 3286SOL    HW121491   2.605   3.566   5.546 -1.4942 -1.1797 -0.5741
 3286SOL    HW221492   2.503   3.610   5.448  0.0802 -0.9763  0.8432
 3287SOL     OW21493   3.840   1.410   1.831 -0.6488  0.3142 -0.0179
 3287SOL    HW121494   3.854   1.492   1.785  0.9597 -1.6685 -3.0985
 3287SOL    HW221495   3.756   1.426   1.873 -0.4034  2.1345 -0.2469
 3288SOL     OW21496   1.695   0.688  16.672 -0.0867  0.2398  0.1804
 3288SOL    HW121497   1.690   0.713  16.764 -0.1047 -2.1139  0.8025
 3288SOL    HW221498   1.640   0.610  16.665  0.9679 -0.6895  2.4375
 3289SOL     OW21499   0.431   3.267   8.569  0.2566 -0.0835  0.3669
 3289SOL    HW121500   0.472   3.324   8.634  0.1968 -0.7905  1.0324
 3289SOL    HW221501   0.488   3.287   8.495 -1.6221  1.7835 -0.5886
 3290SOL     OW21502   4.421   3.780  10.103 -0.1228  0.1007  0.0222
 3290SOL    HW121503   4.443   3.868  10.070 -0.5763 -0.0843 -0.7893
 3290SOL    HW221504   4.428   3.793  10.198  0.9426 -0.5544  0.0383
 3291SOL     OW21505   3.337   0.041   4.331  0.1512  0.5710 -0.0853
 3291SOL    HW121506   3.369   4.721   4.402 -1.4684  1.3204  1.2113
 3291SOL    HW221507   3.416   0.085   4.298  0.5178 -0.9693 -1.2971
 3292SOL     OW21508   2.556   2.563   4.231  0.5203  0.1913 -0.6181
 3292SOL    HW121509   2.533   2.634   4.290  0.1499  1.6529 -2.5102
 3292SOL    HW221510   2.521   2.486   4.275 -0.2668  0.0332 -1.5359
 3293SOL     OW21511   2.110   1.766  17.680  0.6508 -0.1693 -0.0359
 3293SOL    HW121512   2.059   1.833  17.725  1.7858 -1.9562  3.8695
 3293SOL    HW221513   2.050   1.692  17.679 -0.1853  0.5086 -0.3111
 3294SOL     OW21514   3.603   2.719   3.181  0.0487  0.4315  0.4034
 3294SOL    HW121515   3.661   2.711   3.106 -0.5271 -0.6254  0.0698
 3294SOL    HW221516   3.615   2.629   3.211 -0.6476  0.1244 -0.2251
 3295SOL     OW21517   3.622   1.840   2.829  0.3593  0.0874 -0.3041
 3295SOL    HW121518   3.579   1.769   2.782 -0.2149 -0.0514  0.4282
 3295SOL    HW221519   3.635   1.917   2.775 -1.0739  0.3650 -0.2549
 3296SOL     OW21520   0.941   0.052   3.378 -0.2728  0.0223  0.0974
 3296SOL    HW121521   1.036   0.052   3.387 -0.1504  0.2463 -1.0861
 3296SOL    HW221522   0.921   0.133   3.424 -0.1360 -0.9569  1.8723
 3297SOL     OW21523   1.468   1.855  14.234 -0.6264  0.0073  0.0626
 3297SOL    HW121524   1.545   1.899  14.271 -1.9416  0.3984  2.3308
 3297SOL    HW221525   1.510   1.787  14.181  2.5042  1.3895  0.7594
 3298SOL     OW21526   0.754   1.142   7.076  0.2538 -0.4553 -0.0873
 3298SOL    HW121527   0.799   1.226   7.079  0.4400 -0.5698  0.3555
 3298SOL    HW221528   0.745   1.125   6.982 -1.8260  1.9353 -0.3386
 3299SOL     OW21529   1.587   1.881  12.801  0.5230  0.5527 -0.3328
 3299SOL    HW121530   1.642   1.920  12.869 -0.3217 -0.3548  0.8477
 3299SOL    HW221531   1.641   1.822  12.748  1.3423  0.8404  0.1713
 3300SOL     OW21532   1.400   1.766   2.708 -0.4603  0.2242  0.4467
 3300SOL    HW121533   1.483   1.776   2.663  0.1629 -1.0290  1.3173
 3300SOL    HW221534   1.374   1.852   2.741 -1.0380  0.0572  0.4369
 3301SOL     OW21535   4.378   1.109   8.380  0.1106  0.0070  0.8402
 3301SOL    HW121536   4.295   1.063   8.389 -0.1538  0.1898 -0.7231
 3301SOL    HW221537   4.438   1.049   8.337  1.4435  1.3810  0.7812
 3302SOL     OW21538   1.219   3.636  10.723  0.5970 -0.1697  0.1827
 3302SOL    HW121539   1.189   3.721  10.690 -0.7747 -0.1547  1.4978
 3302SOL    HW221540   1.134   3.594  10.728  0.9855 -1.2616 -2.1457
 3303SOL     OW21541   2.949   2.466   1.547  0.2826  0.0207 -0.4209
 3303SOL    HW121542   2.900   2.429   1.620 -0.7560  0.1239 -1.0704
 3303SOL    HW221543   2.925   2.413   1.471 -0.8038  1.0204 -0.7839
 3304SOL     OW21544   1.221   4.293  15.118 -0.2286 -0.0838 -0.1176
 3304SOL    HW121545   1.242   4.227  15.184  2.3388  2.6480  1.8089
 3304SOL    HW221546   1.230   4.369  15.176 -0.5160  0.1967 -0.4376
 3305SOL     OW21547   0.908   1.843  16.188 -0.3748 -0.1305 -0.1030
 3305SOL    HW121548   0.828   1.815  16.233  0.4072 -1.2933  0.5509
 3305SOL    HW221549   0.860   1.891  16.121 -1.0192  0.7155  0.9662
 3306SOL     OW21550   0.127   4.577   3.308  0.0991  0.1811  0.4438
 3306SOL    HW121551   0.176   4.656   3.287  2.2179 -1.6835 -1.7367
 3306SOL    HW221552   0.197   4.516   3.332 -0.8160 -1.3110 -0.6524
 3307SOL     OW21553   4.251   1.244   7.448  0.2547  0.0115  0.2639
 3307SOL    HW121554   4.304   1.194   7.510  0.3496 -0.5698 -0.2854
 3307SOL    HW221555   4.312   1.313   7.423  1.3558 -1.4449 -1.0591
 3308SOL     OW21556   2.467   2.328   5.954 -0.2299  0.6678 -0.1561
 3308SOL    HW121557   2.520   2.361   5.882  0.2921  0.9783  0.3732
 3308SOL    HW221558   2.444   2.410   5.999 -3.0136 -0.1308 -0.0858
 3309SOL     OW21559   0.961   1.115   6.512 -0.0017 -0.1236  0.1741
 3309SOL    HW121560   0.896   1.170   6.469 -0.6308  0.5442  1.9958
 3309SOL    HW221561   0.994   1.056   6.444 -0.3315 -0.3216  0.1871
 3310SOL     OW21562   2.165   1.563   7.823 -0.3827 -0.0017 -0.7298
 3310SOL    HW121563   2.142   1.611   7.902 -1.3774 -0.5951 -0.6608
 3310SOL    HW221564   2.077   1.528   7.809  0.2560 -1.4494 -1.1319
 3311SOL     OW21565   1.226   3.219  17.260  0.2039  0.8487  0.4522
 3311SOL    HW121566   1.141   3.252  17.233 -0.7103  0.5257  2.9430
 3311SOL    HW221567   1.235   3.132  17.220  0.2682  1.1334 -0.1468
 3312SOL     OW21568   1.294   4.577   9.143 -0.6641  0.0040  0.2509
 3312SOL    HW121569   1.210   4.610   9.175 -1.0641 -0.8079  0.0497
 3312SOL    HW221570   1.308   4.495   9.190 -0.7966 -0.1886 -0.0422
 3313SOL     OW21571   0.467   2.985  11.885 -0.2536 -0.2371  0.5227
 3313SOL    HW121572   0.500   2.991  11.796 -0.8516 -0.5820  0.2823
 3313SOL    HW221573   0.387   2.935  11.868 -0.3085  0.2648 -0.6769
 3314SOL     OW21574   1.970   3.566   7.319 -0.7350  0.2282 -0.0035
 3314SOL    HW121575   1.938   3.551   7.230  1.3122 -1.4323 -0.4409
 3314SOL    HW221576   1.903   3.624   7.357 -1.0471  0.2355 -0.5709
 3315SOL     OW21577   3.769   1.037   3.768 -0.1856  0.7080 -0.2840
 3315SOL    HW121578   3.690   1.022   3.820 -0.2037  1.4534 -0.1032
 3315SOL    HW221579   3.833   0.973   3.799  1.5461  1.6460 -1.8913
 3316SOL     OW21580   0.918   1.447  15.460 -0.2835  0.1488  0.4689
 3316SOL    HW121581   1.003   1.461  15.502  1.2885 -0.1294 -2.6249
 3316SOL    HW221582   0.911   1.525  15.406 -0.3817 -1.2466 -1.5412
 3317SOL     OW21583   3.227   3.634   8.718 -0.2600  0.4581 -0.1126
 3317SOL    HW121584   3.322   3.648   8.717 -0.2285  0.1634 -1.6039
 3317SOL    HW221585   3.216   3.627   8.812  1.0052 -1.5555 -0.0937
 3318SOL     OW21586   0.512   0.219   3.275 -0.3383 -0.3870  0.0090
 3318SOL    HW121587   0.528   0.240   3.183  2.0212  0.8240  0.6863
 3318SOL    HW221588   0.578   0.153   3.297 -1.2748 -0.2526  3.2068
 3319SOL     OW21589   0.767   0.860   3.020 -0.3417  0.0026 -0.1740
 3319SOL    HW121590   0.722   0.924   3.075  1.0849  0.6457  0.2213
 3319SOL    HW221591   0.809   0.917   2.956 -1.0958 -0.3076 -0.9525
 3320SOL     OW21592   0.055   2.494  13.429  0.1688 -0.4630 -0.0621
 3320SOL    HW121593   0.062   2.563  13.495  1.7564  0.3547 -1.0854
 3320SOL    HW221594   0.041   2.411  13.476  2.3344 -1.4215 -1.0811
 3321SOL     OW21595   0.864   4.283   3.089 -0.3331  0.3039  0.4975
 3321SOL    HW121596   0.797   4.215   3.078 -2.6399  2.3242  2.0201
 3321SOL    HW221597   0.832   4.352   3.032  0.7695 -2.6042 -3.6359
 3322SOL     OW21598   4.080   1.717  13.806  0.0327  0.4973  0.2764
 3322SOL    HW121599   4.065   1.746  13.897  3.9762 -0.5967  1.2670
 3322SOL    HW221600   4.150   1.652  13.811 -0.7535 -0.4581 -0.9357
 3323SOL     OW21601   3.708   3.147   9.041  0.4310  0.4662  0.2623
 3323SOL    HW121602   3.797   3.127   9.071 -0.4729 -2.5444  0.9279
 3323SOL    HW221603   3.688   3.218   9.101 -1.6211  0.6244 -0.6122
 3324SOL     OW21604   0.566   3.058   6.773  0.0319 -0.1878 -0.2814
 3324SOL    HW121605   0.540   3.148   6.788 -0.8665 -0.5806  0.5545
 3324SOL    HW221606   0.493   3.010   6.812 -0.2898 -1.0744 -1.9767
 3325SOL     OW21607   1.376   3.971   5.452  0.1234 -0.1259 -0.0675
 3325SOL    HW121608   1.316   3.900   5.427  0.5075 -1.1006  1.7879
 3325SOL    HW221609   1.318   4.043   5.427  0.6517  0.2984 -0.0556
 3326SOL     OW21610   2.319   4.398   6.813  0.4382 -0.0523  0.3130
 3326SOL    HW121611   2.388   4.457   6.783  0.9242 -0.3918  0.7540
 3326SOL    HW221612   2.244   4.456   6.813 -0.5372 -1.3221 -1.9193
 3327SOL     OW21613   0.597   1.230   4.330 -0.5554  0.8863  0.2498
 3327SOL    HW121614   0.686   1.267   4.329  0.3689 -1.2635  3.5759
 3327SOL    HW221615   0.560   1.317   4.317  0.3062  1.2547  0.2107
 3328SOL     OW21616   2.650   4.001  13.717  0.6200  0.1194  0.1456
 3328SOL    HW121617   2.693   4.076  13.678 -0.7972  0.1623 -1.3306
 3328SOL    HW221618   2.559   4.031  13.719 -0.2836 -2.5434  0.1526
 3329SOL     OW21619   0.425   3.640   3.135  0.1007  0.1877 -0.2119
 3329SOL    HW121620   0.340   3.614   3.100  1.5180 -1.0035 -2.7919
 3329SOL    HW221621   0.463   3.577   3.074  0.1249  0.9799 -1.0204
 3330SOL     OW21622   3.501   1.606   6.254 -0.1923 -0.1088  0.3840
 3330SOL    HW121623   3.498   1.631   6.346 -1.3217  2.3531 -0.3073
 3330SOL    HW221624   3.409   1.618   6.231 -0.7962 -1.0226  2.3139
 3331SOL     OW21625   1.516   3.080   3.064 -0.6665  0.1762 -0.3489
 3331SOL    HW121626   1.537   3.075   3.157 -1.9167 -0.7766 -0.1220
 3331SOL    HW221627   1.421   3.071   3.070 -0.6378  0.8866  1.2352
 3332SOL     OW21628   4.393   3.305   4.587 -0.3579 -0.1720  0.4728
 3332SOL    HW121629   4.378   3.222   4.632  0.8207  0.0976  1.3630
 3332SOL    HW221630   4.422   3.269   4.503  1.9901 -0.8647  1.5909
 3333SOL     OW21631   3.425   3.508   6.330  0.1691  0.1380 -0.9357
 3333SOL    HW121632   3.396   3.514   6.239 -1.2179 -2.2259 -0.6224
 3333SOL    HW221633   3.337   3.505   6.367  1.2378  2.5302  1.8948
 3334SOL     OW21634   3.111   2.103   5.157 -0.1238 -0.7137 -0.1644
 3334SOL    HW121635   3.136   2.192   5.131  2.0255 -0.7526  1.7117
 3334SOL    HW221636   3.152   2.102   5.243 -1.1287  2.2935  0.3453
 3335SOL     OW21637   1.805   4.443  10.691  0.3487  0.0569  0.3220
 3335SOL    HW121638   1.799   4.435  10.596 -0.2376 -0.1731  0.3767
 3335SOL    HW221639   1.751   4.521  10.704 -1.0767 -0.6623 -1.3181
 3336SOL     OW21640   1.501   0.327   6.058 -0.1750 -0.6361  0.2706
 3336SOL    HW121641   1.562   0.260   6.028  0.1472 -0.8080  1.3266
 3336SOL    HW221642   1.557   0.404   6.072  0.0845 -0.6253 -0.8548
 3337SOL     OW21643   1.587   2.666   4.239  0.1816 -0.4050 -0.0304
 3337SOL    HW121644   1.500   2.703   4.253  0.4380 -0.9267  2.8492
 3337SOL    HW221645   1.629   2.732   4.184 -0.1065 -0.8361 -0.7731
 3338SOL     OW21646   2.646   1.198  10.248 -0.9933  0.3798  0.6659
 3338SOL    HW121647   2.614   1.113  10.221 -1.6459  0.3440  1.5612
 3338SOL    HW221648   2.664   1.238  10.163 -1.0115 -0.4893  0.2588
 3339SOL     OW21649   3.605   3.463  14.339 -0.4591  1.0868 -0.7120
 3339SOL    HW121650   3.656   3.533  14.380  1.0520 -1.7974  2.3550
 3339SOL    HW221651   3.615   3.394  14.405  0.2983  0.4216 -1.5268
 3340SOL     OW21652   3.998   1.284   3.615 -0.1395 -0.3400  0.4095
 3340SOL    HW121653   3.970   1.217   3.552  0.9368  2.9228 -3.5033
 3340SOL    HW221654   4.000   1.354   3.550  1.8297 -1.9637 -1.2683
 3341SOL     OW21655   4.073   2.336   9.094  0.2636 -0.0250 -0.8553
 3341SOL    HW121656   4.160   2.298   9.101 -0.2248 -1.3330 -1.7956
 3341SOL    HW221657   4.069   2.396   9.168  1.2431 -0.2062 -0.6633
 3342SOL     OW21658   3.697   2.115   8.232 -0.0121  0.2336 -0.2906
 3342SOL    HW121659   3.613   2.069   8.233 -0.2387  0.6434 -0.5045
 3342SOL    HW221660   3.675   2.208   8.224 -0.2080  0.2165  0.0598
 3343SOL     OW21661   1.838   1.449   2.474  0.2196 -0.8062 -0.1804
 3343SOL    HW121662   1.922   1.433   2.517  0.3981 -0.1181 -0.2718
 3343SOL    HW221663   1.864   1.441   2.382  0.5223 -0.6143 -0.1123
 3344SOL     OW21664   2.104   3.600  12.332 -0.5497  0.3660 -0.2501
 3344SOL    HW121665   2.062   3.519  12.303 -1.5772  0.6898  0.3173
 3344SOL    HW221666   2.030   3.644  12.373  0.3643  3.0706 -1.5434
 3345SOL     OW21667   3.389   2.076   4.370 -0.1257  0.2976 -0.2637
 3345SOL    HW121668   3.469   2.089   4.318  0.8284  1.3947  1.4901
 3345SOL    HW221669   3.380   1.982   4.354 -0.3549  0.3278 -0.3081
 3346SOL     OW21670   1.331   1.595   8.231  0.0433  0.4897 -0.3554
 3346SOL    HW121671   1.345   1.553   8.316 -1.8149 -0.6875 -0.6340
 3346SOL    HW221672   1.382   1.542   8.170 -1.6753 -1.7597  0.1441
 3347SOL     OW21673   0.129   3.286   0.240 -0.2835  0.0436  0.3771
 3347SOL    HW121674   0.182   3.313   0.165 -2.1315 -1.0360 -1.3180
 3347SOL    HW221675   0.161   3.197   0.257  1.9544  0.6167 -0.8093
 3348SOL     OW21676   3.930   3.810   8.264 -0.0403 -0.4067 -0.0338
 3348SOL    HW121677   3.989   3.758   8.210  0.2297  0.2479 -0.3774
 3348SOL    HW221678   3.957   3.900   8.245 -2.1942  0.7032  2.1034
 3349SOL     OW21679   3.411   2.729  11.821 -0.2105  0.2951  0.1307
 3349SOL    HW121680   3.340   2.736  11.757  1.3793  2.5042 -1.4180
 3349SOL    HW221681   3.472   2.795  11.786  0.9710  0.1577  1.9838
 3350SOL     OW21682   3.059   1.270   4.270 -0.2830  0.1626 -0.2003
 3350SOL    HW121683   2.983   1.225   4.235  0.9929 -1.2486 -1.1243
 3350SOL    HW221684   3.095   1.312   4.192  2.0881 -0.7704  0.3787
 3351SOL     OW21685   3.580   3.546   3.841 -0.0037  0.4546  0.0391
 3351SOL    HW121686   3.603   3.586   3.925  2.5256 -1.5454  0.3017
 3351SOL    HW221687   3.490   3.578   3.839 -0.3803 -0.5266  1.0060
 3352SOL     OW21688   3.624   4.152   6.384  0.0993 -0.4383  0.2439
 3352SOL    HW121689   3.638   4.059   6.401  1.3774 -0.0337  1.3373
 3352SOL    HW221690   3.597   4.180   6.471 -1.5516 -0.5275 -0.2341
 3353SOL     OW21691   3.333   0.786   3.375  0.0745  0.7153  0.1323
 3353SOL    HW121692   3.252   0.837   3.370 -1.1818 -1.1957  1.0620
 3353SOL    HW221693   3.354   0.772   3.282  0.8029  0.0349  0.3914
 3354SOL     OW21694   0.276   2.096   7.958  0.7069  0.3813  0.2174
 3354SOL    HW121695   0.303   2.131   8.043 -0.9067 -1.3578  1.4522
 3354SOL    HW221696   0.283   2.001   7.969 -3.7984  0.1773  1.3935
 3355SOL     OW21697   3.026   2.326   0.783  0.2379  0.0512 -0.1960
 3355SOL    HW121698   3.008   2.232   0.787  3.6958 -0.5952 -0.0162
 3355SOL    HW221699   2.946   2.371   0.810  0.5204 -0.7533  2.0253
 3356SOL     OW21700   1.484   0.362   7.498  0.1227  0.1878 -0.0906
 3356SOL    HW121701   1.513   0.428   7.436 -1.0896  0.4862 -0.3409
 3356SOL    HW221702   1.413   0.412   7.539  0.2959  0.8002 -0.5508
 3357SOL     OW21703   2.635   0.767   9.831 -0.5578 -0.8100 -0.0308
 3357SOL    HW121704   2.674   0.703   9.771  4.2717  1.7733  0.3227
 3357SOL    HW221705   2.712   0.785   9.885  0.5604 -0.9260 -1.5681
 3358SOL     OW21706   3.329   2.442   7.645  0.0443 -0.0289 -0.6436
 3358SOL    HW121707   3.243   2.418   7.609  0.3571  0.3230 -1.6250
 3358SOL    HW221708   3.344   2.529   7.607  0.8463 -0.4894 -1.3834
 3359SOL     OW21709   0.533   3.259   4.529  0.0468 -0.4124 -0.0183
 3359SOL    HW121710   0.596   3.208   4.477 -0.9574 -1.1243 -0.5347
 3359SOL    HW221711   0.482   3.307   4.465  0.6326 -0.4904 -0.5416
 3360SOL     OW21712   1.546   0.023   9.300 -0.0852 -0.0221 -0.5922
 3360SOL    HW121713   1.623   4.707   9.325 -0.7923 -1.9434 -2.4359
 3360SOL    HW221714   1.472   4.700   9.310  0.0882  0.1832  1.9071
 3361SOL     OW21715   2.534   0.256   8.532 -0.5474  0.2312 -0.4472
 3361SOL    HW121716   2.566   0.296   8.613 -0.9065 -0.3647 -0.0055
 3361SOL    HW221717   2.465   0.317   8.508 -1.0600 -0.3359 -0.4047
 3362SOL     OW21718   2.952   3.339  17.177 -0.0219  0.6305  0.2031
 3362SOL    HW121719   2.989   3.425  17.153 -1.0685 -0.0198 -3.7745
 3362SOL    HW221720   3.006   3.317  17.253 -0.5261 -1.8618 -0.1834
 3363SOL     OW21721   2.360   0.158  13.014 -0.6451 -0.3568  0.1401
 3363SOL    HW121722   2.427   0.206  12.965  0.0895  1.4160  2.9091
 3363SOL    HW221723   2.397   0.163  13.102  1.1769  0.9170 -0.7007
 3364SOL     OW21724   4.120   3.868   3.772  1.6408  0.3334 -0.1085
 3364SOL    HW121725   4.190   3.821   3.818  1.1262  1.2345  1.5777
 3364SOL    HW221726   4.052   3.803   3.791  1.0683  0.8937 -0.2721
 3365SOL     OW21727   1.201   3.018   0.197  0.1671  0.6520 -0.4468
 3365SOL    HW121728   1.115   3.009   0.157  0.2186  0.5300 -0.5305
 3365SOL    HW221729   1.177   3.023   0.290  0.6940 -0.5952 -0.2434
 3366SOL     OW21730   1.168   0.824   5.513  0.1292  0.4331  0.4503
 3366SOL    HW121731   1.167   0.917   5.492  1.5272  0.4316  0.3706
 3366SOL    HW221732   1.121   0.783   5.440  0.6666  2.6822 -1.1621
 3367SOL     OW21733   3.522   3.487  15.371 -0.2232  0.4920 -0.4103
 3367SOL    HW121734   3.612   3.519  15.377 -0.2851  1.0905 -2.8002
 3367SOL    HW221735   3.525   3.405  15.421  1.7455  0.5273 -0.4752
 3368SOL     OW21736   0.295   0.757   6.142 -0.2768  0.0156  0.1938
 3368SOL    HW121737   0.391   0.756   6.145 -0.2439  0.1918 -0.7582
 3368SOL    HW221738   0.282   0.729   6.233 -1.0852 -3.1583 -0.9078
 3369SOL     OW21739   1.152   2.883   8.329 -0.2617  0.2845 -0.3401
 3369SOL    HW121740   1.176   2.891   8.237  1.1926 -1.5095 -0.1262
 3369SOL    HW221741   1.059   2.906   8.334 -0.3073  0.0466 -0.0544
 3370SOL     OW21742   2.815   0.342   8.012 -0.0208  0.1388 -0.6442
 3370SOL    HW121743   2.742   0.396   8.040  0.8295  2.3731 -2.7419
 3370SOL    HW221744   2.788   0.295   7.933 -2.1544  1.0017 -0.4187
 3371SOL     OW21745   2.505   0.703   9.124  0.4143  0.5356  0.1334
 3371SOL    HW121746   2.514   0.774   9.187 -2.1331  0.7905  0.2104
 3371SOL    HW221747   2.440   0.732   9.060 -1.5043 -2.6197  0.6647
 3372SOL     OW21748   3.472   2.059   5.532 -0.0191 -0.6386 -0.3123
 3372SOL    HW121749   3.539   1.996   5.504  1.6669  0.0284  2.1456
 3372SOL    HW221750   3.527   2.119   5.583 -1.4830 -0.7459  1.3772
 3373SOL     OW21751   0.709   3.849   3.167 -0.1909  0.0700  0.1254
 3373SOL    HW121752   0.622   3.886   3.182  0.0409  1.0055 -0.8298
 3373SOL    HW221753   0.717   3.890   3.081  1.1566  4.7711  2.4637
 3374SOL     OW21754   3.331   3.071   0.522 -0.4585  0.2362 -0.1582
 3374SOL    HW121755   3.331   3.152   0.573 -0.3193  0.8326 -1.1051
 3374SOL    HW221756   3.313   3.109   0.436 -2.1482 -0.6792 -0.2050
 3375SOL     OW21757   1.905   3.953   2.644  0.3969 -0.1187 -0.0336
 3375SOL    HW121758   1.854   4.005   2.582  1.4774  1.2947  0.2686
 3375SOL    HW221759   1.915   3.869   2.599  1.8749 -0.8572  1.7057
 3376SOL     OW21760   3.765   3.172   3.224 -0.0112 -0.5124 -0.2055
 3376SOL    HW121761   3.774   3.084   3.261 -1.1662 -1.2865 -1.7338
 3376SOL    HW221762   3.841   3.208   3.269  0.0596 -3.4627  2.0402
 3377SOL     OW21763   0.208   4.148   0.598  0.1462  0.3653  0.1066
 3377SOL    HW121764   0.282   4.087   0.603 -0.0366  0.1306 -0.0174
 3377SOL    HW221765   0.212   4.173   0.505  1.1684 -1.5723 -0.3928
 3378SOL     OW21766   0.553   3.511   6.992 -0.3016 -0.2160  0.1363
 3378SOL    HW121767   0.574   3.527   7.084 -0.9950  0.9055  0.1049
 3378SOL    HW221768   0.642   3.523   6.958 -0.1533  0.0584  0.6246
 3379SOL     OW21769   1.673   1.031   9.326 -0.8423 -0.1116  0.3765
 3379SOL    HW121770   1.621   0.972   9.382 -0.1405 -1.2195 -0.1284
 3379SOL    HW221771   1.706   1.085   9.397 -1.5403  0.8086  0.0039
 3380SOL     OW21772   4.020   3.633   6.032  0.2836  0.1520  0.9316
 3380SOL    HW121773   4.075   3.673   5.964  0.4071 -3.4342 -1.0759
 3380SOL    HW221774   4.031   3.695   6.103 -0.5636  1.3375  0.0273
 3381SOL     OW21775   0.618   1.054  15.762 -0.0901  0.0995 -0.0107
 3381SOL    HW121776   0.594   0.963  15.780  2.8468 -0.8875 -0.9679
 3381SOL    HW221777   0.653   1.045  15.673  0.7374 -0.0030  0.3190
 3382SOL     OW21778   4.213   1.620   8.408 -0.5690 -0.1945 -0.4488
 3382SOL    HW121779   4.232   1.700   8.458 -0.2048  0.3363 -1.4444
 3382SOL    HW221780   4.292   1.570   8.425 -0.3918  0.3667  0.3925
 3383SOL     OW21781   2.575   4.457   0.574  0.2275  0.4134  0.0509
 3383SOL    HW121782   2.548   4.537   0.619 -1.2168  1.7403 -3.1251
 3383SOL    HW221783   2.654   4.488   0.530 -0.2278 -1.5716 -2.1576
 3384SOL     OW21784   2.891   3.576  13.911 -0.5023 -0.0677 -0.1118
 3384SOL    HW121785   2.943   3.607  13.836  1.4326 -0.8350  0.9111
 3384SOL    HW221786   2.831   3.649  13.925 -1.0961 -0.5223 -0.2662
 3385SOL     OW21787   2.917   1.457   6.091  0.1890 -0.2248  0.5101
 3385SOL    HW121788   2.827   1.490   6.082  0.6684  0.7480 -0.7858
 3385SOL    HW221789   2.961   1.476   6.008 -2.3648  2.2872 -0.2970
 3386SOL     OW21790   2.239   3.569   4.309 -0.0334  0.1068  0.4044
 3386SOL    HW121791   2.206   3.588   4.396  0.2054 -1.8949  0.9148
 3386SOL    HW221792   2.243   3.474   4.312 -0.3992  0.1052  0.7847
 3387SOL     OW21793   0.956   0.289  10.473 -0.6155  0.7598  0.1155
 3387SOL    HW121794   1.018   0.292  10.546 -4.0348  0.1444  3.0567
 3387SOL    HW221795   0.875   0.285  10.524 -0.8518 -2.5995 -0.5458
 3388SOL     OW21796   0.367   3.244   1.657 -0.0313 -0.3246  0.1407
 3388SOL    HW121797   0.367   3.209   1.746  2.9800  0.1871  0.3389
 3388SOL    HW221798   0.442   3.200   1.618  0.6191  0.7449  0.1785
 3389SOL     OW21799   2.584   4.362   3.240  0.0716  0.0415  0.2319
 3389SOL    HW121800   2.600   4.454   3.262 -1.7860  0.4507 -0.1573
 3389SOL    HW221801   2.498   4.360   3.281 -0.0208 -0.5702 -0.0030
 3390SOL     OW21802   4.668   4.670   6.066  0.0132 -0.6484  0.0359
 3390SOL    HW121803   4.641   4.710   5.983  1.1530  0.6339  0.2696
 3390SOL    HW221804   4.630   4.582   6.069 -0.5160 -0.3143  2.6525
 3391SOL     OW21805   2.122   2.152   9.079  0.3745 -0.3664 -0.5620
 3391SOL    HW121806   2.208   2.121   9.048  1.2586  0.2414  1.2818
 3391SOL    HW221807   2.084   2.155   8.991  1.7100  0.5586 -1.1043
 3392SOL     OW21808   1.465   0.950   5.145 -0.3336 -0.4639  0.1791
 3392SOL    HW121809   1.541   0.988   5.100 -0.0718 -1.5693 -0.2908
 3392SOL    HW221810   1.510   0.894   5.207  0.3034  1.1447  1.1860
 3393SOL     OW21811   1.477   3.210   5.766 -0.1435  0.5362 -0.6005
 3393SOL    HW121812   1.399   3.246   5.807  0.5738  0.7171  0.5930
 3393SOL    HW221813   1.548   3.264   5.801 -0.7701 -1.6047  3.8927
 3394SOL     OW21814   4.547   1.832   0.579 -0.3165  0.4310 -0.7620
 3394SOL    HW121815   4.588   1.763   0.632  0.0538  1.0771 -0.2167
 3394SOL    HW221816   4.591   1.802   0.498 -0.6180  0.0743 -0.7946
 3395SOL     OW21817   3.254   1.278   6.048 -0.2231 -0.2873 -0.1842
 3395SOL    HW121818   3.268   1.354   5.992 -1.4830  0.3068  0.3024
 3395SOL    HW221819   3.338   1.276   6.094  0.3180 -2.1925 -1.2631
 3396SOL     OW21820   3.307   0.072   6.744 -0.2414 -0.2077 -0.4536
 3396SOL    HW121821   3.330   0.055   6.836 -0.8098  1.5151  0.0165
 3396SOL    HW221822   3.223   0.117   6.759 -0.3084 -0.4031 -0.2469
 3397SOL     OW21823   4.147   3.606   3.592  0.5017  0.2967 -0.6202
 3397SOL    HW121824   4.069   3.660   3.606 -0.9549 -2.5607  2.3855
 3397SOL    HW221825   4.220   3.664   3.613 -0.1144  0.4835  1.0268
 3398SOL     OW21826   0.953   2.327  10.386 -0.1590  0.1832  0.0297
 3398SOL    HW121827   1.010   2.359  10.456  1.1154  0.5328 -1.1615
 3398SOL    HW221828   0.932   2.409  10.343  0.7342 -0.0193 -0.7894
 3399SOL     OW21829   4.197   1.340   4.653 -0.0081  0.5477  0.5153
 3399SOL    HW121830   4.196   1.388   4.735 -2.7835  1.1862  0.0788
 3399SOL    HW221831   4.109   1.346   4.618  0.3774 -0.7367 -0.6982
 3400SOL     OW21832   2.131   2.789   0.623 -0.1344 -0.4922  0.1643
 3400SOL    HW121833   2.044   2.827   0.612 -0.8852 -2.3694 -0.3619
 3400SOL    HW221834   2.117   2.728   0.550 -0.6522  0.0976 -0.2309
 3401SOL     OW21835   4.319   1.444   1.679 -0.5266 -0.9921 -0.2780
 3401SOL    HW121836   4.223   1.444   1.671 -0.6969  1.4715  1.8881
 3401SOL    HW221837   4.339   1.505   1.609  0.2832  1.7955  2.3754
 3402SOL     OW21838   3.126   0.727  14.841  0.2335  0.4284 -0.6430
 3402SOL    HW121839   3.091   0.784  14.909  0.3225 -0.4489  0.1291
 3402SOL    HW221840   3.191   0.674  14.888  0.5587 -0.3128 -1.9263
 3403SOL     OW21841   0.282   1.782  16.159 -0.3466  0.8594 -0.5024
 3403SOL    HW121842   0.299   1.753  16.069  0.6959  2.1697 -0.7301
 3403SOL    HW221843   0.292   1.699  16.206 -0.5841  0.5517 -0.9925
 3404SOL     OW21844   1.494   4.205   8.227 -0.2549  0.3835 -0.0939
 3404SOL    HW121845   1.418   4.236   8.275  0.9224  0.8602  1.4580
 3404SOL    HW221846   1.550   4.283   8.227 -0.3463  0.4505  0.3535
 3405SOL     OW21847   4.367   0.262   5.762  0.4028 -0.1739 -0.2915
 3405SOL    HW121848   4.284   0.255   5.810  1.8996 -1.6290  2.1023
 3405SOL    HW221849   4.432   0.266   5.833 -0.3414 -0.9637  0.4345
 3406SOL     OW21850   2.959   3.728   7.839  0.1718 -0.1315 -0.2819
 3406SOL    HW121851   2.927   3.730   7.929 -1.4357 -2.3897 -0.8054
 3406SOL    HW221852   2.896   3.782   7.792 -2.5042 -2.1654  0.9618
 3407SOL     OW21853   2.977   1.430   7.446 -0.0733 -0.4147 -0.1883
 3407SOL    HW121854   3.031   1.509   7.446 -2.6091  1.3071  1.6605
 3407SOL    HW221855   2.907   1.447   7.509  1.1516 -0.2171  1.1417
 3408SOL     OW21856   2.132   3.544   3.191 -0.1833  0.6523 -0.1227
 3408SOL    HW121857   2.198   3.499   3.245 -1.4664 -2.2543 -0.9570
 3408SOL    HW221858   2.068   3.556   3.261 -0.5639  0.9027 -0.5154
 3409SOL     OW21859   0.527   3.670  12.152 -0.0986  0.3488  0.8580
 3409SOL    HW121860   0.489   3.754  12.128 -0.4643 -0.8557 -2.7867
 3409SOL    HW221861   0.454   3.627  12.196 -0.1000  0.0574  0.5741
 3410SOL     OW21862   3.786   1.736   8.368 -0.3052  0.2378  0.5198
 3410SOL    HW121863   3.719   1.725   8.435 -0.4391 -0.2180  0.3080
 3410SOL    HW221864   3.843   1.665   8.395 -0.2499  0.5679  1.2566
 3411SOL     OW21865   0.257   0.306  17.117  0.2956 -0.0790  0.4737
 3411SOL    HW121866   0.192   0.283  17.183  0.3594 -1.3398  0.0954
 3411SOL    HW221867   0.335   0.284  17.168 -0.2271 -0.5243  1.0778
 3412SOL     OW21868   2.626   0.286  17.373 -0.1982  0.1728 -0.3998
 3412SOL    HW121869   2.665   0.247  17.451 -2.2534 -0.4478  0.3003
 3412SOL    HW221870   2.615   0.377  17.400  2.3299  0.3462  0.0196
 3413SOL     OW21871   1.876   0.170   8.066  0.0212 -0.1158  0.1353
 3413SOL    HW121872   1.855   0.087   8.025 -1.4229  0.3637 -0.0812
 3413SOL    HW221873   1.846   0.157   8.156 -1.1617  1.4411 -0.0350
 3414SOL     OW21874   0.343   3.900   3.077  0.1409 -0.4298 -0.7085
 3414SOL    HW121875   0.281   3.877   3.007 -0.6527  2.9506 -1.1346
 3414SOL    HW221876   0.381   3.814   3.093  0.1927 -0.3591 -0.4526
 3415SOL     OW21877   2.590   4.307   8.680 -0.1318  0.4880 -0.3060
 3415SOL    HW121878   2.558   4.238   8.622  0.0159  0.1384  0.0272
 3415SOL    HW221879   2.677   4.328   8.646 -0.0351 -1.0954 -1.0503
 3416SOL     OW21880   2.295   3.151   7.013 -0.2961  0.4339  0.3987
 3416SOL    HW121881   2.220   3.204   7.039 -1.0975  0.2589 -1.5933
 3416SOL    HW221882   2.363   3.160   7.080 -1.4958 -1.0304  1.8001
 3417SOL     OW21883   0.792   2.393  13.836  0.0470 -0.0107 -0.0352
 3417SOL    HW121884   0.887   2.396  13.830 -0.0419  0.7715 -1.0686
 3417SOL    HW221885   0.778   2.373  13.743  0.6939 -0.8800  0.0563
 3418SOL     OW21886   1.095   2.216  14.245  0.1509  0.4492  0.1002
 3418SOL    HW121887   1.014   2.170  14.269 -0.0768  0.1980 -1.1568
 3418SOL    HW221888   1.136   2.143  14.200  1.7140  2.9050 -2.3972
 3419SOL     OW21889   0.728   4.330  15.826 -0.3024 -0.7388 -0.1929
 3419SOL    HW121890   0.641   4.339  15.863 -0.0247  3.1182 -0.4750
 3419SOL    HW221891   0.752   4.423  15.821  0.6139 -1.0984 -2.5213
 3420SOL     OW21892   3.342   3.263   3.159  0.1500 -0.5268 -0.5134
 3420SOL    HW121893   3.317   3.229   3.245  0.0579 -0.3936 -0.4867
 3420SOL    HW221894   3.357   3.354   3.186  0.1552 -0.1090 -1.9221
 3421SOL     OW21895   0.049   1.201   3.474 -0.0135  0.1940  0.2069
 3421SOL    HW121896   0.065   1.203   3.569 -5.4379  2.0746  1.0883
 3421SOL    HW221897   0.047   1.105   3.467  0.7442  0.3435 -1.8590
 3422SOL     OW21898   2.474   4.163   5.967  0.7523 -0.4780 -0.6685
 3422SOL    HW121899   2.379   4.168   5.982  0.9895  1.9297 -0.0001
 3422SOL    HW221900   2.499   4.153   6.058  1.2645  0.6146 -0.6901
 3423SOL     OW21901   2.965   3.062   5.236 -0.5116 -0.3916 -0.2041
 3423SOL    HW121902   2.985   3.155   5.241  0.2046 -0.3980 -3.0688
 3423SOL    HW221903   2.884   3.050   5.285 -2.4070 -1.2227 -3.5026
 3424SOL     OW21904   4.716   1.200   2.763  0.2292 -0.0677 -0.4556
 3424SOL    HW121905   0.026   1.283   2.769  0.0739 -0.1974  2.3047
 3424SOL    HW221906   0.048   1.144   2.726  0.5385  1.1945 -1.7952
 3425SOL     OW21907   1.220   3.796   5.841 -0.9424 -0.7883 -0.3100
 3425SOL    HW121908   1.301   3.804   5.891 -0.2294 -0.4048 -1.5498
 3425SOL    HW221909   1.192   3.707   5.860 -0.2800 -0.5736  1.6893
 3426SOL     OW21910   1.954   1.855   4.665 -0.1729  0.4145 -0.6638
 3426SOL    HW121911   1.935   1.944   4.695  1.5323 -0.2673  2.4039
 3426SOL    HW221912   2.037   1.863   4.618 -0.0663  2.6721 -0.0879
 3427SOL     OW21913   4.660   0.274   4.060 -0.2429  0.0405  0.3004
 3427SOL    HW121914   4.711   0.231   4.129  1.4248 -2.2927 -2.3458
 3427SOL    HW221915   4.602   0.203   4.031  0.6048  0.0076 -1.3109
 3428SOL     OW21916   4.386   4.467   2.634  0.2023 -0.5472 -0.0017
 3428SOL    HW121917   4.357   4.465   2.543 -1.3020 -1.0915  0.4850
 3428SOL    HW221918   4.370   4.375   2.657 -1.6911  0.6285  3.4011
 3429SOL     OW21919   0.420   0.646   0.698 -0.2715 -0.1296  0.1664
 3429SOL    HW121920   0.373   0.577   0.652 -0.5180  0.4640 -0.4907
 3429SOL    HW221921   0.384   0.720   0.648  1.4217  0.1337 -0.6721
 3430SOL     OW21922   2.767   0.812   6.468 -0.5818 -0.0712 -0.0360
 3430SOL    HW121923   2.718   0.842   6.545 -0.5222 -1.3213  0.4987
 3430SOL    HW221924   2.853   0.850   6.485 -0.2911 -1.1218  0.8883
 3431SOL     OW21925   2.527   3.542  12.057 -0.4740 -0.4362 -0.6331
 3431SOL    HW121926   2.600   3.550  11.996  1.4924 -2.3126  1.4889
 3431SOL    HW221927   2.500   3.451  12.045 -3.2669  0.5272 -1.6287
 3432SOL     OW21928   1.522   0.323   5.754  0.9676 -0.1514  0.0969
 3432SOL    HW121929   1.549   0.305   5.844  0.7741  1.5286  0.5075
 3432SOL    HW221930   1.456   0.255   5.742  0.1441  0.6316  0.1872
 3433SOL     OW21931   1.295   0.364   1.380 -0.2773  0.1432  0.1404
 3433SOL    HW121932   1.277   0.299   1.312  0.7076 -0.0582  0.0725
 3433SOL    HW221933   1.304   0.448   1.336  1.8393  0.1551  0.5849
 3434SOL     OW21934   3.511   1.136  16.609  0.1770 -0.1704  0.5724
 3434SOL    HW121935   3.510   1.098  16.522  0.5682 -1.0922  0.9693
 3434SOL    HW221936   3.605   1.139  16.628  0.7260  1.8188 -2.4638
 3435SOL     OW21937   3.312   1.091   9.065 -0.2210 -1.1057  0.6429
 3435SOL    HW121938   3.298   1.160   9.131  1.7026 -1.1008  1.0429
 3435SOL    HW221939   3.401   1.066   9.089  0.3604 -0.2341 -0.5833
 3436SOL     OW21940   2.614   4.473  17.640  0.1395 -0.0188 -0.2109
 3436SOL    HW121941   2.702   4.446  17.666 -1.0188 -3.4416  0.1906
 3436SOL    HW221942   2.622   4.566  17.661  0.3852 -0.4670  1.6785
 3437SOL     OW21943   2.735   4.173   9.402  0.2872  0.0561  0.0979
 3437SOL    HW121944   2.819   4.163   9.448 -0.5831 -1.3726  1.3537
 3437SOL    HW221945   2.758   4.241   9.339  0.1026  0.6271  0.6461
 3438SOL     OW21946   0.302   3.119   5.477 -1.0915  0.1463  0.2868
 3438SOL    HW121947   0.210   3.141   5.488 -1.5656 -0.4662 -2.3892
 3438SOL    HW221948   0.304   3.100   5.383 -2.5388 -1.6398  0.6360
 3439SOL     OW21949   1.809   2.994   3.654 -0.8761  0.2089  0.4507
 3439SOL    HW121950   1.718   2.995   3.626 -0.4162 -0.7396 -1.1106
 3439SOL    HW221951   1.858   3.021   3.576 -0.9819  1.7404  0.9094
 3440SOL     OW21952   3.715   3.521   2.866  0.0430  0.3386 -0.5553
 3440SOL    HW121953   3.718   3.607   2.907 -0.3950 -0.2655  0.7204
 3440SOL    HW221954   3.713   3.542   2.772 -1.0087 -1.5759 -0.9537
 3441SOL     OW21955   4.139   4.367   7.273 -0.5248 -0.1076 -0.3382
 3441SOL    HW121956   4.204   4.360   7.343 -0.1076  1.1158 -0.6020
 3441SOL    HW221957   4.196   4.397   7.202 -1.8690  0.8001 -1.0360
 3442SOL     OW21958   4.663   4.467   2.265 -0.3561 -0.8460 -0.1240
 3442SOL    HW121959   4.679   4.434   2.177 -3.0531 -0.2788 -0.8335
 3442SOL    HW221960   4.727   4.417   2.315 -0.2261 -2.8668 -2.3755
 3443SOL     OW21961   2.654   3.412   4.143 -0.4374 -0.1883 -0.4358
 3443SOL    HW121962   2.628   3.322   4.160 -2.7747  0.7851  1.1703
 3443SOL    HW221963   2.616   3.464   4.214 -3.0728 -0.0306 -1.9574
 3444SOL     OW21964   2.496   3.621  13.868 -0.1360 -0.0720  0.1055
 3444SOL    HW121965   2.411   3.624  13.825 -0.1800  3.4209  0.4369
 3444SOL    HW221966   2.550   3.654  13.796  0.3095 -0.0740  0.4375
 3445SOL     OW21967   0.331   3.401   0.065  0.0279 -0.1501  0.0699
 3445SOL    HW121968   0.367   3.361  17.729  3.3897  1.9857  0.5591
 3445SOL    HW221969   0.352   3.494   0.058  0.4970 -0.5516 -3.8467
 3446SOL     OW21970   0.227   1.362   9.230  0.0746  0.0398 -0.8022
 3446SOL    HW121971   0.239   1.308   9.308  0.0660 -0.2277 -0.9890
 3446SOL    HW221972   0.133   1.350   9.218  0.1750  0.9387 -2.4767
 3447SOL     OW21973   0.337   0.200   7.534 -0.0192  0.0790 -0.8156
 3447SOL    HW121974   0.289   0.172   7.457 -2.5484  1.9941  0.0433
 3447SOL    HW221975   0.329   0.295   7.539  0.1514  0.0246  0.5874
 3448SOL     OW21976   3.124   4.220   1.864 -0.4870  0.3382  0.1113
 3448SOL    HW121977   3.171   4.164   1.802 -0.0799 -1.5961  2.1673
 3448SOL    HW221978   3.192   4.282   1.893 -0.2874  0.7906 -1.3372
 3449SOL     OW21979   2.044   0.212   2.978 -0.4142  0.2592  0.1222
 3449SOL    HW121980   2.090   0.284   3.020  1.0468 -0.0517 -0.9397
 3449SOL    HW221981   2.102   0.190   2.905  1.3238  1.3266  1.1944
 3450SOL     OW21982   3.595   4.007   8.924 -0.3893 -0.3110  0.4536
 3450SOL    HW121983   3.660   4.060   8.878 -1.3409  0.5696  0.1254
 3450SOL    HW221984   3.635   3.982   9.007  1.2683  0.0666 -0.2478
 3451SOL     OW21985   1.168   2.853   2.041 -0.0267 -0.5109  0.4746
 3451SOL    HW121986   1.153   2.904   1.962 -0.4473  0.8818  1.4565
 3451SOL    HW221987   1.237   2.907   2.079  0.3849 -0.6228 -0.1067
 3452SOL     OW21988   4.070   3.576   4.384 -0.1335 -0.6133  0.5279
 3452SOL    HW121989   4.156   3.546   4.355  0.5789  0.1705  1.8255
 3452SOL    HW221990   4.090   3.658   4.430  1.9948 -1.0384  0.3673
 3453SOL     OW21991   2.695   3.022   1.951  0.4231 -0.4383  0.2874
 3453SOL    HW121992   2.770   2.997   2.005  1.4571 -0.2670 -1.0592
 3453SOL    HW221993   2.658   3.088   2.009 -1.1689  0.3736 -1.6349
 3454SOL     OW21994   3.945   4.354   4.770 -0.0940  0.1522 -0.0123
 3454SOL    HW121995   3.953   4.424   4.834 -1.0195  0.1280  0.1331
 3454SOL    HW221996   3.939   4.412   4.694  1.8848 -1.6375 -1.5466
 3455SOL     OW21997   3.098   2.841   8.717  0.1499 -0.1712 -0.2384
 3455SOL    HW121998   3.086   2.893   8.797  0.4654 -0.8165  0.2301
 3455SOL    HW221999   3.192   2.858   8.720 -0.4675  3.5730 -1.3558
 3456SOL     OW22000   3.664   4.174   4.189 -0.1469 -0.2372  0.3710
 3456SOL    HW122001   3.649   4.082   4.211  0.9898 -1.0324 -2.1094
 3456SOL    HW222002   3.626   4.218   4.264  1.9144  0.1205  1.1794
 3457SOL     OW22003   3.213   2.255   5.809 -0.5683  0.5001  0.6287
 3457SOL    HW122004   3.200   2.334   5.756  0.0300 -0.0131 -0.2700
 3457SOL    HW222005   3.189   2.188   5.746  1.5626  1.6535 -1.4074
 3458SOL     OW22006   2.905   3.015   2.111 -0.0853  0.0049 -0.2809
 3458SOL    HW122007   2.980   3.073   2.125  0.1366 -0.2924 -0.2428
 3458SOL    HW222008   2.848   3.055   2.176  0.9149  1.4236 -0.2537
 3459SOL     OW22009   0.561   0.748   7.983  0.2999  0.3467  0.0734
 3459SOL    HW122010   0.605   0.663   7.974  1.0305  0.8995 -1.4695
 3459SOL    HW222011   0.623   0.789   8.044  1.7658  1.4769 -2.1569
 3460SOL     OW22012   1.753   1.768   3.230 -0.3183 -0.2883 -0.0756
 3460SOL    HW122013   1.788   1.788   3.144 -2.5825  0.1192 -0.8988
 3460SOL    HW222014   1.825   1.800   3.284  0.4623  0.9013 -1.8307
 3461SOL     OW22015   4.479   2.826   7.108  0.3148  0.1218  0.3300
 3461SOL    HW122016   4.450   2.735   7.102  1.5221 -0.1603 -1.3323
 3461SOL    HW222017   4.481   2.821   7.203 -4.6931 -0.7846  0.3637
 3462SOL     OW22018   0.152   3.062  14.459  0.2972  0.1724 -0.2326
 3462SOL    HW122019   0.244   3.088  14.456 -0.0162  1.2546 -0.6401
 3462SOL    HW222020   0.142   3.044  14.553  1.7370  1.5359  0.1906
 3463SOL     OW22021   4.712   3.986   3.966  0.9991  0.2536 -0.1978
 3463SOL    HW122022   0.013   4.067   4.001 -2.2234  1.1721  1.0647
 3463SOL    HW222023   0.042   3.916   3.971  1.0124  0.1830 -1.3244
 3464SOL     OW22024   2.317   2.561  13.531  0.0178 -0.1947  0.2485
 3464SOL    HW122025   2.280   2.478  13.563  1.3410 -1.1026 -0.6032
 3464SOL    HW222026   2.410   2.540  13.534  0.4063  1.5021  0.2372
 3465SOL     OW22027   0.676   3.573   1.931  0.9220 -0.8211 -0.0662
 3465SOL    HW122028   0.603   3.633   1.950  1.0187 -0.3692 -1.1768
 3465SOL    HW222029   0.626   3.494   1.909 -0.9798  0.4798 -0.3800
 3466SOL     OW22030   3.508   0.299   2.519  0.3623 -0.6871 -0.2447
 3466SOL    HW122031   3.571   0.233   2.489 -0.3468 -0.9140 -1.2516
 3466SOL    HW222032   3.564   0.327   2.591  1.0654 -0.4788 -0.8789
 3467SOL     OW22033   0.216   1.304   7.643  0.6180  0.5172 -0.0820
 3467SOL    HW122034   0.205   1.298   7.548 -2.9522 -0.0728  0.3631
 3467SOL    HW222035   0.292   1.360   7.662 -0.8770  3.1789 -1.9281
 3468SOL     OW22036   0.795   2.714  12.119  0.4291 -0.0451  0.5371
 3468SOL    HW122037   0.890   2.721  12.117  0.4738 -0.4201  1.1914
 3468SOL    HW222038   0.765   2.793  12.074 -0.5518 -0.6599  0.1101
 3469SOL     OW22039   2.627   4.490   3.801  0.0398 -0.3987 -0.3944
 3469SOL    HW122040   2.559   4.468   3.865 -0.3605  0.9176 -0.3527
 3469SOL    HW222041   2.593   4.448   3.722 -0.3381  0.3002 -0.6054
 3470SOL     OW22042   1.086   4.243  14.311  0.0160 -0.2610 -0.1171
 3470SOL    HW122043   1.065   4.334  14.290  0.0530 -0.1169  0.4761
 3470SOL    HW222044   1.055   4.200  14.231  2.0057 -0.1697 -0.9434
 3471SOL     OW22045   1.448   2.574   5.461  0.6034 -0.0417  0.9076
 3471SOL    HW122046   1.374   2.545   5.515  0.5813  0.2571  1.0349
 3471SOL    HW222047   1.454   2.489   5.416  2.2337  0.5140  0.0759
 3472SOL     OW22048   0.249   4.431   6.769  0.2132 -0.1149  0.1687
 3472SOL    HW122049   0.335   4.471   6.759  0.0366  0.3405  0.4731
 3472SOL    HW222050   0.249   4.391   6.682 -0.4531 -0.6724  0.4239
 3473SOL     OW22051   1.638   0.300  13.204  0.7346  0.0037 -0.0941
 3473SOL    HW122052   1.611   0.211  13.183 -0.0228 -0.1451  1.5167
 3473SOL    HW222053   1.718   0.300  13.152  2.5799 -2.3637  2.7604
 3474SOL     OW22054   3.648   4.150   1.783 -0.2838 -0.3962  0.1822
 3474SOL    HW122055   3.600   4.070   1.805  0.6371 -0.9734  0.0875
 3474SOL    HW222056   3.671   4.127   1.693  1.6795  1.6104  0.1746
 3475SOL     OW22057   4.324   2.920   4.444 -0.5424 -0.8571  0.3899
 3475SOL    HW122058   4.241   2.965   4.432 -0.3196 -0.2148  1.3178
 3475SOL    HW222059   4.295   2.829   4.448 -0.5209 -0.8874 -0.1093
 3476SOL     OW22060   4.691   2.300  12.836 -0.3486  0.2384  0.2277
 3476SOL    HW122061   4.713   2.208  12.823  1.9132  0.6795  0.9791
 3476SOL    HW222062   4.664   2.311  12.745 -1.9762  0.3494  0.7269
 3477SOL     OW22063   2.596   0.573   6.906  0.2010  0.3136  0.1782
 3477SOL    HW122064   2.622   0.510   6.973  0.4862 -0.2447 -0.4509
 3477SOL    HW222065   2.680   0.593   6.864  0.4433 -1.4944 -0.2192
 3478SOL     OW22066   0.419   3.324   1.261  0.0635  0.1980 -0.6518
 3478SOL    HW122067   0.363   3.402   1.261  0.1974  0.2934 -0.5494
 3478SOL    HW222068   0.503   3.360   1.232 -0.2286  0.9794 -0.5364
 3479SOL     OW22069   2.468   0.065   5.577  0.1316  0.1362 -0.4965
 3479SOL    HW122070   2.471   0.053   5.672  2.0419  0.1718 -0.5661
 3479SOL    HW222071   2.398   0.130   5.567 -1.7273 -1.5042  2.0111
 3480SOL     OW22072   1.683   4.582  11.659 -0.6019  1.2265 -0.7665
 3480SOL    HW122073   1.670   4.488  11.669 -0.1668  1.3816  1.3317
 3480SOL    HW222074   1.645   4.622  11.738 -1.1356  0.5622 -0.6922
 3481SOL     OW22075   2.429   2.663   8.171  0.1057  0.6363 -0.5262
 3481SOL    HW122076   2.461   2.592   8.115 -3.4388 -0.7793 -0.7715
 3481SOL    HW222077   2.512   2.709   8.183  0.6995 -0.2576 -1.2061
 3482SOL     OW22078   3.210   3.423   7.622 -0.4779  0.2274  0.0508
 3482SOL    HW122079   3.220   3.445   7.529  1.6195 -1.3821 -0.1156
 3482SOL    HW222080   3.277   3.470   7.670 -1.6699 -0.3770  2.2853
 3483SOL     OW22081   0.244   4.698   4.299  0.1217 -0.2306  1.0223
 3483SOL    HW122082   0.212   4.657   4.218  2.2984 -0.2583  0.1704
 3483SOL    HW222083   0.188   0.040   4.298  0.7278  0.2080  0.8319
 3484SOL     OW22084   0.423   1.875   1.918  0.0984  0.6845 -0.3529
 3484SOL    HW122085   0.368   1.797   1.911 -0.0586  0.7340  0.3467
 3484SOL    HW222086   0.451   1.872   1.827  0.5514 -0.6279 -0.1618
 3485SOL     OW22087   3.173   4.502  13.253 -0.5115 -0.0303  0.7237
 3485SOL    HW122088   3.237   4.460  13.196 -1.7331  0.3695 -0.9301
 3485SOL    HW222089   3.174   4.591  13.219 -1.4810  0.2465  1.4299
 3486SOL     OW22090   0.804   0.818  11.798  0.5450  0.3804 -1.0952
 3486SOL    HW122091   0.753   0.845  11.722  0.2960  0.3408 -0.9430
 3486SOL    HW222092   0.803   0.901  11.844  1.5154 -0.4295  0.3935
 3487SOL     OW22093   4.018   2.336   5.854  0.1454 -0.2140 -0.1872
 3487SOL    HW122094   4.025   2.294   5.940  2.0858  0.0588 -0.2264
 3487SOL    HW222095   3.924   2.348   5.837 -0.2929 -2.8339  0.4301
 3488SOL     OW22096   2.511   0.834  11.388 -0.1126 -0.1773 -0.5547
 3488SOL    HW122097   2.455   0.909  11.407  0.9677  0.0459  1.8124
 3488SOL    HW222098   2.549   0.868  11.307 -0.2411  0.0204 -0.5300
 3489SOL     OW22099   3.657   3.608   6.410  0.4292  0.0950  0.1045
 3489SOL    HW122100   3.686   3.553   6.337  1.8767 -0.5297  1.1420
 3489SOL    HW222101   3.563   3.591   6.400  0.3202  0.4439  0.5213
 3490SOL     OW22102   0.921   1.023   3.597 -0.0034  0.1105 -0.5503
 3490SOL    HW122103   1.004   1.030   3.549 -0.4819  1.8211 -1.1277
 3490SOL    HW222104   0.934   0.946   3.652 -1.6186 -0.0341 -0.3713
 3491SOL     OW22105   2.982   2.088  16.290  0.1893  0.1768  0.1143
 3491SOL    HW122106   3.031   2.145  16.349  1.4750  1.2374 -1.9819
 3491SOL    HW222107   3.015   2.000  16.307  2.2165  0.9691  0.2748
 3492SOL     OW22108   1.981   4.622  11.901 -0.2227 -0.6093  0.0526
 3492SOL    HW122109   2.064   4.648  11.941  0.5402 -2.6783 -0.1927
 3492SOL    HW222110   1.948   4.564  11.969  1.7731  0.6503  2.0690
 3493SOL     OW22111   2.135   3.999  10.133  0.0700  0.6120  0.4784
 3493SOL    HW122112   2.063   3.957  10.086 -1.3128  3.5906 -0.0632
 3493SOL    HW222113   2.209   3.946  10.104  0.0119  1.7343 -1.7352
 3494SOL     OW22114   3.560   0.237   9.342  0.1485  0.1068 -0.2641
 3494SOL    HW122115   3.611   0.316   9.326 -0.4105  0.3678 -0.7803
 3494SOL    HW222116   3.624   0.172   9.313 -0.4399 -1.5742  2.3064
 3495SOL     OW22117   4.307   1.473   7.067  0.3563 -0.0441 -0.7808
 3495SOL    HW122118   4.379   1.412   7.048  1.5782  0.8932  0.8270
 3495SOL    HW222119   4.319   1.531   6.992  0.8354  2.0680  0.9559
 3496SOL     OW22120   1.888   1.356   0.613 -0.6193  0.5565  0.2828
 3496SOL    HW122121   1.828   1.400   0.554 -1.0752 -0.3495  0.0769
 3496SOL    HW222122   1.946   1.432   0.629  0.8324 -0.7061  1.0446
 3497SOL     OW22123   1.055   4.120  17.441 -0.1859  0.0536  0.1429
 3497SOL    HW122124   1.129   4.062  17.424  0.3507  0.3266  1.5830
 3497SOL    HW222125   1.043   4.163  17.356 -0.7974  0.9497  0.6805
 3498SOL     OW22126   3.067   2.122   6.679  0.5710  0.2869  0.0502
 3498SOL    HW122127   3.032   2.209   6.696  2.2178  0.4250  2.7512
 3498SOL    HW222128   3.017   2.104   6.599  1.2129  1.7194 -0.6926
 3499SOL     OW22129   4.161   0.741   2.928 -0.4610  0.0476  0.1537
 3499SOL    HW122130   4.104   0.666   2.948 -0.0873 -0.0266  0.9624
 3499SOL    HW222131   4.191   0.761   3.017  1.7166  1.6898 -0.9604
 3500SOL     OW22132   2.471   0.201   3.059  0.2456  0.1514  0.3796
 3500SOL    HW122133   2.521   0.197   3.140 -0.5174 -1.2750  0.7857
 3500SOL    HW222134   2.537   0.152   3.009 -0.6962 -0.3972 -0.3429
 3501SOL     OW22135   0.039   2.868   5.542 -0.1944 -0.3680  0.0146
 3501SOL    HW122136   0.029   2.897   5.451  1.4543  1.0200  0.2787
 3501SOL    HW222137   0.091   2.942   5.572  1.3707 -1.5537  0.2126
 3502SOL     OW22138   2.788   2.823  12.867  0.4356  0.1453 -0.3423
 3502SOL    HW122139   2.846   2.757  12.904 -0.1810  0.2519  0.7923
 3502SOL    HW222140   2.836   2.844  12.786  0.4735  0.3667 -0.2612
 3503SOL     OW22141   3.732   3.694   2.032  0.1114  0.3884 -0.3392
 3503SOL    HW122142   3.726   3.625   2.099  1.4803 -0.6569 -1.2902
 3503SOL    HW222143   3.665   3.665   1.970  1.5664 -1.1604 -1.2020
 3504SOL     OW22144   1.685   3.103   0.828  0.2440  0.6061 -0.5261
 3504SOL    HW122145   1.717   3.014   0.815 -0.3902  0.3800 -0.4934
 3504SOL    HW222146   1.620   3.087   0.897  0.8749  0.3977  0.0266
 3505SOL     OW22147   0.484   4.130   3.166 -0.8809  0.5542 -0.1819
 3505SOL    HW122148   0.518   4.106   3.252 -1.4190 -1.9496 -0.6606
 3505SOL    HW222149   0.436   4.053   3.135 -1.7543  0.2090  2.0504
 3506SOL     OW22150   2.949   4.301  11.749 -0.1570 -0.0718 -0.3504
 3506SOL    HW122151   2.858   4.270  11.750  0.0538 -0.5088  2.6527
 3506SOL    HW222152   3.000   4.237  11.798 -0.9782 -1.4239 -1.2284
 3507SOL     OW22153   1.343   1.314   8.215  0.7674 -0.4735  0.1156
 3507SOL    HW122154   1.388   1.250   8.269 -1.8173 -1.8978  0.5899
 3507SOL    HW222155   1.254   1.279   8.221  1.2979 -1.6156  1.0519
 3508SOL     OW22156   1.261   0.611   9.834 -0.1446 -0.3984 -0.5697
 3508SOL    HW122157   1.273   0.568   9.919  0.1831  1.4194  0.3245
 3508SOL    HW222158   1.252   0.703   9.861  2.5753  0.1193 -1.4437
 3509SOL     OW22159   0.877   2.977   8.473 -0.1183 -0.2309 -0.0652
 3509SOL    HW122160   0.842   2.957   8.386  0.1636 -1.4428  0.0986
 3509SOL    HW222161   0.796   2.999   8.518  1.2668  0.2294  2.1834
 3510SOL     OW22162   4.116   2.861  14.942 -0.3484  0.2742 -0.2260
 3510SOL    HW122163   4.042   2.882  14.885  0.9041 -0.5063 -2.1277
 3510SOL    HW222164   4.188   2.870  14.880  0.1981 -0.1335  0.3454
 3511SOL     OW22165   0.260   3.051   4.719 -0.5668  0.0500  0.3387
 3511SOL    HW122166   0.265   2.958   4.736  1.8286 -0.0793 -0.9708
 3511SOL    HW222167   0.165   3.058   4.726 -0.4680  0.2835  1.4077
 3512SOL     OW22168   1.228   1.861  15.784 -0.4290 -0.0676 -0.0216
 3512SOL    HW122169   1.213   1.787  15.842 -1.3133  0.5512  0.5256
 3512SOL    HW222170   1.140   1.889  15.758  1.8375  5.0066 -2.2522
 3513SOL     OW22171   2.297   0.691   5.826  0.2560 -0.7624  0.1557
 3513SOL    HW122172   2.351   0.615   5.844 -1.3849 -2.1109 -0.6094
 3513SOL    HW222173   2.358   0.765   5.828 -1.6166  0.8444 -2.0890
 3514SOL     OW22174   1.815   1.266   5.556 -0.0027  0.2162  0.1224
 3514SOL    HW122175   1.728   1.231   5.537 -0.0920  1.5945 -2.0267
 3514SOL    HW222176   1.807   1.326   5.630 -0.4311 -0.2208  0.4265
 3515SOL     OW22177   1.773   3.240   6.575 -0.3663 -0.1887 -0.8239
 3515SOL    HW122178   1.747   3.160   6.529 -2.8285  0.2781 -0.2482
 3515SOL    HW222179   1.803   3.203   6.658 -1.4212 -2.7453 -1.5695
 3516SOL     OW22180   0.200   2.971   0.064  0.5005  0.6369  0.1084
 3516SOL    HW122181   0.269   3.024   0.103  2.3754 -0.7998 -1.2898
 3516SOL    HW222182   0.157   3.033   0.005 -0.1598  0.8665  0.8292
 3517SOL     OW22183   3.968   2.304  17.702 -0.2902  0.1842  0.5387
 3517SOL    HW122184   3.925   2.284  17.619 -1.7979  1.2836  1.0542
 3517SOL    HW222185   4.040   2.241  17.697  0.6386  1.4029 -1.5133
 3518SOL     OW22186   2.494   0.692   7.799 -0.2857 -0.7178  0.4043
 3518SOL    HW122187   2.518   0.603   7.824  0.5518 -0.9536 -1.2259
 3518SOL    HW222188   2.573   0.747   7.798 -0.6530 -0.2791 -2.5050
 3519SOL     OW22189   0.243   0.670   4.069  0.0238 -0.6743 -0.2490
 3519SOL    HW122190   0.221   0.737   4.004  0.4113 -1.1307 -0.8482
 3519SOL    HW222191   0.188   0.596   4.043  1.0741 -1.1612 -1.0718
 3520SOL     OW22192   3.872   3.776  14.840  0.0452  0.0291 -0.3535
 3520SOL    HW122193   3.926   3.744  14.767 -2.0044 -1.8524 -1.0425
 3520SOL    HW222194   3.931   3.842  14.876 -3.3021  1.7802  1.8390
 3521SOL     OW22195   2.138   1.352  10.629 -0.0297 -0.3119 -0.4706
 3521SOL    HW122196   2.111   1.261  10.641 -0.5544 -0.0982 -0.0453
 3521SOL    HW222197   2.227   1.334  10.658 -0.0827  0.3006  0.0853
 3522SOL     OW22198   1.296   3.899  16.209  0.2698  0.3707 -0.0649
 3522SOL    HW122199   1.214   3.900  16.160 -1.1478  2.9816  2.3934
 3522SOL    HW222200   1.294   3.986  16.247 -2.4591  0.3298 -0.1497
 3523SOL     OW22201   3.420   2.461   5.161 -0.3973 -0.7391 -0.0461
 3523SOL    HW122202   3.411   2.445   5.255  1.1932 -0.1758  0.2017
 3523SOL    HW222203   3.327   2.450   5.143 -0.0848 -1.1869 -1.3815
 3524SOL     OW22204   4.011   3.139   3.408  0.6329  0.0248 -0.8579
 3524SOL    HW122205   4.068   3.086   3.463 -0.2363  1.0014  0.9595
 3524SOL    HW222206   4.017   3.221   3.455  1.2506 -2.2643  3.0300
 3525SOL     OW22207   4.705   4.393   0.054  0.0981  0.0147  0.2271
 3525SOL    HW122208   4.680   4.336  17.724  2.0825 -2.3283  1.3623
 3525SOL    HW222209   0.054   4.351   0.062  0.5490  1.3936  2.5540
 3526SOL     OW22210   1.029   4.126   5.060 -0.3800 -0.4870  0.0922
 3526SOL    HW122211   0.978   4.208   5.063  2.0708  1.1126 -1.9434
 3526SOL    HW222212   1.032   4.107   4.966 -2.5225 -0.9449  0.1187
 3527SOL     OW22213   2.585   2.483   5.729 -0.4212 -0.0937 -0.6666
 3527SOL    HW122214   2.572   2.554   5.666 -1.7706  0.2641 -0.0041
 3527SOL    HW222215   2.678   2.469   5.742 -0.3922  0.6577 -0.0270
 3528SOL     OW22216   1.237   1.698  15.295  0.0737  0.7762  0.0757
 3528SOL    HW122217   1.278   1.718  15.379 -0.6832  0.1717  0.5932
 3528SOL    HW222218   1.240   1.782  15.249  0.2222  0.5501 -0.3242
 3529SOL     OW22219   3.876   0.132   8.266 -0.0972  0.3353 -0.0669
 3529SOL    HW122220   3.945   0.114   8.330  0.1352 -1.4049 -0.8089
 3529SOL    HW222221   3.943   0.131   8.198  0.7207 -0.1692  0.7552
 3530SOL     OW22222   1.572   0.777  14.887 -0.3831  0.5364 -0.0423
 3530SOL    HW122223   1.552   0.829  14.810 -0.3694  0.1534 -0.3050
 3530SOL    HW222224   1.492   0.797  14.936 -0.5000  0.0294 -0.0256
 3531SOL     OW22225   1.134   1.215   5.105  0.0352  0.2687  0.1593
 3531SOL    HW122226   1.194   1.288   5.120  0.5490 -0.4495  1.5973
 3531SOL    HW222227   1.100   1.233   5.017 -1.7852  0.6528  0.9389
 3532SOL     OW22228   3.869   3.279  11.417  0.0783 -0.4008 -0.6417
 3532SOL    HW122229   3.831   3.330  11.345  1.0823  0.0026 -0.8835
 3532SOL    HW222230   3.836   3.328  11.492  2.5592  2.0498 -1.1559
 3533SOL     OW22231   2.650   0.925   6.699  0.5390 -0.7739 -0.4919
 3533SOL    HW122232   2.629   1.009   6.659  1.2568  0.3994  1.5589
 3533SOL    HW222233   2.745   0.929   6.710  0.5732 -0.5087 -0.8993
 3534SOL     OW22234   0.607   3.334   4.093 -0.0657 -0.2264  0.5608
 3534SOL    HW122235   0.613   3.336   3.997 -1.8981  0.7892  0.4662
 3534SOL    HW222236   0.515   3.358   4.100 -0.4475 -0.9990 -1.6505
 3535SOL     OW22237   0.228   4.385  12.961 -0.3704 -0.5958 -0.0973
 3535SOL    HW122238   0.192   4.464  13.002 -1.2597 -1.8311  1.4837
 3535SOL    HW222239   0.153   4.335  12.930 -0.2808 -1.1995  0.6814
 3536SOL     OW22240   1.360   1.717   5.581 -0.6579 -0.0989 -0.4250
 3536SOL    HW122241   1.336   1.774   5.654 -0.8728 -2.3143  1.2323
 3536SOL    HW222242   1.394   1.787   5.525  1.6254  0.8490  2.1695
 3537SOL     OW22243   1.587   4.476   8.283 -0.0047 -0.4677 -0.2355
 3537SOL    HW122244   1.563   4.568   8.271 -0.3886 -0.6399 -0.8082
 3537SOL    HW222245   1.589   4.461   8.377  1.8079  1.6186  0.0788
 3538SOL     OW22246   2.066   4.259   2.564 -0.5039 -0.0574 -0.0519
 3538SOL    HW122247   2.144   4.206   2.577  0.4590  1.5918  0.9796
 3538SOL    HW222248   2.011   4.197   2.517 -1.1681 -0.4852  1.2824
 3539SOL     OW22249   2.796   3.636   3.819 -0.2357 -0.2876  0.3470
 3539SOL    HW122250   2.786   3.720   3.772 -0.9424 -0.4819  0.1532
 3539SOL    HW222251   2.735   3.646   3.892 -0.3035  0.6326  0.1677
 3540SOL     OW22252   4.567   1.253   7.415 -0.0066  0.8031 -0.4665
 3540SOL    HW122253   4.527   1.339   7.403  1.1757  1.3124 -0.6761
 3540SOL    HW222254   4.557   1.241   7.509 -1.9396  0.8826 -0.6658
 3541SOL     OW22255   2.644   0.909   7.399 -0.2080 -0.2289 -0.0487
 3541SOL    HW122256   2.695   0.961   7.338 -2.4553  1.3578 -0.5784
 3541SOL    HW222257   2.586   0.870   7.334 -0.2405  2.1132 -1.4205
 3542SOL     OW22258   0.750   0.268   3.428  0.0304 -0.4125 -0.3573
 3542SOL    HW122259   0.747   0.248   3.334  1.9152 -0.7013 -0.3662
 3542SOL    HW222260   0.790   0.354   3.418 -0.4051 -0.0455  1.0896
 3543SOL     OW22261   0.315   1.679  13.968  0.5285  0.3160  0.3411
 3543SOL    HW122262   0.379   1.695  14.038  2.0134 -0.6416 -0.8227
 3543SOL    HW222263   0.234   1.693  14.018  0.7556  1.6123  0.3523
 3544SOL     OW22264   3.682   2.906  10.105  0.5765 -0.1805  0.1085
 3544SOL    HW122265   3.606   2.859  10.140  0.1147  0.1808 -0.4057
 3544SOL    HW222266   3.681   2.992  10.145 -0.6795 -0.7795  1.3573
 3545SOL     OW22267   3.782   2.121   5.547 -0.1027 -0.1500 -0.2284
 3545SOL    HW122268   3.717   2.168   5.600 -0.1149  0.7854 -1.0877
 3545SOL    HW222269   3.852   2.186   5.556 -1.8965  1.7026  0.3398
 3546SOL     OW22270   1.440   1.219   4.321 -0.0642 -0.3571 -0.2795
 3546SOL    HW122271   1.514   1.258   4.368 -1.4024  3.1240 -1.0123
 3546SOL    HW222272   1.476   1.235   4.233 -1.0510  3.2438 -0.0380
 3547SOL     OW22273   0.891   2.463   4.751  0.3013 -0.3491 -0.0888
 3547SOL    HW122274   0.829   2.494   4.686 -0.8820  0.0528  1.2259
 3547SOL    HW222275   0.973   2.502   4.720  2.0389 -3.0043  1.1039
 3548SOL     OW22276   0.164   1.400   5.741  0.7718  0.0530  0.0419
 3548SOL    HW122277   0.104   1.331   5.712  1.8365 -0.5471 -0.7481
 3548SOL    HW222278   0.129   1.481   5.704 -2.2354 -0.2803  2.1360
 3549SOL     OW22279   4.596   4.721   2.466  0.2836  0.2461 -0.2227
 3549SOL    HW122280   4.583   4.708   2.560  0.3519  1.8975  0.0102
 3549SOL    HW222281   4.524   4.678   2.421 -0.4387 -0.3392  1.5003
 3550SOL     OW22282   1.131   3.612   8.037  0.7596  0.1115  0.1580
 3550SOL    HW122283   1.172   3.688   8.077  2.4805 -0.7703  0.1098
 3550SOL    HW222284   1.147   3.636   7.946 -0.8965  2.0635  0.3998
 3551SOL     OW22285   2.750   2.351   5.068  1.1374  0.3026 -0.7653
 3551SOL    HW122286   2.820   2.376   5.128 -0.4844  3.2160 -0.1173
 3551SOL    HW222287   2.767   2.256   5.063 -0.6396 -0.0445 -0.0839
 3552SOL     OW22288   0.459   4.679  13.604 -0.0857 -0.1841  0.4604
 3552SOL    HW122289   0.428   4.598  13.645 -0.7256 -0.2202 -0.0898
 3552SOL    HW222290   0.379   4.730  13.612 -0.2024 -0.0153 -1.7053
 3553SOL     OW22291   2.973   0.197   1.202 -0.6546 -0.4397 -0.4115
 3553SOL    HW122292   2.984   0.215   1.295  3.2814  0.6497 -1.0599
 3553SOL    HW222293   2.918   0.271   1.175 -2.0916 -1.7965 -1.1339
 3554SOL     OW22294   0.875   0.540   4.892  0.7152  0.6820  0.7734
 3554SOL    HW122295   0.825   0.545   4.974  1.9041  0.7371  1.4861
 3554SOL    HW222296   0.905   0.450   4.899  0.6646  0.5342 -1.0645
 3555SOL     OW22297   3.037   1.117  10.484  0.1049  0.3306  0.0163
 3555SOL    HW122298   2.956   1.087  10.443 -1.6090  1.3798  2.6572
 3555SOL    HW222299   3.059   1.186  10.421  1.9255 -0.8325 -0.6262
 3556SOL     OW22300   3.705   3.250   8.668  0.1413 -0.2736 -0.0806
 3556SOL    HW122301   3.637   3.284   8.725  2.3767  2.3133  1.0293
 3556SOL    HW222302   3.692   3.292   8.583  1.0996 -3.5256 -1.8586
 3557SOL     OW22303   0.349   2.103   5.659 -0.4226 -0.3227  0.0002
 3557SOL    HW122304   0.348   2.088   5.753  1.8550  0.3058  0.1022
 3557SOL    HW222305   0.327   2.196   5.668  0.7916  0.0199 -0.5868
 3558SOL     OW22306   0.242   0.979   8.644  0.7158 -0.2165  0.2613
 3558SOL    HW122307   0.189   0.998   8.721  0.3453  1.9000 -0.4856
 3558SOL    HW222308   0.328   1.004   8.677  1.5961 -2.4754 -0.3653
 3559SOL     OW22309   4.435   3.254   5.874 -0.4917  0.3567  0.1586
 3559SOL    HW122310   4.375   3.319   5.839 -0.8058  0.3579  0.6962
 3559SOL    HW222311   4.453   3.301   5.956 -0.0461  1.8642 -0.8122
 3560SOL     OW22312   1.531   2.465   4.060  0.2873  0.1291 -0.6876
 3560SOL    HW122313   1.512   2.392   4.118  1.4023  0.7508  0.4632
 3560SOL    HW222314   1.554   2.530   4.126  0.9650  0.9065 -1.6840
 3561SOL     OW22315   2.751   3.344   0.810  0.2183 -0.3614  0.2315
 3561SOL    HW122316   2.706   3.407   0.753  0.2464  0.2408  0.8757
 3561SOL    HW222317   2.754   3.270   0.748  0.3204  1.1293 -1.5465
 3562SOL     OW22318   1.007   1.875   3.692  0.6430 -0.1899 -0.3258
 3562SOL    HW122319   1.017   1.825   3.611  2.2633  0.1948 -0.3765
 3562SOL    HW222320   1.057   1.949   3.658  2.0522  0.0230  2.1714
 3563SOL     OW22321   0.811   2.518  15.310 -0.1617 -0.0661 -0.1152
 3563SOL    HW122322   0.807   2.521  15.405  0.5836 -0.4490 -0.0695
 3563SOL    HW222323   0.865   2.596  15.313  0.1582 -0.2702 -0.4737
 3564SOL     OW22324   2.754   1.814   9.364 -0.4618  0.2746 -0.0144
 3564SOL    HW122325   2.668   1.826   9.403  0.8777  0.4884  2.8505
 3564SOL    HW222326   2.772   1.908   9.358 -1.7063  0.6978  2.5727
 3565SOL     OW22327   4.140   1.916   6.758  0.3031 -0.7432 -0.0121
 3565SOL    HW122328   4.147   1.845   6.694  0.0681  0.3263 -1.2002
 3565SOL    HW222329   4.113   1.866   6.835  0.2218 -0.2537  0.2759
 3566SOL     OW22330   3.722   1.753   5.944  0.2756 -0.0714 -0.3385
 3566SOL    HW122331   3.704   1.827   6.002  1.9116 -0.3197  0.4826
 3566SOL    HW222332   3.681   1.678   5.987 -2.0961  2.6297  2.1560
 3567SOL     OW22333   3.143   1.088   7.231  1.1018 -0.0338  0.4887
 3567SOL    HW122334   3.106   1.110   7.316 -2.0887  0.9744 -1.1664
 3567SOL    HW222335   3.183   1.170   7.202  1.3672 -0.5222 -0.5346
 3568SOL     OW22336   0.896   0.519   3.403 -0.0342  0.0261 -0.6469
 3568SOL    HW122337   0.989   0.540   3.389  0.2730 -0.9410 -0.0554
 3568SOL    HW222338   0.859   0.570   3.331 -0.4351 -0.1152 -0.5420
 3569SOL     OW22339   1.515   4.548   5.241  0.3691 -0.2252  0.4241
 3569SOL    HW122340   1.531   4.547   5.147 -1.4369  1.4723  0.0966
 3569SOL    HW222341   1.447   4.481   5.250 -2.3261  2.4811  0.2973
 3570SOL     OW22342   1.924   2.096   3.942  0.0201  0.1675 -0.0578
 3570SOL    HW122343   1.967   2.026   3.893 -1.8744 -0.6750 -0.5294
 3570SOL    HW222344   1.873   2.037   3.998  1.4708 -0.5312  0.5439
 3571SOL     OW22345   0.098   2.414   3.971  0.0170 -0.0133 -0.0913
 3571SOL    HW122346   0.006   2.438   3.981  0.7695  2.3099  1.1698
 3571SOL    HW222347   0.117   2.444   3.882 -2.3859  0.9091 -0.2890
 3572SOL     OW22348   2.666   1.832   6.508  0.5715  0.1112 -0.8379
 3572SOL    HW122349   2.729   1.765   6.534 -0.7804  0.1213  2.4870
 3572SOL    HW222350   2.701   1.868   6.427 -0.9728  0.7749 -1.2147
 3573SOL     OW22351   3.035   2.388   6.956 -0.0084  0.5054 -0.1812
 3573SOL    HW122352   3.118   2.341   6.968 -0.4566 -0.5808 -1.3701
 3573SOL    HW222353   3.040   2.420   6.866 -2.2644  1.3231 -0.0073
 3574SOL     OW22354   0.607   2.029  16.335 -0.2611  0.2972  0.7445
 3574SOL    HW122355   0.517   2.049  16.310 -1.2032 -1.3134  2.9594
 3574SOL    HW222356   0.653   2.113  16.341 -2.1886  1.5148 -1.6077
 3575SOL     OW22357   1.693   0.621   3.382  0.0680  0.0998  0.4430
 3575SOL    HW122358   1.724   0.689   3.441  0.1959  0.5844 -0.1795
 3575SOL    HW222359   1.739   0.642   3.300 -1.9380  0.5832 -0.5483
 3576SOL     OW22360   1.334   0.872   9.213 -0.1087  0.0904  0.2002
 3576SOL    HW122361   1.328   0.933   9.140 -1.4476 -0.6752 -0.3237
 3576SOL    HW222362   1.300   0.929   9.282 -1.4566  0.8146 -1.0655
 3577SOL     OW22363   4.209   1.464  13.730  0.5377  0.3209  0.4259
 3577SOL    HW122364   4.181   1.400  13.664 -0.6840  0.7582  0.5289
 3577SOL    HW222365   4.303   1.481  13.720  0.6045  0.0285  0.5771
 3578SOL     OW22366   3.949   2.963   4.018  0.0278  0.7903 -0.3445
 3578SOL    HW122367   3.953   3.044   3.967  0.5458  0.4717 -0.8123
 3578SOL    HW222368   4.031   2.957   4.067 -0.9457 -0.3676  1.1384
 3579SOL     OW22369   3.174   2.562   2.216  0.2569 -0.4842  0.4738
 3579SOL    HW122370   3.238   2.536   2.150  0.2247 -0.5945  0.4854
 3579SOL    HW222371   3.123   2.632   2.176 -1.6608 -1.2916  1.5213
 3580SOL     OW22372   2.634   1.884   4.181 -0.4639 -0.1735  0.1363
 3580SOL    HW122373   2.544   1.859   4.204 -0.7198  0.8069  0.1893
 3580SOL    HW222374   2.689   1.806   4.189 -2.3192 -1.2366  2.7124
 3581SOL     OW22375   3.860   3.870   6.867  0.0120 -0.2586  0.1856
 3581SOL    HW122376   3.806   3.949   6.869  1.9317  1.0376  1.0264
 3581SOL    HW222377   3.790   3.807   6.848 -0.7319  0.2967  1.0599
 3582SOL     OW22378   2.486   2.190   1.144 -0.4167 -0.4156 -0.4602
 3582SOL    HW122379   2.522   2.266   1.190 -1.8163  1.1803 -2.0167
 3582SOL    HW222380   2.497   2.215   1.053  0.6102  1.0571  0.0710
 3583SOL     OW22381   0.881   0.958   6.742  0.1948 -0.5212  0.0050
 3583SOL    HW122382   0.799   0.921   6.710  0.8086 -2.0908  0.2691
 3583SOL    HW222383   0.895   1.033   6.685  2.7016  0.0794  1.4157
 3584SOL     OW22384   0.214   4.286  17.738 -0.2188  0.2154 -0.2102
 3584SOL    HW122385   0.302   4.279   0.033  0.5645 -1.4079 -2.3920
 3584SOL    HW222386   0.225   4.247  17.652 -3.2129  1.5722 -1.2146
 3585SOL     OW22387   3.829   0.353  16.847  0.2241 -0.2835 -0.5037
 3585SOL    HW122388   3.802   0.423  16.907  2.1561  0.2700 -0.2738
 3585SOL    HW222389   3.874   0.298  16.911  1.3472  0.4692 -0.6393
 3586SOL     OW22390   2.467   4.703   5.862  0.3969  0.1823  0.4539
 3586SOL    HW122391   2.423   0.052   5.870 -1.2772 -0.3609 -2.8100
 3586SOL    HW222392   2.434   4.656   5.938  0.1985 -0.4545 -0.0239
 3587SOL     OW22393   3.759   2.770  14.355 -0.2636  0.6158 -0.0222
 3587SOL    HW122394   3.664   2.779  14.345 -0.2507  0.1632 -0.5885
 3587SOL    HW222395   3.772   2.685  14.396 -1.3850  0.1271 -0.6660
 3588SOL     OW22396   0.916   3.965  14.282 -0.3674  0.0926 -0.0730
 3588SOL    HW122397   0.976   4.026  14.240 -0.4241  0.5231  0.4664
 3588SOL    HW222398   0.837   4.018  14.294 -0.7987 -0.8755  1.3217
 3589SOL     OW22399   0.363   0.960   7.983  0.3864  0.0569 -0.2581
 3589SOL    HW122400   0.380   1.053   7.971  1.8619  0.0549  1.7685
 3589SOL    HW222401   0.451   0.922   7.989 -0.7108 -2.1179  2.3850
 3590SOL     OW22402   1.392   4.357   2.600 -0.0912 -0.1576  0.1655
 3590SOL    HW122403   1.413   4.365   2.693  0.4154  2.2611 -0.1684
 3590SOL    HW222404   1.359   4.445   2.584  1.3735  0.4762  0.6208
 3591SOL     OW22405   0.951   3.527  12.292 -0.0746  0.4504 -0.7098
 3591SOL    HW122406   0.881   3.583  12.256 -0.0016  0.0872 -1.4203
 3591SOL    HW222407   0.898   3.497  12.365  1.8888 -1.3333 -0.0431
 3592SOL     OW22408   2.710   0.656   3.150  0.0175  0.4312 -0.2023
 3592SOL    HW122409   2.744   0.647   3.239  1.2648 -1.5425 -0.8782
 3592SOL    HW222410   2.659   0.737   3.155 -2.1075 -0.9281 -0.1212
 3593SOL     OW22411   3.078   0.590   8.651  0.1558  0.0542  0.3245
 3593SOL    HW122412   3.083   0.641   8.569 -1.3363  0.7148  0.6324
 3593SOL    HW222413   3.074   0.667   8.707 -2.5835  0.2441 -0.1028
 3594SOL     OW22414   1.699   3.291   8.837 -0.2242  0.6996  0.5102
 3594SOL    HW122415   1.615   3.324   8.803 -0.4488 -0.1341  0.2622
 3594SOL    HW222416   1.735   3.363   8.888  1.7117 -1.5433  2.2872
 3595SOL     OW22417   1.892   1.015  17.653  0.1879 -0.5042 -0.4301
 3595SOL    HW122418   1.815   0.966  17.684 -0.2604  0.2321 -0.3894
 3595SOL    HW222419   1.870   1.108  17.647 -2.7148 -1.0305  2.2116
 3596SOL     OW22420   4.109   0.972   7.085 -0.2052 -0.3860 -0.4019
 3596SOL    HW122421   4.137   1.014   7.167  1.6351 -3.1151  0.3686
 3596SOL    HW222422   4.174   1.005   7.023  1.7338 -0.5419  1.5330
 3597SOL     OW22423   4.630   1.658   7.032 -0.2871  0.8475 -0.1430
 3597SOL    HW122424   4.639   1.726   6.964  0.2177  0.2418 -0.6728
 3597SOL    HW222425   4.653   1.585   6.975 -1.0298  0.1428  0.4693
 3598SOL     OW22426   3.870   4.497   3.541  0.2007  0.4963  0.2543
 3598SOL    HW122427   3.869   4.404   3.518  2.9447 -0.0383  2.3755
 3598SOL    HW222428   3.820   4.483   3.622 -2.7596  2.7738 -1.1678
 3599SOL     OW22429   3.397   0.655   3.142  0.0190 -0.7187  0.0445
 3599SOL    HW122430   3.425   0.658   3.051 -1.6704 -0.8191 -0.4749
 3599SOL    HW222431   3.484   0.629   3.171 -0.3194 -2.0969 -0.1802
 3600SOL     OW22432   3.746   2.497  11.923 -0.4258 -0.3934 -0.5352
 3600SOL    HW122433   3.816   2.513  11.987  1.0212 -1.4938 -1.8400
 3600SOL    HW222434   3.666   2.531  11.962  1.3175 -1.1226  3.7577
 3601SOL     OW22435   0.005   0.858   2.864 -0.2745  0.6446 -0.2189
 3601SOL    HW122436   0.081   0.818   2.820  1.0917  1.7235  1.1503
 3601SOL    HW222437   4.708   0.913   2.793 -0.8699  0.4914 -0.0583
 3602SOL     OW22438   3.018   2.566  16.958 -0.0761  0.5998 -0.1337
 3602SOL    HW122439   3.016   2.494  16.895 -0.8707  2.3990 -2.2141
 3602SOL    HW222440   2.965   2.631  16.911  0.3433  0.8217 -0.3055
 3603SOL     OW22441   2.171   0.204   2.335  0.1020 -0.0531  0.8847
 3603SOL    HW122442   2.154   0.213   2.241 -0.0718 -0.1085  0.9114
 3603SOL    HW222443   2.245   0.144   2.331 -2.6643 -3.4306  0.8622
 3604SOL     OW22444   3.647   0.969   6.617 -0.0255 -0.1356 -0.1518
 3604SOL    HW122445   3.708   0.905   6.651 -1.1414 -0.4215  1.3250
 3604SOL    HW222446   3.689   0.982   6.532 -1.4847  0.6332 -0.7682
 3605SOL     OW22447   4.095   3.296   7.915 -0.2446  0.3379 -0.4561
 3605SOL    HW122448   4.143   3.353   7.854 -1.4149  1.6448 -0.1498
 3605SOL    HW222449   4.008   3.328   7.892 -0.3305  0.5289  0.1515
 3606SOL     OW22450   4.134   3.307   8.808  0.4963 -0.3313  0.5178
 3606SOL    HW122451   4.117   3.231   8.864  0.1560 -0.9492 -0.4091
 3606SOL    HW222452   4.053   3.349   8.837  0.7865 -0.0541  0.9177
 3607SOL     OW22453   1.554   3.084   8.789  0.4993  0.0519 -0.1474
 3607SOL    HW122454   1.612   3.151   8.824 -0.1155 -0.4777  1.8389
 3607SOL    HW222455   1.579   3.088   8.696  1.8622  1.8976  0.2955
 3608SOL     OW22456   4.074   2.177   4.493 -0.2792  0.6308  0.3261
 3608SOL    HW122457   4.140   2.245   4.483  1.8552 -1.5053 -0.0300
 3608SOL    HW222458   4.077   2.150   4.585  1.0924 -2.9340 -0.7819
 3609SOL     OW22459   2.209   4.667   4.961 -0.1340  0.1599  0.3452
 3609SOL    HW122460   2.140   4.724   4.926  0.3842  0.9760  0.6353
 3609SOL    HW222461   2.245   0.001   5.016  1.0510  0.7715 -1.2085
 3610SOL     OW22462   0.694   4.112   3.756 -0.1786  0.4410 -0.4150
 3610SOL    HW122463   0.712   4.191   3.705  1.1989  0.0430 -0.5541
 3610SOL    HW222464   0.772   4.096   3.809  1.4352  0.6844 -2.6926
 3611SOL     OW22465   2.294   2.046   2.809 -0.6984 -0.2556  0.6899
 3611SOL    HW122466   2.322   2.061   2.719 -0.4723 -0.6645  0.6910
 3611SOL    HW222467   2.366   2.069   2.868 -0.2847  0.2252  0.0032
 3612SOL     OW22468   2.027   0.402  11.053  0.1897  0.7063  0.4618
 3612SOL    HW122469   2.054   0.352  11.130 -2.0405 -1.3486 -0.0979
 3612SOL    HW222470   1.954   0.348  11.023 -0.9518  0.2766  3.9228
 3613SOL     OW22471   1.512   1.463   8.016  0.7140  0.2154 -0.5172
 3613SOL    HW122472   1.605   1.452   7.999  1.2754  0.0244  2.8497
 3613SOL    HW222473   1.474   1.379   8.044 -0.5987  1.6272  1.8732
 3614SOL     OW22474   2.267   2.448   3.582 -0.0522 -0.3133 -0.0402
 3614SOL    HW122475   2.225   2.531   3.560  2.0684  0.7571 -0.0775
 3614SOL    HW222476   2.267   2.451   3.677  0.9902 -0.9014 -0.0176
 3615SOL     OW22477   3.592   0.149  10.785  0.2155  0.2320  0.0592
 3615SOL    HW122478   3.653   0.083  10.816 -2.1331 -0.8168  2.4229
 3615SOL    HW222479   3.606   0.219  10.849  1.7866 -1.2222  1.3262
 3616SOL     OW22480   0.263   0.088   5.303 -0.5288 -0.0240  0.7744
 3616SOL    HW122481   0.259   4.731   5.281 -1.3086  0.0915  0.4306
 3616SOL    HW222482   0.317   0.077   5.381  0.3682  0.9546  0.2945
 3617SOL     OW22483   0.562   3.697  17.393  0.7069 -0.1444  0.4263
 3617SOL    HW122484   0.486   3.644  17.418 -1.6621  1.0102 -4.2575
 3617SOL    HW222485   0.590   3.663  17.308  1.5329 -0.3698  0.7943
 3618SOL     OW22486   2.773   3.906  14.228  0.0428  0.1233 -0.5283
 3618SOL    HW122487   2.709   3.869  14.288  0.2052  0.1327 -0.3514
 3618SOL    HW222488   2.741   3.869  14.145 -1.2093 -0.3369  0.1626
 3619SOL     OW22489   3.527   0.298   3.979  0.1958  0.1582 -0.4922
 3619SOL    HW122490   3.455   0.305   3.916  1.2536  1.4500 -1.5606
 3619SOL    HW222491   3.587   0.366   3.949 -1.1963  1.2609 -0.7716
 3620SOL     OW22492   3.220   2.582  15.669 -0.5204  0.4276 -0.8183
 3620SOL    HW122493   3.200   2.560  15.579  0.4876  1.9078 -1.4021
 3620SOL    HW222494   3.147   2.640  15.695 -1.8620 -0.4951 -2.5648
 3621SOL     OW22495   0.844   2.830   2.953 -0.1770  0.8177 -0.1407
 3621SOL    HW122496   0.812   2.796   2.869 -0.1103 -0.2364  0.2640
 3621SOL    HW222497   0.917   2.887   2.930  1.4683 -1.4017 -0.4423
 3622SOL     OW22498   0.197   1.852   3.151 -0.0924 -0.1671  0.9006
 3622SOL    HW122499   0.222   1.777   3.097  0.6739  0.3519  0.5345
 3622SOL    HW222500   0.285   1.888   3.164  0.2146 -1.1964  1.6026
 3623SOL     OW22501   1.953   2.518   1.994  0.0553 -0.0665 -0.4126
 3623SOL    HW122502   1.999   2.542   2.074 -1.2497 -1.4641  0.7610
 3623SOL    HW222503   1.955   2.422   1.998  0.8248 -0.0748 -1.1189
 3624SOL     OW22504   3.877   2.907   6.767 -0.7264  0.7987  0.1845
 3624SOL    HW122505   3.878   2.840   6.698 -0.5680  1.0032 -0.0127
 3624SOL    HW222506   3.784   2.913   6.790 -0.8820 -1.8469  0.2952
 3625SOL     OW22507   3.210   0.755  13.575  0.0018  0.0953  0.3513
 3625SOL    HW122508   3.178   0.765  13.664  1.2739 -3.5030  1.2010
 3625SOL    HW222509   3.147   0.806  13.524 -1.7586 -0.1753  2.2638
 3626SOL     OW22510   0.130   2.748   7.652  0.1708 -0.0498  0.0509
 3626SOL    HW122511   0.091   2.661   7.659 -1.2795  0.5184 -0.8838
 3626SOL    HW222512   0.208   2.755   7.706 -0.7299  1.1949  1.1879
 3627SOL     OW22513   4.473   1.888   5.165 -0.4557 -0.4883  0.3842
 3627SOL    HW122514   4.504   1.903   5.254 -1.0294  2.5682  0.0829
 3627SOL    HW222515   4.547   1.916   5.111 -0.7483  2.7509  1.6434
 3628SOL     OW22516   2.968   2.463   8.872  0.0076 -0.1049  0.2623
 3628SOL    HW122517   3.001   2.426   8.954  0.0927 -0.3023  0.1363
 3628SOL    HW222518   2.995   2.395   8.811 -2.6444 -0.2457 -0.7372
 3629SOL     OW22519   2.028   1.382   6.585 -0.2256  0.0857 -0.1785
 3629SOL    HW122520   2.020   1.292   6.551  0.8399  1.3156 -3.6913
 3629SOL    HW222521   1.942   1.415   6.609 -0.3124 -0.0138 -0.3559
 3630SOL     OW22522   4.591   4.505   8.151  0.0191  0.3505 -0.4120
 3630SOL    HW122523   4.575   4.515   8.058  2.0052  0.9518 -0.6863
 3630SOL    HW222524   4.533   4.434   8.177  0.9024 -0.7247 -1.4141
 3631SOL     OW22525   4.170   4.424   9.321  0.2548  0.1261 -0.5500
 3631SOL    HW122526   4.191   4.356   9.257 -1.2858 -0.8245 -0.0301
 3631SOL    HW222527   4.105   4.386   9.380 -0.4047  0.6359 -0.9408
 3632SOL     OW22528   4.036   2.419   8.817 -0.6424 -0.1358  0.0314
 3632SOL    HW122529   3.990   2.356   8.762 -0.7708 -0.9940  1.1204
 3632SOL    HW222530   4.076   2.362   8.882 -1.6406 -2.2409 -1.1991
 3633SOL     OW22531   3.918   1.968   8.276 -0.0732 -0.0565  0.1414
 3633SOL    HW122532   3.838   1.915   8.281 -0.1537  0.2360  1.9897
 3633SOL    HW222533   3.869   2.051   8.282  0.2980  0.0445  1.7693
 3634SOL     OW22534   2.297   2.126  16.190 -0.3677 -0.5124 -0.5615
 3634SOL    HW122535   2.349   2.159  16.117 -1.0366 -0.7082 -1.1188
 3634SOL    HW222536   2.353   2.067  16.240  0.8518  2.1453  1.2593
 3635SOL     OW22537   3.478   1.859  10.027 -0.0798  0.4522 -0.0146
 3635SOL    HW122538   3.414   1.804   9.983 -1.4518  2.3787 -0.4471
 3635SOL    HW222539   3.465   1.814  10.110  3.2117 -0.0365  0.2254
 3636SOL     OW22540   2.764   2.666   4.509  0.5576 -0.5690  0.1239
 3636SOL    HW122541   2.795   2.578   4.492  0.5666 -0.7199  0.9214
 3636SOL    HW222542   2.698   2.656   4.577 -0.9284  3.4483 -0.6667
 3637SOL     OW22543   1.699   0.525   6.088  0.8413 -0.1956  0.0164
 3637SOL    HW122544   1.776   0.470   6.103  1.0198  0.1389  0.2975
 3637SOL    HW222545   1.731   0.579   6.015  2.1522 -0.0545  0.6986
 3638SOL     OW22546   3.355   4.074   2.329  0.2774  0.2427  0.3016
 3638SOL    HW122547   3.281   4.098   2.273  0.7411 -0.6701 -0.7094
 3638SOL    HW222548   3.310   4.031   2.402  1.3780 -0.0522  0.8171
 3639SOL     OW22549   3.986   0.032   7.541 -0.3889  0.4047 -0.3972
 3639SOL    HW122550   4.000   0.126   7.524  0.5381  0.8125  2.6409
 3639SOL    HW222551   3.925   0.006   7.472 -1.3964  1.1465  0.2231
 3640SOL     OW22552   3.947   0.467   0.287  0.3606  0.0273  0.7267
 3640SOL    HW122553   4.017   0.460   0.222 -0.1400  1.1558  0.0538
 3640SOL    HW222554   3.873   0.421   0.247 -0.4451 -0.2857  2.5890
 3641SOL     OW22555   1.953   1.982   0.405 -0.2209 -0.0225 -0.1501
 3641SOL    HW122556   1.939   1.949   0.316  3.0957 -1.4638 -0.1284
 3641SOL    HW222557   1.918   2.069   0.386  1.8215  0.7683 -0.3120
 3642SOL     OW22558   1.307   0.941  14.272 -0.9397  0.2626 -0.7920
 3642SOL    HW122559   1.212   0.948  14.263 -0.8605  0.8072 -1.2185
 3642SOL    HW222560   1.325   0.851  14.244  0.8958  0.2462  0.4221
 3643SOL     OW22561   3.918   0.377   0.529 -0.1249 -0.3218 -0.2917
 3643SOL    HW122562   4.009   0.387   0.557 -0.0538 -0.3701 -0.5059
 3643SOL    HW222563   3.926   0.425   0.447  3.2830  2.6589  1.7849
 3644SOL     OW22564   2.975   3.780   2.580 -0.4017 -0.2412 -0.4469
 3644SOL    HW122565   3.066   3.796   2.556  0.6871 -2.9697  1.8440
 3644SOL    HW222566   2.994   3.755   2.671 -1.3082 -0.5724 -0.3470
 3645SOL     OW22567   4.051   0.190   6.179  0.1135 -0.5131 -0.1462
 3645SOL    HW122568   4.119   0.123   6.187  1.6652  1.2067  1.1362
 3645SOL    HW222569   4.031   0.217   6.268  0.1026 -0.5907 -0.1257
 3646SOL     OW22570   2.748   1.721  15.447  0.2198  0.0154 -0.3367
 3646SOL    HW122571   2.670   1.689  15.402  1.0125 -2.4296  0.0044
 3646SOL    HW222572   2.810   1.661  15.406  1.8669  1.6592 -0.2586
 3647SOL     OW22573   1.671   4.700  11.403 -0.3483 -0.3092  0.3475
 3647SOL    HW122574   1.672   4.628  11.466  1.6009 -0.5571  0.0493
 3647SOL    HW222575   1.616   0.026  11.451 -0.3398 -0.2111  0.2318
 3648SOL     OW22576   1.206   0.453   7.125 -0.3315 -0.7927 -0.0841
 3648SOL    HW122577   1.301   0.461   7.136 -0.6003 -0.7323  2.3134
 3648SOL    HW222578   1.168   0.537   7.151 -1.0867 -0.7986 -1.1549
 3649SOL     OW22579   2.312   2.727   3.448  0.2084 -0.6434 -0.3167
 3649SOL    HW122580   2.223   2.713   3.415 -0.0275  1.3071 -0.4949
 3649SOL    HW222581   2.315   2.822   3.441  0.6604 -0.7180 -1.2246
 3650SOL     OW22582   3.498   3.077   4.699  0.0450  0.1163  0.2100
 3650SOL    HW122583   3.531   3.154   4.746  2.9370 -0.5813 -0.6218
 3650SOL    HW222584   3.575   3.056   4.646 -0.8443 -1.4327 -0.4591
 3651SOL     OW22585   1.008   3.629   4.030  0.2096 -0.4962 -0.0784
 3651SOL    HW122586   0.949   3.559   4.056 -1.1784  0.4184 -0.7237
 3651SOL    HW222587   1.003   3.678   4.113  2.3220  0.0854 -0.2961
 3652SOL     OW22588   3.387   3.493   5.393 -0.3658 -0.0255  0.0741
 3652SOL    HW122589   3.349   3.405   5.396  0.9699 -0.5630  1.1622
 3652SOL    HW222590   3.474   3.474   5.357 -0.1832  1.3319 -0.2059
 3653SOL     OW22591   0.755   3.017  16.562 -0.1509  0.1948 -0.2743
 3653SOL    HW122592   0.717   3.057  16.641 -0.7386 -0.3094 -0.3035
 3653SOL    HW222593   0.682   3.031  16.501 -0.4478 -0.9098 -0.1754
 3654SOL     OW22594   4.652   0.997   7.793 -0.1412  0.3638  0.0831
 3654SOL    HW122595   0.005   1.022   7.768 -0.5747  0.2109 -1.6115
 3654SOL    HW222596   4.630   1.041   7.875 -0.2178  1.3076 -0.4383
 3655SOL     OW22597   1.562   2.841   4.509  0.0431 -0.5072  0.0923
 3655SOL    HW122598   1.636   2.788   4.541  1.1288  2.1144  1.9110
 3655SOL    HW222599   1.569   2.845   4.414 -0.7024 -1.4082 -0.0075
 3656SOL     OW22600   1.966   3.835   3.500 -0.7054 -0.0448 -0.0076
 3656SOL    HW122601   1.999   3.916   3.458 -0.1267 -0.6092 -0.6510
 3656SOL    HW222602   1.901   3.872   3.559 -0.0337  1.2884 -0.0839
 3657SOL     OW22603   0.033   0.874   8.439  0.5125  0.1462 -0.1822
 3657SOL    HW122604   0.002   0.958   8.407 -0.5137  0.0047  0.4466
 3657SOL    HW222605   4.702   0.849   8.503 -1.4352  1.2674 -1.8054
 3658SOL     OW22606   4.395   0.767   6.365 -0.0154  0.1859 -0.1278
 3658SOL    HW122607   4.412   0.816   6.446  0.4352 -1.3008  0.6687
 3658SOL    HW222608   4.422   0.677   6.381  0.3426  0.0130 -1.7008
 3659SOL     OW22609   0.787   0.352   7.330 -0.6768 -0.3386  0.4131
 3659SOL    HW122610   0.861   0.292   7.336  0.1272  0.6178  0.1484
 3659SOL    HW222611   0.724   0.310   7.388  0.1089 -0.7600  0.9550
 3660SOL     OW22612   0.745   2.485   9.835 -0.0649  0.2185 -0.0959
 3660SOL    HW122613   0.806   2.414   9.815  0.8261  0.8017  0.5457
 3660SOL    HW222614   0.664   2.457   9.792  0.0670 -0.5257  0.1480
 3661SOL     OW22615   0.862   4.719  14.117  0.3429 -0.4624 -0.1942
 3661SOL    HW122616   0.838   4.710  14.025 -1.7716 -0.1393  0.3418
 3661SOL    HW222617   0.805   0.053  14.147  0.2831 -1.1380  1.3063
 3662SOL     OW22618   3.786   1.778   2.261 -0.4548 -0.0837 -0.0157
 3662SOL    HW122619   3.702   1.733   2.273 -0.2713 -0.9151 -1.9276
 3662SOL    HW222620   3.837   1.717   2.207 -2.6879 -0.4894 -1.6268
 3663SOL     OW22621   0.016   1.808   2.494  0.3116 -0.1986 -0.6658
 3663SOL    HW122622   4.663   1.822   2.525  0.8283  0.6641  0.4217
 3663SOL    HW222623   0.067   1.770   2.565  1.3893 -0.8301 -1.7693
 3664SOL     OW22624   3.930   3.882   4.472 -0.2324 -0.0073 -0.0777
 3664SOL    HW122625   4.017   3.841   4.474  0.8412  2.3938  2.4991
 3664SOL    HW222626   3.950   3.974   4.459  0.3094  0.0945  1.4557
 3665SOL     OW22627   3.115   0.392   9.631 -0.2092  0.3397 -0.0887
 3665SOL    HW122628   3.093   0.370   9.722  0.3125  1.5976  0.3524
 3665SOL    HW222629   3.206   0.362   9.630  0.0145  0.9881  0.8612
 3666SOL     OW22630   1.620   3.240   2.881 -0.8181 -0.0660 -0.1564
 3666SOL    HW122631   1.698   3.190   2.859  0.7715  1.9697  0.8118
 3666SOL    HW222632   1.586   3.181   2.948  1.8038 -0.9079  0.4438
 3667SOL     OW22633   4.317   3.581  12.932  0.1417  0.0358 -0.2106
 3667SOL    HW122634   4.293   3.658  12.880 -1.1004  0.5382  1.1165
 3667SOL    HW222635   4.333   3.622  13.017 -2.7396 -0.4366  0.5501
 3668SOL     OW22636   0.113   1.942  17.326  0.4357 -1.0039  0.0980
 3668SOL    HW122637   0.191   1.941  17.381  0.4552  1.6894  0.0908
 3668SOL    HW222638   0.153   1.887  17.259 -0.2151  0.4688 -1.4984
 3669SOL     OW22639   1.214   4.132   5.287 -0.1026  0.6898  0.1881
 3669SOL    HW122640   1.162   4.211   5.302 -0.6772  0.4533 -0.5887
 3669SOL    HW222641   1.172   4.096   5.209 -0.5727 -0.9303  1.1958
 3670SOL     OW22642   4.449   1.351   5.737  0.2287  0.0505 -0.1488
 3670SOL    HW122643   4.392   1.344   5.660  0.1620 -0.1363 -0.0827
 3670SOL    HW222644   4.537   1.358   5.701 -0.7829  1.6147 -2.2916
 3671SOL     OW22645   2.229   1.769  17.127  0.2619 -0.2750  0.0259
 3671SOL    HW122646   2.230   1.705  17.055  4.5111  3.1091 -2.9618
 3671SOL    HW222647   2.310   1.818  17.115 -0.0653  0.4366  0.7691
 3672SOL     OW22648   1.018   3.191   2.315  0.2389 -0.0616 -0.6125
 3672SOL    HW122649   1.064   3.266   2.354  0.5932 -0.8734  0.5382
 3672SOL    HW222650   0.987   3.146   2.394 -0.8355 -0.2147 -1.1137
 3673SOL     OW22651   1.983   2.937  12.177 -0.6188 -0.0502 -0.2715
 3673SOL    HW122652   2.002   2.844  12.161  1.7353  0.7778 -2.1970
 3673SOL    HW222653   1.914   2.930  12.243  1.3094  2.0247  1.9377
 3674SOL     OW22654   3.635   2.801  12.250  0.5062  0.5163 -0.2420
 3674SOL    HW122655   3.656   2.846  12.169 -2.4727  2.2059 -0.0966
 3674SOL    HW222656   3.600   2.721  12.212  1.0083  1.0332 -1.7741
 3675SOL     OW22657   1.199   3.365   0.584  0.4041  0.0175 -0.2915
 3675SOL    HW122658   1.267   3.340   0.646 -0.7451 -1.8650  0.1983
 3675SOL    HW222659   1.252   3.385   0.506  2.4524 -0.6182  0.9297
 3676SOL     OW22660   2.473   3.499   0.379 -0.0273 -0.8538 -0.1518
 3676SOL    HW122661   2.517   3.417   0.403  0.5168 -0.1854  1.1411
 3676SOL    HW222662   2.476   3.478   0.285 -0.2328 -2.0838  0.1184
 3677SOL     OW22663   1.973   4.006   8.197  0.1613  0.1039 -0.1622
 3677SOL    HW122664   1.902   3.951   8.166  1.3957 -0.5957 -1.7950
 3677SOL    HW222665   1.930   4.070   8.253  1.1845 -0.2990  1.0782
 3678SOL     OW22666   3.149   4.565  10.049 -0.1491 -0.3589  0.6700
 3678SOL    HW122667   3.132   4.550   9.956  1.4266 -0.8311  0.4546
 3678SOL    HW222668   3.063   4.576  10.090  0.0986  0.2295  1.0361
 3679SOL     OW22669   4.464   4.105   0.702  0.3326 -0.4367 -0.2753
 3679SOL    HW122670   4.555   4.077   0.705  0.0684 -1.4403 -1.4644
 3679SOL    HW222671   4.460   4.127   0.609 -0.8454  0.9398  0.1057
 3680SOL     OW22672   0.161   2.233   6.175 -0.1483  0.5448 -0.3362
 3680SOL    HW122673   0.096   2.269   6.235  0.0379 -0.0758  0.2319
 3680SOL    HW222674   0.147   2.292   6.101 -0.3740 -1.4961 -1.9343
 3681SOL     OW22675   1.845   3.170   2.239 -0.1251 -0.6944  0.5042
 3681SOL    HW122676   1.859   3.093   2.294  0.5976 -0.0027  1.2908
 3681SOL    HW222677   1.792   3.230   2.293  1.1471  1.3624 -0.5121
 3682SOL     OW22678   2.936   0.269   2.171 -0.1329  0.2239  0.2817
 3682SOL    HW122679   3.020   0.289   2.129 -0.5486 -0.5407 -0.8967
 3682SOL    HW222680   2.961   0.214   2.245 -2.1407 -0.4191  0.4585
 3683SOL     OW22681   1.164   4.274   8.930  0.4475  0.1909  0.2777
 3683SOL    HW122682   1.187   4.196   8.879  1.2790 -0.0966  1.1010
 3683SOL    HW222683   1.092   4.320   8.886  2.3035  2.4344 -0.3966
 3684SOL     OW22684   3.257   0.336   6.323  0.0085  0.0514 -0.2534
 3684SOL    HW122685   3.310   0.407   6.359  1.9733 -0.9808 -1.0873
 3684SOL    HW222686   3.188   0.385   6.277 -0.6915 -0.5334  0.1751
 3685SOL     OW22687   0.438   4.018   1.913 -0.4891  0.0314 -0.5045
 3685SOL    HW122688   0.413   3.975   1.832  0.8858  0.0031 -0.9207
 3685SOL    HW222689   0.418   4.108   1.885 -1.4749 -0.2297 -0.6145
 3686SOL     OW22690   0.325   2.875   1.182  0.0893 -0.1936  0.3378
 3686SOL    HW122691   0.325   2.950   1.124  0.1488 -1.5357 -1.3969
 3686SOL    HW222692   0.320   2.927   1.263  0.1425 -0.5604  0.5786
 3687SOL     OW22693   0.991   3.338   7.873 -0.8782  0.2125  0.2050
 3687SOL    HW122694   1.066   3.325   7.815 -2.1503 -0.4243 -1.2858
 3687SOL    HW222695   1.021   3.406   7.934 -0.0194 -0.4605  0.5299
 3688SOL     OW22696   4.250   3.964   8.638  0.4628  0.0912  0.2248
 3688SOL    HW122697   4.279   3.890   8.584 -0.8265 -0.4371  0.2483
 3688SOL    HW222698   4.269   4.031   8.572  0.5160  0.9081  1.0794
 3689SOL     OW22699   1.939   1.366   9.693  0.4745  0.0420  0.1891
 3689SOL    HW122700   1.998   1.428   9.651 -0.7302  0.1562 -1.3679
 3689SOL    HW222701   1.860   1.418   9.702 -0.3835 -1.4371  1.2250
 3690SOL     OW22702   0.286   3.976  11.134  0.6919  0.2910 -0.0607
 3690SOL    HW122703   0.326   3.960  11.220  2.0288  0.8177 -0.5841
 3690SOL    HW222704   0.309   4.068  11.127 -1.0461  0.6007 -1.5349
 3691SOL     OW22705   1.631   2.976   4.935 -0.0400  0.1275  0.1781
 3691SOL    HW122706   1.562   2.957   4.871 -0.3016  0.0696  0.4823
 3691SOL    HW222707   1.683   3.035   4.880  1.0045 -1.6259 -0.6938
 3692SOL     OW22708   2.791   2.411  11.243 -0.6116 -0.2302 -0.3191
 3692SOL    HW122709   2.760   2.447  11.326 -0.6716 -2.6263  0.6885
 3692SOL    HW222710   2.799   2.491  11.191  0.4985  0.6584  1.2125
 3693SOL     OW22711   3.531   4.509  16.435  0.1997 -0.9834  0.2419
 3693SOL    HW122712   3.524   4.528  16.341  3.3301  1.6571  0.5085
 3693SOL    HW222713   3.470   4.438  16.454 -0.9108 -0.2312 -0.5009
 3694SOL     OW22714   3.305   2.399  16.768  0.3299 -0.3139  0.0258
 3694SOL    HW122715   3.355   2.478  16.744  0.1459  0.5755  2.6018
 3694SOL    HW222716   3.349   2.373  16.849  0.2908 -2.4603 -0.6543
 3695SOL     OW22717   0.663   3.153   4.292  0.3641 -0.5568  0.2533
 3695SOL    HW122718   0.634   3.208   4.219 -0.7242 -2.2948 -0.6080
 3695SOL    HW222719   0.757   3.168   4.295 -0.0923  1.9161  2.4013
 3696SOL     OW22720   3.021   1.816   3.989 -0.8932 -0.1879  0.0915
 3696SOL    HW122721   3.074   1.755   3.937  0.1370 -1.0897  2.2082
 3696SOL    HW222722   2.974   1.748   4.037 -0.5845  0.2444  0.9920
 3697SOL     OW22723   4.291   2.958   9.038  0.0851 -0.0209 -0.0420
 3697SOL    HW122724   4.238   2.959   9.118 -1.8548 -1.1661 -1.3393
 3697SOL    HW222725   4.364   3.006   9.077 -0.0682  1.0537 -1.0703
 3698SOL     OW22726   3.191   1.435   6.408  0.2744  0.1842 -0.4885
 3698SOL    HW122727   3.258   1.403   6.468 -0.7184 -2.2316 -0.6812
 3698SOL    HW222728   3.128   1.483   6.461  0.1061  0.5425 -1.0132
 3699SOL     OW22729   0.755   4.471  16.967  0.2883  0.2410  0.1488
 3699SOL    HW122730   0.690   4.541  16.975 -0.7757 -0.6751 -0.5591
 3699SOL    HW222731   0.758   4.459  16.873  1.1092  0.4603  0.1433
 3700SOL     OW22732   3.474   3.839   8.438  0.2570  0.8401  0.4428
 3700SOL    HW122733   3.391   3.863   8.480 -1.3207 -3.6100 -0.1050
 3700SOL    HW222734   3.532   3.856   8.512  0.3076 -0.8243  0.7907
 3701SOL     OW22735   4.427   0.853   4.026 -0.2925  0.5248  0.5002
 3701SOL    HW122736   4.496   0.907   3.988  1.5350 -1.4378  1.0228
 3701SOL    HW222737   4.462   0.844   4.115 -0.0223 -0.8641  0.2508
 3702SOL     OW22738   1.149   2.470  14.942 -0.4221  0.1651  0.1418
 3702SOL    HW122739   1.175   2.559  14.963 -1.3420  0.6518 -0.8196
 3702SOL    HW222740   1.196   2.455  14.860  0.4440  0.4313  0.5854
 3703SOL     OW22741   0.562   3.296   7.445  0.1865 -0.3812  0.5486
 3703SOL    HW122742   0.525   3.293   7.533 -0.1140  3.8147  0.5635
 3703SOL    HW222743   0.634   3.234   7.459 -0.1290 -1.1432 -1.2071
 3704SOL     OW22744   2.202   0.667   6.538 -0.1436  0.1196 -0.2113
 3704SOL    HW122745   2.267   0.723   6.580 -1.3020  1.2987  0.0007
 3704SOL    HW222746   2.258   0.603   6.493  1.0325  0.4812  0.7433
 3705SOL     OW22747   0.494   1.853   3.803  0.0922 -0.1205 -0.0729
 3705SOL    HW122748   0.425   1.918   3.785 -0.1673 -0.0918  1.0278
 3705SOL    HW222749   0.433   1.797   3.851  0.8386 -0.0754  0.9168
 3706SOL     OW22750   3.052   2.739   8.456 -0.1509 -0.3544  0.1119
 3706SOL    HW122751   3.093   2.771   8.536  0.9451  2.2232 -1.4579
 3706SOL    HW222752   3.001   2.668   8.495 -1.1888  0.4361  0.1939
 3707SOL     OW22753   4.093   3.040   2.524  0.5885  0.1719  0.2027
 3707SOL    HW122754   4.045   2.957   2.529 -2.9980  2.3060  0.7865
 3707SOL    HW222755   4.179   3.018   2.487 -0.4838 -0.7474 -1.7657
 3708SOL     OW22756   3.250   2.546   0.817 -0.4196  0.6131 -0.4040
 3708SOL    HW122757   3.321   2.563   0.755  1.3009 -0.8131  1.1570
 3708SOL    HW222758   3.181   2.498   0.772 -0.6692  0.0182  0.6072
 3709SOL     OW22759   4.147   4.300   8.981  0.3128 -0.1229  0.2742
 3709SOL    HW122760   4.135   4.212   9.018  0.0359 -1.8298 -3.8672
 3709SOL    HW222761   4.057   4.332   8.970  0.5027 -0.4610 -2.2053
 3710SOL     OW22762   4.314   1.081   4.740  0.1698 -0.1834 -0.6942
 3710SOL    HW122763   4.332   1.175   4.747  0.0263 -0.0718 -1.7451
 3710SOL    HW222764   4.245   1.092   4.674  0.0496 -1.4109 -0.7768
 3711SOL     OW22765   1.060   0.013   4.832  0.2085 -0.0267  0.8265
 3711SOL    HW122766   1.124   4.704   4.886  0.8612 -0.4302 -0.2792
 3711SOL    HW222767   0.997   4.680   4.811  2.2434 -2.0573  1.3948
 3712SOL     OW22768   2.889   4.640   3.040 -0.2736 -0.3565 -0.3936
 3712SOL    HW122769   2.902   4.694   2.962  2.6229 -1.1866 -0.4867
 3712SOL    HW222770   2.806   4.593   3.026  1.0469 -3.5157  2.4610
 3713SOL     OW22771   4.289   4.233  14.901 -0.2371  0.2921 -0.2625
 3713SOL    HW122772   4.223   4.234  14.831  0.9166  0.9223 -1.3381
 3713SOL    HW222773   4.242   4.295  14.958  1.2242  1.5881 -0.4709
 3714SOL     OW22774   0.407   2.075   6.959  0.2864 -0.0126  0.0216
 3714SOL    HW122775   0.440   2.164   6.964 -0.9477  0.5001 -0.9157
 3714SOL    HW222776   0.389   2.078   6.865 -1.7996  1.3859  0.4643
 3715SOL     OW22777   0.867   0.885  13.141 -0.7689 -0.0677  0.1678
 3715SOL    HW122778   0.847   0.952  13.206  0.5286 -1.4816  2.0199
 3715SOL    HW222779   0.897   0.943  13.070  0.3447  1.3731  1.8279
 3716SOL     OW22780   3.586   3.392   3.397 -0.0158  0.0373  0.6681
 3716SOL    HW122781   3.536   3.470   3.418 -1.9838 -1.0444 -0.0032
 3716SOL    HW222782   3.617   3.403   3.307 -0.1180 -1.4791  0.4453
 3717SOL     OW22783   4.511   1.963   3.011  0.1357 -0.0599 -0.1676
 3717SOL    HW122784   4.481   1.940   3.099 -0.9922 -1.0747 -0.8111
 3717SOL    HW222785   4.524   1.885   2.958 -0.8409 -0.5425  0.3048
 3718SOL     OW22786   2.456   0.725   3.429  0.2851  0.5913  0.1681
 3718SOL    HW122787   2.440   0.739   3.522 -2.1117  1.2807 -0.3323
 3718SOL    HW222788   2.364   0.723   3.400  0.5488  1.4147 -0.7063
 3719SOL     OW22789   2.196   0.108   7.035 -0.3954  0.1677  0.1294
 3719SOL    HW122790   2.271   0.066   7.077  1.4233  3.7599  0.4649
 3719SOL    HW222791   2.168   0.171   7.102  0.1452 -0.3012  0.8023
 3720SOL     OW22792   2.815   0.095   0.420  0.2635 -0.4182  0.7428
 3720SOL    HW122793   2.879   0.132   0.481 -1.8314  0.2587  2.5429
 3720SOL    HW222794   2.735   0.129   0.459  1.5136  0.5930  2.4355
 3721SOL     OW22795   3.533   4.585   6.715 -0.1199 -0.3724  0.2634
 3721SOL    HW122796   3.616   4.612   6.754  0.6201 -2.3304  0.0073
 3721SOL    HW222797   3.491   4.671   6.705 -1.4049 -0.9361  0.8204
 3722SOL     OW22798   0.354   1.370   0.711 -0.3249  0.1896  0.0200
 3722SOL    HW122799   0.445   1.343   0.727  0.6348  2.0091 -2.3048
 3722SOL    HW222800   0.353   1.459   0.745  0.9684  1.1250 -2.4038
 3723SOL     OW22801   3.845   4.055  10.332 -0.0548  0.5320 -0.5618
 3723SOL    HW122802   3.897   4.134  10.313  1.6936 -0.4865 -0.0063
 3723SOL    HW222803   3.769   4.105  10.360 -1.3261 -1.5550 -0.3049
 3724SOL     OW22804   2.637   0.344   1.417  0.6587 -0.1446 -0.3406
 3724SOL    HW122805   2.564   0.316   1.472  0.1707  2.1645  0.1909
 3724SOL    HW222806   2.594   0.399   1.351 -2.1996  1.4344  2.8214
 3725SOL     OW22807   1.373   2.985   2.145  0.1266  0.0454 -0.6889
 3725SOL    HW122808   1.319   3.000   2.223  2.0097  0.4541  0.5447
 3725SOL    HW222809   1.443   2.925   2.173  2.2570  2.8112 -0.1198
 3726SOL     OW22810   3.652   2.928  12.013  0.1848  0.1494  0.0664
 3726SOL    HW122811   3.739   2.892  11.998 -0.0939  0.8095 -3.1410
 3726SOL    HW222812   3.610   2.937  11.927 -0.6379  2.5220  0.7090
 3727SOL     OW22813   0.145   4.723   3.846 -0.5819 -0.1996  0.1153
 3727SOL    HW122814   0.201   0.063   3.831 -1.7829 -0.0008 -3.2585
 3727SOL    HW222815   0.115   4.710   3.757 -0.1852 -2.8774  0.3732
 3728SOL     OW22816   2.784   2.160   0.913  0.2652  0.4008  0.8460
 3728SOL    HW122817   2.861   2.114   0.881 -1.1788 -1.1948 -0.3152
 3728SOL    HW222818   2.725   2.085   0.919 -0.1113  0.7217  1.1864
 3729SOL     OW22819   0.864   4.242   7.407 -0.0070  0.2451 -0.1974
 3729SOL    HW122820   0.877   4.316   7.466  0.1688 -1.6245  2.0888
 3729SOL    HW222821   0.954   4.210   7.396 -0.3944 -1.8004  2.5870
 3730SOL     OW22822   2.611   2.973   9.145 -0.2887 -0.4777 -0.5810
 3730SOL    HW122823   2.668   3.046   9.121 -0.7366  0.4788  1.3136
 3730SOL    HW222824   2.682   2.909   9.145  0.3633  0.2566  0.0542
 3731SOL     OW22825   4.182   1.753   6.501  0.1195  0.2777  0.3457
 3731SOL    HW122826   4.218   1.800   6.425 -0.7885 -0.8905 -0.7997
 3731SOL    HW222827   4.266   1.731   6.541  0.0959  0.4853  0.5111
 3732SOL     OW22828   1.709   1.327  16.215 -0.3170 -0.0863 -0.1470
 3732SOL    HW122829   1.739   1.327  16.306 -1.7875 -0.8824  0.3449
 3732SOL    HW222830   1.638   1.390  16.219 -2.2845 -2.3153 -0.0185
 3733SOL     OW22831   2.767   2.555   9.507  0.1960 -0.0060 -0.0561
 3733SOL    HW122832   2.817   2.616   9.560  0.0683  1.0316 -1.1344
 3733SOL    HW222833   2.829   2.524   9.441 -0.4553  1.0046 -1.1533
 3734SOL     OW22834   1.094   0.271   3.667  0.0148 -0.0939  0.1041
 3734SOL    HW122835   1.022   0.211   3.683  2.1776 -2.3951  1.2175
 3734SOL    HW222836   1.174   0.222   3.688  0.1617  0.1421  0.1011
 3735SOL     OW22837   4.032   1.533   3.477 -0.0083 -0.3364 -0.3760
 3735SOL    HW122838   4.121   1.511   3.502 -0.5654 -1.4804  0.6138
 3735SOL    HW222839   4.039   1.517   3.383  0.7068  0.7459 -0.5046
 3736SOL     OW22840   0.600   0.325   5.496 -0.1390 -0.3684  0.4776
 3736SOL    HW122841   0.560   0.409   5.474  0.5250 -0.0451  0.4832
 3736SOL    HW222842   0.660   0.315   5.421 -1.2993 -1.0162 -0.3645
 3737SOL     OW22843   3.906   2.481   3.410 -0.4466  0.0463  0.2445
 3737SOL    HW122844   3.886   2.574   3.403  3.6665  0.9151  0.1175
 3737SOL    HW222845   3.870   2.457   3.325 -1.1141  0.2722  0.4618
 3738SOL     OW22846   1.876   0.440  13.353 -0.4952 -0.9316 -0.1093
 3738SOL    HW122847   1.877   0.494  13.274 -2.2110 -2.5015 -1.2207
 3738SOL    HW222848   1.783   0.446  13.374 -0.4428 -0.8165  0.0900
 3739SOL     OW22849   4.030   1.215  13.707 -0.0425 -0.1408 -0.2219
 3739SOL    HW122850   4.080   1.134  13.720  0.6944 -0.0618 -2.5640
 3739SOL    HW222851   4.024   1.211  13.612  1.9707 -3.1670 -0.2391
 3740SOL     OW22852   1.087   3.434   2.867  0.1851 -0.0640 -0.0641
 3740SOL    HW122853   1.008   3.461   2.819  0.6716  0.9115 -0.3151
 3740SOL    HW222854   1.061   3.438   2.959  0.3136 -1.6951  0.0459
 3741SOL     OW22855   2.695   4.716   0.781  0.2679  0.3081  0.3462
 3741SOL    HW122856   2.631   0.042   0.814  0.1387  1.0180 -1.2765
 3741SOL    HW222857   2.738   0.025   0.709  1.0906 -1.1164 -0.0550
 3742SOL     OW22858   2.416   1.086   2.910 -0.2981  0.2226  0.1914
 3742SOL    HW122859   2.347   1.134   2.866  0.0811  1.2157  0.6720
 3742SOL    HW222860   2.368   1.049   2.985  1.3165 -2.4165 -0.0497
 3743SOL     OW22861   3.814   0.077   3.226  0.0501  0.1639  0.7345
 3743SOL    HW122862   3.877   0.040   3.287  0.8186 -2.1756 -1.4814
 3743SOL    HW222863   3.734   0.038   3.263 -0.7245  0.5989 -0.4629
 3744SOL     OW22864   4.679   2.959   3.388  0.4555  0.0193 -0.4433
 3744SOL    HW122865   4.709   2.872   3.417 -2.5168 -1.7964 -2.7705
 3744SOL    HW222866   4.591   2.936   3.358  0.8804  0.3729 -1.9692
 3745SOL     OW22867   0.610   3.401   8.735  0.4844  0.0090  0.2780
 3745SOL    HW122868   0.675   3.331   8.741  0.3705 -0.1955 -0.8537
 3745SOL    HW222869   0.625   3.437   8.823 -1.1758 -0.3963  0.7158
 3746SOL     OW22870   2.065   0.011   8.438  0.5050  0.4901 -0.0007
 3746SOL    HW122871   2.019   4.684   8.383 -0.9152  0.4338  1.2429
 3746SOL    HW222872   2.002   0.014   8.510  1.7644  1.0976  1.0717
 3747SOL     OW22873   1.210   4.573  12.709  0.4500  0.0841  0.4821
 3747SOL    HW122874   1.298   4.584  12.674 -0.7312  1.8382 -1.9124
 3747SOL    HW222875   1.234   4.610  12.794 -0.0206  1.7557 -0.1031
 3748SOL     OW22876   1.538   3.033   8.277  0.1810 -0.1909  0.7539
 3748SOL    HW122877   1.489   2.963   8.321  0.6795 -2.1966 -1.9051
 3748SOL    HW222878   1.554   2.991   8.193  2.1294  0.3530  0.8403
 3749SOL     OW22879   4.706   0.480  12.287 -0.3044  0.0162 -0.4303
 3749SOL    HW122880   4.634   0.497  12.348  2.3520  0.3940  2.5962
 3749SOL    HW222881   4.678   0.396  12.252 -1.4243 -0.2130  1.0085
 3750SOL     OW22882   0.594   2.499   6.777 -0.3798  0.5602  0.4172
 3750SOL    HW122883   0.543   2.419   6.764 -0.5386  0.7321 -0.0420
 3750SOL    HW222884   0.563   2.549   6.702  2.9385 -3.0153 -3.3414
 3751SOL     OW22885   3.583   4.262  10.253 -0.3909  0.3890 -0.7413
 3751SOL    HW122886   3.504   4.314  10.269  0.3571  1.3461 -0.2580
 3751SOL    HW222887   3.640   4.281  10.327 -1.6205 -1.2047  0.6216
 3752SOL     OW22888   3.387   0.603   7.778 -0.0409 -0.0582 -0.0347
 3752SOL    HW122889   3.293   0.609   7.763 -0.2171 -1.0422  0.6613
 3752SOL    HW222890   3.396   0.508   7.766 -0.0208 -0.0080 -0.4203
 3753SOL     OW22891   2.374   2.385   3.858 -0.3656 -0.3231  0.0501
 3753SOL    HW122892   2.388   2.294   3.832 -1.0958 -0.1580 -0.9329
 3753SOL    HW222893   2.406   2.369   3.947 -0.5536  0.8420  0.3208
 3754SOL     OW22894   0.761   0.331   4.278  0.1433  0.1845 -0.3405
 3754SOL    HW122895   0.712   0.303   4.201  1.0621 -1.0580 -0.4800
 3754SOL    HW222896   0.716   0.289   4.351  2.5981  2.0035  2.2326
 3755SOL     OW22897   0.030   2.719   4.716  0.0678 -0.0574  0.3583
 3755SOL    HW122898   0.016   2.680   4.630 -0.6177  0.7333  0.1090
 3755SOL    HW222899   0.119   2.755   4.704 -0.7581  1.9984  0.4057
 3756SOL     OW22900   2.782   3.931  15.799 -0.1951  0.3896 -0.3271
 3756SOL    HW122901   2.804   4.019  15.769 -0.5544  1.2709  2.0772
 3756SOL    HW222902   2.717   3.944  15.867  0.2599  0.8984  0.0080
 3757SOL     OW22903   1.500   2.729   7.634  0.0865 -0.1328 -0.0525
 3757SOL    HW122904   1.437   2.796   7.607  2.6365  2.6336  0.8473
 3757SOL    HW222905   1.484   2.730   7.728  0.0589  0.8079 -0.0625
 3758SOL     OW22906   1.418   3.582   9.312 -0.3801  0.2352 -0.0367
 3758SOL    HW122907   1.459   3.499   9.287 -2.7312 -1.1313  0.7337
 3758SOL    HW222908   1.333   3.545   9.334  0.1477 -1.4438 -0.8310
 3759SOL     OW22909   0.013   1.062  14.118  0.1677  0.1736  0.1922
 3759SOL    HW122910   0.006   1.147  14.161 -1.2398  0.1140  0.0946
 3759SOL    HW222911   0.037   1.083  14.027  3.0608 -2.9647  0.2226
 3760SOL     OW22912   0.737   4.229  17.137  0.6018 -0.1071  0.2032
 3760SOL    HW122913   0.730   4.299  17.072 -0.5352  1.1617  1.7080
 3760SOL    HW222914   0.656   4.231  17.189  0.6226 -0.2360  0.2401
 3761SOL     OW22915   0.753   1.972   3.723 -0.3959  0.1757 -0.1094
 3761SOL    HW122916   0.705   1.894   3.751 -1.6819  0.8509 -0.4356
 3761SOL    HW222917   0.840   1.932   3.717  0.0597  1.1502  0.0277
 3762SOL     OW22918   2.113   0.440   0.211  0.2837  0.0918  0.2919
 3762SOL    HW122919   2.173   0.374   0.177  1.7844  1.7829 -0.3538
 3762SOL    HW222920   2.118   0.508   0.143 -1.0352 -0.1571 -0.0736
 3763SOL     OW22921   3.347   3.814   2.845 -0.3269  0.1431  0.4288
 3763SOL    HW122922   3.429   3.807   2.895 -1.6451 -3.5063  2.0985
 3763SOL    HW222923   3.348   3.743   2.780  0.0410 -0.7384  1.3932
 3764SOL     OW22924   0.672   3.670  17.147  0.0079 -0.0041 -0.2456
 3764SOL    HW122925   0.635   3.691  17.061 -0.1627  0.5205 -0.0430
 3764SOL    HW222926   0.712   3.754  17.170 -0.5758  0.0073  0.7757
 3765SOL     OW22927   3.150   1.770  11.615 -0.2586  0.4317  0.0336
 3765SOL    HW122928   3.089   1.829  11.660 -1.5152 -1.5353  0.9313
 3765SOL    HW222929   3.175   1.825  11.541  2.5127 -2.4936 -1.1741
 3766SOL     OW22930   3.532   0.437   4.574  0.1576  0.3059  0.9542
 3766SOL    HW122931   3.488   0.357   4.604 -2.2122  1.4151  0.4611
 3766SOL    HW222932   3.452   0.487   4.592 -0.4468  0.2825 -1.7514
 3767SOL     OW22933   3.775   4.655   7.927  0.1508 -0.0393 -0.1313
 3767SOL    HW122934   3.775   4.576   7.874  1.0292 -1.4602  2.0127
 3767SOL    HW222935   3.699   4.703   7.894  0.5043  0.2611 -0.5296
 3768SOL     OW22936   3.244   1.465   8.454  0.1561  0.2238 -0.6790
 3768SOL    HW122937   3.241   1.463   8.550 -1.4414 -0.6043 -0.7450
 3768SOL    HW222938   3.302   1.391   8.436 -1.8483 -1.5278  0.0494
 3769SOL     OW22939   0.094   1.287   0.021  0.6272  0.0655 -0.3688
 3769SOL    HW122940   0.018   1.289   0.079  0.4170  0.2833 -0.6510
 3769SOL    HW222941   0.093   1.378  17.736 -3.4103  0.2994  0.4350
 3770SOL     OW22942   4.395   4.331   9.079 -0.3555 -0.2496  0.0773
 3770SOL    HW122943   4.306   4.348   9.046 -0.5323  1.1568  1.2665
 3770SOL    HW222944   4.436   4.284   9.007  0.7048  0.6308  0.1008
 3771SOL     OW22945   0.858   4.233   7.884  0.1751  0.3166  0.5772
 3771SOL    HW122946   0.791   4.299   7.870 -0.4726 -0.3771  0.3884
 3771SOL    HW222947   0.811   4.159   7.924 -0.8184  0.4665 -0.3175
 3772SOL     OW22948   1.858   1.053   6.864  0.3482  0.4006 -0.1646
 3772SOL    HW122949   1.769   1.074   6.836  0.7603  1.3697 -0.7808
 3772SOL    HW222950   1.893   1.128   6.912  4.2513  0.0122 -2.3935
 3773SOL     OW22951   2.635   0.146  10.640  0.3883 -0.4795  0.1467
 3773SOL    HW122952   2.582   0.194  10.577 -1.0968 -0.2668  1.5651
 3773SOL    HW222953   2.690   0.093  10.582  0.3106 -0.5086  0.0991
 3774SOL     OW22954   2.951   4.691   8.043 -0.3401 -0.0445  0.1218
 3774SOL    HW122955   2.935   4.711   7.950  0.7532 -0.5802 -0.1810
 3774SOL    HW222956   2.875   0.001   8.079 -1.2627 -1.3841 -0.1022
 3775SOL     OW22957   0.488   2.124   5.274  0.1219  0.3294 -0.1342
 3775SOL    HW122958   0.526   2.069   5.206 -0.5490 -0.0182 -0.2312
 3775SOL    HW222959   0.491   2.064   5.349 -1.1474  1.1426  0.5623
 3776SOL     OW22960   4.143   0.991   4.549 -0.0109 -0.3830 -0.2215
 3776SOL    HW122961   4.171   1.051   4.480 -1.5394 -1.1868 -1.5302
 3776SOL    HW222962   4.141   0.907   4.502  2.1071 -0.8182  0.4832
 3777SOL     OW22963   2.351   3.382  12.419 -0.6494 -0.1516 -0.0675
 3777SOL    HW122964   2.334   3.375  12.513 -0.6372 -1.4918 -0.1585
 3777SOL    HW222965   2.342   3.477  12.418  0.2590 -0.0559  0.8460
 3778SOL     OW22966   3.856   3.446   4.089  0.3529  0.0344 -0.2082
 3778SOL    HW122967   3.849   3.533   4.130  2.0264  0.7540 -1.4295
 3778SOL    HW222968   3.774   3.407   4.119 -0.4572  1.4154 -0.5979
 3779SOL     OW22969   1.142   3.367   9.102 -0.3093 -0.0361  0.2060
 3779SOL    HW122970   1.136   3.335   9.012 -0.2919  0.9122 -0.1288
 3779SOL    HW222971   1.226   3.409   9.086  0.5319 -1.2531  1.3292
 3780SOL     OW22972   2.876   3.719   3.293  0.0105 -0.2746 -0.6041
 3780SOL    HW122973   2.787   3.735   3.261  0.0887  3.2828  0.9129
 3780SOL    HW222974   2.923   3.672   3.225  2.2946  0.4924  0.4386
 3781SOL     OW22975   0.640   2.713   7.766 -0.3861  0.3706 -0.3718
 3781SOL    HW122976   0.626   2.687   7.675  0.9658  1.5918 -0.9309
 3781SOL    HW222977   0.694   2.790   7.748 -0.0423  0.3602  0.6102
 3782SOL     OW22978   4.661   0.895  16.183  0.4407 -0.5088  0.0462
 3782SOL    HW122979   4.594   0.928  16.123 -0.9690 -1.2119  1.2456
 3782SOL    HW222980   0.002   0.876  16.129  0.0193 -1.5263 -0.1868
 3783SOL     OW22981   1.054   3.818   9.254  0.4015 -0.0631 -0.4976
 3783SOL    HW122982   1.031   3.826   9.161 -1.4775  2.2596  0.1538
 3783SOL    HW222983   1.010   3.738   9.284  1.9749 -0.8586 -0.3287
 3784SOL     OW22984   1.566   2.506   1.868  0.4979  0.0732  0.3360
 3784SOL    HW122985   1.656   2.522   1.840 -0.8728  2.3452 -2.9279
 3784SOL    HW222986   1.529   2.525   1.781 -1.8906 -1.0798  1.0941
 3785SOL     OW22987   2.268   1.034   5.336  0.1063  0.0169 -0.6249
 3785SOL    HW122988   2.294   1.090   5.263  0.4761  0.4068 -0.1915
 3785SOL    HW222989   2.193   1.085   5.365 -0.0570 -0.1985 -0.6666
 3786SOL     OW22990   2.067   0.176   6.245  0.0287 -1.2441  0.2446
 3786SOL    HW122991   2.036   0.180   6.336  1.2059 -0.2775  0.6110
 3786SOL    HW222992   2.162   0.165   6.251  0.0702 -0.6972  0.7045
 3787SOL     OW22993   2.782   1.749  17.573 -0.2963  0.1165  0.6453
 3787SOL    HW122994   2.845   1.733  17.503  1.0126  1.4979  1.5016
 3787SOL    HW222995   2.814   1.692  17.643 -0.3399  0.5430  1.0107
 3788SOL     OW22996   4.310   4.438   4.513 -0.6792  0.4749 -0.4085
 3788SOL    HW122997   4.267   4.391   4.584 -0.7513  0.2975 -0.5717
 3788SOL    HW222998   4.377   4.374   4.487 -1.7620  0.2023 -2.5628
 3789SOL     OW22999   4.323   0.447   2.001  0.5000  0.3593  0.7224
 3789SOL    HW123000   4.396   0.425   1.943  0.2846 -0.5796  0.8021
 3789SOL    HW223001   4.277   0.516   1.953  2.5845  1.1106 -0.1975
 3790SOL     OW23002   2.596   0.843   6.947  0.4871 -0.6385  0.0344
 3790SOL    HW123003   2.595   0.876   6.857  0.2885 -1.8252 -0.3975
 3790SOL    HW223004   2.622   0.751   6.945  0.0717 -0.7848  1.2681
 3791SOL     OW23005   4.119   0.652   3.585 -0.2046 -0.3871 -0.0065
 3791SOL    HW123006   4.102   0.708   3.661 -0.7465 -0.1589 -0.2972
 3791SOL    HW223007   4.203   0.688   3.556 -1.5928  2.7428 -0.1989
 3792SOL     OW23008   0.229   3.091   0.409  0.0781  0.1939 -0.0048
 3792SOL    HW123009   0.301   3.029   0.414 -0.4459 -0.6597 -3.4511
 3792SOL    HW223010   0.158   3.028   0.400 -1.7382  2.0565  1.0342
 3793SOL     OW23011   4.133   3.672  17.725  0.0049 -0.1433 -0.2605
 3793SOL    HW123012   4.073   3.684   0.056  2.8028 -2.4858  2.3822
 3793SOL    HW223013   4.073   3.620  17.671 -1.2526 -0.7443  1.7465
 3794SOL     OW23014   1.650   0.517   5.233  0.0193  0.2081 -0.0616
 3794SOL    HW123015   1.561   0.486   5.245  0.4048 -0.2543  1.4918
 3794SOL    HW223016   1.650   0.592   5.292 -2.2240 -1.3301  1.8593
 3795SOL     OW23017   2.748   2.982   5.023 -0.3089 -0.3062 -0.0096
 3795SOL    HW123018   2.672   3.041   5.019  0.5590  0.8565  0.6118
 3795SOL    HW223019   2.730   2.928   5.100  0.6601 -0.5195  0.0579
 3796SOL     OW23020   3.039   2.933   4.947  0.4840  0.4177 -0.0408
 3796SOL    HW123021   3.016   2.859   4.890 -0.9762 -1.2081  2.7058
 3796SOL    HW223022   2.955   2.956   4.986  0.1035 -0.5606 -0.2752
 3797SOL     OW23023   1.134   1.102  13.899 -0.3287 -0.6265 -0.0534
 3797SOL    HW123024   1.183   1.157  13.959  0.9704 -0.7389 -1.0111
 3797SOL    HW223025   1.071   1.153  13.847  2.0716  0.9267 -1.4209
 3798SOL     OW23026   0.667   1.699   6.390 -0.3781  0.3965  0.0546
 3798SOL    HW123027   0.762   1.692   6.382 -0.5731  0.6975 -2.4519
 3798SOL    HW223028   0.646   1.770   6.329 -1.9837 -0.8365 -0.8390
 3799SOL     OW23029   0.967   3.714   3.245 -0.5657  0.1224  0.0978
 3799SOL    HW123030   1.057   3.747   3.239  0.3463 -2.2835  0.5764
 3799SOL    HW223031   0.900   3.778   3.224 -0.2503  0.3727 -0.1401
 3800SOL     OW23032   2.599   2.791   3.348 -0.1432 -0.2976  0.0040
 3800SOL    HW123033   2.544   2.850   3.298  0.5258  1.1828  0.9958
 3800SOL    HW223034   2.541   2.759   3.418 -0.6236 -2.3589 -1.3278
 3801SOL     OW23035   0.531   1.736   8.718  0.4556 -0.0236 -0.0946
 3801SOL    HW123036   0.552   1.800   8.787 -0.5171 -0.8748  0.9932
 3801SOL    HW223037   0.477   1.783   8.655 -0.3177 -0.7241  0.0434
 3802SOL     OW23038   1.515   3.691   6.406 -0.4647 -0.7393 -0.3786
 3802SOL    HW123039   1.606   3.662   6.402  0.1387  1.2428 -0.7677
 3802SOL    HW223040   1.477   3.603   6.411 -1.0203 -0.5285 -0.8201
 3803SOL     OW23041   3.014   1.879   9.878 -0.4016  0.1632 -0.4428
 3803SOL    HW123042   2.999   1.809   9.814  1.0935 -1.4744  0.9737
 3803SOL    HW223043   2.923   1.880   9.906 -0.5802 -0.1897 -0.9958
 3804SOL     OW23044   0.054   1.147  14.996  0.5419 -0.2841 -0.5099
 3804SOL    HW123045   4.723   1.204  15.035  0.6911 -0.2030 -0.3708
 3804SOL    HW223046   0.087   1.204  14.927 -0.1371  0.5241 -0.1653
 3805SOL     OW23047   1.077   4.416   6.827 -0.3002  0.4170 -0.3046
 3805SOL    HW123048   1.124   4.487   6.783 -2.0000  0.8593 -1.3972
 3805SOL    HW223049   1.128   4.340   6.799  0.4707  1.4687 -1.7543
 3806SOL     OW23050   0.889   2.245   6.387 -0.2440  0.1703 -0.1669
 3806SOL    HW123051   0.912   2.255   6.480  1.5657  0.5076 -0.6493
 3806SOL    HW223052   0.905   2.334   6.355  1.2850  0.2728  0.8851
 3807SOL     OW23053   3.176   2.377   8.230 -0.1497 -0.1418 -0.6891
 3807SOL    HW123054   3.090   2.415   8.214  0.6458  1.6484 -0.6671
 3807SOL    HW223055   3.214   2.375   8.142  0.6647 -0.4566 -0.3380
 3808SOL     OW23056   3.975   1.156   9.427  0.3765  0.4815 -0.9741
 3808SOL    HW123057   4.048   1.166   9.487 -0.6238 -1.8998  0.6542
 3808SOL    HW223058   3.932   1.080   9.467 -0.1339  0.4906 -1.5035
 3809SOL     OW23059   3.540   3.234  10.996  0.4316  0.5614  0.1024
 3809SOL    HW123060   3.633   3.232  11.018  0.7326  1.0253 -1.1342
 3809SOL    HW223061   3.506   3.277  11.075 -0.2948 -3.0983  1.7724
 3810SOL     OW23062   2.389   0.099  12.113 -0.0665  0.2436 -0.1810
 3810SOL    HW123063   2.416   0.056  12.194 -1.7659 -0.5335 -0.0170
 3810SOL    HW223064   2.347   0.021  12.076  0.4024 -0.0439 -0.1015
 3811SOL     OW23065   1.092   4.730  16.081 -0.2524  0.6398  0.4872
 3811SOL    HW123066   1.179   4.712  16.044 -0.0212 -0.6051  1.6127
 3811SOL    HW223067   1.040   0.037  16.014  1.0765  2.3063  0.5244
 3812SOL     OW23068   3.913   2.480   9.372  0.0281 -0.3581  0.9075
 3812SOL    HW123069   3.836   2.494   9.317  1.2798  0.2933 -0.6493
 3812SOL    HW223070   3.882   2.404   9.421  0.8483 -2.0416 -1.1816
 3813SOL     OW23071   3.226   1.930  12.767 -0.2136 -0.2806 -0.0818
 3813SOL    HW123072   3.238   1.843  12.806  0.3413 -0.3781 -0.4699
 3813SOL    HW223073   3.148   1.958  12.815 -0.2093 -1.5357  0.6492
 3814SOL     OW23074   2.466   3.813   7.079  0.1691 -0.8134 -0.0692
 3814SOL    HW123075   2.515   3.733   7.100  1.5492 -0.2620 -1.1286
 3814SOL    HW223076   2.524   3.848   7.011  0.1550  0.0791  0.3881
 3815SOL     OW23077   1.907   0.580   7.218 -0.1396 -0.4946 -0.6975
 3815SOL    HW123078   1.977   0.568   7.154  0.1362  2.4862 -0.9477
 3815SOL    HW223079   1.842   0.622   7.162  2.1004  2.1823 -1.2653
 3816SOL     OW23080   1.583   0.340  14.822  0.3116  0.2943  0.0441
 3816SOL    HW123081   1.638   0.418  14.821 -1.2497  1.4103  1.4841
 3816SOL    HW223082   1.506   0.372  14.774 -0.1177  1.4090  1.4585
 3817SOL     OW23083   2.065   2.729   1.613  0.5003 -0.1766 -0.0758
 3817SOL    HW123084   2.095   2.808   1.568 -1.3989 -1.2446 -3.2472
 3817SOL    HW223085   2.096   2.670   1.545 -0.8025  1.3214 -1.9705
 3818SOL     OW23086   1.614   4.289   9.041  0.2257  0.6562  0.2893
 3818SOL    HW123087   1.625   4.365   8.986 -1.0602 -0.5495 -1.6405
 3818SOL    HW223088   1.619   4.333   9.126  0.7184  1.9834 -0.4502
 3819SOL     OW23089   2.877   0.163  14.861  0.1994 -0.0318  0.1910
 3819SOL    HW123090   2.795   0.113  14.852  1.0928 -1.0739 -2.3014
 3819SOL    HW223091   2.925   0.114  14.794  0.3978 -0.8971  0.9602
 3820SOL     OW23092   0.181   3.333   0.624  0.4859  0.9914 -0.0970
 3820SOL    HW123093   0.119   3.362   0.557  0.4266  0.0222 -0.4581
 3820SOL    HW223094   0.179   3.240   0.602 -1.4194  1.1782 -0.7016
 3821SOL     OW23095   1.385   3.140   6.267 -0.0299 -0.5839  0.0442
 3821SOL    HW123096   1.334   3.132   6.187  0.4884 -1.1167 -0.2360
 3821SOL    HW223097   1.409   3.052   6.295  3.1982  0.5365  0.9115
 3822SOL     OW23098   3.504   4.220   4.524 -0.0626  0.1546 -0.2212
 3822SOL    HW123099   3.478   4.128   4.530  0.1574  0.0726 -0.5593
 3822SOL    HW223100   3.579   4.217   4.584  0.7988 -0.9772 -1.3555
 3823SOL     OW23101   2.730   3.407   6.349 -0.1784  0.1729 -0.3231
 3823SOL    HW123102   2.699   3.323   6.316  0.0619 -0.5990  1.4334
 3823SOL    HW223103   2.775   3.364   6.421  2.5547  0.5446 -1.7970
 3824SOL     OW23104   4.642   1.553   3.482  0.2629  0.4168 -0.2490
 3824SOL    HW123105   4.717   1.600   3.447  0.4354  0.2477 -0.1086
 3824SOL    HW223106   4.586   1.619   3.523 -1.3854 -0.8803 -0.3904
 3825SOL     OW23107   1.451   3.260  17.391  0.6909  0.1242  0.0483
 3825SOL    HW123108   1.403   3.294  17.466 -1.7611  0.5417 -1.7005
 3825SOL    HW223109   1.374   3.256  17.334  0.0829 -0.0237  0.8901
 3826SOL     OW23110   0.847   2.067   3.086  0.6838  0.2678  0.1107
 3826SOL    HW123111   0.822   1.987   3.132 -3.7720  1.0837 -0.9564
 3826SOL    HW223112   0.857   2.133   3.154  1.0129 -1.2677  1.5347
 3827SOL     OW23113   3.587   3.679   7.181 -0.3051 -0.1621 -0.2779
 3827SOL    HW123114   3.494   3.656   7.181 -0.2505 -0.4035 -1.6157
 3827SOL    HW223115   3.587   3.736   7.104  0.6421 -2.3051 -1.8738
 3828SOL     OW23116   3.884   1.613   2.086  0.0287  0.3251 -0.4158
 3828SOL    HW123117   3.959   1.646   2.035 -0.2178  2.3273  0.5386
 3828SOL    HW223118   3.879   1.521   2.059 -0.4371  0.9288 -2.4527
 3829SOL     OW23119   1.691   3.536   7.487 -0.2687  0.8454 -0.2604
 3829SOL    HW123120   1.703   3.620   7.443  1.9864  0.7300  0.1687
 3829SOL    HW223121   1.637   3.495   7.419  0.6336 -2.5741  1.1139
 3830SOL     OW23122   0.456   3.022   8.925  0.3631 -0.4011 -0.2620
 3830SOL    HW123123   0.397   3.002   8.998  2.3060 -1.0376  1.1232
 3830SOL    HW223124   0.529   2.966   8.952  1.7349  1.1056 -0.8445
 3831SOL     OW23125   2.316   1.969   5.259  0.4689  0.8458  0.0103
 3831SOL    HW123126   2.291   1.931   5.343 -1.6415  1.3211 -0.4205
 3831SOL    HW223127   2.361   2.052   5.275  3.1169 -0.1604 -2.2861
 3832SOL     OW23128   0.943   1.930  15.195  0.6516 -0.2040  0.0859
 3832SOL    HW123129   0.934   2.025  15.200 -1.0582 -0.2952 -1.3945
 3832SOL    HW223130   0.960   1.910  15.287  1.5310 -0.3006 -0.0881
 3833SOL     OW23131   0.853   3.423   4.160  0.1086 -0.1717  0.0871
 3833SOL    HW123132   0.775   3.387   4.118  2.0675 -1.8317 -2.1509
 3833SOL    HW223133   0.818   3.475   4.233  0.7976 -0.7717  0.8442
 3834SOL     OW23134   3.825   1.955   8.571  0.1637 -0.9563 -0.1983
 3834SOL    HW123135   3.745   1.903   8.578  0.2428 -1.3259 -2.1571
 3834SOL    HW223136   3.867   1.918   8.493 -0.6730 -0.7899 -0.7312
 3835SOL     OW23137   4.627   3.752  15.026  0.2110 -0.0517 -0.1287
 3835SOL    HW123138   4.631   3.847  15.014  0.1693  0.1110  1.1220
 3835SOL    HW223139   4.601   3.719  14.940  0.0896  0.1779 -0.1809
 3836SOL     OW23140   2.407   1.858  11.210  0.1763  0.4686 -0.4445
 3836SOL    HW123141   2.450   1.867  11.296  1.1108 -0.4332 -0.8162
 3836SOL    HW223142   2.406   1.950  11.184  1.9613  0.0466 -1.9755
 3837SOL     OW23143   2.064   1.151  10.932  0.1480  0.7434 -0.2076
 3837SOL    HW123144   2.007   1.077  10.911 -1.3184  1.3480  1.6185
 3837SOL    HW223145   2.124   1.144  10.857  1.1136 -0.7129  0.6994
 3838SOL     OW23146   3.362   1.217   1.187  0.5847  0.2209  0.5835
 3838SOL    HW123147   3.318   1.155   1.129 -0.9963  0.6706  1.3001
 3838SOL    HW223148   3.424   1.155   1.225  0.1933  0.9491  2.4173
 3839SOL     OW23149   1.473   0.638   8.403  0.1890 -0.3456  0.0832
 3839SOL    HW123150   1.553   0.633   8.350  0.1415  1.1920 -0.1190
 3839SOL    HW223151   1.405   0.667   8.342 -0.1113 -1.0024  0.0996
 3840SOL     OW23152   2.475   2.368   5.059  0.0952 -0.5476 -0.0912
 3840SOL    HW123153   2.567   2.381   5.038 -0.6879  1.8886 -2.0814
 3840SOL    HW223154   2.461   2.274   5.069  0.3643 -0.4488  1.0852
 3841SOL     OW23155   3.170   4.626   6.593  0.1190  0.0105 -0.0946
 3841SOL    HW123156   3.154   4.697   6.530 -0.1883  0.6444  0.7048
 3841SOL    HW223157   3.230   4.676   6.649  0.7383 -0.8565  0.0238
 3842SOL     OW23158   4.116   2.833   6.919 -0.0398 -0.2813  0.1906
 3842SOL    HW123159   4.047   2.882   6.875 -2.4966 -0.3046  4.0062
 3842SOL    HW223160   4.193   2.889   6.922 -0.0318 -0.3268  0.8922
 3843SOL     OW23161   2.950   2.350   4.827 -0.3297 -0.2012  0.2207
 3843SOL    HW123162   2.894   2.426   4.843 -1.0294 -0.3105 -1.7196
 3843SOL    HW223163   2.882   2.284   4.836 -0.7049  0.0915 -0.4384
 3844SOL     OW23164   0.989   1.727   3.422  0.4012 -0.4330 -0.3778
 3844SOL    HW123165   1.051   1.752   3.352  0.7623  0.6424  0.3169
 3844SOL    HW223166   0.933   1.804   3.426  1.5992  0.3580  1.2672
 3845SOL     OW23167   3.209   0.555  11.939  0.6823  0.1624 -0.6014
 3845SOL    HW123168   3.183   0.646  11.950 -0.3948 -0.2236 -0.0404
 3845SOL    HW223169   3.165   0.530  11.858 -0.3969  0.1497 -0.0040
 3846SOL     OW23170   2.691   0.904   9.222  0.3956  0.3849 -0.3005
 3846SOL    HW123171   2.633   0.976   9.249  0.7611  0.2849  0.7381
 3846SOL    HW223172   2.715   0.938   9.136 -1.3489  1.4304 -0.3813
 3847SOL     OW23173   0.341   3.290   7.051  0.3285  0.5398  0.4043
 3847SOL    HW123174   0.288   3.221   7.012  0.4887 -0.4736  1.9892
 3847SOL    HW223175   0.314   3.365   6.998  1.6718  0.2869 -0.6422
 3848SOL     OW23176   4.566   4.069   1.657  0.2453 -1.0166 -0.1162
 3848SOL    HW123177   4.471   4.066   1.674  0.1070  1.1511 -0.5174
 3848SOL    HW223178   4.562   4.163   1.638  1.0047 -0.6234  1.6526
 3849SOL     OW23179   1.454   1.397  16.503 -0.1427 -0.2910 -0.2373
 3849SOL    HW123180   1.516   1.429  16.568 -1.6997 -2.3107  2.2451
 3849SOL    HW223181   1.497   1.314  16.482  2.0273  0.6810  0.4114
 3850SOL     OW23182   0.317   1.111   1.539  0.0354 -0.0763  0.0063
 3850SOL    HW123183   0.358   1.186   1.582 -0.1414  0.8735 -1.4571
 3850SOL    HW223184   0.246   1.091   1.599 -1.6655 -2.7366 -2.8961
 3851SOL     OW23185   3.142   4.353   6.675 -0.1236 -0.2147  0.0012
 3851SOL    HW123186   3.211   4.371   6.739  0.3154  0.9234 -0.7942
 3851SOL    HW223187   3.133   4.445   6.650 -0.6491 -0.5166 -0.9156
 3852SOL     OW23188   4.704   3.024   4.257  0.2602 -0.3272 -0.5070
 3852SOL    HW123189   0.005   2.974   4.185  0.8289  1.4375 -1.4481
 3852SOL    HW223190   0.032   3.095   4.260 -0.9558  0.7732 -0.5629
 3853SOL     OW23191   3.535   2.780   6.609  0.8871  0.0480  0.2389
 3853SOL    HW123192   3.520   2.698   6.656 -2.1774  1.7892  2.2895
 3853SOL    HW223193   3.630   2.774   6.596  1.0071  0.5422  0.8626
 3854SOL     OW23194   3.486   4.735   8.809 -0.0502  0.0666 -0.4483
 3854SOL    HW123195   3.407   0.022   8.760  0.4742  0.6335 -1.0338
 3854SOL    HW223196   3.486   0.063   8.881  0.7731 -1.9972  1.3727
 3855SOL     OW23197   1.841   4.687   9.093 -0.7016  0.1328 -0.2215
 3855SOL    HW123198   1.888   0.031   9.117 -1.8049  0.2223  1.5993
 3855SOL    HW223199   1.880   4.635   9.163  3.1003 -0.9428 -3.1044
 3856SOL     OW23200   1.013   3.415   9.637  0.1097 -0.1372 -0.5339
 3856SOL    HW123201   1.035   3.375   9.722 -0.0487  0.5250 -0.1834
 3856SOL    HW223202   1.009   3.508   9.658 -0.7893 -0.4037  0.5227
 3857SOL     OW23203   1.093   3.265  10.831 -0.1860  0.4175 -0.1358
 3857SOL    HW123204   1.148   3.321  10.884 -2.5983  0.9699  1.7998
 3857SOL    HW223205   1.121   3.300  10.746  1.2272  0.1547  0.2250
 3858SOL     OW23206   2.478   4.235   6.952  0.4475 -0.7646  0.1995
 3858SOL    HW123207   2.421   4.297   6.905 -0.9485 -0.6809  2.0063
 3858SOL    HW223208   2.536   4.210   6.880 -1.3307 -1.8916 -0.8625
 3859SOL     OW23209   2.623   2.203   1.612  0.6123  0.2724 -0.0482
 3859SOL    HW123210   2.633   2.281   1.667  0.5572  0.2507 -0.0076
 3859SOL    HW223211   2.642   2.238   1.525 -0.2542  3.0036  0.8453
 3860SOL     OW23212   1.177   1.797   6.284  0.1863 -0.5182  0.1526
 3860SOL    HW123213   1.158   1.885   6.317 -0.3401 -0.7512  0.4692
 3860SOL    HW223214   1.269   1.791   6.312  0.7066  1.0716 -1.2264
 3861SOL     OW23215   2.224   3.969   3.957  0.3916  0.1585  0.5426
 3861SOL    HW123216   2.204   4.063   3.956 -2.5546 -0.4565  0.8194
 3861SOL    HW223217   2.175   3.935   4.032 -1.6992  2.4676  0.2519
 3862SOL     OW23218   0.319   1.173  11.074 -0.1681 -0.2124  0.0090
 3862SOL    HW123219   0.247   1.146  11.017 -1.8013 -0.0244  1.9699
 3862SOL    HW223220   0.356   1.087  11.091  0.8740 -0.0858 -1.6427
 3863SOL     OW23221   2.123   4.481   7.439 -0.3715  0.4543  0.1992
 3863SOL    HW123222   2.091   4.558   7.392  0.4734 -0.2157 -1.4747
 3863SOL    HW223223   2.173   4.532   7.504  0.0840  0.1940  0.0576
 3864SOL     OW23224   2.335   1.167   5.080  0.6954  0.4353 -0.4555
 3864SOL    HW123225   2.345   1.134   4.990  0.0383 -0.8953 -0.0300
 3864SOL    HW223226   2.398   1.240   5.079 -0.3753  1.3624 -1.1788
 3865SOL     OW23227   2.819   0.720   8.955 -0.2121 -0.3963  0.2818
 3865SOL    HW123228   2.886   0.715   8.886 -1.1841  2.4110 -0.8532
 3865SOL    HW223229   2.779   0.804   8.934  1.1482  0.4209  0.9773
 3866SOL     OW23230   1.281   3.153   4.525  0.4302  0.2115  0.4210
 3866SOL    HW123231   1.246   3.068   4.499 -0.0129 -0.4845  3.2899
 3866SOL    HW223232   1.324   3.185   4.445 -2.2626 -0.1953 -1.1884
 3867SOL     OW23233   1.937   4.066   5.031 -0.0012 -0.1705 -0.2521
 3867SOL    HW123234   1.882   4.084   5.107 -0.6960  1.4572 -1.1382
 3867SOL    HW223235   2.028   4.062   5.058  0.3406 -2.2538 -1.7272
 3868SOL     OW23236   0.833   4.145  13.442  0.4891  0.0180  0.0305
 3868SOL    HW123237   0.901   4.084  13.468 -0.4127 -0.3933  1.4232
 3868SOL    HW223238   0.878   4.189  13.370 -0.7652  0.6300 -0.3914
 3869SOL     OW23239   0.380   1.203  17.662 -0.2901 -0.6378 -0.4366
 3869SOL    HW123240   0.352   1.251  17.584 -1.0572 -1.7504 -0.8518
 3869SOL    HW223241   0.322   1.248  17.723  0.8615  0.5652 -0.2094
 3870SOL     OW23242   2.995   3.378   2.831 -0.2736  0.1436  0.2072
 3870SOL    HW123243   2.909   3.370   2.873 -0.7410  4.0862  0.0375
 3870SOL    HW223244   3.050   3.336   2.897  0.6768  1.2563  0.1301
 3871SOL     OW23245   3.890   3.530   8.910  0.4962 -0.0467 -0.2625
 3871SOL    HW123246   3.863   3.533   8.818  1.2890  3.1265 -0.3811
 3871SOL    HW223247   3.897   3.625   8.917 -0.1856 -0.2011  2.4546
 3872SOL     OW23248   1.308   3.244  11.098  0.4314  0.3752 -0.0768
 3872SOL    HW123249   1.352   3.217  11.017 -0.6506 -2.1127  0.1691
 3872SOL    HW223250   1.317   3.339  11.089  1.0085  0.1360 -2.0489
 3873SOL     OW23251   2.207   4.305  15.840  0.2030 -0.0065 -0.4338
 3873SOL    HW123252   2.186   4.262  15.758  1.5188 -0.0534 -0.7453
 3873SOL    HW223253   2.301   4.316  15.829  0.2824 -0.3979 -0.1399
 3874SOL     OW23254   1.223   4.546  10.576  0.0338 -0.3596  0.1700
 3874SOL    HW123255   1.292   4.531  10.640  0.3162  4.5740  1.0217
 3874SOL    HW223256   1.269   4.594  10.507  1.5030  3.2819  3.6648
 3875SOL     OW23257   4.102   2.738   8.091 -0.0444  0.3237 -0.2614
 3875SOL    HW123258   4.169   2.787   8.140 -1.1727  0.0634  1.5546
 3875SOL    HW223259   4.067   2.678   8.157  1.3389 -0.6821 -0.4248
 3876SOL     OW23260   0.603   4.699   5.728  0.0215 -0.1332 -0.0546
 3876SOL    HW123261   0.620   0.050   5.763 -1.7632 -0.2546  1.0807
 3876SOL    HW223262   0.561   4.649   5.797 -3.2225  2.7620  0.0801
 3877SOL     OW23263   4.440   2.413   8.920  0.6143  0.1336  0.2372
 3877SOL    HW123264   4.433   2.505   8.895  0.2210  0.6432  2.2297
 3877SOL    HW223265   4.452   2.411   9.015  0.8191 -2.7757  0.1565
 3878SOL     OW23266   3.715   2.581   5.696  0.5365  0.1920 -0.1266
 3878SOL    HW123267   3.788   2.590   5.756  0.4916 -0.3860  0.0099
 3878SOL    HW223268   3.737   2.645   5.628 -1.5732  0.8794 -0.1779
 3879SOL     OW23269   3.103   2.818   0.804 -0.4602 -0.2755 -0.1889
 3879SOL    HW123270   3.025   2.784   0.760 -2.1376  1.1602  1.7345
 3879SOL    HW223271   3.166   2.773   0.747  0.4158  0.2392  0.3692
 3880SOL     OW23272   1.061   2.068   5.828  0.9955 -0.0049  0.6510
 3880SOL    HW123273   0.985   2.042   5.776  1.5124  0.3924 -0.3073
 3880SOL    HW223274   1.121   2.092   5.757 -2.3432  1.8494 -1.5178
 3881SOL     OW23275   1.299   1.741   2.297 -0.0823  0.5710 -0.1891
 3881SOL    HW123276   1.335   1.653   2.293 -1.7946 -0.0744 -1.2136
 3881SOL    HW223277   1.329   1.780   2.215 -0.5730 -0.3128 -0.7811
 3882SOL     OW23278   2.935   0.774   9.959 -0.1627 -0.3816 -0.1412
 3882SOL    HW123279   2.951   0.736  10.045 -0.1910 -2.7013 -1.1459
 3882SOL    HW223280   2.952   0.867   9.969  0.9862 -0.4323 -1.6698
 3883SOL     OW23281   0.680   2.572   5.319  0.2567  0.6470  0.5734
 3883SOL    HW123282   0.637   2.508   5.377 -0.1347  1.9239  1.7184
 3883SOL    HW223283   0.771   2.564   5.348  0.8666  1.0576 -1.2621
 3884SOL     OW23284   0.533   1.922   1.650  0.1745 -0.1067  0.0482
 3884SOL    HW123285   0.616   1.878   1.631  0.6785  0.4263  1.0097
 3884SOL    HW223286   0.557   2.015   1.648 -2.2826  0.5264 -0.4985
 3885SOL     OW23287   2.022   2.927   4.929  0.2661 -0.4314  0.3275
 3885SOL    HW123288   2.080   2.853   4.915  0.7031 -0.0514  0.1089
 3885SOL    HW223289   1.949   2.885   4.974 -0.2194 -1.8074 -1.7633
 3886SOL     OW23290   2.588   4.068   2.537  0.4237  0.0889  0.6853
 3886SOL    HW123291   2.658   4.061   2.602  0.5217 -0.1000  0.5586
 3886SOL    HW223292   2.630   4.043   2.455 -0.3371 -1.0882  0.6584
 3887SOL     OW23293   3.705   2.403   9.966  0.4622  0.7823 -0.6324
 3887SOL    HW123294   3.726   2.492   9.996  0.0215 -0.1010  2.2419
 3887SOL    HW223295   3.625   2.386  10.015  0.2103  1.2990 -0.8576
 3888SOL     OW23296   0.476   4.405   8.114 -0.2752  0.4523  0.1949
 3888SOL    HW123297   0.416   4.393   8.188 -0.9357 -0.3157 -0.4592
 3888SOL    HW223298   0.417   4.371   8.046  0.9614  0.3384 -0.8106
 3889SOL     OW23299   1.393   2.098   7.171  0.3484  0.0476 -0.6940
 3889SOL    HW123300   1.346   2.016   7.190 -0.6862  0.5882 -0.9004
 3889SOL    HW223301   1.371   2.160   7.240 -0.6471  0.0541 -1.0159
 3890SOL     OW23302   3.251   0.137  14.160 -0.4126  0.4195  0.2783
 3890SOL    HW123303   3.261   0.059  14.105  1.1356 -0.2277  1.4759
 3890SOL    HW223304   3.333   0.131  14.208  0.0945  2.4183 -0.3465
 3891SOL     OW23305   0.582   4.590   6.842 -0.0575 -0.3969  0.4105
 3891SOL    HW123306   0.610   4.591   6.933 -0.5299 -3.1318  0.5866
 3891SOL    HW223307   0.639   4.522   6.806 -0.0738  0.0655 -0.5063
 3892SOL     OW23308   3.367   2.317   9.392  0.1064 -0.2183  0.2495
 3892SOL    HW123309   3.346   2.235   9.437 -0.2830 -0.6178 -0.6601
 3892SOL    HW223310   3.448   2.280   9.358 -1.4743 -1.8366 -1.7843
 3893SOL     OW23311   1.069   2.278   2.419 -0.3170 -0.1805 -0.2634
 3893SOL    HW123312   1.060   2.192   2.380 -3.7441  0.7854 -1.5983
 3893SOL    HW223313   1.157   2.271   2.455 -0.0519 -0.9888 -1.0869
 3894SOL     OW23314   2.781   2.662  11.100 -0.5166  0.9369 -0.0597
 3894SOL    HW123315   2.696   2.681  11.060  0.1863 -0.9901 -2.4096
 3894SOL    HW223316   2.783   2.712  11.182 -0.0415  1.9613 -0.6966
 3895SOL     OW23317   0.570   4.203   2.823  0.6492 -0.1950 -0.0171
 3895SOL    HW123318   0.529   4.249   2.749 -3.0126 -1.6791  1.0910
 3895SOL    HW223319   0.545   4.257   2.898 -1.2525 -0.4257 -0.4720
 3896SOL     OW23320   2.230   0.595   2.978 -0.2657 -0.5570  1.0455
 3896SOL    HW123321   2.310   0.542   2.974 -0.3538 -0.5703 -0.4315
 3896SOL    HW223322   2.182   0.549   3.047 -1.5681 -0.8841 -0.0802
 3897SOL     OW23323   3.128   2.494   1.047 -0.8682  0.4714 -0.0285
 3897SOL    HW123324   3.164   2.567   1.097 -1.9120  0.1148  1.2346
 3897SOL    HW223325   3.184   2.501   0.969  0.2525 -2.3047  0.5215
 3898SOL     OW23326   3.050   0.418   9.961 -0.3270  0.7607 -0.8421
 3898SOL    HW123327   3.099   0.487   9.916  0.2811  1.5045  0.9687
 3898SOL    HW223328   2.964   0.460   9.967 -0.2177  0.5326  2.5151
 3899SOL     OW23329   4.045   2.104   7.029 -0.0010  0.7238  0.0617
 3899SOL    HW123330   4.101   2.100   7.107 -1.7076  0.3163  1.2689
 3899SOL    HW223331   4.035   2.013   7.002 -1.8204  0.6096  1.1529
 3900SOL     OW23332   4.617   4.621   7.188 -0.6161 -0.3536  0.1020
 3900SOL    HW123333   4.550   4.679   7.226 -0.0464  0.6790 -0.4757
 3900SOL    HW223334   4.582   4.628   7.099  1.2493 -0.3187 -0.6301
 3901SOL     OW23335   3.132   0.824  10.362 -0.4718 -0.0981  0.2294
 3901SOL    HW123336   3.109   0.908  10.402  1.9893  0.4116  0.5875
 3901SOL    HW223337   3.190   0.797  10.433  0.7486 -0.4364 -0.8907
 3902SOL     OW23338   2.596   0.110   2.659  0.5184  0.5283 -0.0515
 3902SOL    HW123339   2.649   0.140   2.733  2.1918 -1.0341 -0.6240
 3902SOL    HW223340   2.651   0.131   2.584  0.4639  2.3367  0.4001
 3903SOL     OW23341   1.427   3.463   4.823  0.3684 -0.1721 -0.0763
 3903SOL    HW123342   1.440   3.453   4.917  0.9950 -0.4386 -0.1924
 3903SOL    HW223343   1.497   3.404   4.796 -2.4014 -2.8579 -1.4064
 3904SOL     OW23344   2.627   2.201   4.463 -0.1002  0.0772 -0.0054
 3904SOL    HW123345   2.643   2.159   4.379  1.3614 -0.0636  0.3470
 3904SOL    HW223346   2.698   2.266   4.469  1.3378 -1.4092 -0.9324
 3905SOL     OW23347   1.209   2.552   4.151 -0.0546  0.3360  0.0894
 3905SOL    HW123348   1.189   2.488   4.082 -0.4878 -1.5166  1.9375
 3905SOL    HW223349   1.239   2.501   4.225 -1.5299  0.6836  0.9325
 3906SOL     OW23350   0.276   0.457   7.541  0.1925 -0.1642  0.2119
 3906SOL    HW123351   0.266   0.515   7.465  1.9990  0.1557  0.2316
 3906SOL    HW223352   0.196   0.485   7.586  0.3871  0.1040  0.3891
 3907SOL     OW23353   3.653   0.044   2.946 -0.5466  0.0579 -0.3131
 3907SOL    HW123354   3.567   0.054   2.904 -0.9605 -0.0955  0.4901
 3907SOL    HW223355   3.670   0.136   2.964 -0.3146  0.1541 -1.0040
 3908SOL     OW23356   1.836   2.422   6.839 -0.3335 -0.1999 -0.0253
 3908SOL    HW123357   1.769   2.461   6.895  0.0085 -1.2453  1.0930
 3908SOL    HW223358   1.779   2.404   6.764  0.3144 -0.5025 -0.4420
 3909SOL     OW23359   4.112   1.257  11.420 -0.3982  0.3110 -0.2092
 3909SOL    HW123360   4.042   1.192  11.415  0.6744 -0.9463  1.1880
 3909SOL    HW223361   4.085   1.293  11.504 -0.0363 -1.8741  0.8281
 3910SOL     OW23362   3.999   0.091   4.763 -0.2711 -0.1259 -0.2647
 3910SOL    HW123363   3.909   0.103   4.731 -0.5815 -0.9975  0.3007
 3910SOL    HW223364   4.020   0.175   4.804 -1.0183 -0.6590  1.2240
 3911SOL     OW23365   0.717   0.047   1.114  0.4710  0.0183  0.0538
 3911SOL    HW123366   0.682   0.120   1.166 -2.0103 -1.9674  1.1564
 3911SOL    HW223367   0.689   0.067   1.024 -1.5490 -0.6651  0.5331
 3912SOL     OW23368   4.340   3.302   2.556 -0.1017 -0.3556  0.3116
 3912SOL    HW123369   4.269   3.239   2.570  0.4707 -1.2149 -0.6545
 3912SOL    HW223370   4.305   3.391   2.560 -0.0141 -0.1347 -4.1884
 3913SOL     OW23371   1.111   0.375   9.637  0.4161  0.8991 -0.2450
 3913SOL    HW123372   1.153   0.346   9.556 -1.3620 -1.2837 -0.3747
 3913SOL    HW223373   1.102   0.466   9.609 -1.7606  1.0771  1.0731
 3914SOL     OW23374   3.433   0.531  11.245 -0.1163  0.4157  0.0390
 3914SOL    HW123375   3.527   0.518  11.259  0.1891 -0.7994 -3.1082
 3914SOL    HW223376   3.391   0.494  11.322  2.0160 -0.7027  0.6492
 3915SOL     OW23377   3.975   1.050   3.014 -0.2321 -0.0978  0.2960
 3915SOL    HW123378   4.054   1.097   2.989  0.4499 -0.4043  1.8527
 3915SOL    HW223379   3.979   1.003   2.931  2.2522 -0.7534  0.7882
 3916SOL     OW23380   1.187   3.728   5.207 -0.3089 -0.1669 -0.2143
 3916SOL    HW123381   1.264   3.746   5.152  0.5640 -0.8596  0.7623
 3916SOL    HW223382   1.128   3.687   5.144 -0.8264 -1.2765  0.9924
 3917SOL     OW23383   3.518   1.726  16.420 -0.2274  0.3626  0.2073
 3917SOL    HW123384   3.543   1.812  16.453  0.9345  0.2821 -0.4445
 3917SOL    HW223385   3.438   1.754  16.376  0.1460 -1.5432 -1.7284
 3918SOL     OW23386   0.850   3.560   6.992  0.1897  0.1146 -0.0823
 3918SOL    HW123387   0.880   3.482   6.946  0.6838  0.9579 -1.2114
 3918SOL    HW223388   0.897   3.556   7.075 -0.2098  1.6576  0.2231
 3919SOL     OW23389   0.473   3.679   0.720  0.2263  0.3953 -1.0436
 3919SOL    HW123390   0.477   3.700   0.813 -3.1390  0.8172 -0.9942
 3919SOL    HW223391   0.541   3.611   0.720  0.4465  0.6198  1.5833
 3920SOL     OW23392   3.849   1.720   6.752  0.0428  0.0551 -0.0441
 3920SOL    HW123393   3.883   1.714   6.663 -1.6789  2.8631 -0.9060
 3920SOL    HW223394   3.827   1.813   6.756  1.8065  0.3752  1.9310
 3921SOL     OW23395   2.614   1.456   8.461  0.5132  0.4148 -0.1459
 3921SOL    HW123396   2.704   1.479   8.484  0.9321 -1.6312  0.2724
 3921SOL    HW223397   2.562   1.459   8.542 -1.2139 -0.3620 -1.2238
 3922SOL     OW23398   3.089   3.186   2.168 -0.0397  0.0671 -0.3742
 3922SOL    HW123399   3.098   3.236   2.250 -3.6755  1.6661 -0.9645
 3922SOL    HW223400   3.064   3.255   2.107  0.2546  0.5645  0.0569
 3923SOL     OW23401   2.855   3.049   2.477 -0.2924  0.2703 -0.0035
 3923SOL    HW123402   2.918   3.087   2.537 -0.4212  2.7257 -1.4272
 3923SOL    HW223403   2.902   2.974   2.439 -1.0152 -0.6152  0.8516
 3924SOL     OW23404   2.080   2.490  16.337 -0.0864 -0.4830  0.1257
 3924SOL    HW123405   2.004   2.501  16.280 -1.4905  0.5816  2.1880
 3924SOL    HW223406   2.144   2.470  16.269 -0.1977  1.7181 -0.6062
 3925SOL     OW23407   1.083   0.135   8.396 -0.3289 -0.0527 -0.1851
 3925SOL    HW123408   1.151   0.120   8.329 -0.4368 -0.9010 -0.1060
 3925SOL    HW223409   1.125   0.205   8.447 -1.9734 -0.4585  1.7048
 3926SOL     OW23410   4.541   2.765   2.301  0.4410 -0.1295  0.1934
 3926SOL    HW123411   4.523   2.671   2.298  1.3740 -0.2964 -0.2187
 3926SOL    HW223412   4.555   2.773   2.395  0.8126 -1.7368  0.2774
 3927SOL     OW23413   3.193   3.198   9.328 -0.6835  0.0747  0.0969
 3927SOL    HW123414   3.279   3.196   9.286 -0.3516  1.9727  0.6967
 3927SOL    HW223415   3.207   3.132   9.396  0.2035  0.9898  0.8022
 3928SOL     OW23416   2.595   3.618   1.380  0.4659 -0.1843 -0.2328
 3928SOL    HW123417   2.501   3.598   1.385  1.2176 -2.8969  2.9936
 3928SOL    HW223418   2.609   3.602   1.286 -0.4624 -2.3211 -0.0152
 3929SOL     OW23419   0.845   3.087   6.703 -0.0795  0.0288  0.3960
 3929SOL    HW123420   0.885   3.077   6.790  0.4869 -1.4557 -0.0456
 3929SOL    HW223421   0.752   3.100   6.717 -0.0772 -1.8537  2.1727
 3930SOL     OW23422   4.211   1.910   4.570 -0.0768 -0.1762 -0.0708
 3930SOL    HW123423   4.122   1.911   4.606 -0.3677 -1.0760 -0.7764
 3930SOL    HW223424   4.243   1.930   4.658 -3.2040  0.2664  0.9511
 3931SOL     OW23425   3.013   3.531   3.953  0.8495 -0.5771  0.0399
 3931SOL    HW123426   2.966   3.450   3.935  1.6943 -0.6756 -1.7859
 3931SOL    HW223427   2.961   3.577   3.887  1.1182 -0.5628 -0.1631
 3932SOL     OW23428   4.100   4.447   7.677  0.1998 -0.3323 -0.1302
 3932SOL    HW123429   4.043   4.381   7.639  0.5869 -0.5042 -0.4123
 3932SOL    HW223430   4.075   4.525   7.627  1.5953  0.2678  0.1199
 3933SOL     OW23431   0.671   1.181  17.668 -0.2569  0.4483  0.0659
 3933SOL    HW123432   0.673   1.144  17.580 -1.9704  1.1772 -0.2775
 3933SOL    HW223433   0.581   1.186  17.700 -0.7437 -0.2964 -1.1662
 3934SOL     OW23434   1.537   2.514  13.610 -0.1603 -0.0677  1.3448
 3934SOL    HW123435   1.476   2.585  13.628 -1.2113 -0.7148  0.3157
 3934SOL    HW223436   1.580   2.561  13.540 -2.9874 -0.6887 -0.8072
 3935SOL     OW23437   1.326   0.166   0.146 -0.5680  0.1623  0.0792
 3935SOL    HW123438   1.260   0.216   0.195 -0.5425 -0.9812  1.2887
 3935SOL    HW223439   1.266   0.115   0.091  0.7424  0.3766 -1.5537
 3936SOL     OW23440   2.707   2.787  11.332 -0.2980  0.0239 -0.4582
 3936SOL    HW123441   2.718   2.879  11.354 -1.0885  0.6445 -2.6426
 3936SOL    HW223442   2.620   2.778  11.293 -1.0835  0.0450  1.3366
 3937SOL     OW23443   2.312   1.815   3.319  0.1880  0.1458  0.5154
 3937SOL    HW123444   2.323   1.810   3.224 -1.2766 -3.0972  0.4921
 3937SOL    HW223445   2.354   1.899   3.338 -0.9647  0.6122  1.0029
 3938SOL     OW23446   1.961   3.372   2.499 -0.0478  0.3359 -0.1582
 3938SOL    HW123447   2.021   3.339   2.566 -1.0896  0.4256  0.8005
 3938SOL    HW223448   1.897   3.301   2.499  0.8264 -0.4673 -1.3465
 3939SOL     OW23449   0.868   4.486   2.917 -0.2338  0.0983  0.6355
 3939SOL    HW123450   0.960   4.503   2.937  0.3874  0.6319 -2.6985
 3939SOL    HW223451   0.861   4.444   2.831  0.1730  2.6089 -0.6326
 3940SOL     OW23452   3.981   1.728   0.905  0.1244 -0.0937  0.5942
 3940SOL    HW123453   4.051   1.793   0.914 -1.7778  2.2747 -1.4892
 3940SOL    HW223454   3.952   1.721   0.996 -0.1260  0.8308  0.5878
 3941SOL     OW23455   4.541   2.494  16.568 -0.1012  0.1358  0.0812
 3941SOL    HW123456   4.463   2.524  16.615 -1.0649 -1.9923 -0.1695
 3941SOL    HW223457   4.566   2.412  16.611  0.8287  0.3579 -0.0328
 3942SOL     OW23458   0.866   3.369   9.099  0.0876  0.1298 -0.0813
 3942SOL    HW123459   0.957   3.393   9.084  0.6619 -1.9118  0.1296
 3942SOL    HW223460   0.882   3.301   9.165  0.8146  1.1058  0.7414
 3943SOL     OW23461   2.075   4.072   2.349  0.1004 -0.0730  0.4681
 3943SOL    HW123462   1.989   4.097   2.315  0.8007  1.4704 -0.1636
 3943SOL    HW223463   2.110   4.019   2.277 -0.4592  2.2126 -1.5134
 3944SOL     OW23464   0.776   0.557  14.073  0.0241  0.2934  0.5044
 3944SOL    HW123465   0.724   0.625  14.114  0.6922  0.0715  1.7190
 3944SOL    HW223466   0.713   0.498  14.032  1.0713 -1.4219  1.3272
 3945SOL     OW23467   2.244   0.223   8.765 -0.4069  0.6464  0.4164
 3945SOL    HW123468   2.177   0.161   8.793 -0.8207  0.6369 -0.6347
 3945SOL    HW223469   2.278   0.249   8.851 -0.1220  0.4288  0.3687
 3946SOL     OW23470   2.564   2.453  10.397  0.3394 -0.3778 -0.5104
 3946SOL    HW123471   2.643   2.506  10.410 -0.3203  1.0059 -2.0554
 3946SOL    HW223472   2.542   2.418  10.483  2.6019  1.4519  0.7796
 3947SOL     OW23473   2.401   3.557   8.799  0.2121 -0.1539  1.0026
 3947SOL    HW123474   2.382   3.549   8.892 -0.6484 -1.8066  0.6905
 3947SOL    HW223475   2.414   3.650   8.786 -1.8831 -0.1300 -0.9188
 3948SOL     OW23476   3.892   2.104   5.068 -0.1585 -0.2756  0.1437
 3948SOL    HW123477   3.813   2.141   5.027 -0.0933  0.5854  0.8058
 3948SOL    HW223478   3.957   2.169   5.042 -1.1265  0.7489  0.2414
 3949SOL     OW23479   3.023   2.997  10.414  0.2079 -0.2681  0.1406
 3949SOL    HW123480   2.977   2.922  10.452 -4.4051  0.4868 -3.9915
 3949SOL    HW223481   3.109   2.987  10.456  0.2120  0.6768  0.3584
 3950SOL     OW23482   3.069   3.025   8.918 -0.3398 -0.8752  0.3883
 3950SOL    HW123483   3.039   3.102   8.871 -1.2661 -1.7841 -0.4951
 3950SOL    HW223484   2.994   3.026   8.977  0.4620 -3.2528  1.4686
 3951SOL     OW23485   0.285   3.085   7.916  0.1179 -0.7847  0.5236
 3951SOL    HW123486   0.203   3.089   7.966 -0.9562  2.1561 -1.5330
 3951SOL    HW223487   0.336   3.143   7.973  1.6661  0.6850 -2.4003
 3952SOL     OW23488   1.684   0.177   5.923 -0.2327  0.1346 -0.1044
 3952SOL    HW123489   1.667   0.120   5.848 -0.9983  1.0218 -0.6084
 3952SOL    HW223490   1.769   0.158   5.963 -0.2949 -2.3353 -1.1758
 3953SOL     OW23491   4.038   1.288   9.073 -0.6507 -0.0688 -0.3377
 3953SOL    HW123492   4.054   1.203   9.114  2.0026  0.1829 -0.9023
 3953SOL    HW223493   3.950   1.272   9.038 -0.8661  0.1134  0.1241
 3954SOL     OW23494   1.280   3.476   1.018  0.0593 -0.2851 -0.2494
 3954SOL    HW123495   1.228   3.528   1.079  1.2295  1.7003 -0.9374
 3954SOL    HW223496   1.219   3.456   0.948 -0.1733 -0.4800  0.0092
 3955SOL     OW23497   0.864   3.134   3.878 -0.2423  0.1483  0.2499
 3955SOL    HW123498   0.795   3.067   3.882 -0.1975  0.2947  3.2110
 3955SOL    HW223499   0.817   3.217   3.889  0.4754  0.7880 -1.5123
 3956SOL     OW23500   2.009   2.872   2.231  0.7057  0.0982 -0.5706
 3956SOL    HW123501   1.942   2.816   2.271 -0.9768  1.2729 -1.7389
 3956SOL    HW223502   2.081   2.855   2.292 -1.5910 -0.4224  2.0038
 3957SOL     OW23503   0.946   2.885   6.015  0.4169 -0.3317 -0.0059
 3957SOL    HW123504   0.934   2.869   6.109 -2.2714 -1.3247 -0.5230
 3957SOL    HW223505   0.866   2.936   6.000  1.0386  0.4126 -0.7759
 3958SOL     OW23506   2.998   0.099   0.960 -0.4277  0.4899  0.2441
 3958SOL    HW123507   2.995   0.117   1.054  2.2493  1.9070  0.0667
 3958SOL    HW223508   2.905   0.094   0.940 -0.1435 -0.2192 -0.9497
 3959SOL     OW23509   0.143   3.563   4.561 -0.4241  0.2739 -0.1382
 3959SOL    HW123510   0.149   3.470   4.582  0.9922  0.1172 -1.2164
 3959SOL    HW223511   0.125   3.556   4.467 -0.9286  1.3465 -0.1144
 3960SOL     OW23512   3.549   0.875   0.807  0.0265 -0.6949 -0.4293
 3960SOL    HW123513   3.494   0.920   0.743 -0.9003 -0.1966  0.7352
 3960SOL    HW223514   3.627   0.857   0.755  0.5477  1.6049 -0.4262
 3961SOL     OW23515   1.099   2.338   5.070 -0.2698 -0.2115 -0.3593
 3961SOL    HW123516   1.148   2.306   4.995  2.0273  2.2577  0.0733
 3961SOL    HW223517   1.085   2.260   5.123 -2.4507 -1.0507 -2.1585
 3962SOL     OW23518   2.105   3.825   9.414  0.0490 -0.5579  0.1271
 3962SOL    HW123519   2.051   3.778   9.351 -0.0168  2.8808 -2.3684
 3962SOL    HW223520   2.153   3.754   9.457 -0.6439 -0.1929  1.5122
 3963SOL     OW23521   0.884   0.271   8.091 -0.2007  0.1716 -0.3925
 3963SOL    HW123522   0.958   0.280   8.150 -0.6604  4.4453 -0.4949
 3963SOL    HW223523   0.838   0.193   8.123  1.8951 -1.3071 -0.9797
 3964SOL     OW23524   1.192   1.243  12.240 -0.2055 -0.4476 -0.5650
 3964SOL    HW123525   1.227   1.165  12.196  2.0324 -0.2752  0.8904
 3964SOL    HW223526   1.265   1.273  12.295 -1.9580 -1.6681  2.4623
 3965SOL     OW23527   2.452   3.091   8.788 -0.1206  0.5375  0.4470
 3965SOL    HW123528   2.413   3.142   8.717 -0.1418  1.5296  1.1718
 3965SOL    HW223529   2.417   3.007   8.756  0.1040  0.3474  0.6983
 3966SOL     OW23530   1.271   2.756  14.769  0.4776  0.4493 -0.3410
 3966SOL    HW123531   1.274   2.744  14.864 -0.8727  1.0685 -0.2254
 3966SOL    HW223532   1.203   2.822  14.759  1.1918  0.8649 -2.5045
 3967SOL     OW23533   3.111   1.793  12.274 -0.1866 -0.7359 -0.3390
 3967SOL    HW123534   3.179   1.800  12.341  2.6558 -2.0600 -3.0233
 3967SOL    HW223535   3.103   1.697  12.269  1.7309 -0.9431  0.4895
 3968SOL     OW23536   3.489   1.365   8.616 -0.4833  0.3833 -0.0873
 3968SOL    HW123537   3.542   1.376   8.538  0.4153 -0.5581  0.4030
 3968SOL    HW223538   3.557   1.381   8.681  2.3016 -0.5871 -2.8261
 3969SOL     OW23539   2.744   3.099   9.783  0.5045 -0.0951  0.4911
 3969SOL    HW123540   2.766   3.175   9.836 -2.2432 -0.4770  2.1415
 3969SOL    HW223541   2.810   3.034   9.809  0.5573 -0.3244 -0.2112
 3970SOL     OW23542   3.497   0.782  14.893 -0.2663  0.5164  0.4584
 3970SOL    HW123543   3.559   0.817  14.830 -2.1943  1.0186 -1.1628
 3970SOL    HW223544   3.443   0.857  14.918  0.5043  1.2549 -0.0598
 3971SOL     OW23545   2.447   1.132   9.906 -0.3337  0.2935 -0.2371
 3971SOL    HW123546   2.397   1.144   9.986 -0.2577 -1.4515  0.0647
 3971SOL    HW223547   2.459   1.037   9.903  0.3202  0.3550  0.6668
 3972SOL     OW23548   3.695   2.158   3.786 -0.2487  0.7833 -0.6156
 3972SOL    HW123549   3.701   2.192   3.697 -0.4363 -0.7346 -1.2034
 3972SOL    HW223550   3.692   2.243   3.831  1.4884  0.1345  0.7171
 3973SOL     OW23551   4.399   3.868   2.354  0.3876  0.3084 -0.2357
 3973SOL    HW123552   4.306   3.879   2.376  0.7899  2.3135  0.4873
 3973SOL    HW223553   4.433   3.955   2.333 -0.8814  0.6414 -0.9036
 3974SOL     OW23554   0.369   2.676   1.610  0.4346  0.4670 -0.4692
 3974SOL    HW123555   0.410   2.605   1.660 -1.7952  0.4830  1.3847
 3974SOL    HW223556   0.395   2.752   1.661 -0.5059  0.5073 -0.0600
 3975SOL     OW23557   3.319   4.376   8.395  0.1687  0.2848 -0.1150
 3975SOL    HW123558   3.321   4.281   8.381 -2.9013  0.5203 -2.0963
 3975SOL    HW223559   3.331   4.406   8.305 -0.1132  2.5190  0.5962
 3976SOL     OW23560   1.557   1.736   9.910  0.1665  0.7271 -0.7449
 3976SOL    HW123561   1.518   1.649   9.918  0.0599  0.7216 -1.3343
 3976SOL    HW223562   1.520   1.785   9.982 -0.6677 -1.2269  0.1611
 3977SOL     OW23563   2.531   1.832   6.799  0.2567 -0.4731  0.2213
 3977SOL    HW123564   2.444   1.811   6.836  0.3706  2.8236  2.3439
 3977SOL    HW223565   2.567   1.751   6.762  0.2135  0.1803 -1.2272
 3978SOL     OW23566   1.044   1.573   4.039 -0.4032  0.0960 -0.0601
 3978SOL    HW123567   1.087   1.488   4.032 -1.3659 -0.5928  2.3504
 3978SOL    HW223568   1.110   1.634   4.006  1.3945 -0.5444  2.3193
 3979SOL     OW23569   1.301   2.421  14.721 -0.3549 -0.3341 -0.0084
 3979SOL    HW123570   1.256   2.376  14.649  1.0215 -2.4228  0.4286
 3979SOL    HW223571   1.386   2.380  14.706 -1.4588 -3.2898  1.7239
 3980SOL     OW23572   4.665   1.409   2.568 -0.0297  0.0122  0.6377
 3980SOL    HW123573   4.616   1.454   2.636  0.3239  1.4524 -0.0661
 3980SOL    HW223574   4.638   1.319   2.587  0.4860  0.3955  3.1868
 3981SOL     OW23575   0.416   4.638   7.865  0.1653 -0.8384 -0.2192
 3981SOL    HW123576   0.411   4.606   7.775  0.7650 -0.3095 -0.4424
 3981SOL    HW223577   0.463   4.720   7.850  2.4340 -2.0332  0.2779
 3982SOL     OW23578   0.696   1.158   6.415 -0.2279 -0.2859  0.4480
 3982SOL    HW123579   0.634   1.102   6.368  1.6523 -1.9847  0.0195
 3982SOL    HW223580   0.632   1.202   6.471 -0.8519  0.1257 -0.5886
 3983SOL     OW23581   4.294   0.514   2.285  0.2671  0.4102 -0.2084
 3983SOL    HW123582   4.208   0.472   2.281 -0.1067  1.2494 -1.0624
 3983SOL    HW223583   4.310   0.516   2.190 -0.0901  1.1069 -0.2510
 3984SOL     OW23584   3.893   1.908   9.301 -0.3017 -0.2635  0.0819
 3984SOL    HW123585   3.810   1.879   9.340  0.4141  0.8239  2.3600
 3984SOL    HW223586   3.863   1.917   9.210 -1.1668  1.2635  0.5230
 3985SOL     OW23587   1.455   1.108   5.768  0.2647  0.5164  0.4210
 3985SOL    HW123588   1.449   1.024   5.723 -2.4279  0.6812  0.4891
 3985SOL    HW223589   1.518   1.156   5.714  1.0080  0.9985  1.6913
 3986SOL     OW23590   3.144   3.337  17.367  0.0309 -0.4895 -0.0070
 3986SOL    HW123591   3.127   3.431  17.372 -1.0331 -0.6531 -0.5598
 3986SOL    HW223592   3.215   3.327  17.431  0.6953 -0.5811 -0.7487
 3987SOL     OW23593   1.605   0.014   9.027 -0.2339 -0.1529  0.5911
 3987SOL    HW123594   1.692   4.712   9.042  0.2848  0.7533 -0.1157
 3987SOL    HW223595   1.558   0.009   9.110  1.0279 -0.7425  1.2793
 3988SOL     OW23596   2.723   2.768   7.923  0.4812  0.9677 -0.3780
 3988SOL    HW123597   2.808   2.740   7.957 -0.6645 -1.4583  0.4493
 3988SOL    HW223598   2.696   2.829   7.992  1.4941  2.8653 -1.6649
 3989SOL     OW23599   1.966   1.684   3.012  0.1789 -0.3391 -0.8247
 3989SOL    HW123600   2.061   1.677   2.997  0.4752  1.6705  0.1215
 3989SOL    HW223601   1.951   1.630   3.090  0.4710 -0.5357 -0.9039
 3990SOL     OW23602   0.470   3.389   0.904 -0.2061 -0.0306 -0.5756
 3990SOL    HW123603   0.532   3.440   0.956  1.3319 -2.3953 -0.0896
 3990SOL    HW223604   0.520   3.402   0.824  1.6321  1.4862  0.8060
 3991SOL     OW23605   4.350   4.245  16.861  0.4617  0.2543 -0.1177
 3991SOL    HW123606   4.418   4.186  16.893 -0.5897 -1.5217 -1.1816
 3991SOL    HW223607   4.316   4.263  16.949  1.4531 -0.1765  0.3514
 3992SOL     OW23608   3.703   3.142  12.208 -0.1392 -0.1278 -0.0208
 3992SOL    HW123609   3.627   3.200  12.213  0.2482  0.4599 -0.9999
 3992SOL    HW223610   3.678   3.078  12.141 -0.7570  0.9111 -0.7815
 3993SOL     OW23611   2.069   4.406   2.333 -0.0336  0.8496 -0.0305
 3993SOL    HW123612   2.070   4.347   2.408 -2.8788 -0.3071 -0.8967
 3993SOL    HW223613   2.157   4.444   2.340 -0.6625  2.2367  0.1767
 3994SOL     OW23614   2.478   3.991   4.648  0.3779 -0.1623 -0.2938
 3994SOL    HW123615   2.531   4.053   4.697  1.0818 -0.8070 -0.2384
 3994SOL    HW223616   2.490   3.905   4.690  0.5573 -0.4981 -1.0307
 3995SOL     OW23617   1.537   2.061   6.250  0.1193 -0.1718  0.5214
 3995SOL    HW123618   1.471   2.028   6.190  0.3566  1.0362 -0.4067
 3995SOL    HW223619   1.598   2.099   6.186 -1.8923  1.1032 -0.6357
 3996SOL     OW23620   3.997   4.656   9.082 -0.1343 -0.5082 -0.1507
 3996SOL    HW123621   4.065   4.633   9.145 -0.1027  1.9172  0.7075
 3996SOL    HW223622   4.049   4.708   9.021 -1.0873 -0.2961 -0.7765
 3997SOL     OW23623   0.715   2.473  14.228  0.5217  0.0659  0.0225
 3997SOL    HW123624   0.637   2.519  14.260 -1.1770 -2.4519 -0.5335
 3997SOL    HW223625   0.676   2.444  14.145  2.5229 -0.5038 -0.7178
 3998SOL     OW23626   4.525   0.158   1.128 -0.2584 -0.4391 -0.1907
 3998SOL    HW123627   4.620   0.145   1.132 -0.1559  0.9252  2.3256
 3998SOL    HW223628   4.518   0.152   1.033  2.7256 -0.5220 -0.4229
 3999SOL     OW23629   0.778   2.163   4.160 -1.0460  0.1541  0.4046
 3999SOL    HW123630   0.804   2.184   4.071  1.7823  1.7823  1.6244
 3999SOL    HW223631   0.741   2.077   4.141 -0.2308 -0.0296 -0.3389
 4000SOL     OW23632   1.128   1.768   2.974  0.3030  0.3928 -0.1275
 4000SOL    HW123633   1.207   1.774   3.027 -0.2110  0.1734  0.6814
 4000SOL    HW223634   1.113   1.859   2.948 -1.0632  0.4202  0.7011
 4001SOL     OW23635   0.797   2.129   0.508 -0.4027 -0.0769  0.1294
 4001SOL    HW123636   0.841   2.056   0.550 -0.8697 -0.0884  0.5951
 4001SOL    HW223637   0.726   2.143   0.571  0.1313 -0.0872  0.7196
 4002SOL     OW23638   3.844   3.157   7.569 -0.3898  0.0283 -0.0708
 4002SOL    HW123639   3.752   3.181   7.555 -0.5910 -0.7065 -0.0108
 4002SOL    HW223640   3.847   3.217   7.644 -1.7350  1.6952 -1.3413
 4003SOL     OW23641   0.885   1.235  15.949  0.1636  0.0157 -0.9431
 4003SOL    HW123642   0.853   1.205  15.864 -0.6687  1.4571 -1.1452
 4003SOL    HW223643   0.808   1.282  15.982  0.9969  0.2718  0.6598
 4004SOL     OW23644   2.881   0.361   4.954  0.6921  0.2977 -0.4249
 4004SOL    HW123645   2.920   0.446   4.932  1.9956 -0.0489  0.5054
 4004SOL    HW223646   2.925   0.306   4.889  1.1864 -1.8839  1.7658
 4005SOL     OW23647   3.261   1.456   8.768 -0.0697 -0.1347 -0.3782
 4005SOL    HW123648   3.279   1.535   8.818  1.0804  0.4825 -1.7660
 4005SOL    HW223649   3.350   1.421   8.773  0.6568  1.8524  0.2642
 4006SOL     OW23650   3.442   1.581   3.464  0.3613  0.3796  0.1312
 4006SOL    HW123651   3.418   1.577   3.556 -0.5741  1.2947 -0.0641
 4006SOL    HW223652   3.485   1.667   3.469 -1.0361  1.0374  0.7358
 4007SOL     OW23653   2.775   4.557   0.423 -0.0110 -0.3864  0.0997
 4007SOL    HW123654   2.864   4.526   0.437  0.6577  1.3311 -0.4122
 4007SOL    HW223655   2.787   4.652   0.419  0.4658 -0.5757 -2.7902
 4008SOL     OW23656   4.074   2.603   2.803 -0.0118  0.1798  0.2656
 4008SOL    HW123657   4.086   2.546   2.879  0.9416 -0.3285 -0.2815
 4008SOL    HW223658   4.149   2.661   2.817 -0.4261  1.2726 -2.1827
 4009SOL     OW23659   4.227   0.126  10.457  0.0933  0.1983  0.1623
 4009SOL    HW123660   4.259   0.216  10.449  2.0665 -0.5670 -0.6644
 4009SOL    HW223661   4.288   0.064  10.417 -0.3831  0.9384 -1.7148
 4010SOL     OW23662   0.846   1.238   4.037  0.1355  0.2643  0.4551
 4010SOL    HW123663   0.899   1.278   3.968  1.2296 -1.2556  0.3982
 4010SOL    HW223664   0.878   1.148   4.037  0.6521  0.4437 -0.7474
 4011SOL     OW23665   2.154   2.318   6.552  0.0266 -0.2081  0.0970
 4011SOL    HW123666   2.156   2.349   6.643 -1.8520  0.5851 -0.1480
 4011SOL    HW223667   2.069   2.275   6.551 -0.4733  0.8295 -2.1042
 4012SOL     OW23668   2.641   2.574   1.943  0.4161 -0.0548  0.2618
 4012SOL    HW123669   2.704   2.558   2.013 -0.1696 -1.0287  0.5647
 4012SOL    HW223670   2.615   2.666   1.951 -0.3350 -0.2735  0.3856
 4013SOL     OW23671   0.336   0.242   5.992 -0.2166  0.1460  0.0087
 4013SOL    HW123672   0.296   0.217   5.909  0.3240 -0.1734 -0.1560
 4013SOL    HW223673   0.290   0.324   6.012 -0.8764 -0.4683  0.9843
 4014SOL     OW23674   1.392   0.972   2.239  0.3285  0.6910  0.1756
 4014SOL    HW123675   1.403   0.895   2.294 -1.4226  0.1771 -0.2038
 4014SOL    HW223676   1.415   0.943   2.151 -2.2882 -1.2752  0.1807
 4015SOL     OW23677   0.465   3.705   4.775  0.4908  0.4667  0.0788
 4015SOL    HW123678   0.497   3.615   4.778 -0.1089  0.2963  1.6136
 4015SOL    HW223679   0.521   3.759   4.831  0.1321  0.8182  0.1042
 4016SOL     OW23680   1.371   2.886  13.863 -0.0367 -0.3330  0.5261
 4016SOL    HW123681   1.285   2.929  13.861  0.3078  0.2194 -3.0334
 4016SOL    HW223682   1.402   2.896  13.953  1.9045 -2.1195  0.0668
 4017SOL     OW23683   3.852   0.389   5.576  0.3102  0.1128 -0.7877
 4017SOL    HW123684   3.784   0.323   5.562  0.1862 -0.1127  0.7700
 4017SOL    HW223685   3.933   0.349   5.544  0.5693 -0.3659  0.4427
 4018SOL     OW23686   1.825   3.728   7.667 -0.3411 -0.6655 -0.0504
 4018SOL    HW123687   1.762   3.729   7.596 -1.0434  2.0275  0.5998
 4018SOL    HW223688   1.902   3.704   7.614 -0.5000  1.4292 -1.2510
 4019SOL     OW23689   1.215   1.789   9.487  0.5183  0.2567 -0.4566
 4019SOL    HW123690   1.252   1.822   9.569  2.8643 -1.1883 -0.9318
 4019SOL    HW223691   1.235   1.697   9.502 -1.8374 -0.7495 -3.5050
 4020SOL     OW23692   3.180   1.507  10.053 -0.2039  0.5662 -0.4927
 4020SOL    HW123693   3.174   1.536   9.962  0.3726  1.6618 -0.1922
 4020SOL    HW223694   3.270   1.537  10.068  0.1682 -1.1609  0.7642
 4021SOL     OW23695   3.365   4.435   4.406  0.3606 -0.6691  0.0814
 4021SOL    HW123696   3.327   4.386   4.332 -0.3888 -2.0964  1.4093
 4021SOL    HW223697   3.418   4.370   4.452 -0.2515  2.1893  4.8211
 4022SOL     OW23698   3.969   4.294   9.418 -0.1108 -0.6078 -1.0976
 4022SOL    HW123699   3.914   4.250   9.354 -0.1495  0.7953 -2.0210
 4022SOL    HW223700   3.926   4.374   9.447 -1.5700 -1.6626 -0.2965
 4023SOL     OW23701   4.157   0.215   2.363  0.0324  0.1938  0.3313
 4023SOL    HW123702   4.198   0.229   2.448  0.8552 -1.5166  0.2087
 4023SOL    HW223703   4.068   0.245   2.381 -0.4290 -0.7839 -0.2877
 4024SOL     OW23704   2.952   1.883   6.430  0.0447 -0.4244 -1.1004
 4024SOL    HW123705   3.027   1.920   6.384 -1.4118  1.8083 -1.6915
 4024SOL    HW223706   2.888   1.893   6.361  0.3090 -0.9274 -1.4164
 4025SOL     OW23707   3.176   2.782   9.813 -0.4043 -0.0756 -0.1066
 4025SOL    HW123708   3.267   2.765   9.838 -0.0550 -0.5058 -1.6185
 4025SOL    HW223709   3.187   2.859   9.756  0.7903 -1.1145 -1.2832
 4026SOL     OW23710   2.131   2.548   5.222  0.4134 -0.9321  0.2294
 4026SOL    HW123711   2.132   2.520   5.131  0.3739 -0.5080  0.0993
 4026SOL    HW223712   2.082   2.631   5.225  1.7263 -0.1643  0.2463
 4027SOL     OW23713   4.258   2.850   6.112  0.6113  0.4578  0.2019
 4027SOL    HW123714   4.307   2.883   6.038  0.3868 -1.9783 -1.0197
 4027SOL    HW223715   4.201   2.923   6.135  1.8146  0.6875  2.5053
 4028SOL     OW23716   1.018   0.045   2.500  0.6268  0.1567 -0.2818
 4028SOL    HW123717   1.090   0.092   2.541  0.2856  1.0123 -0.6616
 4028SOL    HW223718   0.977   0.111   2.444  1.7734  1.9662  1.0238
 4029SOL     OW23719   3.581   2.085   2.670  0.6349 -0.2235  0.2283
 4029SOL    HW123720   3.606   2.177   2.667  0.6777 -0.1393  2.7616
 4029SOL    HW223721   3.596   2.057   2.580 -2.7216  0.4787 -0.5530
 4030SOL     OW23722   4.041   2.520   5.218 -0.5294 -0.0140 -0.2020
 4030SOL    HW123723   3.974   2.552   5.278 -2.0508 -1.3136 -1.2243
 4030SOL    HW223724   4.116   2.532   5.276 -0.2600 -2.6066 -0.0151
 4031SOL     OW23725   4.587   0.800  14.538 -0.3734  0.6756 -0.2919
 4031SOL    HW123726   4.557   0.862  14.603 -1.7595 -1.4502  1.0903
 4031SOL    HW223727   4.603   0.852  14.459  0.6976  0.4635 -0.2176
 4032SOL     OW23728   2.668   1.856   2.988  0.3984  0.1044  0.0560
 4032SOL    HW123729   2.707   1.917   3.051  0.6583 -0.9829  0.9426
 4032SOL    HW223730   2.684   1.893   2.901  1.7078  0.0569  0.2813
 4033SOL     OW23731   4.594   2.938   9.508  0.0474 -0.2033  0.1017
 4033SOL    HW123732   4.596   2.877   9.434  2.1942  1.1452 -0.9422
 4033SOL    HW223733   4.592   2.876   9.581 -0.2848  0.3302  0.5468
 4034SOL     OW23734   2.459   0.498   5.671  0.4100  0.1977  0.3835
 4034SOL    HW123735   2.520   0.454   5.731  3.0095  0.1982 -2.2053
 4034SOL    HW223736   2.393   0.430   5.659  1.1667 -0.6683  1.1222
 4035SOL     OW23737   2.242   3.234   7.714  0.8081 -0.0838  0.1247
 4035SOL    HW123738   2.211   3.286   7.640  2.2506 -0.4923 -0.7627
 4035SOL    HW223739   2.326   3.274   7.735  0.3569  1.9100 -1.8911
 4036SOL     OW23740   0.888   4.109   8.210  0.6023 -0.1437  0.3575
 4036SOL    HW123741   0.861   4.201   8.203 -0.8197 -0.8164 -3.1575
 4036SOL    HW223742   0.844   4.087   8.291 -0.6922 -0.2520 -0.3757
 4037SOL     OW23743   3.944   0.132   0.179  0.0889 -0.3391  0.2156
 4037SOL    HW123744   4.004   0.184   0.233 -0.5270  1.1121 -0.5065
 4037SOL    HW223745   3.881   0.200   0.155  1.2220  0.4882 -0.3987
 4038SOL     OW23746   0.966   4.212  12.711  0.1212  0.1570 -0.2881
 4038SOL    HW123747   0.926   4.295  12.738  0.2757 -0.2495  1.1661
 4038SOL    HW223748   0.972   4.151  12.784 -0.1607 -1.7181 -1.8098
 4039SOL     OW23749   1.418   3.718  16.961 -0.8827 -0.1572 -0.4161
 4039SOL    HW123750   1.511   3.735  16.943 -0.4195  0.0255  2.1392
 4039SOL    HW223751   1.416   3.749  17.051  1.0874 -1.1422 -0.0267
 4040SOL     OW23752   0.324   4.531   8.906 -0.4320 -0.1475  0.7217
 4040SOL    HW123753   0.265   4.468   8.947  0.0027 -0.6558  0.5617
 4040SOL    HW223754   0.260   4.593   8.872 -0.0567  0.5922  1.3781
 4041SOL     OW23755   3.912   0.694   2.641  0.3301  0.1560 -0.7629
 4041SOL    HW123756   3.881   0.655   2.559 -2.2248 -0.1510  0.3238
 4041SOL    HW223757   4.006   0.698   2.625  0.1119 -2.0375 -2.6007
 4042SOL     OW23758   0.455   1.478   7.954  0.7108 -0.6975  0.1494
 4042SOL    HW123759   0.523   1.509   7.894  0.1634 -2.8756 -1.6251
 4042SOL    HW223760   0.461   1.538   8.028 -1.0596  2.1649 -2.0270
 4043SOL     OW23761   0.270   0.991   3.027  0.3230  0.2814  0.6357
 4043SOL    HW123762   0.201   1.031   3.080 -0.6195 -0.0291 -0.3532
 4043SOL    HW223763   0.244   1.000   2.935  1.3713 -0.3919  0.2748
 4044SOL     OW23764   4.362   0.636   2.690 -0.5874 -0.2504  0.3406
 4044SOL    HW123765   4.439   0.655   2.744  0.3637 -0.7230 -0.8535
 4044SOL    HW223766   4.330   0.556   2.731  0.9646 -1.4900 -0.8863
 4045SOL     OW23767   0.118   2.963   3.026 -0.1370 -0.2084  0.0574
 4045SOL    HW123768   0.113   3.050   3.065  2.0534 -0.8859  1.8379
 4045SOL    HW223769   0.043   2.913   3.056 -0.2666 -1.1041 -1.7630
 4046SOL     OW23770   4.212   4.632   5.915 -0.1112 -0.3162  0.0856
 4046SOL    HW123771   4.173   4.555   5.956  0.6061 -0.1132  1.1720
 4046SOL    HW223772   4.188   4.622   5.823  1.4940 -0.4874 -0.3151
 4047SOL     OW23773   1.474   4.155  16.111  0.3551 -0.3390  0.2482
 4047SOL    HW123774   1.412   4.227  16.120 -0.8267 -1.3125 -0.0314
 4047SOL    HW223775   1.422   4.091  16.062  0.3767 -1.0381  1.1497
 4048SOL     OW23776   1.893   1.403   2.215  0.1636  0.0526  0.4451
 4048SOL    HW123777   1.935   1.462   2.152  0.2217  0.9393  1.3108
 4048SOL    HW223778   1.818   1.378   2.161 -0.0213  1.0217  0.2601
 4049SOL     OW23779   4.716   2.721   6.436 -0.2850 -0.5235  0.1496
 4049SOL    HW123780   4.656   2.756   6.370  0.8341 -0.3794 -0.7941
 4049SOL    HW223781   4.659   2.655   6.475 -2.2566  1.1521  0.0858
 4050SOL     OW23782   0.511   3.411   8.313  0.0636 -0.0704  0.0423
 4050SOL    HW123783   0.597   3.439   8.345 -0.0072  1.1649 -0.8784
 4050SOL    HW223784   0.504   3.451   8.226 -1.3848 -1.3808 -0.4528
 4051SOL     OW23785   3.497   2.792  14.335 -0.4708 -0.0731  0.5483
 4051SOL    HW123786   3.461   2.857  14.395  1.3889 -1.5981  3.3216
 4051SOL    HW223787   3.423   2.790  14.274 -1.6050  3.0626  1.8359
 4052SOL     OW23788   0.342   3.547   5.827  0.5104  0.1259 -0.2234
 4052SOL    HW123789   0.280   3.574   5.895  0.4936 -0.2626 -0.0894
 4052SOL    HW223790   0.319   3.457   5.805 -0.5208  1.1247 -3.3120
 4053SOL     OW23791   0.437   4.070   8.081  0.0031 -0.5571  0.5114
 4053SOL    HW123792   0.445   4.160   8.114 -1.7599  0.0070 -0.6124
 4053SOL    HW223793   0.341   4.063   8.077 -0.0693 -0.3782  1.8765
 4054SOL     OW23794   0.523   1.522   7.160 -0.4409 -0.0174 -0.0397
 4054SOL    HW123795   0.454   1.478   7.211 -0.3107  0.9059  0.9279
 4054SOL    HW223796   0.542   1.591   7.223 -0.2075  3.2953 -3.7802
 4055SOL     OW23797   1.029   4.637  10.736  0.2706  0.2931  0.6393
 4055SOL    HW123798   1.043   4.592  10.820 -0.8828 -0.5302  0.3900
 4055SOL    HW223799   1.112   4.614  10.694 -0.1274 -0.5955  0.3391
 4056SOL     OW23800   0.103   0.590   7.320 -0.0124  0.6343  0.2195
 4056SOL    HW123801   0.035   0.529   7.347  0.4116  0.7498  1.5622
 4056SOL    HW223802   0.055   0.666   7.286  1.6467  1.5577 -0.0826
 4057SOL     OW23803   2.101   2.513   2.620  0.3000  0.2389  0.5441
 4057SOL    HW123804   2.074   2.426   2.650 -0.6884  0.5706  0.6442
 4057SOL    HW223805   2.155   2.496   2.543 -1.2810  0.8223 -0.7094
 4058SOL     OW23806   3.534   2.602   1.729 -0.0785  0.2784  0.3244
 4058SOL    HW123807   3.533   2.621   1.635 -0.3033  0.9279  0.4605
 4058SOL    HW223808   3.621   2.630   1.760  0.1690  1.5794 -1.5589
 4059SOL     OW23809   1.520   1.731   0.301 -0.3239 -0.3581  0.0925
 4059SOL    HW123810   1.514   1.826   0.288  2.9840 -0.1804 -0.2055
 4059SOL    HW223811   1.507   1.727   0.396  0.4041  3.0812  0.3439
 4060SOL     OW23812   0.143   3.960  13.740  0.5969 -0.1661 -0.1993
 4060SOL    HW123813   0.188   3.935  13.659 -0.9523 -1.2303 -0.7543
 4060SOL    HW223814   0.052   3.947  13.713  0.0497 -0.8077  1.9442
 4061SOL     OW23815   0.010   0.138  17.735 -0.1305  0.0839 -0.2220
 4061SOL    HW123816   0.010   0.080   0.069 -0.4723  0.0974 -0.2112
 4061SOL    HW223817   0.059   0.081  17.676 -0.5893 -0.9532  0.4037
 4062SOL     OW23818   0.750   1.702  13.809  0.3475  0.2330  0.5444
 4062SOL    HW123819   0.672   1.658  13.774  0.7683  0.0819 -0.1969
 4062SOL    HW223820   0.794   1.701  13.724 -1.2480 -1.6443 -0.2595
 4063SOL     OW23821   2.686   2.076   9.753 -0.5713  0.5955 -0.4193
 4063SOL    HW123822   2.758   2.130   9.720  0.9893  0.1693  2.3025
 4063SOL    HW223823   2.617   2.127   9.711 -1.8794 -0.1449  0.8355
 4064SOL     OW23824   4.719   1.978   0.801 -0.4230  0.2303  0.1733
 4064SOL    HW123825   4.657   1.973   0.729  1.7744  1.1971 -1.7643
 4064SOL    HW223826   0.057   1.964   0.743 -1.4800 -1.4091 -0.7781
 4065SOL     OW23827   2.343   2.920  13.993  0.0309  0.3646 -0.4401
 4065SOL    HW123828   2.395   2.903  13.915  2.6518  1.5602  1.0312
 4065SOL    HW223829   2.387   2.870  14.062 -0.3989  0.2238 -0.2675
 4066SOL     OW23830   2.255   0.266   0.858 -0.1927 -0.3893  0.0151
 4066SOL    HW123831   2.232   0.178   0.885  0.1509 -0.1951  0.9338
 4066SOL    HW223832   2.342   0.238   0.831 -0.5971 -1.2248 -0.4166
 4067SOL     OW23833   0.034   0.089   8.412  0.0164 -0.0860  0.5048
 4067SOL    HW123834   4.680   0.070   8.389  0.3718 -0.5720 -0.4815
 4067SOL    HW223835   0.054   0.003   8.447 -2.3927 -1.5497 -1.7619
 4068SOL     OW23836   4.039   0.208   1.559  0.1312  0.0715 -0.3807
 4068SOL    HW123837   4.130   0.219   1.587  0.6182 -1.4022 -1.3738
 4068SOL    HW223838   3.990   0.234   1.637 -0.3202 -1.1145 -0.2616
 4069SOL     OW23839   2.746   0.081   8.133 -0.2071  0.3535  0.0178
 4069SOL    HW123840   2.673   0.134   8.099 -1.2045 -1.8579 -1.2844
 4069SOL    HW223841   2.751   0.134   8.212 -2.7044  1.0548 -0.2770
 4070SOL     OW23842   2.765   1.285   3.962  0.2780 -0.7505 -0.2654
 4070SOL    HW123843   2.835   1.334   3.919  1.2125 -1.3899  0.5339
 4070SOL    HW223844   2.716   1.254   3.886  0.2131 -1.2932 -0.0007
 4071SOL     OW23845   0.093   0.478   1.764  0.0705 -0.3801 -0.2829
 4071SOL    HW123846   0.174   0.433   1.787  0.6752  0.9168  0.1081
 4071SOL    HW223847   0.048   0.427   1.696 -0.7089 -1.9922  1.4341
 4072SOL     OW23848   0.320   0.043  13.963 -0.2681  0.6044 -0.4502
 4072SOL    HW123849   0.307   0.133  13.993  3.9614  0.5995  1.2911
 4072SOL    HW223850   0.415   0.036  13.969 -0.6333 -2.5366  1.6416
 4073SOL     OW23851   0.937   2.278   5.961 -0.3679 -0.8523 -0.1709
 4073SOL    HW123852   0.857   2.229   5.980  0.4677 -2.1706 -0.1128
 4073SOL    HW223853   0.990   2.214   5.914  3.4027  0.8387  1.7707
 4074SOL     OW23854   0.348   1.058   2.307 -0.3967  0.3717 -0.5445
 4074SOL    HW123855   0.364   1.150   2.329  0.5211 -0.1146  0.8096
 4074SOL    HW223856   0.265   1.050   2.354  0.9459  2.1048  2.1127
 4075SOL     OW23857   3.827   0.972  16.931  0.4208 -0.1439 -0.5849
 4075SOL    HW123858   3.915   0.982  16.967  0.3505  1.0781 -0.7365
 4075SOL    HW223859   3.827   1.043  16.867  1.0356 -1.3029 -1.8678
 4076SOL     OW23860   3.499   3.227   9.267 -0.1092 -0.3911  0.4899
 4076SOL    HW123861   3.552   3.306   9.278  1.0337 -1.0821 -0.0886
 4076SOL    HW223862   3.534   3.154   9.318 -0.4182 -0.2223  0.9445
 4077SOL     OW23863   3.908   3.017  14.351 -0.3206  0.2767  0.1578
 4077SOL    HW123864   3.848   2.943  14.339 -0.4061  0.1735  1.2477
 4077SOL    HW223865   3.914   3.056  14.264 -2.3177 -1.6029 -0.8418
 4078SOL     OW23866   1.513   3.268   3.675 -0.6447 -0.3876 -0.2647
 4078SOL    HW123867   1.582   3.260   3.741 -0.7249  0.4815 -0.0638
 4078SOL    HW223868   1.438   3.302   3.724  1.4224  1.2102  1.7672
 4079SOL     OW23869   3.546   0.282   1.717  0.4127 -0.4997  0.0903
 4079SOL    HW123870   3.623   0.230   1.738  0.2878 -0.9812 -0.6491
 4079SOL    HW223871   3.474   0.219   1.717  1.1938 -1.3925  0.0117
 4080SOL     OW23872   3.370   4.463   0.194  0.1029 -0.2508 -0.7317
 4080SOL    HW123873   3.383   4.554   0.168  2.0055 -0.2276  0.3261
 4080SOL    HW223874   3.436   4.409   0.151 -0.1876 -3.6241  3.0784
 4081SOL     OW23875   4.666   3.904   8.590 -0.2699 -0.1975  0.2789
 4081SOL    HW123876   4.633   3.954   8.515  2.4199  0.6666 -0.3230
 4081SOL    HW223877   0.023   3.897   8.568 -0.2303 -0.6431  0.5884
 4082SOL     OW23878   1.023   1.545   8.788 -0.1285 -0.0339 -0.4438
 4082SOL    HW123879   1.024   1.625   8.734 -2.1329  1.1950  1.3400
 4082SOL    HW223880   0.940   1.547   8.835 -0.0787 -0.3609 -0.3469
 4083SOL     OW23881   4.143   2.318   6.536 -0.1191 -0.0745 -0.3416
 4083SOL    HW123882   4.100   2.260   6.600 -1.2112  0.8211 -0.2734
 4083SOL    HW223883   4.206   2.251   6.510 -0.1208 -0.3772  0.4355
 4084SOL     OW23884   3.959   0.025   4.106  0.0519  0.1241 -0.5742
 4084SOL    HW123885   4.043   0.007   4.063  0.6012  0.0023  0.5642
 4084SOL    HW223886   3.982   0.047   4.196 -0.3333  3.1435 -1.1866
 4085SOL     OW23887   2.838   2.503   2.341  0.3708 -0.0973  0.5723
 4085SOL    HW123888   2.916   2.451   2.323 -0.4345 -0.9334 -0.4979
 4085SOL    HW223889   2.808   2.475   2.427 -0.0573  0.9047  0.7516
 4086SOL     OW23890   2.262   3.901   2.479  0.0787 -0.1932  0.2116
 4086SOL    HW123891   2.168   3.921   2.476 -0.1911 -1.4010  0.7551
 4086SOL    HW223892   2.298   3.961   2.413  2.4759 -1.0427  0.7484
 4087SOL     OW23893   0.485   1.304   2.954 -0.3381  0.3182 -0.4809
 4087SOL    HW123894   0.549   1.278   3.021 -1.4724 -0.0514  0.4483
 4087SOL    HW223895   0.434   1.374   2.994  0.5830  0.2006  0.8934
 4088SOL     OW23896   0.416   1.740   7.762 -0.1883 -0.3057  0.2514
 4088SOL    HW123897   0.481   1.751   7.831  1.4515 -1.9077 -1.0395
 4088SOL    HW223898   0.405   1.830   7.732 -0.7865 -0.6578 -0.6082
 4089SOL     OW23899   2.794   0.830   2.725 -0.1548 -0.5382 -0.1682
 4089SOL    HW123900   2.773   0.899   2.788  1.9999  0.3252 -0.3918
 4089SOL    HW223901   2.713   0.779   2.719 -0.7401  0.0948  2.4566
 4090SOL     OW23902   0.079   3.150   1.505 -0.3979 -0.1090  0.4596
 4090SOL    HW123903   0.139   3.151   1.579  1.0717 -1.4077 -0.7264
 4090SOL    HW223904   0.135   3.135   1.429 -2.2699 -0.2365 -0.9025
 4091SOL     OW23905   0.317   1.575  15.217 -0.1110 -0.2708  0.4103
 4091SOL    HW123906   0.369   1.495  15.229 -0.3931 -1.0273 -3.2448
 4091SOL    HW223907   0.309   1.574  15.122  0.4611  0.5909  0.3558
 4092SOL     OW23908   0.389   0.022   8.172 -0.1678 -0.1751 -0.2663
 4092SOL    HW123909   0.402   4.696   8.100 -1.4042  0.0715 -0.7009
 4092SOL    HW223910   0.365   4.693   8.238 -0.2184 -4.0262 -4.0669
 4093SOL     OW23911   4.698   0.405  15.832  0.3187 -0.1558  0.6293
 4093SOL    HW123912   4.720   0.441  15.917  1.5155  0.6095 -0.0150
 4093SOL    HW223913   0.028   0.447  15.777 -1.4897 -1.0036 -2.1862
 4094SOL     OW23914   3.325   4.721  11.600  0.0210 -0.7084 -0.4265
 4094SOL    HW123915   3.357   4.699  11.512 -0.8805  1.1650 -1.2158
 4094SOL    HW223916   3.403   4.697  11.649 -0.6492 -1.3729  0.3184
 4095SOL     OW23917   0.133   1.132  12.345  0.1882  0.1303  0.0885
 4095SOL    HW123918   0.134   1.093  12.258 -0.3663 -1.0957  0.6215
 4095SOL    HW223919   0.215   1.180  12.346  1.3072 -1.8189  2.0584
 4096SOL     OW23920   1.931   3.497   3.019 -0.1930 -0.1575  0.0490
 4096SOL    HW123921   2.004   3.508   3.080 -1.4811  1.3008  1.3466
 4096SOL    HW223922   1.857   3.499   3.080 -0.2037 -0.0158  0.0309
 4097SOL     OW23923   3.992   4.191   4.455 -0.2450 -0.1676 -0.4499
 4097SOL    HW123924   4.028   4.246   4.525 -3.3559 -0.1204  1.1167
 4097SOL    HW223925   3.923   4.249   4.422 -1.1892 -0.6555  0.6836
 4098SOL     OW23926   0.195   0.417  15.012 -0.4700  0.5889 -0.1726
 4098SOL    HW123927   0.143   0.486  14.969 -1.1682  1.0875  1.4458
 4098SOL    HW223928   0.284   0.430  14.978 -0.3214  0.8093  0.2940
 4099SOL     OW23929   2.731   0.984  16.322 -0.6286 -0.3522  0.0549
 4099SOL    HW123930   2.663   0.942  16.269 -0.9258 -0.3262  0.4205
 4099SOL    HW223931   2.759   0.917  16.385 -2.2412 -0.8017  0.2898
 4100SOL     OW23932   2.884   2.075   4.919 -0.1074  0.0903 -0.2306
 4100SOL    HW123933   2.867   1.984   4.892 -1.1685  0.2180 -0.0095
 4100SOL    HW223934   2.911   2.056   5.009  1.7594  1.5873 -0.4999
 4101SOL     OW23935   2.443   4.369   7.870  0.0233 -0.5597  0.3254
 4101SOL    HW123936   2.518   4.352   7.927 -0.5143  1.2810  1.6041
 4101SOL    HW223937   2.367   4.385   7.927 -0.5748  2.8881 -1.4887
 4102SOL     OW23938   3.025   1.936  16.697 -0.4495  0.1542 -0.1260
 4102SOL    HW123939   3.099   1.997  16.689  0.0090 -0.6040 -1.4986
 4102SOL    HW223940   2.951   1.997  16.690 -0.3861  0.1852 -0.5222
 4103SOL     OW23941   4.312   3.235   3.352  0.2718  0.0370 -0.0509
 4103SOL    HW123942   4.249   3.307   3.359 -0.7480 -0.8186 -0.6565
 4103SOL    HW223943   4.389   3.278   3.313  0.3277  0.4462  0.5133
 4104SOL     OW23944   2.983   0.914  13.468 -0.2698  0.4000  0.3591
 4104SOL    HW123945   2.973   1.000  13.510  0.7535 -0.6613  2.7296
 4104SOL    HW223946   2.930   0.855  13.521 -0.9107  1.8692  1.3732
 4105SOL     OW23947   0.649   0.613  12.771  0.3154 -0.0079 -0.5577
 4105SOL    HW123948   0.715   0.545  12.757  0.6876  0.3471 -0.4973
 4105SOL    HW223949   0.609   0.617  12.684  0.8659 -1.2884 -0.8709
 4106SOL     OW23950   4.574   2.499   2.605  0.1109  0.2421  0.7807
 4106SOL    HW123951   4.581   2.569   2.670  0.1685  0.5343  0.4589
 4106SOL    HW223952   4.532   2.428   2.653  1.4211 -0.6833  0.5572
 4107SOL     OW23953   2.844   1.513   3.836  0.3061 -0.1823 -0.2722
 4107SOL    HW123954   2.772   1.531   3.775 -0.4027  0.9656  0.9029
 4107SOL    HW223955   2.912   1.549   3.779 -0.4318  1.8613  0.1193
 4108SOL     OW23956   3.568   2.568  16.939 -0.6015  0.5917  0.0492
 4108SOL    HW123957   3.590   2.637  16.876 -0.6609  2.3505  1.9677
 4108SOL    HW223958   3.513   2.612  17.004 -1.4128 -0.8506  0.3367
 4109SOL     OW23959   2.323   0.945  14.354  0.1199  0.7074  0.0979
 4109SOL    HW123960   2.273   1.003  14.296 -0.5104  0.0788  0.0044
 4109SOL    HW223961   2.406   0.992  14.350  1.5571 -1.9477 -1.1400
 4110SOL     OW23962   0.565   0.944   1.100  0.9018  0.0815 -0.1385
 4110SOL    HW123963   0.509   0.869   1.079  0.2933  0.3111  0.6667
 4110SOL    HW223964   0.552   0.962   1.193 -0.6323 -1.2423 -0.1037
 4111SOL     OW23965   0.226   3.468   5.432  0.2074 -0.2045 -0.5730
 4111SOL    HW123966   0.177   3.399   5.477 -0.5707  1.6537  1.4193
 4111SOL    HW223967   0.210   3.541   5.491 -1.2308  0.0911 -1.3257
 4112SOL     OW23968   3.743   0.105   9.026 -0.1358  0.0470  0.2759
 4112SOL    HW123969   3.813   0.040   9.016  0.3125  0.6083 -0.1894
 4112SOL    HW223970   3.697   0.069   9.102 -0.9397  1.6729  0.5572
 4113SOL     OW23971   3.912   3.610   1.407  0.1442 -0.2183 -0.0980
 4113SOL    HW123972   3.925   3.580   1.317 -0.8420  1.3760 -0.7700
 4113SOL    HW223973   4.002   3.620   1.439 -0.3758  2.5728  0.4722
 4114SOL     OW23974   1.507   4.669   5.937 -0.3873  0.1582 -0.3098
 4114SOL    HW123975   1.554   4.720   6.003  1.5134 -1.4411 -0.4172
 4114SOL    HW223976   1.563   4.684   5.861  1.8902  0.3933  1.4075
 4115SOL     OW23977   0.959   0.148   4.166  0.6734 -0.8575 -0.0297
 4115SOL    HW123978   0.932   0.081   4.228 -2.6914 -0.1873 -0.7612
 4115SOL    HW223979   0.909   0.224   4.195  0.2504 -0.7211 -1.1357
 4116SOL     OW23980   3.794   1.195   5.503  0.0369  0.4508 -0.3550
 4116SOL    HW123981   3.845   1.235   5.433 -1.1451  0.5876 -1.1414
 4116SOL    HW223982   3.801   1.263   5.570  0.4249  1.1916 -1.1427
 4117SOL     OW23983   0.464   4.735  14.503 -0.1387  0.3550  0.2300
 4117SOL    HW123984   0.427   0.080  14.539 -1.0324  0.2708 -0.4712
 4117SOL    HW223985   0.440   4.673  14.572 -0.3583  1.0275  0.7487
 4118SOL     OW23986   2.034   0.578  12.645  0.5365  0.0638  0.5115
 4118SOL    HW123987   2.028   0.571  12.550  0.4183  2.6003  0.3348
 4118SOL    HW223988   2.129   0.576  12.657  0.8395 -1.4256 -2.1224
 4119SOL     OW23989   3.862   3.028   1.240  0.0211 -0.3823  0.5317
 4119SOL    HW123990   3.900   3.091   1.301  0.0563 -1.1966  1.3368
 4119SOL    HW223991   3.892   3.061   1.155 -1.4278 -1.4755 -0.4068
 4120SOL     OW23992   1.509   2.069   9.322 -0.6274 -0.0729  0.2461
 4120SOL    HW123993   1.518   2.139   9.386  0.3962  0.2640 -0.2604
 4120SOL    HW223994   1.415   2.053   9.333 -0.2692 -2.1807  0.3111
 4121SOL     OW23995   3.549   1.935   5.828  0.3994  0.3064 -0.8250
 4121SOL    HW123996   3.517   1.884   5.753  0.1447  0.7980 -1.0495
 4121SOL    HW223997   3.635   1.894   5.836  0.4466  0.8704  1.4529
 4122SOL     OW23998   4.152   4.074   6.036  0.0245 -0.1931  0.9846
 4122SOL    HW123999   4.192   4.073   6.123  0.9579 -1.4712  0.5401
 4122SOL    HW224000   4.203   4.133   5.981 -1.8038 -0.5221 -1.0903
 4123SOL     OW24001   0.203   2.787   1.862 -0.4360  0.2513  0.6134
 4123SOL    HW124002   0.124   2.842   1.870 -0.7132 -0.2801  1.4215
 4123SOL    HW224003   0.267   2.843   1.905  0.8648  0.5508 -1.7325
 4124SOL     OW24004   3.960   1.935   4.706 -0.0543  0.6056 -0.3210
 4124SOL    HW124005   3.885   1.941   4.646  0.1754 -0.8513 -0.7591
 4124SOL    HW224006   3.921   1.871   4.766  3.1125 -0.9376  0.0773
 4125SOL     OW24007   1.636   2.031   4.109  0.3707  0.0977  0.4315
 4125SOL    HW124008   1.621   2.086   4.032  0.1190 -1.5453 -0.6734
 4125SOL    HW224009   1.573   2.067   4.171  1.0733 -1.0912  1.8099
 4126SOL     OW24010   1.246   0.801   4.825 -0.3940 -0.1316 -0.0563
 4126SOL    HW124011   1.221   0.822   4.915  0.9179 -0.1926  0.3229
 4126SOL    HW224012   1.179   0.737   4.802 -0.4746 -0.2076  0.3934
 4127SOL     OW24013   0.291   3.357   6.392 -0.3775 -0.1107 -0.4206
 4127SOL    HW124014   0.323   3.363   6.482  0.8677 -0.1933 -0.8576
 4127SOL    HW224015   0.251   3.443   6.384 -1.5650 -0.6059  0.1273
 4128SOL     OW24016   0.238   2.534   3.452  0.1435  0.0354 -0.1060
 4128SOL    HW124017   0.279   2.616   3.425  2.0934 -1.1844 -0.9218
 4128SOL    HW224018   0.281   2.508   3.534 -1.2380 -0.3672  0.4924
 4129SOL     OW24019   3.193   3.016   8.327  0.2783 -0.1162 -0.0847
 4129SOL    HW124020   3.289   3.021   8.330  0.4144 -2.3598 -0.5219
 4129SOL    HW224021   3.169   3.064   8.406 -2.4914 -1.3707 -0.1744
 4130SOL     OW24022   0.742   3.848   6.536 -0.6930  0.2475  0.6069
 4130SOL    HW124023   0.728   3.942   6.527 -0.7299  0.2471  0.6609
 4130SOL    HW224024   0.771   3.850   6.627 -0.7734 -0.0093  0.6386
 4131SOL     OW24025   1.170   3.152   6.945  0.0120  0.0263  0.4483
 4131SOL    HW124026   1.221   3.210   7.001 -1.1985  0.1056  1.4699
 4131SOL    HW224027   1.089   3.203   6.947  0.6273  1.0872 -0.9890
 4132SOL     OW24028   2.089   1.308  12.821  0.0602  0.4014  0.1638
 4132SOL    HW124029   2.084   1.213  12.828 -2.3630  0.7723  3.5503
 4132SOL    HW224030   2.180   1.330  12.839 -0.1759 -0.4184  2.3359
 4133SOL     OW24031   4.565   0.231   9.153  0.1772  0.3248 -0.3572
 4133SOL    HW124032   4.519   0.217   9.070 -0.2348 -0.3473 -0.0111
 4133SOL    HW224033   4.515   0.303   9.192 -1.8953 -0.2779 -1.9327
 4134SOL     OW24034   2.009   4.713  12.170 -0.3388  0.2668 -0.4483
 4134SOL    HW124035   2.070   4.660  12.221 -1.3680  0.6520  1.2085
 4134SOL    HW224036   1.929   4.662  12.183 -1.7477  1.9361 -2.5888
 4135SOL     OW24037   2.580   3.092  16.611 -0.0477 -0.1391  0.1619
 4135SOL    HW124038   2.498   3.043  16.616 -0.7295  1.1564  1.6266
 4135SOL    HW224039   2.641   3.025  16.578  0.2777 -0.7335  1.9334
 4136SOL     OW24040   1.856   2.424   3.286 -0.2390  0.0919 -0.5912
 4136SOL    HW124041   1.814   2.510   3.281 -0.1061  0.2265  0.4247
 4136SOL    HW224042   1.945   2.455   3.300  0.5593 -1.9437 -1.2878
 4137SOL     OW24043   1.967   1.061   8.168  0.3304  0.2875  0.4454
 4137SOL    HW124044   1.989   0.997   8.101 -0.4321  0.5363 -0.0439
 4137SOL    HW224045   1.923   1.122   8.108  0.0183 -1.5052 -1.1537
 4138SOL     OW24046   0.146   4.029   4.933  1.0567  0.0290  0.2177
 4138SOL    HW124047   0.231   4.062   4.906 -0.2055  1.6606 -1.7829
 4138SOL    HW224048   0.162   3.993   5.020 -0.5388 -1.1697  0.0325
 4139SOL     OW24049   2.702   0.245   9.588  0.5214  0.3332 -0.1588
 4139SOL    HW124050   2.685   0.188   9.513  0.9044 -0.2644  0.2148
 4139SOL    HW224051   2.720   0.334   9.558  0.5506  0.8785  1.4450
 4140SOL     OW24052   1.925   0.921   9.988  0.2295 -0.6242  1.0013
 4140SOL    HW124053   2.008   0.898  10.029  0.4708 -0.0741  0.8110
 4140SOL    HW224054   1.932   1.015   9.972 -0.1500 -1.0928 -2.0015
 4141SOL     OW24055   4.679   1.804   2.165  0.3952  0.1412 -0.0514
 4141SOL    HW124056   4.680   1.798   2.261 -0.3100  2.0063  0.0755
 4141SOL    HW224057   0.035   1.787   2.151  0.6101 -0.8288  2.5036
 4142SOL     OW24058   3.684   3.360  11.941 -0.1239  0.1144 -0.1275
 4142SOL    HW124059   3.745   3.423  11.979  0.3641 -0.8277  0.6464
 4142SOL    HW224060   3.617   3.344  12.007 -1.1796 -1.7766 -1.6594
 4143SOL     OW24061   2.259   4.440   1.751 -0.3852  0.0832  0.3575
 4143SOL    HW124062   2.346   4.411   1.725 -0.4252 -1.0121  1.4772
 4143SOL    HW224063   2.201   4.391   1.692 -2.6778  0.6104  2.1818
 4144SOL     OW24064   0.940   0.941   4.662 -0.2299 -0.0788  0.2874
 4144SOL    HW124065   0.986   0.864   4.629 -1.4463 -1.4136  1.6642
 4144SOL    HW224066   0.900   0.976   4.582  0.9199  2.1866  0.6899
 4145SOL     OW24067   1.616   1.593   2.425  0.1432  0.5051  0.0193
 4145SOL    HW124068   1.622   1.648   2.503 -0.2016 -0.1686  0.5166
 4145SOL    HW224069   1.699   1.545   2.427 -1.0493 -1.5823 -0.4456
 4146SOL     OW24070   0.812   4.255   2.725 -0.1599  0.3602  0.3689
 4146SOL    HW124071   0.723   4.242   2.757 -0.1533  1.3598  0.7854
 4146SOL    HW224072   0.794   4.271   2.633 -1.2840 -1.1682  0.3215
 4147SOL     OW24073   0.195   1.308  14.796 -0.5161 -0.2569  0.4365
 4147SOL    HW124074   0.289   1.305  14.813 -0.0410 -2.2824 -2.5613
 4147SOL    HW224075   0.174   1.394  14.758 -0.5827 -0.7830 -0.7336
 4148SOL     OW24076   1.939   0.528   0.392 -0.3627  0.2276 -0.4994
 4148SOL    HW124077   1.900   0.442   0.409  0.2000  0.5410  2.3896
 4148SOL    HW224078   2.013   0.503   0.336 -2.1584  0.6483 -3.0712
 4149SOL     OW24079   2.631   2.041   9.077  0.8727  0.1289 -0.0322
 4149SOL    HW124080   2.569   2.020   9.147  1.7377 -1.8423  0.1441
 4149SOL    HW224081   2.702   2.077   9.131 -1.2036  1.8737  1.5587
 4150SOL     OW24082   0.930   1.299   2.700  0.0027 -0.1021  0.8600
 4150SOL    HW124083   0.929   1.271   2.609  0.4828  0.5502  0.6605
 4150SOL    HW224084   0.883   1.382   2.699  2.1164  1.0505 -2.4493
 4151SOL     OW24085   2.047   1.213   1.417 -0.0692 -0.2043  0.2212
 4151SOL    HW124086   2.037   1.165   1.335 -0.7601 -2.7131  1.7645
 4151SOL    HW224087   2.112   1.163   1.465 -2.5775 -2.4645  1.2668
 4152SOL     OW24088   2.768   3.700  10.609  0.0880  0.1139  0.6000
 4152SOL    HW124089   2.781   3.764  10.539  1.2099 -1.7455 -0.8707
 4152SOL    HW224090   2.773   3.755  10.687 -1.1225 -1.2883  1.6549
 4153SOL     OW24091   4.541   4.354   1.685  0.3068 -0.1581  0.0468
 4153SOL    HW124092   4.605   4.411   1.728  0.2345  0.8424 -1.1844
 4153SOL    HW224093   4.459   4.388   1.722 -0.3143 -1.8273  0.2130
 4154SOL     OW24094   1.537   3.832   7.462  0.3245 -0.2822 -0.8293
 4154SOL    HW124095   1.497   3.851   7.377  0.5217  2.6945 -0.2826
 4154SOL    HW224096   1.506   3.911   7.507 -2.1389 -1.5887 -0.2905
 4155SOL     OW24097   2.115   1.098  11.708  0.1918  0.0460  0.5063
 4155SOL    HW124098   2.073   1.013  11.697 -3.5606  1.8687  0.9570
 4155SOL    HW224099   2.103   1.139  11.622 -0.2823 -0.2234  0.4492
 4156SOL     OW24100   1.893   2.565  16.171  0.0594 -0.0049  0.1501
 4156SOL    HW124101   1.868   2.552  16.079 -4.3103 -1.4644  1.5174
 4156SOL    HW224102   1.877   2.658  16.189 -1.6924 -0.4427  0.8627
 4157SOL     OW24103   2.018   3.200   7.133 -0.0339  0.1108  0.5322
 4157SOL    HW124104   1.965   3.191   7.212 -0.9552 -1.9564 -0.3272
 4157SOL    HW224105   1.975   3.277   7.094  0.0398  0.0896  0.4070
 4158SOL     OW24106   4.446   2.778   4.985  0.0971  0.3893 -0.6630
 4158SOL    HW124107   4.540   2.765   5.000 -0.3894 -4.6743 -1.9339
 4158SOL    HW224108   4.451   2.780   4.889 -0.4036  2.0198 -0.6528
 4159SOL     OW24109   1.787   1.643   8.300 -0.1524  0.3429  0.2672
 4159SOL    HW124110   1.873   1.645   8.258 -0.3662 -1.1014 -0.2448
 4159SOL    HW224111   1.760   1.552   8.288 -0.7516  0.6351 -0.6170
 4160SOL     OW24112   0.248   1.831   8.756  0.3208 -0.3570  0.1671
 4160SOL    HW124113   0.186   1.791   8.817 -0.5443  1.0043  0.1904
 4160SOL    HW224114   0.270   1.913   8.800 -0.3678 -0.6217  1.0092
 4161SOL     OW24115   3.658   0.060   5.326  0.2355  0.2243 -0.3565
 4161SOL    HW124116   3.681   0.126   5.392  2.4850 -1.8237  0.8784
 4161SOL    HW224117   3.722   0.070   5.256 -0.0750 -0.1402 -0.6867
 4162SOL     OW24118   0.883   0.127   2.746 -0.3670 -0.0359 -0.3730
 4162SOL    HW124119   0.833   0.071   2.805  1.6867 -3.9155 -2.3003
 4162SOL    HW224120   0.942   0.062   2.708 -1.5517 -0.8317 -0.8636
 4163SOL     OW24121   1.373   4.601   7.440  0.3075 -0.0441 -0.2648
 4163SOL    HW124122   1.323   4.535   7.393  1.4308 -1.2453  0.2012
 4163SOL    HW224123   1.416   4.554   7.511  1.4798  1.6308  0.1483
 4164SOL     OW24124   2.506   3.986  12.377  0.3380  0.0418  0.0847
 4164SOL    HW124125   2.542   3.906  12.338 -2.0585  0.0948 -2.2616
 4164SOL    HW224126   2.565   4.009  12.449  1.6367 -2.9369 -0.0213
 4165SOL     OW24127   0.708   4.172   5.287 -0.1247 -0.5560 -0.2579
 4165SOL    HW124128   0.684   4.171   5.379 -0.1816  2.4762 -0.2304
 4165SOL    HW224129   0.748   4.085   5.278  3.7450  0.8625  3.0313
 4166SOL     OW24130   2.305   0.171   5.966  0.0982 -0.1026  0.2251
 4166SOL    HW124131   2.317   0.190   6.059 -1.4873  0.6667  0.2833
 4166SOL    HW224132   2.266   0.254   5.938  3.4375  0.9447 -1.3234
 4167SOL     OW24133   3.658   4.199   5.568 -0.2462 -0.1690  0.3156
 4167SOL    HW124134   3.604   4.214   5.490 -0.1355  0.6253  0.3855
 4167SOL    HW224135   3.575   4.178   5.610 -0.0729  0.4194  0.9555
 4168SOL     OW24136   3.286   2.694  17.329 -0.0592 -0.6385 -0.2113
 4168SOL    HW124137   3.323   2.730  17.410 -0.8314 -0.0134 -0.1401
 4168SOL    HW224138   3.194   2.721  17.333 -0.2809 -1.4145  0.0802
 4169SOL     OW24139   2.785   2.813   6.292 -0.1106 -0.5107 -0.2847
 4169SOL    HW124140   2.872   2.774   6.293  1.1650  2.4275  1.0247
 4169SOL    HW224141   2.720   2.747   6.265 -0.2654 -0.5598  0.1979
 4170SOL     OW24142   2.694   3.195  17.252 -0.2711  0.3751  0.0179
 4170SOL    HW124143   2.620   3.191  17.191  0.3291  1.8700 -0.8144
 4170SOL    HW224144   2.749   3.266  17.219 -1.7388  0.0774 -3.0819
 4171SOL     OW24145   4.070   3.408  15.503 -0.1617 -0.2060 -0.2015
 4171SOL    HW124146   4.127   3.403  15.426 -0.9869 -1.3566 -0.7528
 4171SOL    HW224147   4.044   3.316  15.504 -0.1568 -0.1788  1.6551
 4172SOL     OW24148   3.294   1.112   6.572  0.3821  0.0514 -0.1634
 4172SOL    HW124149   3.357   1.089   6.504 -1.4742  0.6341 -2.0759
 4172SOL    HW224150   3.317   1.202   6.595  0.4746 -0.3687  1.3389
 4173SOL     OW24151   2.275   4.272   3.547 -0.4612  0.7784  0.0483
 4173SOL    HW124152   2.284   4.309   3.459  0.9028 -0.5111 -0.3533
 4173SOL    HW224153   2.214   4.334   3.587 -1.0182 -0.3559  0.9707
 4174SOL     OW24154   0.802   4.010  17.478 -0.1901  0.2957 -0.3826
 4174SOL    HW124155   0.813   3.939  17.542  1.4025  0.6833 -0.2211
 4174SOL    HW224156   0.891   4.044  17.473 -0.0640  0.2816  2.0166
 4175SOL     OW24157   1.806   4.085   4.094  0.5189 -0.3849  0.0212
 4175SOL    HW124158   1.889   4.041   4.113  0.0436  0.0056  3.0642
 4175SOL    HW224159   1.802   4.153   4.162 -3.1767 -0.2926 -0.3195
 4176SOL     OW24160   4.141   1.159   1.594 -0.0001 -0.2353 -0.8301
 4176SOL    HW124161   4.091   1.084   1.562  1.9947 -1.0160 -2.0718
 4176SOL    HW224162   4.071   1.224   1.605 -0.3486 -0.7722  0.1505
 4177SOL     OW24163   2.369   4.122   9.111 -0.2200  0.5403 -0.2193
 4177SOL    HW124164   2.358   4.046   9.167 -1.7539  1.0079  0.1042
 4177SOL    HW224165   2.283   4.163   9.114 -0.8427 -0.9039  1.6089
 4178SOL     OW24166   2.848   0.695   3.370  0.4053 -0.2837 -0.5726
 4178SOL    HW124167   2.818   0.751   3.442 -0.8570  0.5034 -1.7011
 4178SOL    HW224168   2.917   0.745   3.327  0.3578 -0.5437 -0.9472
 4179SOL     OW24169   2.337   0.662   7.560 -0.4805  0.2158  0.0143
 4179SOL    HW124170   2.372   0.720   7.492 -1.0371 -0.3458 -0.7369
 4179SOL    HW224171   2.379   0.701   7.637 -0.0994 -1.6590  0.7632
 4180SOL     OW24172   1.583   4.247   5.401 -0.1206  0.5606  0.3016
 4180SOL    HW124173   1.504   4.301   5.392 -1.9015 -2.4127 -2.2444
 4180SOL    HW224174   1.631   4.303   5.461  0.0770  0.3830  0.3073
 4181SOL     OW24175   2.720   1.542   2.561  0.5546  0.0523 -0.2645
 4181SOL    HW124176   2.804   1.507   2.532 -0.1807 -0.9986 -1.1141
 4181SOL    HW224177   2.756   1.618   2.606 -1.0224  1.0984 -0.7653
 4182SOL     OW24178   1.606   3.728  15.060  0.8970 -0.0612  0.2285
 4182SOL    HW124179   1.585   3.806  15.008  0.5850  0.5078  1.2227
 4182SOL    HW224180   1.692   3.750  15.097  0.9946  0.1708 -0.1304
 4183SOL     OW24181   4.226   1.617  10.872 -0.1761  0.3860  0.0696
 4183SOL    HW124182   4.248   1.632  10.780 -1.5393 -0.8304 -0.4556
 4183SOL    HW224183   4.157   1.552  10.868  0.3344 -0.2185  1.0783
 4184SOL     OW24184   4.023   1.221   9.975 -0.0661 -0.2070  0.5945
 4184SOL    HW124185   4.047   1.310   9.952  1.6186 -1.2431 -1.6098
 4184SOL    HW224186   4.065   1.221  10.061 -0.5794  0.4358  0.8470
 4185SOL     OW24187   2.670   1.261  12.459  0.6576 -0.1021  0.4313
 4185SOL    HW124188   2.674   1.312  12.540 -2.9328  0.6692  0.0907
 4185SOL    HW224189   2.686   1.175  12.500 -0.0641  0.0744  1.0777
 4186SOL     OW24190   3.769   4.551   2.633 -0.8103  0.0178 -0.1940
 4186SOL    HW124191   3.734   4.533   2.720  0.0803 -1.0009 -0.0384
 4186SOL    HW224192   3.862   4.543   2.658 -1.3126 -0.1126  1.6553
 4187SOL     OW24193   0.888   0.386   2.674  0.1362  0.1021 -0.2022
 4187SOL    HW124194   0.794   0.386   2.688  0.1455 -1.9720 -0.1684
 4187SOL    HW224195   0.896   0.291   2.682  0.9960  0.1757 -0.1352
 4188SOL     OW24196   3.267   2.856   8.033 -0.3810  0.0427 -0.2874
 4188SOL    HW124197   3.275   2.806   8.115  0.2473 -0.0762 -0.4238
 4188SOL    HW224198   3.269   2.787   7.967  0.3094  0.0827 -0.3131
 4189SOL     OW24199   1.414   4.633   2.512 -0.6179  0.1081 -0.4968
 4189SOL    HW124200   1.471   4.577   2.459  0.9623 -0.7386  2.0593
 4189SOL    HW224201   1.352   4.661   2.445 -0.8225  2.2249  0.5885
 4190SOL     OW24202   3.317   2.726  14.155 -0.5659  0.3382  0.4019
 4190SOL    HW124203   3.370   2.646  14.153 -0.3212  0.5094  0.1809
 4190SOL    HW224204   3.231   2.685  14.148 -0.2173 -0.2876 -0.2372
 4191SOL     OW24205   2.289   2.487   2.402 -0.1698  0.3299 -0.4843
 4191SOL    HW124206   2.366   2.530   2.437 -0.0092  1.2158 -1.9255
 4191SOL    HW224207   2.282   2.543   2.325  1.4242 -0.6910 -1.3444
 4192SOL     OW24208   2.584   1.630   3.686 -0.4136  0.2262 -0.4808
 4192SOL    HW124209   2.599   1.670   3.600 -1.9165 -0.7458 -1.1968
 4192SOL    HW224210   2.542   1.549   3.658  0.0861 -0.8374  1.8513
 4193SOL     OW24211   2.440   4.184  16.975  0.1530  0.1135  0.1436
 4193SOL    HW124212   2.446   4.248  17.046 -0.3051  0.0192  0.2660
 4193SOL    HW224213   2.499   4.224  16.911 -0.2436  0.4490 -0.0173
 4194SOL     OW24214   2.222   3.855   4.409  0.4401  0.1789  0.1571
 4194SOL    HW124215   2.165   3.904   4.469 -3.1948 -0.5726 -2.6165
 4194SOL    HW224216   2.247   3.780   4.462  0.0145 -0.1547 -0.1114
 4195SOL     OW24217   1.766   2.620   7.214 -0.6076 -0.2847  0.0252
 4195SOL    HW124218   1.716   2.611   7.296 -0.3015  0.5811  0.3077
 4195SOL    HW224219   1.709   2.577   7.150  0.8395 -1.2095 -0.6254
 4196SOL     OW24220   3.251   4.512   7.809  0.1920  1.0143 -0.2942
 4196SOL    HW124221   3.248   4.460   7.729 -1.4102  1.1996 -0.3537
 4196SOL    HW224222   3.181   4.473   7.861 -0.5849 -0.8873 -2.7618
 4197SOL     OW24223   1.399   0.442   2.346 -0.2033  0.6258  0.2128
 4197SOL    HW124224   1.345   0.428   2.268  1.4479  0.0559 -0.8133
 4197SOL    HW224225   1.488   0.422   2.320 -0.6556 -1.4935  0.2836
 4198SOL     OW24226   0.256   1.700   7.441  0.2793 -0.1433 -0.3519
 4198SOL    HW124227   0.170   1.658   7.452  1.0250 -1.3746  0.7147
 4198SOL    HW224228   0.318   1.628   7.437  0.4624 -0.2176  4.2067
 4199SOL     OW24229   1.335   1.268   6.541  0.0408  0.1992 -0.7871
 4199SOL    HW124230   1.274   1.302   6.475 -1.0497  1.5806  0.9180
 4199SOL    HW224231   1.294   1.183   6.557 -0.9654  1.2241  2.0466
 4200SOL     OW24232   0.299   4.249   8.654  0.0911  0.2722 -0.0869
 4200SOL    HW124233   0.361   4.322   8.662  0.5635 -0.2787  1.2659
 4200SOL    HW224234   0.346   4.191   8.594 -0.1190  1.1292 -1.0683
 4201SOL     OW24235   2.195   3.744   3.628  0.4033 -0.1581  0.1059
 4201SOL    HW124236   2.237   3.830   3.632 -0.4335  0.2217  0.6157
 4201SOL    HW224237   2.123   3.771   3.571 -0.0668  0.3338  0.9310
 4202SOL     OW24238   3.845   3.970   6.196 -0.0568  0.2135  0.2789
 4202SOL    HW124239   3.871   4.061   6.211  3.7655 -0.8824  0.3640
 4202SOL    HW224240   3.928   3.923   6.193  1.4051  2.8212  0.1818
 4203SOL     OW24241   1.304   1.530   7.549 -0.3958  0.5597 -0.1950
 4203SOL    HW124242   1.291   1.564   7.638  0.0818 -0.2211  0.1778
 4203SOL    HW224243   1.361   1.599   7.516 -1.4480  1.0054 -1.0708
 4204SOL     OW24244   4.628   2.006  11.772 -0.1886 -0.1238  0.2405
 4204SOL    HW124245   4.688   2.003  11.847  0.0908 -1.8401 -0.0465
 4204SOL    HW224246   4.651   2.090  11.732 -0.8042  0.2409  0.6489
 4205SOL     OW24247   2.753   2.560  11.476  0.3253 -0.0577  0.1865
 4205SOL    HW124248   2.839   2.534  11.509 -0.3124 -2.7856 -0.2405
 4205SOL    HW224249   2.756   2.646  11.435 -3.3231  0.7724  1.7421
 4206SOL     OW24250   4.255   0.118  12.208 -0.2436  0.3759  0.2948
 4206SOL    HW124251   4.227   0.107  12.117 -0.0138 -0.5231  0.3327
 4206SOL    HW224252   4.242   0.033  12.249  1.5056 -0.6009 -1.1953
 4207SOL     OW24253   3.155   0.249   5.828 -0.3468 -0.0455 -0.1915
 4207SOL    HW124254   3.134   0.253   5.922  1.8877 -0.2596  0.3188
 4207SOL    HW224255   3.102   0.171   5.812 -2.3874  1.5018 -0.9117
 4208SOL     OW24256   2.481   0.474   2.981 -0.0281  0.5790  0.5914
 4208SOL    HW124257   2.562   0.506   3.021  1.5677 -4.5720  1.5459
 4208SOL    HW224258   2.491   0.384   3.014  0.4607  0.4183 -0.0127
 4209SOL     OW24259   3.997   4.053  10.659 -0.4186  0.1831  0.4239
 4209SOL    HW124260   3.972   4.026  10.571  1.9062 -0.7868  0.0553
 4209SOL    HW224261   4.053   3.979  10.683  2.9192  2.1109 -1.3451
 4210SOL     OW24262   1.902   4.453   8.188  0.0054 -0.1976 -0.0236
 4210SOL    HW124263   1.829   4.448   8.250  0.2783  1.0934  0.3999
 4210SOL    HW224264   1.955   4.395   8.243  0.4376 -0.3936 -0.6351
 4211SOL     OW24265   3.647   3.543  12.955 -0.5223 -0.2577  0.1034
 4211SOL    HW124266   3.720   3.547  12.894 -0.4055 -0.0394  0.2576
 4211SOL    HW224267   3.585   3.493  12.902 -1.5188  1.1679 -0.0531
 4212SOL     OW24268   2.685   3.152  15.656 -0.0023  0.3329  0.5903
 4212SOL    HW124269   2.727   3.238  15.657  2.2833 -0.8141  1.7945
 4212SOL    HW224270   2.674   3.151  15.561 -0.0689 -1.8747  0.6120
 4213SOL     OW24271   2.333   0.846   3.104 -0.3229 -0.3062 -0.3159
 4213SOL    HW124272   2.269   0.898   3.153  0.2388  0.2715 -0.1862
 4213SOL    HW224273   2.283   0.765   3.102 -0.9363  0.0882 -0.8130
 4214SOL     OW24274   2.508   3.758   9.000 -0.4256 -0.4845 -0.4502
 4214SOL    HW124275   2.430   3.809   8.979 -2.1342 -1.7534  2.8063
 4214SOL    HW224276   2.508   3.763   9.095 -0.5869 -1.1664 -0.4154
 4215SOL     OW24277   1.937   0.814   3.905 -0.0649 -0.3295  0.3633
 4215SOL    HW124278   1.854   0.791   3.863  0.2702 -1.1368  0.1443
 4215SOL    HW224279   1.969   0.724   3.904  1.5375  0.2501  0.6519
 4216SOL     OW24280   2.920   0.930   6.690 -0.0455 -0.7605 -0.4160
 4216SOL    HW124281   2.957   0.971   6.612 -0.8517 -0.5971 -0.7105
 4216SOL    HW224282   3.004   0.923   6.736 -0.9664 -1.3815  1.1454
 4217SOL     OW24283   1.251   4.156   6.924 -0.7369  0.9776  0.2944
 4217SOL    HW124284   1.273   4.096   6.853 -0.1156 -1.5645  2.6356
 4217SOL    HW224285   1.334   4.173   6.966 -1.0752 -0.4130  1.5341
 4218SOL     OW24286   4.450   1.389   8.002  0.3087 -0.2091 -0.4262
 4218SOL    HW124287   4.368   1.421   7.964 -0.7913 -0.6115  1.5381
 4218SOL    HW224288   4.418   1.370   8.091  1.8872 -2.0433 -0.2454
 4219SOL     OW24289   0.206   3.053   2.668 -0.0977 -0.1229  0.5504
 4219SOL    HW124290   0.158   3.131   2.639 -1.9603 -1.2606  0.6002
 4219SOL    HW224291   0.244   3.090   2.748  1.2839  1.7864 -0.9587
 4220SOL     OW24292   2.698   2.620  16.162 -0.2534  0.3985  0.5555
 4220SOL    HW124293   2.620   2.574  16.192  0.2755 -2.0075 -1.7142
 4220SOL    HW224294   2.684   2.626  16.067  0.0131  0.2818  0.5094
 4221SOL     OW24295   3.732   2.634  10.099 -0.0559  0.3448  0.3128
 4221SOL    HW124296   3.762   2.625  10.190  1.7867  1.2744 -0.1973
 4221SOL    HW224297   3.715   2.728  10.092  3.4478  0.9897  0.1402
 4222SOL     OW24298   2.085   3.642   6.152 -0.2930  0.3332 -0.3923
 4222SOL    HW124299   2.145   3.617   6.083 -0.4672  0.4031 -0.5688
 4222SOL    HW224300   2.119   3.729   6.174  0.8155 -0.2106  0.0021
 4223SOL     OW24301   2.539   4.562   5.261 -0.9003 -0.2915 -0.4524
 4223SOL    HW124302   2.452   4.600   5.273 -1.1085 -0.2552 -2.0902
 4223SOL    HW224303   2.519   4.494   5.197  1.1521 -0.0206 -1.3835
 4224SOL     OW24304   3.060   3.937  12.846  0.3009 -0.0260  0.4200
 4224SOL    HW124305   2.968   3.951  12.825 -0.4263 -2.1433  2.2927
 4224SOL    HW224306   3.078   3.986  12.926  2.2370 -0.4628  0.2481
 4225SOL     OW24307   0.779   4.581   2.376 -0.0942 -0.1372 -0.4191
 4225SOL    HW124308   0.866   4.543   2.385 -1.4717 -3.0302  0.6941
 4225SOL    HW224309   0.796   4.658   2.430  2.5050  0.5342 -2.1994
 4226SOL     OW24310   1.355   1.834  10.061  0.1272 -0.4742  0.7118
 4226SOL    HW124311   1.333   1.927  10.058  0.5181 -0.3307  2.6236
 4226SOL    HW224312   1.264   1.804  10.066 -0.0141  0.3055  3.0020
 4227SOL     OW24313   0.889   1.795   7.339  0.1758 -0.1350 -0.3220
 4227SOL    HW124314   0.939   1.714   7.332  0.6758  0.0093  1.7104
 4227SOL    HW224315   0.902   1.823   7.430 -1.5506  1.1779 -0.4806
 4228SOL     OW24316   1.873   2.843   1.322  0.4898  0.6422 -0.0100
 4228SOL    HW124317   1.937   2.772   1.322  0.0002  0.2043 -0.7913
 4228SOL    HW224318   1.893   2.881   1.408 -2.5198  0.4014  0.8164
 4229SOL     OW24319   0.358   1.702   5.020  0.3323 -0.0233  0.5493
 4229SOL    HW124320   0.432   1.674   4.966 -1.2771 -3.0265 -0.0923
 4229SOL    HW224321   0.325   1.612   5.019 -3.2444  1.2722 -0.5988
 4230SOL     OW24322   1.636   1.469   7.628  0.0425  0.0211  0.5047
 4230SOL    HW124323   1.594   1.517   7.699 -0.4815  1.2801 -0.6644
 4230SOL    HW224324   1.671   1.538   7.572  0.1653  0.9999  1.8163
 4231SOL     OW24325   0.736   3.433   2.300  0.0754 -0.0478  0.0204
 4231SOL    HW124326   0.735   3.384   2.383 -1.9954  0.7886  0.4699
 4231SOL    HW224327   0.662   3.390   2.258  0.5045 -0.7990  0.0165
 4232SOL     OW24328   1.714   4.450   2.148  0.2016  0.1646  0.5869
 4232SOL    HW124329   1.757   4.390   2.086 -0.9924  1.5386 -1.5426
 4232SOL    HW224330   1.789   4.503   2.177  1.2501  0.6717 -3.0185
 4233SOL     OW24331   3.147   3.764  11.352  0.4287 -0.4964  0.5588
 4233SOL    HW124332   3.101   3.847  11.361  1.8661  0.5486 -1.7182
 4233SOL    HW224333   3.069   3.708  11.354 -0.3315  0.5600  0.3597
 4234SOL     OW24334   0.244   0.857   8.247  0.1780  0.7013  0.8175
 4234SOL    HW124335   0.326   0.841   8.200 -0.7562  0.1937 -0.6492
 4234SOL    HW224336   0.183   0.830   8.178  1.6048 -0.6794  0.0858
 4235SOL     OW24337   1.022   1.214   1.683 -0.1543 -0.3694  0.5931
 4235SOL    HW124338   1.059   1.150   1.744  1.3953  1.7140  1.8269
 4235SOL    HW224339   0.954   1.249   1.741 -0.1813 -1.7694  1.4117
 4236SOL     OW24340   3.027   2.255  15.827  0.1393  0.2232 -0.5969
 4236SOL    HW124341   3.018   2.162  15.803  3.1091 -0.4348  0.8538
 4236SOL    HW224342   3.007   2.260  15.920  1.1460  0.0335 -0.3692
 4237SOL     OW24343   2.468   3.450   0.096 -0.1366  0.7813  0.3385
 4237SOL    HW124344   2.399   3.465   0.031  0.8466 -0.0268 -0.9146
 4237SOL    HW224345   2.522   3.528   0.086  0.4166  0.6877  2.6536
 4238SOL     OW24346   0.331   3.205  11.994  0.1548 -0.0009  0.1217
 4238SOL    HW124347   0.294   3.191  12.081  2.2602  0.8900  1.1468
 4238SOL    HW224348   0.375   3.123  11.969 -0.0686 -0.8812  2.5757
 4239SOL     OW24349   2.104   2.101   8.016 -0.0527 -0.3870  0.4464
 4239SOL    HW124350   2.075   2.101   8.107 -1.5300  0.2315 -0.0255
 4239SOL    HW224351   2.040   2.166   7.990  0.2192 -0.2615  0.0893
 4240SOL     OW24352   4.343   3.809  15.452  0.2620  0.0959  0.4543
 4240SOL    HW124353   4.329   3.730  15.401  1.9485 -0.8379  1.4468
 4240SOL    HW224354   4.435   3.832  15.437  1.4744 -3.6419  2.2157
 4241SOL     OW24355   4.290   1.473   3.482  0.0297 -0.6680 -0.1249
 4241SOL    HW124356   4.353   1.439   3.418  0.0935 -1.1662  0.2007
 4241SOL    HW224357   4.336   1.456   3.564  1.6248 -0.0347 -0.9050
 4242SOL     OW24358   1.190   3.448   9.359  0.0329 -0.4259 -0.5261
 4242SOL    HW124359   1.124   3.481   9.421  0.8794 -0.1090  0.2060
 4242SOL    HW224360   1.140   3.438   9.278 -1.8578  1.0309  0.4590
 4243SOL     OW24361   1.465   2.138   9.034  0.3319  0.2218  0.0537
 4243SOL    HW124362   1.498   2.109   9.119  2.3804 -1.6940 -1.4000
 4243SOL    HW224363   1.460   2.050   8.997 -0.9643  0.6301 -0.7192
 4244SOL     OW24364   4.435   3.608   5.645  0.2915  0.8590  0.1572
 4244SOL    HW124365   4.347   3.644   5.636  0.1030  0.2838 -0.3085
 4244SOL    HW224366   4.452   3.592   5.552  2.1760 -0.7485  0.7852
 4245SOL     OW24367   2.347   3.627   1.286 -0.1798  0.2318 -0.1537
 4245SOL    HW124368   2.275   3.670   1.240  0.3715  2.4066  0.9832
 4245SOL    HW224369   2.349   3.540   1.246  1.2326 -0.2871  1.0470
 4246SOL     OW24370   0.631   2.191   8.518 -0.5897 -0.2103  0.0183
 4246SOL    HW124371   0.683   2.270   8.503 -0.9794  0.0267 -0.0897
 4246SOL    HW224372   0.577   2.229   8.587  0.8315  0.0502  0.9838
 4247SOL     OW24373   2.564   2.658   6.234  0.5755  0.2484  0.3512
 4247SOL    HW124374   2.625   2.649   6.161  0.1233  0.4179 -0.0485
 4247SOL    HW224375   2.481   2.657   6.185  1.1433  0.1148 -0.6046
 4248SOL     OW24376   2.318   4.398   3.322 -0.4141 -0.7217 -0.6011
 4248SOL    HW124377   2.254   4.355   3.266  1.6003 -3.4488 -0.8155
 4248SOL    HW224378   2.304   4.487   3.289 -2.0192 -0.9101 -0.4373
 4249SOL     OW24379   4.445   1.458   6.186 -0.5430 -0.6322  0.2032
 4249SOL    HW124380   4.434   1.546   6.148 -0.5193 -0.6413  0.1750
 4249SOL    HW224381   4.424   1.395   6.117 -3.3689 -0.6165  1.0604
 4250SOL     OW24382   0.258   0.460   0.596  0.5397 -0.6373 -0.3317
 4250SOL    HW124383   0.205   0.471   0.516  2.8143 -0.1219 -1.7590
 4250SOL    HW224384   0.276   0.368   0.610 -1.8445 -0.9368  0.8582
 4251SOL     OW24385   4.154   1.312   6.417 -0.2058 -0.0392  0.4397
 4251SOL    HW124386   4.165   1.219   6.436  0.2816 -0.2623 -0.9787
 4251SOL    HW224387   4.246   1.332   6.405 -0.5539  1.3904  0.0956
 4252SOL     OW24388   3.121   1.234   3.948  0.5287  0.3931  0.7968
 4252SOL    HW124389   3.211   1.262   3.934  0.1408  2.4110  2.3105
 4252SOL    HW224390   3.087   1.218   3.860  0.7000  1.1284  0.5960
 4253SOL     OW24391   1.667   3.465  15.207 -0.1742  0.0470 -0.5812
 4253SOL    HW124392   1.729   3.537  15.214 -0.7459  0.4945 -0.0566
 4253SOL    HW224393   1.726   3.403  15.164  0.1836 -0.7352  1.0330
 4254SOL     OW24394   1.206   3.442   5.594  0.0724  0.6728  0.0509
 4254SOL    HW124395   1.146   3.393   5.538 -0.4553 -0.1051  1.2971
 4254SOL    HW224396   1.229   3.390   5.671 -1.5495  0.7821  0.6152
 4255SOL     OW24397   1.655   3.403   2.019 -0.7353  0.3325  0.5999
 4255SOL    HW124398   1.563   3.378   2.020 -0.7245  0.1796 -2.4079
 4255SOL    HW224399   1.676   3.398   2.113 -1.3502 -0.5953  0.6875
 4256SOL     OW24400   4.594   3.577   5.330 -0.0732  0.3982 -0.4533
 4256SOL    HW124401   4.632   3.603   5.246 -3.6293  1.5601 -1.7311
 4256SOL    HW224402   4.655   3.602   5.399 -3.6863 -1.4736  3.4425
 4257SOL     OW24403   0.522   2.690   3.394 -0.2402 -0.7274 -0.0196
 4257SOL    HW124404   0.482   2.753   3.333  3.5708  2.6071  0.9139
 4257SOL    HW224405   0.597   2.662   3.341  0.8984 -0.1765  1.3059
 4258SOL     OW24406   1.930   0.799   2.539 -0.0835  0.5319 -0.5162
 4258SOL    HW124407   2.014   0.844   2.530  0.7720 -1.0583 -0.3603
 4258SOL    HW224408   1.928   0.743   2.461  2.1875  1.0718 -0.9527
 4259SOL     OW24409   2.075   0.442  13.526 -0.2366 -0.3375  0.0538
 4259SOL    HW124410   1.996   0.429  13.474  0.5678 -2.9382 -0.5129
 4259SOL    HW224411   2.130   0.410  13.454 -1.8483  0.2932 -1.4601
 4260SOL     OW24412   1.388   4.692   0.343  0.3167  0.2980  0.0388
 4260SOL    HW124413   1.470   4.694   0.293  0.4835 -0.5969  0.2709
 4260SOL    HW224414   1.377   0.047   0.370  1.0846 -0.5508  3.3195
 4261SOL     OW24415   4.126   3.188   1.226  0.0834 -0.1941 -0.1717
 4261SOL    HW124416   4.129   3.122   1.157 -1.8924 -0.0534 -0.3841
 4261SOL    HW224417   4.191   3.156   1.289  0.4003  1.0300  0.1249
 4262SOL     OW24418   2.393   1.583   5.166 -0.7259 -0.3868 -0.2272
 4262SOL    HW124419   2.418   1.494   5.138 -1.9300 -0.9228  0.4405
 4262SOL    HW224420   2.479   1.624   5.179 -2.3812  2.5811  1.2271
 4263SOL     OW24421   3.570   1.319   5.853 -0.6280  0.0788  0.1865
 4263SOL    HW124422   3.593   1.396   5.906  1.6235 -1.2221  1.0978
 4263SOL    HW224423   3.650   1.317   5.801  1.1933 -0.4589  3.0008
 4264SOL     OW24424   1.637   1.030  17.420  0.5804  0.1364 -0.0761
 4264SOL    HW124425   1.660   0.953  17.473  0.7788  0.3811  0.1910
 4264SOL    HW224426   1.546   1.047  17.447  1.7844  1.7975  2.8842
 4265SOL     OW24427   1.206   2.147   4.782 -0.0805  0.2082  0.7103
 4265SOL    HW124428   1.287   2.105   4.754 -0.4215  1.7734 -2.6305
 4265SOL    HW224429   1.189   2.103   4.865 -3.0324 -1.2588 -0.6605
 4266SOL     OW24430   2.589   3.244  11.581  0.8300  0.1515 -0.2573
 4266SOL    HW124431   2.644   3.287  11.515 -2.7329  1.6493 -2.2634
 4266SOL    HW224432   2.646   3.253  11.657  0.6591  0.7298 -0.2007
 4267SOL     OW24433   1.910   3.874  11.619  0.4872  0.2796 -0.0820
 4267SOL    HW124434   1.893   3.816  11.694  0.3582  0.1855 -0.1854
 4267SOL    HW224435   1.827   3.870  11.573  1.2116 -0.5354 -1.3054
 4268SOL     OW24436   3.672   4.673   2.051 -0.0766  0.0619  0.9404
 4268SOL    HW124437   3.672   4.707   1.962  0.5542  1.0825  1.3333
 4268SOL    HW224438   3.687   4.579   2.037 -1.4981  0.0403 -0.4719
 4269SOL     OW24439   3.708   3.034  10.574  0.2141 -0.2649  0.0075
 4269SOL    HW124440   3.700   2.945  10.540  0.1130 -0.6460  1.0174
 4269SOL    HW224441   3.795   3.044  10.611 -0.8759  0.4630  2.4052
 4270SOL     OW24442   0.286   4.308   2.201  0.5906 -0.3827  0.2888
 4270SOL    HW124443   0.313   4.218   2.216 -0.6300 -0.7572  0.2338
 4270SOL    HW224444   0.239   4.333   2.280  0.1491 -1.0624  0.2390
 4271SOL     OW24445   1.643   3.126  17.247 -0.2831  0.6622  0.2383
 4271SOL    HW124446   1.593   3.046  17.235 -0.0517  0.0747  3.3016
 4271SOL    HW224447   1.571   3.169  17.293 -0.7516 -0.7827  0.8489
 4272SOL     OW24448   3.746   4.696   6.426  0.3337  0.2047  0.7153
 4272SOL    HW124449   3.722   0.032   6.484 -0.2716  0.2609  0.3914
 4272SOL    HW224450   3.726   0.008   6.346 -1.2825 -0.7117  0.5583
 4273SOL     OW24451   0.116   1.009   7.482 -0.2233 -0.3152 -0.0710
 4273SOL    HW124452   0.172   0.951   7.431  0.8693  0.3111  0.4109
 4273SOL    HW224453   0.136   0.969   7.567  0.1436  1.0768  0.4974
 4274SOL     OW24454   1.206   3.296   7.687 -0.1248 -0.2591 -0.0837
 4274SOL    HW124455   1.195   3.260   7.599 -2.0342  1.1081 -0.3849
 4274SOL    HW224456   1.295   3.330   7.671 -0.1274 -0.2712 -0.1253
 4275SOL     OW24457   2.614   3.409   4.685 -0.1016  0.3456  0.0493
 4275SOL    HW124458   2.706   3.433   4.691  0.6767 -2.8079  0.5726
 4275SOL    HW224459   2.573   3.445   4.764 -0.8105  1.5162 -0.8545
 4276SOL     OW24460   3.835   2.157  10.779 -0.1272  0.0106  0.1141
 4276SOL    HW124461   3.745   2.134  10.754 -0.8746  0.4991  2.3818
 4276SOL    HW224462   3.852   2.102  10.855  0.4712  3.3603  2.3538
 4277SOL     OW24463   3.030   2.599   9.212  0.2040  0.2988  0.4189
 4277SOL    HW124464   3.102   2.546   9.177 -1.3864 -1.8534  0.3623
 4277SOL    HW224465   3.079   2.669   9.256  0.7552 -0.8499  1.6531
 4278SOL     OW24466   2.523   4.291   4.206 -0.3808  0.0224  0.1308
 4278SOL    HW124467   2.551   4.323   4.292  0.2020  1.4140 -0.5823
 4278SOL    HW224468   2.494   4.201   4.222  0.0265 -0.5478 -2.4283
 4279SOL     OW24469   1.237   2.765   5.295  0.1673  0.3222 -0.0725
 4279SOL    HW124470   1.256   2.673   5.278 -1.6755 -0.2456  0.9431
 4279SOL    HW224471   1.307   2.780   5.358  0.5005  0.0242 -0.3780
 4280SOL     OW24472   2.993   2.027   3.537 -0.0513  0.0666  0.0285
 4280SOL    HW124473   2.927   2.073   3.589 -0.0703  0.4168 -0.2989
 4280SOL    HW224474   3.068   2.030   3.597  0.0592  2.6928 -0.2174
 4281SOL     OW24475   0.930   0.648  12.867  0.5866 -0.1536 -0.1157
 4281SOL    HW124476   0.895   0.724  12.821 -0.8918  0.5403  2.1542
 4281SOL    HW224477   1.025   0.651  12.855  0.4781 -1.0662 -1.1540
 4282SOL     OW24478   2.471   3.539   7.494  0.1103 -0.1737  0.3455
 4282SOL    HW124479   2.495   3.629   7.472  2.2008 -0.7821  0.1461
 4282SOL    HW224480   2.464   3.515   7.402  1.2468  3.6714 -0.7427
 4283SOL     OW24481   2.279   3.129   9.823 -0.1963 -0.2313 -0.1330
 4283SOL    HW124482   2.329   3.051   9.797 -0.1525  0.8559 -3.3609
 4283SOL    HW224483   2.344   3.189   9.787 -1.4272  0.4006 -1.2948
 4284SOL     OW24484   0.767   1.083  15.511  0.3803 -0.2914 -0.0224
 4284SOL    HW124485   0.840   1.022  15.521 -0.5376 -1.1873  1.2647
 4284SOL    HW224486   0.786   1.105  15.420 -2.5885  0.8457 -0.3728
 4285SOL     OW24487   4.228   3.822  12.787 -0.5935 -0.0452 -0.3826
 4285SOL    HW124488   4.248   3.915  12.796 -0.2520 -0.0247 -1.2935
 4285SOL    HW224489   4.133   3.826  12.786 -0.5650  0.9398  0.6902
 4286SOL     OW24490   0.707   2.371  12.949  0.3145 -0.0666 -0.4765
 4286SOL    HW124491   0.703   2.309  13.021 -0.2834 -2.1544 -2.3338
 4286SOL    HW224492   0.797   2.403  12.959 -0.3319  2.7078 -3.3395
 4287SOL     OW24493   1.502   0.140  15.163  0.6209 -0.1697 -0.2654
 4287SOL    HW124494   1.496   0.122  15.070 -3.3801  0.3637 -0.1032
 4287SOL    HW224495   1.490   0.235  15.169 -3.6225 -0.5496 -3.7432
 4288SOL     OW24496   0.276   0.442   3.042 -0.6147 -0.5994  0.4605
 4288SOL    HW124497   0.362   0.474   3.068 -1.6435  1.0727  1.7653
 4288SOL    HW224498   0.223   0.478   3.113  1.0380 -0.0715  1.4257
 4289SOL     OW24499   1.330   4.304   4.288 -0.0047 -0.6379 -0.1931
 4289SOL    HW124500   1.268   4.316   4.217 -0.1598  0.1393  0.0738
 4289SOL    HW224501   1.405   4.359   4.262 -1.2273  0.4091 -1.5262
 4290SOL     OW24502   2.242   0.583   3.680  0.4940  0.5394  0.7745
 4290SOL    HW124503   2.303   0.581   3.754  2.8680 -1.8761 -1.2407
 4290SOL    HW224504   2.259   0.492   3.654  1.3578  0.6365  1.0196
 4291SOL     OW24505   0.261   1.830   5.229 -0.2520 -0.4963  0.2479
 4291SOL    HW124506   0.343   1.812   5.276 -0.1240  0.9969  0.6032
 4291SOL    HW224507   0.278   1.785   5.146  0.8581  0.6181 -0.1275
 4292SOL     OW24508   2.458   2.094  12.538 -0.0577 -0.2793 -0.6298
 4292SOL    HW124509   2.370   2.124  12.561  0.5490 -0.2299  1.6296
 4292SOL    HW224510   2.505   2.177  12.531 -0.5760 -0.0149 -1.0161
 4293SOL     OW24511   4.205   1.386   2.604  0.0913  0.1028  0.1585
 4293SOL    HW124512   4.154   1.413   2.528  2.2748  2.8302 -0.3236
 4293SOL    HW224513   4.131   1.413   2.658 -1.2422 -1.0415 -1.0799
 4294SOL     OW24514   4.000   3.412   8.258 -0.4830  0.5371 -0.6469
 4294SOL    HW124515   4.025   3.324   8.232 -1.9852 -0.0752 -0.0070
 4294SOL    HW224516   4.054   3.417   8.336 -1.3311 -0.4387  0.0016
 4295SOL     OW24517   3.391   3.577   8.353  0.4839 -0.4010 -0.1481
 4295SOL    HW124518   3.365   3.663   8.385  1.1078  0.0823 -0.9628
 4295SOL    HW224519   3.461   3.595   8.291 -0.5659  0.4427 -1.0847
 4296SOL     OW24520   0.831   1.220   5.570 -0.4747  0.1397  0.4639
 4296SOL    HW124521   0.771   1.145   5.565  0.5386 -0.7085  0.9047
 4296SOL    HW224522   0.790   1.260   5.494  0.2986  1.0177  0.5025
 4297SOL     OW24523   1.472   1.405  14.449  0.5460  0.1923  0.2551
 4297SOL    HW124524   1.518   1.321  14.447  1.1677  0.5231  0.3701
 4297SOL    HW224525   1.447   1.414  14.357 -0.1252  0.7504  0.4971
 4298SOL     OW24526   0.895   4.327   9.292 -0.3082  0.3099  0.0643
 4298SOL    HW124527   0.975   4.289   9.255 -0.1691 -0.6201  1.3516
 4298SOL    HW224528   0.874   4.390   9.222 -0.5783 -0.3284 -0.4330
 4299SOL     OW24529   0.804   4.347  16.439  0.2272  0.2174 -0.4562
 4299SOL    HW124530   0.893   4.337  16.474  0.1526  1.3440  0.0687
 4299SOL    HW224531   0.804   4.441  16.421  0.3891 -0.0749 -1.9565
 4300SOL     OW24532   3.933   4.467   1.931  0.2041  0.2436 -0.0570
 4300SOL    HW124533   3.959   4.461   1.839 -2.5557 -0.6964 -0.7777
 4300SOL    HW224534   3.858   4.408   1.940  0.6050  0.0695  2.2720
 4301SOL     OW24535   0.099   0.888  10.269 -0.2337  0.0084 -0.0998
 4301SOL    HW124536   0.050   0.927  10.196 -1.8194  0.6871  1.3330
 4301SOL    HW224537   0.156   0.964  10.284  1.4174 -0.8973 -1.6668
 4302SOL     OW24538   2.380   2.304   0.240 -0.2108  0.1119 -0.1246
 4302SOL    HW124539   2.463   2.273   0.202 -0.6832  0.4110 -1.4001
 4302SOL    HW224540   2.362   2.253   0.319 -0.9134  1.1798  0.4043
 4303SOL     OW24541   3.289   4.610   5.383 -0.2218  0.1594 -0.4181
 4303SOL    HW124542   3.194   4.599   5.390 -0.1103 -1.1648 -0.8238
 4303SOL    HW224543   3.310   4.606   5.476  1.7760 -2.6220 -0.9714
 4304SOL     OW24544   0.610   0.785   5.075  0.1032 -0.6023  0.1474
 4304SOL    HW124545   0.692   0.810   5.032 -0.3958  0.1104 -0.3745
 4304SOL    HW224546   0.652   0.706   5.109  0.2636  0.6569  2.8938
 4305SOL     OW24547   4.714   4.010   1.448 -0.7317 -0.2156 -0.2773
 4305SOL    HW124548   0.013   4.098   1.435  2.3636 -1.4925 -0.7091
 4305SOL    HW224549   4.667   4.031   1.529  0.3980 -3.7256  1.2872
 4306SOL     OW24550   0.934   2.798   2.568  0.0793  0.1880  0.0203
 4306SOL    HW124551   0.887   2.745   2.633 -0.0685  1.8395  1.2788
 4306SOL    HW224552   0.987   2.726   2.537  1.1560  0.4024  1.3662
 4307SOL     OW24553   4.303   2.397   8.173  0.4651 -0.2282  0.8733
 4307SOL    HW124554   4.319   2.433   8.260  0.5354 -1.6221  1.4203
 4307SOL    HW224555   4.348   2.313   8.168  2.2397  0.6694  1.9391
 4308SOL     OW24556   2.342   3.198   8.555  0.0670  0.2376  0.3138
 4308SOL    HW124557   2.415   3.218   8.497 -1.0578 -2.3292 -1.9753
 4308SOL    HW224558   2.287   3.148   8.495 -0.5924  0.7109  0.5309
 4309SOL     OW24559   3.312   3.904   7.693 -0.2755 -0.2416  0.5181
 4309SOL    HW124560   3.388   3.862   7.651 -1.2922 -0.0145 -1.5268
 4309SOL    HW224561   3.275   3.823   7.729  0.9886 -0.8349  0.5141
 4310SOL     OW24562   2.620   2.332   9.388 -0.0060 -0.5751  0.0023
 4310SOL    HW124563   2.589   2.398   9.327  0.5867 -0.5890 -0.3165
 4310SOL    HW224564   2.702   2.369   9.421  0.5849 -0.9436 -1.0488
 4311SOL     OW24565   2.904   3.481   4.464  0.1313  0.3819  0.0555
 4311SOL    HW124566   2.905   3.479   4.369  1.9812 -1.1132  0.0969
 4311SOL    HW224567   2.917   3.575   4.475 -1.3174  0.3990  1.6594
 4312SOL     OW24568   1.243   3.243  16.126  0.1253  0.5023 -0.1724
 4312SOL    HW124569   1.181   3.274  16.060 -1.6153  3.1213  2.7164
 4312SOL    HW224570   1.226   3.317  16.184  1.1383  0.2039  0.4858
 4313SOL     OW24571   3.010   1.895   9.393  0.0366  0.4218 -0.2216
 4313SOL    HW124572   2.978   1.924   9.308  3.1230  0.3304 -1.4201
 4313SOL    HW224573   2.940   1.832   9.410 -1.7837  2.5271  0.1574
 4314SOL     OW24574   3.081   0.600  12.310  0.8501  0.2377  0.1169
 4314SOL    HW124575   3.174   0.623  12.308  1.8750 -3.8484  0.4058
 4314SOL    HW224576   3.044   0.637  12.230  0.9846  1.2896  0.5340
 4315SOL     OW24577   3.275   2.299   1.997 -0.4096  0.0835  0.7948
 4315SOL    HW124578   3.350   2.328   1.945  0.6647  0.4926  2.5791
 4315SOL    HW224579   3.205   2.287   1.932  1.6251  1.4241 -1.6300
 4316SOL     OW24580   4.469   2.198  17.427 -0.2814 -0.1230 -0.7371
 4316SOL    HW124581   4.401   2.133  17.443 -0.1338  0.0347  0.5358
 4316SOL    HW224582   4.538   2.140  17.461 -2.0507 -1.5680  0.3606
 4317SOL     OW24583   0.317   1.366   6.164 -0.2517 -0.5224 -0.2417
 4317SOL    HW124584   0.332   1.423   6.088 -1.6241  0.6541  0.3684
 4317SOL    HW224585   0.393   1.385   6.218  0.1537  0.2341 -1.0689
 4318SOL     OW24586   1.473   1.169   8.416  0.3361 -0.0483 -0.0672
 4318SOL    HW124587   1.444   1.182   8.506  2.0997  2.8349  0.1066
 4318SOL    HW224588   1.506   1.080   8.408 -0.6816 -0.5461  1.4630
 4319SOL     OW24589   3.278   4.277   0.394 -0.1292  0.2055 -0.1735
 4319SOL    HW124590   3.353   4.219   0.401 -0.2894  0.0607  0.3471
 4319SOL    HW224591   3.290   4.315   0.307 -0.4942 -0.1376 -0.3748
 4320SOL     OW24592   0.838   3.765   3.868  0.3078  0.2689 -0.1479
 4320SOL    HW124593   0.832   3.704   3.795  0.5751 -0.6397  0.5908
 4320SOL    HW224594   0.910   3.718   3.910  0.9530  0.7337 -0.7325
 4321SOL     OW24595   0.097   1.711   3.349 -0.8551  0.0217  0.3299
 4321SOL    HW124596   0.188   1.708   3.379 -0.6202  1.0124 -0.2862
 4321SOL    HW224597   0.106   1.776   3.279  1.0448  0.2801  0.8153
 4322SOL     OW24598   0.891   0.097  16.815  0.2817  0.2353  0.0234
 4322SOL    HW124599   0.839   0.149  16.754  2.1799  1.5953 -0.4549
 4322SOL    HW224600   0.980   0.133  16.809  0.8015 -0.6429  2.6488
 4323SOL     OW24601   2.509   4.596   3.563  0.1232 -0.3474 -0.1213
 4323SOL    HW124602   2.429   4.567   3.607 -0.6543  0.4989 -0.9727
 4323SOL    HW224603   2.534   4.673   3.615 -0.8858  1.1047 -1.7815
 4324SOL     OW24604   1.478   2.978   7.840  0.0386 -0.2890  0.4476
 4324SOL    HW124605   1.454   2.886   7.839 -3.4216  0.6477 -0.9013
 4324SOL    HW224606   1.389   3.012   7.846  0.3594  0.4705  0.9362
 4325SOL     OW24607   1.959   0.006  17.609  0.7016  0.1061 -0.2880
 4325SOL    HW124608   1.944   0.067  17.536  0.1491  2.6204  1.9502
 4325SOL    HW224609   1.956   4.659  17.562  0.8909 -1.1853  1.9866
 4326SOL     OW24610   0.140   1.354   4.484 -0.4727  0.4659 -0.3907
 4326SOL    HW124611   0.067   1.404   4.521  0.1618 -0.1719  1.7742
 4326SOL    HW224612   0.179   1.421   4.428  0.2011  0.2528 -0.1735
 4327SOL     OW24613   3.773   0.342  16.540  0.7262  0.0238  0.3175
 4327SOL    HW124614   3.838   0.412  16.530  1.0116 -0.3964 -0.7390
 4327SOL    HW224615   3.766   0.351  16.635  0.5432  1.8127  0.1495
 4328SOL     OW24616   0.434   1.767   5.731  0.3291 -0.0271 -0.1031
 4328SOL    HW124617   0.506   1.705   5.730  0.4234  0.0881 -0.6136
 4328SOL    HW224618   0.375   1.715   5.676  1.0246  0.0629 -0.9352
 4329SOL     OW24619   0.726   2.808   1.412 -0.1808  0.1977  0.3436
 4329SOL    HW124620   0.712   2.787   1.505  0.9196 -0.2995  0.3980
 4329SOL    HW224621   0.645   2.771   1.377  1.1273 -0.8992 -1.5524
 4330SOL     OW24622   3.263   1.323   7.122 -0.1288  0.0319 -0.0654
 4330SOL    HW124623   3.207   1.400   7.114 -0.0473  0.0423 -0.5422
 4330SOL    HW224624   3.351   1.360   7.114  0.0373  0.0998  2.0308
 4331SOL     OW24625   2.107   0.671   8.749  0.5897  0.0694  0.0727
 4331SOL    HW124626   2.116   0.710   8.662  1.1850  0.9726  0.5395
 4331SOL    HW224627   2.013   0.686   8.761  0.4606 -0.5039 -0.2637
 4332SOL     OW24628   3.797   0.688   3.391 -0.1710  0.1420  0.2427
 4332SOL    HW124629   3.770   0.602   3.422  1.9189 -0.8371 -0.6144
 4332SOL    HW224630   3.869   0.704   3.453 -1.9274  0.7592  2.1295
 4333SOL     OW24631   4.564   1.250  15.519  0.2790  0.3733  0.1623
 4333SOL    HW124632   4.496   1.233  15.585  0.1248 -0.1118 -0.1202
 4333SOL    HW224633   4.506   1.284  15.450 -0.2682  0.7005  0.7851
 4334SOL     OW24634   1.831   4.109   6.757 -0.5374  0.1489 -0.1854
 4334SOL    HW124635   1.776   4.077   6.685 -1.8448  0.8142  0.5381
 4334SOL    HW224636   1.899   4.041   6.755 -1.0111 -0.3676  1.9960
 4335SOL     OW24637   1.287   3.536  13.545 -0.3902  0.1244  0.6979
 4335SOL    HW124638   1.311   3.609  13.487  0.3295  0.0026  0.8507
 4335SOL    HW224639   1.342   3.463  13.516  0.3995  0.4882  1.2664
 4336SOL     OW24640   4.059   3.709  14.594  0.4169 -0.4131  0.2797
 4336SOL    HW124641   4.070   3.803  14.609  0.5519 -0.9375  3.5274
 4336SOL    HW224642   4.082   3.711  14.501 -0.0366 -1.0056  0.1536
 4337SOL     OW24643   2.720   4.468   9.437 -0.3834  0.1286 -0.1026
 4337SOL    HW124644   2.730   4.428   9.350 -2.0320  1.9491 -1.1246
 4337SOL    HW224645   2.627   4.491   9.443 -0.5298  0.2412 -2.6781
 4338SOL     OW24646   3.454   1.892   4.696 -0.0013 -0.4613 -0.2772
 4338SOL    HW124647   3.385   1.901   4.630 -0.4125 -1.2981  0.0378
 4338SOL    HW224648   3.529   1.926   4.648  0.4970 -1.2758 -0.0797
 4339SOL     OW24649   2.919   4.698   4.654 -0.1386  0.1573 -0.2047
 4339SOL    HW124650   2.844   4.652   4.690  0.0670 -1.0655 -1.3339
 4339SOL    HW224651   2.898   4.723   4.564  0.1250 -0.3907 -0.4219
 4340SOL     OW24652   1.312   2.155   8.322 -0.4038 -0.4805 -0.7274
 4340SOL    HW124653   1.291   2.062   8.327  0.8981 -0.6398  2.0090
 4340SOL    HW224654   1.328   2.183   8.412  0.6839 -0.1476 -1.0160
 4341SOL     OW24655   0.742   0.881   9.521 -0.2127  0.0928 -0.2706
 4341SOL    HW124656   0.749   0.857   9.614 -0.6885  0.0614 -0.2447
 4341SOL    HW224657   0.829   0.919   9.510  0.1487  0.0944  2.5279
 4342SOL     OW24658   0.541   2.098   4.888  0.0448 -0.1015  0.6763
 4342SOL    HW124659   0.633   2.073   4.877  0.0003 -0.3392  0.8403
 4342SOL    HW224660   0.546   2.186   4.852  0.7107 -0.0173  0.9806
 4343SOL     OW24661   0.662   1.361   2.502  0.3405 -0.5695 -0.1081
 4343SOL    HW124662   0.574   1.323   2.491 -0.6692  1.3301  1.3432
 4343SOL    HW224663   0.705   1.276   2.502  0.7767 -0.3585  0.6572
 4344SOL     OW24664   0.330   2.476  17.702 -0.0508  0.1000  0.1227
 4344SOL    HW124665   0.272   2.551  17.688  1.1818  0.9339 -0.5317
 4344SOL    HW224666   0.293   2.415  17.638 -3.0140  1.3819  0.6505
 4345SOL     OW24667   3.364   0.052  13.780  0.4533  0.2154 -0.4922
 4345SOL    HW124668   3.376   4.697  13.753 -0.7626  0.6044 -2.3340
 4345SOL    HW224669   3.342   0.088  13.694 -0.8485 -2.3806 -1.2582
 4346SOL     OW24670   4.610   4.237   7.077  0.0752  0.0815  0.3608
 4346SOL    HW124671   4.641   4.161   7.125  1.2620  1.6182  1.9846
 4346SOL    HW224672   4.653   4.222   6.993  0.1544  1.7028  0.0948
 4347SOL     OW24673   4.527   4.729   8.300  0.5662  0.3020  0.2580
 4347SOL    HW124674   4.551   4.662   8.237  0.7409  0.5343  0.0767
 4347SOL    HW224675   4.475   4.678   8.362  0.8624 -0.9143 -0.4966
 4348SOL     OW24676   0.802   3.830  17.676 -0.4289  0.4607 -0.0042
 4348SOL    HW124677   0.758   3.793   0.010 -1.3421  1.6628  0.0576
 4348SOL    HW224678   0.851   3.902  17.715 -0.1417 -0.2814  1.0156
 4349SOL     OW24679   1.874   0.319   3.971 -0.0506  0.7497  0.6346
 4349SOL    HW124680   1.803   0.380   3.991 -0.3748  0.4529  0.3831
 4349SOL    HW224681   1.922   0.315   4.054  0.3764 -0.8011  0.3190
 4350SOL     OW24682   1.738   4.225   6.991 -0.2609 -0.4544 -0.6503
 4350SOL    HW124683   1.801   4.219   7.063 -0.8192 -0.3144 -0.1504
 4350SOL    HW224684   1.784   4.178   6.922 -1.3369 -1.4931 -0.6668
 4351SOL     OW24685   3.352   1.415   4.365  0.4306 -0.2289 -0.5191
 4351SOL    HW124686   3.314   1.478   4.426 -1.9406  0.2594 -2.4586
 4351SOL    HW224687   3.294   1.414   4.288 -1.6119 -0.5541  1.0432
 4352SOL     OW24688   2.711   0.352  10.134  0.2532  0.3807 -0.5473
 4352SOL    HW124689   2.644   0.285  10.144 -0.2594  0.3903 -3.7815
 4352SOL    HW224690   2.732   0.357  10.041  0.2888 -0.3542 -0.5738
 4353SOL     OW24691   2.013   0.718   0.128 -0.2198  0.4420  0.1774
 4353SOL    HW124692   1.936   0.674   0.094 -0.1164 -0.9261  1.7420
 4353SOL    HW224693   1.974   0.790   0.177 -0.3713  0.8095 -0.4754
 4354SOL     OW24694   0.423   1.759  11.231 -0.0211  0.6405 -0.0705
 4354SOL    HW124695   0.446   1.849  11.207  2.1921 -0.3558 -1.7273
 4354SOL    HW224696   0.501   1.722  11.190  0.1176  1.0509 -0.1856
 4355SOL     OW24697   3.340   1.731   4.081  0.3236 -0.1523  0.1250
 4355SOL    HW124698   3.287   1.809   4.063 -0.8310 -0.5838  1.7090
 4355SOL    HW224699   3.370   1.752   4.170 -2.2708 -0.4340  1.0571
 4356SOL     OW24700   3.750   4.575   5.029  0.3568 -0.4444  0.3924
 4356SOL    HW124701   3.809   4.515   5.076 -0.1810 -2.3103 -1.3389
 4356SOL    HW224702   3.791   4.659   5.049 -0.9987  0.4668 -0.6925
 4357SOL     OW24703   0.003   2.394   9.049 -0.0612  0.2921  0.0197
 4357SOL    HW124704   0.088   2.405   9.005  0.2341 -0.5901  0.3681
 4357SOL    HW224705   4.703   2.311   9.018 -0.4810  0.9588 -1.2426
 4358SOL     OW24706   2.220   4.035   7.237  0.0367  0.0751  0.4296
 4358SOL    HW124707   2.219   4.114   7.292  0.0010  1.1691 -1.1217
 4358SOL    HW224708   2.295   3.989   7.274  0.0500  0.1453  0.4907
 4359SOL     OW24709   2.497   1.127   5.495 -0.4394 -0.1269  0.2262
 4359SOL    HW124710   2.408   1.124   5.529 -0.1592 -0.5479  0.9373
 4359SOL    HW224711   2.527   1.195   5.555  2.6788 -2.0974  0.9309
 4360SOL     OW24712   2.567   2.315   8.358  0.3489  0.0365 -0.0514
 4360SOL    HW124713   2.627   2.279   8.424 -0.6979  0.4648  1.1467
 4360SOL    HW224714   2.549   2.394   8.408 -2.0603 -0.7742  0.3676
 4361SOL     OW24715   3.883   1.706   4.843  0.3114 -0.1775  0.1970
 4361SOL    HW124716   3.833   1.646   4.898  0.2969  0.6483  1.0870
 4361SOL    HW224717   3.882   1.653   4.763 -0.9347 -1.8016  1.2942
 4362SOL     OW24718   2.392   0.830   1.318 -0.4242 -0.4609 -0.3083
 4362SOL    HW124719   2.317   0.889   1.313  0.9176  1.2978  0.0129
 4362SOL    HW224720   2.363   0.767   1.384  1.5327  0.1636  1.1617
 4363SOL     OW24721   3.515   4.636  11.773  0.4493  0.1217  0.3014
 4363SOL    HW124722   3.555   4.632  11.860 -2.4823 -0.4085  1.6435
 4363SOL    HW224723   3.584   4.613  11.710 -0.3809 -1.1845 -0.1381
 4364SOL     OW24724   3.587   0.121  16.299  0.6444  0.5520 -0.0221
 4364SOL    HW124725   3.501   0.119  16.341  0.5281 -3.0225 -0.4453
 4364SOL    HW224726   3.562   0.117  16.207  0.0569 -1.2659  0.2073
 4365SOL     OW24727   4.530   3.273   2.090 -0.4401  0.3080  0.3317
 4365SOL    HW124728   4.558   3.364   2.076  0.4393  0.2087  1.4475
 4365SOL    HW224729   4.546   3.243   2.001 -1.1835 -0.2405  0.3873
 4366SOL     OW24730   0.354   2.283   7.194  0.0161 -0.0734  0.6663
 4366SOL    HW124731   0.349   2.199   7.241 -1.8609 -1.3780 -1.9027
 4366SOL    HW224732   0.291   2.273   7.124  0.7941  0.9981 -0.1894
 4367SOL     OW24733   0.834   2.589   4.976  0.1706 -0.1669  0.3144
 4367SOL    HW124734   0.844   2.543   4.892 -1.5545 -2.1364  1.1825
 4367SOL    HW224735   0.864   2.519   5.034  0.4741  1.3605  1.9751
 4368SOL     OW24736   2.737   3.466   3.569  0.0414  0.3033 -0.0516
 4368SOL    HW124737   2.657   3.518   3.565 -0.1506  0.0701  0.7384
 4368SOL    HW224738   2.773   3.513   3.644 -0.7927 -0.6573  0.9545
 4369SOL     OW24739   1.141   4.230  14.871 -0.4845 -0.1811  0.3685
 4369SOL    HW124740   1.153   4.271  14.956  0.3223 -0.9467  0.6198
 4369SOL    HW224741   1.122   4.142  14.902 -1.4172  0.1817  0.8231
 4370SOL     OW24742   2.491   3.007  11.403 -0.8963  0.7155  0.3008
 4370SOL    HW124743   2.499   2.939  11.335 -0.4349  1.8954 -0.8107
 4370SOL    HW224744   2.471   2.957  11.482  2.2143  2.2795  2.0733
 4371SOL     OW24745   1.597   1.127   8.107 -0.5583  0.6903  0.2123
 4371SOL    HW124746   1.572   1.100   8.019  2.0390 -0.0898 -0.2735
 4371SOL    HW224747   1.514   1.167   8.135 -0.5271  1.5647 -0.9730
 4372SOL     OW24748   1.731   0.799   4.820  0.1991  0.0667 -0.2163
 4372SOL    HW124749   1.637   0.820   4.814 -0.0528 -0.4360  1.7117
 4372SOL    HW224750   1.729   0.703   4.816 -0.6245  0.0307  0.9777
 4373SOL     OW24751   4.563   0.190   7.795 -0.1106  0.0968 -0.3546
 4373SOL    HW124752   4.564   0.112   7.851 -0.9626 -1.1339 -2.0726
 4373SOL    HW224753   4.654   0.220   7.802 -0.9014  2.2048  0.7149
 4374SOL     OW24754   3.577   0.006   5.782  0.3521  0.6819  0.7830
 4374SOL    HW124755   3.533   4.677   5.837  0.2108  1.8593  2.0786
 4374SOL    HW224756   3.602   0.075   5.843  1.3870  0.4412  0.6360
 4375SOL     OW24757   3.312   3.190   7.697  0.2628  0.1637  0.1634
 4375SOL    HW124758   3.311   3.187   7.793 -1.6498  2.0604  0.2167
 4375SOL    HW224759   3.262   3.269   7.674 -1.7225 -2.2207 -3.5981
 4376SOL     OW24760   4.205   1.539   7.705  0.2747  0.3873  0.5857
 4376SOL    HW124761   4.166   1.462   7.664 -0.4365 -0.6990  3.2573
 4376SOL    HW224762   4.180   1.524   7.796 -0.7020 -0.8175  0.1173
 4377SOL     OW24763   0.969   1.011   9.488 -0.1430 -0.1435 -0.5615
 4377SOL    HW124764   0.939   1.094   9.527 -2.9176  0.0499 -3.1901
 4377SOL    HW224765   1.063   1.030   9.484 -0.2571  0.6011  0.2411
 4378SOL     OW24766   4.358   4.450   1.876  0.0365 -0.0205 -0.5114
 4378SOL    HW124767   4.304   4.464   1.954  2.1847 -0.7433  1.0964
 4378SOL    HW224768   4.401   4.367   1.895  1.4592  0.3757 -2.0438
 4379SOL     OW24769   4.620   2.885  15.197 -0.3242  0.2847 -0.4914
 4379SOL    HW124770   4.622   2.969  15.243  2.7464  1.0995 -2.1229
 4379SOL    HW224771   4.673   2.831  15.256  1.8311  0.6065 -2.1417
 4380SOL     OW24772   0.509   0.133   2.559  0.7908 -0.6770  0.5358
 4380SOL    HW124773   0.440   0.197   2.575 -1.4627 -2.9195 -0.3333
 4380SOL    HW224774   0.494   0.127   2.465  0.1751  1.6208  0.4879
 4381SOL     OW24775   1.044   0.031  12.868 -0.0189 -0.1183  0.1649
 4381SOL    HW124776   1.007   0.119  12.865 -1.1985 -0.6385 -0.3140
 4381SOL    HW224777   0.993   4.735  12.794  0.3403  1.3954 -0.7584
 4382SOL     OW24778   2.493   1.835   8.760  0.1928 -0.2605  0.1934
 4382SOL    HW124779   2.466   1.822   8.669 -2.7232  1.9512  0.7210
 4382SOL    HW224780   2.434   1.777   8.808 -0.6498  0.3395 -0.1220
 4383SOL     OW24781   2.209   2.915  15.529  0.2879 -0.5196  0.3495
 4383SOL    HW124782   2.166   2.901  15.613  2.7900  2.2565  2.1092
 4383SOL    HW224783   2.175   2.836  15.488  2.1714 -0.3248 -1.5593
 4384SOL     OW24784   3.819   1.655  14.970 -0.0911  0.3222  0.1025
 4384SOL    HW124785   3.906   1.650  14.929 -0.2068 -0.4210 -0.0485
 4384SOL    HW224786   3.765   1.643  14.892 -0.6432  1.8452  0.2567
 4385SOL     OW24787   4.379   3.039   2.461 -0.8293 -0.5251  0.2829
 4385SOL    HW124788   4.467   3.002   2.470  0.4017  2.1056 -1.0086
 4385SOL    HW224789   4.382   3.129   2.495  0.2850 -1.8493  3.7843
 4386SOL     OW24790   1.808   2.365  15.144 -0.0222 -0.4684  0.2397
 4386SOL    HW124791   1.830   2.286  15.193 -0.9674 -1.9231 -1.6884
 4386SOL    HW224792   1.815   2.438  15.206 -0.8260  1.2525 -1.6852
 4387SOL     OW24793   4.117   0.689   8.516 -0.4133  0.8033  0.4224
 4387SOL    HW124794   4.171   0.625   8.561 -2.2796  1.2165  3.2306
 4387SOL    HW224795   4.037   0.639   8.500 -0.9652  1.4207  1.2201
 4388SOL     OW24796   3.708   0.361   2.718 -0.1176  0.7144  0.0871
 4388SOL    HW124797   3.798   0.329   2.709 -0.8709 -1.3985  0.2367
 4388SOL    HW224798   3.724   0.449   2.752 -2.7528  0.2175  2.5654
 4389SOL     OW24799   1.923   2.193   4.875  0.3753  0.6612  0.6378
 4389SOL    HW124800   1.857   2.256   4.846  0.2873 -0.0162 -0.6209
 4389SOL    HW224801   1.872   2.118   4.906  0.6306 -0.0733 -0.7340
 4390SOL     OW24802   0.629   1.755   4.674 -0.6703  0.1425  0.0945
 4390SOL    HW124803   0.624   1.765   4.579  0.4055  0.3487  0.0559
 4390SOL    HW224804   0.686   1.823   4.710 -1.7812  1.1781 -0.0945
 4391SOL     OW24805   2.953   4.574   9.501  0.0844  0.2765  0.5760
 4391SOL    HW124806   2.919   4.655   9.463  2.6559  0.3026 -1.6626
 4391SOL    HW224807   2.874   4.519   9.494  2.2329 -2.5682 -1.5301
 4392SOL     OW24808   0.433   4.514   8.635 -0.2985 -0.1616  0.0249
 4392SOL    HW124809   0.371   4.553   8.574 -1.4642 -1.3462  0.4715
 4392SOL    HW224810   0.397   4.537   8.720  0.0223  0.7949 -0.1008
 4393SOL     OW24811   0.856   0.462   7.618 -0.1219 -0.0290  0.0036
 4393SOL    HW124812   0.818   0.384   7.659  0.4241 -0.3414 -0.0755
 4393SOL    HW224813   0.823   0.439   7.530 -1.0328 -1.6803  0.7751
 4394SOL     OW24814   1.778   0.750   9.268 -0.2531  0.0535 -0.2787
 4394SOL    HW124815   1.818   0.837   9.275 -0.1095  0.0909 -1.5540
 4394SOL    HW224816   1.696   0.774   9.224  0.6527  1.6022 -1.1156
 4395SOL     OW24817   3.024   2.666   6.198  0.0225 -0.2550  0.3423
 4395SOL    HW124818   3.060   2.739   6.146 -1.5883  0.4061  0.1646
 4395SOL    HW224819   3.106   2.630   6.230  0.7069 -0.4272 -1.5637
 4396SOL     OW24820   3.799   1.970   6.727  0.1478  0.1792 -0.0040
 4396SOL    HW124821   3.743   1.979   6.650  1.3548 -1.6162 -1.0864
 4396SOL    HW224822   3.884   2.004   6.700  1.0821 -0.6961  1.8424
 4397SOL     OW24823   3.336   3.218   5.352  0.0420  0.5539  0.1786
 4397SOL    HW124824   3.379   3.154   5.408 -1.7733 -0.5224  0.3561
 4397SOL    HW224825   3.369   3.184   5.269  1.3981 -0.5173  1.1521
 4398SOL     OW24826   1.087   1.677   2.073 -0.1609 -0.1174 -0.9115
 4398SOL    HW124827   0.998   1.643   2.076 -0.2404  0.2624  0.8383
 4398SOL    HW224828   1.122   1.630   2.150  0.6738 -1.3627 -2.0370
 4399SOL     OW24829   4.034   0.952  14.293  0.5765 -0.3166  0.2607
 4399SOL    HW124830   3.943   0.949  14.263  1.5915 -1.5843 -2.6597
 4399SOL    HW224831   4.058   1.044  14.279 -0.5661  0.0118  0.4402
 4400SOL     OW24832   1.174   0.332   1.937 -0.3007  0.5822  0.0065
 4400SOL    HW124833   1.174   0.395   1.865 -0.2330 -1.0115 -1.3957
 4400SOL    HW224834   1.169   0.257   1.877  0.6476 -0.1260  0.8143
 4401SOL     OW24835   4.568   2.745   9.320 -0.2381  0.2543  0.2000
 4401SOL    HW124836   4.646   2.691   9.310  2.1311  3.7535 -0.1764
 4401SOL    HW224837   4.505   2.692   9.270 -1.0078  1.0053  0.3745
 4402SOL     OW24838   0.175   1.518  16.423 -0.3619  0.4541  0.0067
 4402SOL    HW124839   0.111   1.578  16.385  0.4123  1.8511  0.9207
 4402SOL    HW224840   0.228   1.499  16.346  1.7909 -0.2271  1.6408
 4403SOL     OW24841   3.819   4.484   1.630  0.0593  0.3254  0.6639
 4403SOL    HW124842   3.806   4.569   1.588 -1.7902 -1.1439 -1.6768
 4403SOL    HW224843   3.914   4.473   1.619  0.4760  0.3399  4.3314
 4404SOL     OW24844   1.424   2.937   4.787 -0.1354  0.1781 -0.3786
 4404SOL    HW124845   1.458   2.911   4.701 -1.8612 -1.5041 -0.5550
 4404SOL    HW224846   1.331   2.952   4.771 -0.6505 -0.1877  2.3457
 4405SOL     OW24847   3.570   2.994   2.432  0.0227  0.5683  0.0032
 4405SOL    HW124848   3.614   3.053   2.493  0.7819  0.8036 -0.7609
 4405SOL    HW224849   3.582   3.051   2.355 -3.4875  0.2214 -0.8103
 4406SOL     OW24850   4.714   3.153  12.654 -0.0277  0.2447 -0.3092
 4406SOL    HW124851   0.016   3.082  12.602 -1.1929  0.3869 -1.3608
 4406SOL    HW224852   4.700   3.220  12.587 -1.5734  1.7206  1.5076
 4407SOL     OW24853   3.322   2.066   8.084 -0.1797  0.0147  0.5613
 4407SOL    HW124854   3.374   2.140   8.053 -1.1886  1.3392  2.0607
 4407SOL    HW224855   3.380   2.026   8.149 -0.6349  0.0712  1.0061
 4408SOL     OW24856   3.292   3.614   3.120  0.9297 -0.2729  0.1390
 4408SOL    HW124857   3.292   3.586   3.211  1.6808  0.7840  0.4711
 4408SOL    HW224858   3.296   3.709   3.133 -0.7562 -0.5857  2.9519
 4409SOL     OW24859   0.690   0.165   7.492  0.0243 -0.4903 -0.3836
 4409SOL    HW124860   0.642   0.133   7.416  0.8829 -2.4639 -0.0670
 4409SOL    HW224861   0.624   0.190   7.557  0.7657  0.1224  0.1287
 4410SOL     OW24862   3.418   3.273   7.313 -0.2378 -0.4434  1.0404
 4410SOL    HW124863   3.501   3.261   7.358  0.1474  0.0660  0.4624
 4410SOL    HW224864   3.433   3.241   7.224  0.0538  1.0466  0.5490
 4411SOL     OW24865   0.354   4.425   3.404  0.0145  0.3136  0.0080
 4411SOL    HW124866   0.359   4.442   3.498 -2.1773 -2.6432  0.6387
 4411SOL    HW224867   0.434   4.474   3.383 -0.1668  0.9454  0.7677
 4412SOL     OW24868   4.548   3.293   3.203  0.4404 -0.0567  0.3678
 4412SOL    HW124869   4.527   3.214   3.153  0.2618 -0.5430  1.2120
 4412SOL    HW224870   4.604   3.338   3.140  1.3205  0.6185  1.6390
 4413SOL     OW24871   0.544   3.924  14.472 -0.1976  0.2037 -0.0580
 4413SOL    HW124872   0.594   3.988  14.523  0.8975  0.3305 -1.2816
 4413SOL    HW224873   0.568   3.956  14.385  0.3745  0.8044  0.3206
 4414SOL     OW24874   3.544   2.209   1.043 -0.0206 -0.0044 -0.6410
 4414SOL    HW124875   3.469   2.207   1.102  0.1430  0.9268 -0.4047
 4414SOL    HW224876   3.517   2.143   0.979 -1.2340  0.2480 -0.3937
 4415SOL     OW24877   0.077   3.422   9.357 -0.2372  0.0502 -0.2409
 4415SOL    HW124878   0.072   3.517   9.367 -2.8161  0.0541 -1.5832
 4415SOL    HW224879   0.115   3.400   9.442 -0.2677  0.9171 -0.0043
 4416SOL     OW24880   2.793   1.150  12.204  0.8828  0.0303 -0.1580
 4416SOL    HW124881   2.777   1.112  12.117 -0.3997  0.5770 -0.1755
 4416SOL    HW224882   2.858   1.087  12.233 -1.2165 -2.3999 -0.6980
 4417SOL     OW24883   2.992   1.854   3.298  0.5299  0.3110 -0.1836
 4417SOL    HW124884   2.994   1.900   3.382 -0.6192 -1.6808  0.9529
 4417SOL    HW224885   3.015   1.764   3.320 -2.0748  0.2128  2.1360
 4418SOL     OW24886   2.591   3.167   6.262  0.3912 -0.1959  0.5014
 4418SOL    HW124887   2.519   3.230   6.249  0.9274  0.3351  0.0840
 4418SOL    HW224888   2.604   3.126   6.176  0.7291  0.7385  0.0984
 4419SOL     OW24889   4.473   0.294   6.460 -0.3297  0.1542 -0.8098
 4419SOL    HW124890   4.494   0.310   6.368  2.3426 -0.1303 -0.2410
 4419SOL    HW224891   4.422   0.373   6.476  3.5441  2.6214 -0.6468
 4420SOL     OW24892   1.081   2.686   6.463 -0.1693  0.1330  0.2563
 4420SOL    HW124893   1.043   2.698   6.550 -0.2262 -1.2554  0.4183
 4420SOL    HW224894   1.159   2.640   6.495  0.3926  0.9959  0.1212
 4421SOL     OW24895   0.838   3.045  17.501 -0.0990  0.3261  0.3511
 4421SOL    HW124896   0.806   3.052  17.411 -1.4479 -2.2800  0.6224
 4421SOL    HW224897   0.902   2.974  17.492  0.8137  0.7188  3.6884
 4422SOL     OW24898   0.923   0.408   9.894 -0.3185  0.6798  0.2331
 4422SOL    HW124899   0.980   0.464   9.840 -0.2690 -1.0200 -1.4768
 4422SOL    HW224900   0.940   0.451   9.977  1.6543  0.3248  0.0373
 4423SOL     OW24901   4.277   2.661   4.541 -0.0804 -0.1814  0.5131
 4423SOL    HW124902   4.306   2.609   4.616 -2.3154 -2.4886 -0.2347
 4423SOL    HW224903   4.235   2.607   4.474  1.2724 -0.6505  0.0574
 4424SOL     OW24904   2.375   3.745   6.778  0.1115 -0.0307  0.4357
 4424SOL    HW124905   2.425   3.665   6.790  0.9687  0.9105  2.9676
 4424SOL    HW224906   2.283   3.718   6.769  0.7190 -1.7195 -0.6704
 4425SOL     OW24907   0.363   1.958  17.451 -0.1217 -0.7171  0.1763
 4425SOL    HW124908   0.381   1.882  17.508  0.8023  0.1549  1.0378
 4425SOL    HW224909   0.427   2.019  17.486  0.1092 -1.0059  0.2630
 4426SOL     OW24910   0.658   2.689   8.577  0.2996 -0.5018 -0.4132
 4426SOL    HW124911   0.658   2.658   8.667 -0.1076 -2.5194 -1.0983
 4426SOL    HW224912   0.670   2.784   8.584  0.1377 -0.3212 -2.3852
 4427SOL     OW24913   1.082   4.664   5.848  0.5355 -0.3490  0.4692
 4427SOL    HW124914   1.014   4.597   5.853  0.3671 -0.1641  0.6776
 4427SOL    HW224915   1.153   4.629   5.902  3.0642 -0.5385 -2.9979
 4428SOL     OW24916   4.658   1.049  14.740 -0.2094 -0.1538  0.0622
 4428SOL    HW124917   4.711   1.086  14.810 -1.0993  1.9603 -0.3896
 4428SOL    HW224918   4.729   1.036  14.677 -1.1080 -0.3328 -0.9096
 4429SOL     OW24919   0.896   3.075   1.581  0.4144  0.4825 -0.0590
 4429SOL    HW124920   0.867   3.045   1.495 -1.2819  1.1655  0.2738
 4429SOL    HW224921   0.947   3.154   1.564  1.6530 -0.6546 -1.6013
 4430SOL     OW24922   1.491   4.400  11.341 -0.0106  0.2796 -0.2144
 4430SOL    HW124923   1.446   4.342  11.279  1.4595 -0.6349 -0.4271
 4430SOL    HW224924   1.537   4.464  11.287 -2.0067  1.2363 -0.7690
 4431SOL     OW24925   1.739   2.097   2.944 -0.0813  0.7310  0.2115
 4431SOL    HW124926   1.741   2.149   3.025 -1.7992 -1.0569  1.4023
 4431SOL    HW224927   1.664   2.145   2.908 -0.4123 -2.0496 -2.8024
 4432SOL     OW24928   3.821   4.495   9.554 -0.1585  0.0102  0.1405
 4432SOL    HW124929   3.787   4.406   9.566 -1.2914  0.2650 -1.2878
 4432SOL    HW224930   3.753   4.548   9.595 -1.9762 -1.5470 -0.8786
 4433SOL     OW24931   3.191   1.364   5.757  0.4916 -0.5604 -0.2528
 4433SOL    HW124932   3.258   1.386   5.692  0.4170  0.0051 -0.1435
 4433SOL    HW224933   3.218   1.410   5.837  0.1312  2.2937 -1.7519
 4434SOL     OW24934   3.578   2.910  11.734 -0.0119 -0.0314  0.2299
 4434SOL    HW124935   3.567   2.881  11.644  3.9679 -0.3684 -0.1658
 4434SOL    HW224936   3.558   3.002  11.714  0.9607  0.1162 -0.0979
 4435SOL     OW24937   4.070   0.694  14.389 -0.5301  0.0604  0.2666
 4435SOL    HW124938   4.148   0.707  14.442 -0.8442  0.9764  0.4978
 4435SOL    HW224939   4.065   0.781  14.349  1.0138 -0.1386 -0.3602
 4436SOL     OW24940   1.807   4.505   2.643 -0.4256 -0.1220  0.5971
 4436SOL    HW124941   1.754   4.428   2.665 -0.6249 -0.3982 -0.8351
 4436SOL    HW224942   1.780   4.512   2.552  0.8600  3.4919  0.5187
 4437SOL     OW24943   4.722   0.291   9.389  0.8227 -0.1506 -0.0225
 4437SOL    HW124944   0.007   0.225   9.456 -0.3208 -0.6474 -0.1512
 4437SOL    HW224945   4.690   0.241   9.314 -0.6081  0.6503  0.0734
 4438SOL     OW24946   2.477   4.521  15.904  0.3791  0.0842 -0.3476
 4438SOL    HW124947   2.512   4.432  15.904  2.7091  0.9983  1.2566
 4438SOL    HW224948   2.425   4.523  15.824 -1.8579 -1.1488  1.0633
 4439SOL     OW24949   3.401   1.792   4.352 -0.2322  0.7668  0.0575
 4439SOL    HW124950   3.463   1.730   4.392 -0.5571 -0.7217 -1.7682
 4439SOL    HW224951   3.359   1.837   4.425 -0.9852 -2.8862  1.8933
 4440SOL     OW24952   1.684   0.867   2.497 -0.0470  0.2949 -0.2531
 4440SOL    HW124953   1.774   0.841   2.518  0.1289  1.0488 -0.0680
 4440SOL    HW224954   1.692   0.957   2.464 -0.3867 -0.7693 -3.2879
 4441SOL     OW24955   0.428   3.474   4.387 -0.5142 -0.1119  0.5584
 4441SOL    HW124956   0.427   3.554   4.440 -2.4848  0.8169 -0.8795
 4441SOL    HW224957   0.413   3.507   4.299 -0.8911  0.4313  0.8219
 4442SOL     OW24958   4.596   4.689   2.724  0.3712 -0.1088 -0.5431
 4442SOL    HW124959   4.633   4.637   2.795 -1.1678 -0.6082 -0.1053
 4442SOL    HW224960   4.501   4.679   2.732  0.6466 -0.8778  1.8233
 4443SOL     OW24961   0.591   3.247   6.065 -0.4154 -0.3911 -0.5357
 4443SOL    HW124962   0.495   3.247   6.066 -0.3844 -2.6673  1.7033
 4443SOL    HW224963   0.609   3.333   6.104 -1.2027 -0.6584  0.4246
 4444SOL     OW24964   2.333   4.148   6.716 -0.4349 -0.0024 -0.5805
 4444SOL    HW124965   2.302   4.064   6.751 -0.1274 -0.4397 -1.3418
 4444SOL    HW224966   2.291   4.213   6.772  0.2859  0.5623 -0.6992
 4445SOL     OW24967   2.844   4.543  16.001 -0.5880  0.5210 -0.4231
 4445SOL    HW124968   2.921   4.566  16.054 -1.8956  2.1859  0.7475
 4445SOL    HW224969   2.839   4.619  15.943  2.6220  1.1106  0.0639
 4446SOL     OW24970   2.991   3.105   4.517  0.3378 -0.6426 -0.4147
 4446SOL    HW124971   3.080   3.082   4.489  1.4229  1.9941  0.8699
 4446SOL    HW224972   2.956   3.146   4.437  1.4665 -0.9385 -1.0715
 4447SOL     OW24973   2.462   2.502   9.239  0.0347 -0.3519  0.5958
 4447SOL    HW124974   2.371   2.488   9.213  0.4516 -1.6946 -0.1919
 4447SOL    HW224975   2.461   2.583   9.289  2.4194 -0.2600  0.4776
 4448SOL     OW24976   0.070   1.699   1.044 -0.6377 -0.1278  0.6833
 4448SOL    HW124977   0.030   1.763   1.104 -1.5491  0.0680 -0.1245
 4448SOL    HW224978   0.078   1.755   0.967 -1.3381 -0.7967  0.1224
 4449SOL     OW24979   1.548   4.324   3.812  0.4745  0.7118  0.0366
 4449SOL    HW124980   1.628   4.273   3.802 -0.3088 -0.3344 -0.9517
 4449SOL    HW224981   1.562   4.381   3.737  0.9537  1.2008  0.5013
 4450SOL     OW24982   4.553   3.043   2.756  0.4941  0.2181 -0.4038
 4450SOL    HW124983   4.646   3.058   2.767  0.4477  0.4094 -0.2829
 4450SOL    HW224984   4.540   3.102   2.682  1.7047  0.2427 -0.5872
 4451SOL     OW24985   2.035   1.592  15.888  0.3559 -0.2281  0.2791
 4451SOL    HW124986   2.114   1.541  15.907  0.5200  0.2564  0.8817
 4451SOL    HW224987   2.034   1.570  15.795 -0.7309  1.3934 -0.0866
 4452SOL     OW24988   2.658   1.949   2.403 -0.6722 -0.6428 -0.5719
 4452SOL    HW124989   2.746   1.922   2.427 -0.9655  1.0586  2.4050
 4452SOL    HW224990   2.619   1.862   2.414 -0.3642 -0.4008  2.3915
 4453SOL     OW24991   1.117   2.577   3.257 -0.0264  0.7491 -0.0216
 4453SOL    HW124992   1.147   2.654   3.209  0.1321 -0.9432 -2.6969
 4453SOL    HW224993   1.035   2.566   3.207 -0.2429 -1.8199  0.8925
 4454SOL     OW24994   3.709   3.175   2.546 -0.1053  0.2119 -0.2112
 4454SOL    HW124995   3.785   3.146   2.597  0.3793  0.1270 -0.9720
 4454SOL    HW224996   3.720   3.270   2.542 -0.8709  0.3187  0.3813
 4455SOL     OW24997   0.037   0.095   9.661  0.0969  0.5136 -0.1943
 4455SOL    HW124998   0.002   0.138   9.739  2.0646  2.7579 -0.5498
 4455SOL    HW224999   4.718   0.019   9.647 -0.1834  0.9062 -1.2309
 4456SOL     OW25000   0.966   3.583   4.644  0.4778 -0.3964 -0.1157
 4456SOL    HW125001   1.029   3.592   4.716 -0.3758  0.5876  0.5172
 4456SOL    HW225002   0.936   3.673   4.633 -0.1395 -0.4426  1.2176
 4457SOL     OW25003   3.018   2.744  15.953 -0.3472 -0.5573  0.6985
 4457SOL    HW125004   2.953   2.689  15.909  1.2073 -2.3994  0.6678
 4457SOL    HW225005   3.004   2.827  15.908  1.6834 -0.5440  0.0802
 4458SOL     OW25006   1.265   0.231   8.001 -1.0563 -0.1537  0.1734
 4458SOL    HW125007   1.260   0.174   8.078  2.3792 -0.6331  0.0312
 4458SOL    HW225008   1.322   0.185   7.940  1.1055  0.8540  1.4498
 4459SOL     OW25009   2.103   3.454  13.345  0.4548 -0.0453  0.0305
 4459SOL    HW125010   2.091   3.362  13.367 -1.5354  0.4541  1.0072
 4459SOL    HW225011   2.054   3.494  13.416  1.4824  2.4318 -0.6158
 4460SOL     OW25012   4.156   1.292   2.043  0.0148 -0.2557 -0.0552
 4460SOL    HW125013   4.179   1.227   1.976  2.3360 -2.0138  2.4609
 4460SOL    HW225014   4.064   1.304   2.020  0.3173 -2.1623 -2.2524
 4461SOL     OW25015   2.134   1.292   8.056 -0.2699 -0.5600  0.0762
 4461SOL    HW125016   2.127   1.286   7.961 -0.1577  2.9001 -0.1383
 4461SOL    HW225017   2.171   1.208   8.083 -0.1745 -0.2757  0.8172
 4462SOL     OW25018   3.378   0.785   9.367  0.3266 -0.0548 -0.2030
 4462SOL    HW125019   3.465   0.746   9.380 -0.1722 -1.1263 -0.0788
 4462SOL    HW225020   3.369   0.791   9.272  0.6836  0.2214 -0.2202
 4463SOL     OW25021   0.366   2.765  17.124  0.3829  0.0637 -0.0639
 4463SOL    HW125022   0.441   2.748  17.181  0.0810 -0.2745  0.2347
 4463SOL    HW225023   0.302   2.716  17.176  3.3281 -1.0528  2.4603
 4464SOL     OW25024   2.514   4.481   0.922 -0.2109 -0.1184  0.3018
 4464SOL    HW125025   2.420   4.496   0.911 -0.1600 -1.3102 -1.6346
 4464SOL    HW225026   2.543   4.572   0.911 -3.0455  0.3929 -2.9460
 4465SOL     OW25027   4.598   0.431   3.049  0.0459  0.7914  0.1861
 4465SOL    HW125028   4.678   0.482   3.045  0.1957  0.4082 -1.7138
 4465SOL    HW225029   4.545   0.496   3.002  1.6870  0.7134 -1.7707
 4466SOL     OW25030   3.769   3.135   4.756  0.3942 -0.8212  0.1782
 4466SOL    HW125031   3.777   3.066   4.821  2.2209 -1.2029 -0.4465
 4466SOL    HW225032   3.791   3.073   4.686  0.2439 -1.4292  0.6752
 4467SOL     OW25033   3.068   0.400   2.741  0.6476 -0.2805 -0.2265
 4467SOL    HW125034   3.122   0.345   2.684  0.1700  0.1809 -1.1291
 4467SOL    HW225035   3.059   0.485   2.696 -0.6881  0.6196  1.7545
 4468SOL     OW25036   2.485   0.331   5.308 -0.3722  0.0193  0.6662
 4468SOL    HW125037   2.563   0.340   5.363  0.0524  0.7996 -0.0782
 4468SOL    HW225038   2.422   0.397   5.337 -0.9947  0.0916 -0.8623
 4469SOL     OW25039   3.214   0.271   2.545  0.3097 -0.1673 -0.4706
 4469SOL    HW125040   3.309   0.267   2.534  0.5702  0.3749  1.5815
 4469SOL    HW225041   3.178   0.209   2.481 -0.8252 -2.1346  2.0908
 4470SOL     OW25042   3.824   3.279  15.303 -0.4602 -0.4216  0.2307
 4470SOL    HW125043   3.826   3.373  15.322  3.2312 -0.7736  1.4853
 4470SOL    HW225044   3.917   3.257  15.310 -0.1967  0.8986  0.8337
 4471SOL     OW25045   4.104   3.117   6.073 -0.4888  0.2988 -0.3552
 4471SOL    HW125046   4.121   3.180   6.002  2.9044  2.6988  2.6009
 4471SOL    HW225047   4.178   3.136   6.130 -1.8578  1.9617  0.8732
 4472SOL     OW25048   3.170   2.494   5.697  0.6055  0.0940 -0.5761
 4472SOL    HW125049   3.178   2.568   5.758  3.2428 -0.4763 -0.2250
 4472SOL    HW225050   3.204   2.539   5.620 -1.2018 -0.1660 -1.5226
 4473SOL     OW25051   0.088   0.038   4.795 -0.3326 -0.0826 -0.8663
 4473SOL    HW125052   0.020   4.709   4.813  0.6911 -1.4076 -1.8014
 4473SOL    HW225053   0.089   0.035   4.699 -2.3845  0.7881 -0.9150
 4474SOL     OW25054   1.427   4.009   5.737 -0.0630 -0.8256 -0.6560
 4474SOL    HW125055   1.379   3.981   5.659  1.3462  0.8815 -2.1301
 4474SOL    HW225056   1.425   3.930   5.791 -1.0019 -0.3190  0.0530
 4475SOL     OW25057   1.393   0.198   0.452 -0.1277 -0.2800  0.0150
 4475SOL    HW125058   1.433   0.268   0.401  1.1717 -2.6444 -2.1507
 4475SOL    HW225059   1.301   0.224   0.452 -0.2302 -0.6427 -0.7597
 4476SOL     OW25060   2.265   1.716   7.498  0.0815 -0.4031 -0.0182
 4476SOL    HW125061   2.260   1.730   7.403  0.9509 -1.4279 -0.2117
 4476SOL    HW225062   2.289   1.805   7.527 -1.7566  0.4398 -1.1083
 4477SOL     OW25063   0.601   0.537   6.437 -0.1503  0.4573 -0.2518
 4477SOL    HW125064   0.565   0.626   6.427  0.2414  0.8215  1.4924
 4477SOL    HW225065   0.684   0.553   6.482 -1.1311  0.9751  1.4154
 4478SOL     OW25066   1.863   1.687   4.907  0.1970 -0.2909 -0.0318
 4478SOL    HW125067   1.923   1.628   4.952 -1.1416 -1.0852  0.7087
 4478SOL    HW225068   1.926   1.748   4.871  2.0623 -2.0996  0.1827
 4479SOL     OW25069   2.813   4.345   9.193 -0.3022  0.4674  0.1202
 4479SOL    HW125070   2.858   4.328   9.111 -1.7886 -0.0181 -0.5827
 4479SOL    HW225071   2.780   4.435   9.182  0.7526  0.8583  0.1375
 4480SOL     OW25072   1.777   3.136   7.278  0.4911  0.5487  0.0075
 4480SOL    HW125073   1.785   3.051   7.233 -2.8644 -0.3633  1.1648
 4480SOL    HW225074   1.720   3.187   7.221 -0.3554  0.4531  0.7817
 4481SOL     OW25075   2.977   2.633   1.900  0.1431 -0.2544  0.4781
 4481SOL    HW125076   2.929   2.651   1.819  0.0297  1.1601  0.8609
 4481SOL    HW225077   3.038   2.560   1.890  0.3877  0.0925 -0.5133
 4482SOL     OW25078   0.980   1.879   4.195  0.4428 -0.2008 -0.2322
 4482SOL    HW125079   0.999   1.963   4.152  0.1335 -0.5606 -1.0697
 4482SOL    HW225080   0.884   1.881   4.195  0.4588  0.5216 -2.7356
 4483SOL     OW25081   3.341   4.071   7.139  0.0378  0.7152  0.5346
 4483SOL    HW125082   3.319   4.005   7.205  0.7506  1.6352  1.6844
 4483SOL    HW225083   3.285   4.146   7.159 -0.4897  0.4353  0.0989
 4484SOL     OW25084   2.548   4.388   6.353  0.5262 -0.4541  0.2401
 4484SOL    HW125085   2.596   4.432   6.282 -0.6479 -0.3920 -0.5136
 4484SOL    HW225086   2.545   4.465   6.410  0.0837  0.2663 -0.7627
 4485SOL     OW25087   3.329   2.848   4.765 -0.4695 -0.4160  0.2209
 4485SOL    HW125088   3.343   2.896   4.683  0.5712  0.9931  1.2317
 4485SOL    HW225089   3.420   2.828   4.788  0.2241  1.0501 -1.2269
 4486SOL     OW25090   3.175   4.616   2.268 -0.0962  0.0526  0.3249
 4486SOL    HW125091   3.233   4.569   2.329 -1.5098 -0.2147  1.4597
 4486SOL    HW225092   3.096   4.562   2.274  0.3365 -0.3543  2.2099
 4487SOL     OW25093   1.872   3.779  12.491 -0.0360  0.3984  0.0325
 4487SOL    HW125094   1.777   3.767  12.490  0.0732 -0.4041 -0.4125
 4487SOL    HW225095   1.890   3.774  12.585  2.1261  0.0611 -0.4142
 4488SOL     OW25096   3.191   1.278  10.307  0.2262 -0.3297 -0.1734
 4488SOL    HW125097   3.261   1.257  10.369 -1.6176 -4.1814  0.6259
 4488SOL    HW225098   3.218   1.365  10.277  0.3294 -0.1750  0.3576
 4489SOL     OW25099   2.115   2.044   0.919  0.2090  0.1777  0.7347
 4489SOL    HW125100   2.096   1.951   0.905  2.8696 -0.5537  1.9967
 4489SOL    HW225101   2.092   2.069   0.830 -1.7947  1.6000  1.6650
 4490SOL     OW25102   2.892   4.336   3.073 -0.6129 -0.2071 -0.1100
 4490SOL    HW125103   2.814   4.282   3.063 -0.4590 -0.2661 -1.0051
 4490SOL    HW225104   2.852   4.419   3.047  0.8308  0.3019 -0.7189
 4491SOL     OW25105   3.506   3.881   1.744  0.7419  0.1729 -0.3780
 4491SOL    HW125106   3.480   3.850   1.658 -0.6352  0.2783 -0.0050
 4491SOL    HW225107   3.536   3.797   1.778  2.2158  0.6623 -0.4736
 4492SOL     OW25108   3.449   3.249  11.274  0.0185  0.0772 -0.0851
 4492SOL    HW125109   3.368   3.248  11.326  0.4386 -0.6707  0.5585
 4492SOL    HW225110   3.479   3.338  11.294 -1.1679  0.1808  1.2327
 4493SOL     OW25111   1.345   2.655   5.849  0.5066 -0.4656  0.3442
 4493SOL    HW125112   1.273   2.717   5.834  0.0383 -1.5406 -1.9524
 4493SOL    HW225113   1.405   2.714   5.894  2.4300  0.5491 -3.5701
 4494SOL     OW25114   4.168   1.798   9.462 -0.0019  0.1657 -0.0518
 4494SOL    HW125115   4.136   1.823   9.549 -2.0515 -1.0406 -0.4633
 4494SOL    HW225116   4.192   1.887   9.436  0.3792 -0.5368 -2.0672
 4495SOL     OW25117   4.265   3.235   3.884 -0.3495 -0.3085 -0.2859
 4495SOL    HW125118   4.277   3.295   3.958  3.7800  0.1703 -1.3369
 4495SOL    HW225119   4.170   3.239   3.887 -0.3707 -0.9159 -0.2305
 4496SOL     OW25120   1.501   3.162   9.068  0.1285 -0.1184 -0.2869
 4496SOL    HW125121   1.461   3.249   9.067 -0.4174 -0.3599  0.6435
 4496SOL    HW225122   1.525   3.150   8.976 -1.2995  1.9958 -0.9414
 4497SOL     OW25123   2.277   1.004   1.609  0.1851  0.5257 -0.1961
 4497SOL    HW125124   2.306   0.925   1.655  0.0164  1.1208  0.9229
 4497SOL    HW225125   2.219   0.969   1.541  2.4721 -0.7902 -1.4918
 4498SOL     OW25126   4.276   2.459   4.785 -0.0322  0.2669  0.3255
 4498SOL    HW125127   4.336   2.454   4.858  1.2574  0.1858 -0.7421
 4498SOL    HW225128   4.187   2.459   4.821  1.0890 -0.6903  3.0401
 4499SOL     OW25129   0.457   4.448   6.553 -0.0781  0.4303  0.4545
 4499SOL    HW125130   0.494   4.535   6.544  1.8531 -0.3916  0.4064
 4499SOL    HW225131   0.445   4.417   6.463  2.7172  1.3229 -0.2168
 4500SOL     OW25132   3.770   1.576   7.372  0.1895 -0.1673  0.2066
 4500SOL    HW125133   3.787   1.546   7.461 -2.2786  2.5322  1.5702
 4500SOL    HW225134   3.785   1.492   7.328  0.2128 -0.0573  0.0034
 4501SOL     OW25135   0.845   3.166   3.393 -0.3583  0.4351  0.6331
 4501SOL    HW125136   0.806   3.254   3.388 -0.7452  0.3155  1.5938
 4501SOL    HW225137   0.854   3.139   3.302  0.9246  3.4408 -0.1198
 4502SOL     OW25138   3.457   2.842   9.580  0.7447 -0.0726 -0.7921
 4502SOL    HW125139   3.497   2.899   9.646 -1.0256 -0.0432  0.2557
 4502SOL    HW225140   3.504   2.761   9.601  2.0465  0.8210 -0.2323
 4503SOL     OW25141   4.537   3.814   7.951 -0.2571  0.6239  0.2725
 4503SOL    HW125142   4.613   3.766   7.917 -1.2513 -1.8074  1.4662
 4503SOL    HW225143   4.469   3.756   7.919 -1.4781  2.2651 -0.1058
 4504SOL     OW25144   2.712   3.250   3.335  0.2770 -0.3268 -0.0115
 4504SOL    HW125145   2.701   3.299   3.416  0.6079 -0.8906  0.3762
 4504SOL    HW225146   2.796   3.283   3.301  1.2267 -1.3449  1.3408
 4505SOL     OW25147   4.588   1.948   3.661  0.5379  0.8273 -0.1547
 4505SOL    HW125148   4.520   1.974   3.724 -1.2086  1.5440 -2.3224
 4505SOL    HW225149   4.660   1.961   3.722 -1.7310  1.3398  2.4588
 4506SOL     OW25150   2.821   4.587   7.540 -0.5624  0.1006 -0.4618
 4506SOL    HW125151   2.759   4.556   7.475 -1.7824 -0.6927  1.0866
 4506SOL    HW225152   2.826   4.505   7.590  0.3245  0.9118  0.7850
 4507SOL     OW25153   3.633   4.118   5.080  1.1850  0.4150  0.3707
 4507SOL    HW125154   3.601   4.138   4.992 -0.5601  0.3779  0.9867
 4507SOL    HW225155   3.567   4.049   5.093  1.0427  0.3788 -0.5581
 4508SOL     OW25156   2.079   0.034  12.554 -0.4348 -0.0604 -0.4202
 4508SOL    HW125157   2.090   4.675  12.565 -1.8326 -0.1202  0.4812
 4508SOL    HW225158   1.991   0.040  12.590  0.4971 -2.6387  2.3591
 4509SOL     OW25159   3.702   2.873   8.596 -0.2948 -0.5158 -0.0874
 4509SOL    HW125160   3.711   2.950   8.540  0.8539 -0.8288 -0.3367
 4509SOL    HW225161   3.700   2.916   8.682 -1.7512 -1.2235  0.2237
 4510SOL     OW25162   0.045   1.632   5.933  0.5200  0.4316 -0.5181
 4510SOL    HW125163   0.131   1.590   5.946  0.6248  1.1358  1.1134
 4510SOL    HW225164   0.018   1.607   5.845 -1.8220 -0.3219  0.4218
 4511SOL     OW25165   2.456   1.913   5.528 -0.1229  0.3477 -0.7015
 4511SOL    HW125166   2.519   1.960   5.583  0.0569  0.3021 -0.8727
 4511SOL    HW225167   2.391   1.982   5.513 -0.1092  0.8734  1.6518
 4512SOL     OW25168   3.089   3.241   7.194  0.0231 -0.1486 -0.3841
 4512SOL    HW125169   3.146   3.198   7.258 -0.4651  1.6866  1.3003
 4512SOL    HW225170   3.021   3.175   7.185  0.9929 -0.7829 -3.0822
 4513SOL     OW25171   0.311   4.246   1.858  0.2524  0.3666 -0.0921
 4513SOL    HW125172   0.299   4.332   1.817  3.8537 -0.3762 -2.7903
 4513SOL    HW225173   0.225   4.206   1.869 -0.3494  1.5746 -0.4921
 4514SOL     OW25174   3.269   2.181   1.142 -0.7427 -0.0744 -0.7210
 4514SOL    HW125175   3.229   2.266   1.121  2.4090  2.2164  2.4523
 4514SOL    HW225176   3.224   2.168   1.226 -0.4955  0.5149 -0.4987
 4515SOL     OW25177   0.063   3.048   8.217  0.0865  0.2000  0.0359
 4515SOL    HW125178   0.028   2.973   8.265  1.0046 -1.4849 -1.9232
 4515SOL    HW225179   0.084   3.109   8.288 -3.1140  1.3373 -0.0216
 4516SOL     OW25180   0.534   2.061  14.813 -0.6100 -0.4335 -0.5449
 4516SOL    HW125181   0.512   1.970  14.836  1.3207 -0.3979  1.4614
 4516SOL    HW225182   0.448   2.087  14.781 -0.2732  0.7497 -0.4936
 4517SOL     OW25183   0.431   1.375   3.417 -0.0995 -0.8336  0.1214
 4517SOL    HW125184   0.338   1.398   3.412  0.1733  0.1685 -0.4349
 4517SOL    HW225185   0.471   1.404   3.335  2.4929 -2.0622  0.9414
 4518SOL     OW25186   2.356   2.451   1.491  0.4611  0.0775 -0.5667
 4518SOL    HW125187   2.332   2.544   1.483 -2.6121 -0.7730 -1.2758
 4518SOL    HW225188   2.330   2.429   1.401  1.1160  1.6817 -1.1462
 4519SOL     OW25189   2.977   2.709   8.006 -0.2922  0.0061  0.1063
 4519SOL    HW125190   3.057   2.711   7.955 -0.1425  0.5980  0.3643
 4519SOL    HW225191   2.990   2.787   8.061 -0.3800 -1.2419  1.8841
 4520SOL     OW25192   1.562   4.289   3.129 -0.0304 -0.2976 -0.3265
 4520SOL    HW125193   1.589   4.200   3.152 -3.3097 -1.1276  0.2006
 4520SOL    HW225194   1.612   4.347   3.187 -0.0439 -0.0599 -0.5523
 4521SOL     OW25195   0.995   4.505   3.861 -0.3234  0.2609 -0.1987
 4521SOL    HW125196   1.000   4.422   3.814  3.3394  0.6282 -0.4539
 4521SOL    HW225197   1.061   4.552   3.811  0.8942 -3.9414 -2.5440
 4522SOL     OW25198   0.106   1.733   0.085 -0.5529  0.2846  0.0587
 4522SOL    HW125199   0.144   1.771   0.164  1.4009 -3.5296  0.9878
 4522SOL    HW225200   0.027   1.785   0.086 -0.9378 -0.3728  2.6599
 4523SOL     OW25201   3.904   1.187   1.722 -0.1580  0.2762  0.8547
 4523SOL    HW125202   3.841   1.127   1.762 -0.5903 -1.4364 -2.3874
 4523SOL    HW225203   3.875   1.267   1.764 -0.1498 -0.7049  2.7271
 4524SOL     OW25204   1.429   1.279   2.753  0.3802 -0.0457 -0.4750
 4524SOL    HW125205   1.490   1.352   2.762 -2.1161  2.1383 -1.2849
 4524SOL    HW225206   1.354   1.303   2.808  1.9452  0.1635  1.5529
 4525SOL     OW25207   0.916   4.522   1.566 -1.2315  0.3881 -0.0044
 4525SOL    HW125208   0.934   4.539   1.658  1.3259 -3.6074  0.2287
 4525SOL    HW225209   0.947   4.432   1.562  1.6128  1.3100  1.0895
 4526SOL     OW25210   3.090   2.958   1.717 -0.0629 -0.4116  0.2369
 4526SOL    HW125211   3.152   2.889   1.741 -0.2272 -0.7817 -0.3825
 4526SOL    HW225212   3.147   2.993   1.648 -0.4600  0.2675  0.2567
 4527SOL     OW25213   1.534   3.331  16.354 -0.2299  0.3975 -0.5345
 4527SOL    HW125214   1.483   3.410  16.370 -1.4170 -0.2354 -1.1855
 4527SOL    HW225215   1.471   3.259  16.343 -0.8756  0.8726  0.0679
 4528SOL     OW25216   2.202   1.384   7.140  0.4417 -0.3413  0.2904
 4528SOL    HW125217   2.249   1.465   7.159 -0.5485  0.7669 -1.9430
 4528SOL    HW225218   2.129   1.384   7.203 -0.6158  0.0861 -0.9237
 4529SOL     OW25219   3.927   4.131   9.133  0.1660  0.1540  0.0288
 4529SOL    HW125220   3.919   4.084   9.050 -1.2281  1.3525 -0.5067
 4529SOL    HW225221   3.854   4.107   9.190 -0.3322  0.0681 -0.6504
 4530SOL     OW25222   0.548   0.400   7.635 -0.5363 -0.1958 -0.0529
 4530SOL    HW125223   0.459   0.422   7.609 -0.6411 -1.9813 -1.2250
 4530SOL    HW225224   0.578   0.486   7.666 -1.5389  0.0690  0.1816
 4531SOL     OW25225   3.681   0.466   1.540  0.7119  0.0508 -0.4844
 4531SOL    HW125226   3.621   0.539   1.528  1.4735  0.4663 -1.7811
 4531SOL    HW225227   3.606   0.409   1.560 -0.5416  2.1103  0.5844
 4532SOL     OW25228   1.162   4.516   2.612 -0.4763 -0.1541 -0.1573
 4532SOL    HW125229   1.147   4.438   2.559 -0.0193  0.8168 -1.7179
 4532SOL    HW225230   1.126   4.577   2.548  0.0761  0.7883  0.4068
 4533SOL     OW25231   0.161   0.822   6.864  0.3885 -0.1257  0.3383
 4533SOL    HW125232   0.215   0.825   6.944  1.6267  1.9329 -0.5668
 4533SOL    HW225233   0.226   0.791   6.802 -0.0242 -0.0492 -0.1314
 4534SOL     OW25234   0.287   3.303   2.806 -0.2426 -0.3778  0.1875
 4534SOL    HW125235   0.246   3.367   2.748  0.6922  0.8825  0.9083
 4534SOL    HW225236   0.358   3.273   2.751 -1.1606 -1.5476 -0.3487
 4535SOL     OW25237   0.475   1.104  15.088 -0.1476  0.1529 -0.0459
 4535SOL    HW125238   0.401   1.152  15.125 -0.7017 -1.7831  1.3857
 4535SOL    HW225239   0.467   1.139  15.000 -1.2220 -0.6665 -0.2766
 4536SOL     OW25240   3.348   0.803   1.186 -0.2615  0.0612 -0.3030
 4536SOL    HW125241   3.309   0.732   1.238 -0.5198 -0.0889 -0.7042
 4536SOL    HW225242   3.439   0.776   1.172 -0.2291 -0.0291  0.0656
 4537SOL     OW25243   3.697   3.401   9.294 -0.1193 -0.7407  0.0333
 4537SOL    HW125244   3.773   3.382   9.239 -0.8445  1.4616 -1.7521
 4537SOL    HW225245   3.742   3.397   9.378 -1.1621 -1.4063  0.5651
 4538SOL     OW25246   4.009   0.616   1.081 -0.2046  0.4602 -0.3079
 4538SOL    HW125247   4.055   0.542   1.119 -1.9197 -0.2873  0.3181
 4538SOL    HW225248   3.953   0.575   1.015  3.2088  0.2651 -3.0753
 4539SOL     OW25249   2.696   3.893   6.400  0.2978  0.6496  0.9106
 4539SOL    HW125250   2.757   3.856   6.464  2.7147 -1.9839 -2.9832
 4539SOL    HW225251   2.730   3.982   6.387 -0.3513  0.8046  0.2587
 4540SOL     OW25252   1.145   1.206   6.173  0.1491  0.5049  0.1650
 4540SOL    HW125253   1.198   1.231   6.097  0.1799 -0.0414  0.0051
 4540SOL    HW225254   1.223   1.176   6.220  1.4046  2.1600 -0.8392
 4541SOL     OW25255   1.224   3.234   2.716  0.2136  0.0620  0.5759
 4541SOL    HW125256   1.306   3.282   2.702  0.4630 -0.1983  1.1270
 4541SOL    HW225257   1.167   3.309   2.729 -0.2429  0.0820 -1.5504
 4542SOL     OW25258   1.987   1.030   5.769 -0.3845 -0.2843 -0.0502
 4542SOL    HW125259   1.957   0.978   5.694 -1.1794  1.9215 -1.2381
 4542SOL    HW225260   2.064   1.076   5.735 -1.1347  0.9974 -0.0181
 4543SOL     OW25261   1.196   2.049   5.033 -0.6113 -0.0905  0.1023
 4543SOL    HW125262   1.152   2.039   5.117 -0.6987  0.6950  0.1428
 4543SOL    HW225263   1.283   2.070   5.065 -0.2030 -0.8475 -0.5125
 4544SOL     OW25264   2.345   3.522   3.822 -0.1738  0.2522  0.1514
 4544SOL    HW125265   2.425   3.482   3.857  1.0510  1.7954 -0.8534
 4544SOL    HW225266   2.313   3.560   3.903  0.9299  2.8996 -0.6594
 4545SOL     OW25267   3.905   1.072   4.687 -0.1204  0.7594 -0.1924
 4545SOL    HW125268   3.973   1.035   4.631  0.1013  1.8154 -0.6283
 4545SOL    HW225269   3.830   1.060   4.629  0.7754 -0.7476 -1.0356
 4546SOL     OW25270   2.404   1.935   9.218  0.1631  0.1130 -0.6222
 4546SOL    HW125271   2.359   1.945   9.133 -0.4187  0.8821 -0.2255
 4546SOL    HW225272   2.414   1.840   9.216 -2.6395 -0.2278  1.8052
 4547SOL     OW25273   3.853   3.382   4.803 -0.1693  0.8743 -0.4495
 4547SOL    HW125274   3.831   3.291   4.783 -0.4856  0.7050  0.7146
 4547SOL    HW225275   3.846   3.423   4.716  0.3957  0.0660 -0.8763
 4548SOL     OW25276   3.693   0.529   8.600  0.3268 -0.0960 -0.4877
 4548SOL    HW125277   3.613   0.558   8.555  0.0008 -0.3452 -0.0692
 4548SOL    HW225278   3.661   0.466   8.664 -1.6989  1.3363 -0.0831
 4549SOL     OW25279   0.304   0.269   4.087 -0.0607 -0.1248  0.0579
 4549SOL    HW125280   0.383   0.218   4.107 -1.3596 -1.3939  1.9259
 4549SOL    HW225281   0.279   0.245   3.998 -0.8096  0.6122  0.0686
 4550SOL     OW25282   1.734   1.472   1.330 -0.0525 -0.4388 -0.6843
 4550SOL    HW125283   1.693   1.521   1.259  0.2232  0.0392 -0.5171
 4550SOL    HW225284   1.759   1.404   1.268  0.4108 -2.6775  1.9606
 4551SOL     OW25285   0.735   1.297  14.056  0.1696 -0.3579 -0.1081
 4551SOL    HW125286   0.702   1.375  14.100  1.4679  0.2157 -0.1566
 4551SOL    HW225287   0.681   1.305  13.977  0.2969 -2.0232 -0.3702
 4552SOL     OW25288   0.738   1.642   8.536  0.1508 -0.5997  0.0065
 4552SOL    HW125289   0.669   1.695   8.576  1.0275  0.8127 -0.3471
 4552SOL    HW225290   0.801   1.699   8.579 -0.2653 -1.8651  2.3039
 4553SOL     OW25291   2.377   3.677  12.426  0.5467 -0.3139 -0.7548
 4553SOL    HW125292   2.412   3.694  12.338 -2.3063  1.2602 -1.5984
 4553SOL    HW225293   2.284   3.663  12.412  0.2651  1.8616 -1.0807
 4554SOL     OW25294   0.929   0.959  12.166 -0.2540 -0.1798 -0.3776
 4554SOL    HW125295   0.947   0.956  12.072  2.1595 -0.5902  0.0755
 4554SOL    HW225296   0.850   1.013  12.168  0.5880  0.9940  2.1277
 4555SOL     OW25297   3.745   3.286   0.277  0.0323 -0.0865 -0.1428
 4555SOL    HW125298   3.785   3.373   0.271 -4.1306  1.6019 -2.9978
 4555SOL    HW225299   3.653   3.292   0.250  0.6564  0.3569 -2.1541
 4556SOL     OW25300   1.203   3.634   3.808  0.0432 -0.0635  0.5618
 4556SOL    HW125301   1.177   3.638   3.900 -5.6970 -1.2538 -1.0451
 4556SOL    HW225302   1.237   3.723   3.796  0.3465 -0.5030 -1.8243
 4557SOL     OW25303   2.943   0.008   6.854 -0.2183  0.2341  0.0565
 4557SOL    HW125304   2.878   4.697   6.802 -2.2011  0.7139  2.0995
 4557SOL    HW225305   2.976   4.676   6.913  1.5620  1.4079  0.4119
 4558SOL     OW25306   0.804   3.446   2.854 -0.0699  0.2886 -0.4440
 4558SOL    HW125307   0.805   3.355   2.883  0.0605 -0.2419 -2.0856
 4558SOL    HW225308   0.725   3.438   2.800 -1.5615  1.1039  1.6062
 4559SOL     OW25309   2.908   4.485   3.874 -0.5079 -0.2467  0.0900
 4559SOL    HW125310   2.824   4.479   3.830 -1.7444 -0.0097  2.4207
 4559SOL    HW225311   2.885   4.483   3.967 -1.2611  3.1155 -0.0119
 4560SOL     OW25312   2.683   2.828   6.871  0.2910 -0.1158  0.0420
 4560SOL    HW125313   2.607   2.784   6.908  0.4750 -0.7714 -0.3637
 4560SOL    HW225314   2.721   2.778   6.798 -0.2262 -0.7391  0.2079
 4561SOL     OW25315   0.661   0.043   4.735  0.4038 -0.2165 -0.2152
 4561SOL    HW125316   0.662   0.067   4.827  1.7009 -0.9454 -0.0449
 4561SOL    HW225317   0.719   4.704   4.749 -0.6141 -1.1707 -1.0962
 4562SOL     OW25318   1.613   2.531   8.171  0.1993 -0.2011  0.0904
 4562SOL    HW125319   1.594   2.442   8.200  1.7002 -0.2007  1.0472
 4562SOL    HW225320   1.704   2.538   8.199  0.9088  0.5979 -2.3461
 4563SOL     OW25321   1.370   1.134  13.760  0.0529  0.5162  0.3495
 4563SOL    HW125322   1.299   1.132  13.825 -0.5731 -0.1952 -0.3669
 4563SOL    HW225323   1.372   1.229  13.749 -0.3339  0.2405 -1.9275
 4564SOL     OW25324   3.649   1.017   6.147  0.3657 -0.2322 -0.1085
 4564SOL    HW125325   3.641   0.923   6.162  0.1035  0.1249  1.8931
 4564SOL    HW225326   3.636   1.024   6.052 -1.0993  2.4112  0.2688
 4565SOL     OW25327   3.688   4.205   7.788  0.0195  0.4199  0.5714
 4565SOL    HW125328   3.607   4.187   7.740  1.8903 -1.7377 -1.7464
 4565SOL    HW225329   3.677   4.147   7.863  0.5127 -0.1619  0.1843
 4566SOL     OW25330   3.654   4.668   9.639 -0.3474  0.6788 -0.4888
 4566SOL    HW125331   3.570   4.694   9.601  0.5665  1.2035 -2.1735
 4566SOL    HW225332   3.643   4.709   9.725  0.0931 -2.0443  0.8397
 4567SOL     OW25333   0.466   3.028   5.684  0.2154 -0.3351  0.3366
 4567SOL    HW125334   0.451   3.109   5.732 -0.8367  1.0169 -2.2358
 4567SOL    HW225335   0.409   3.047   5.609 -0.2187 -2.2793  0.1740
 4568SOL     OW25336   0.672   1.233   7.971 -0.2532 -0.3443  0.0782
 4568SOL    HW125337   0.584   1.206   7.997 -1.1594  0.1341 -2.5305
 4568SOL    HW225338   0.657   1.297   7.901  0.2003  1.5293  1.7103
 4569SOL     OW25339   1.153   0.729   7.531 -0.4771 -0.2247  0.4314
 4569SOL    HW125340   1.169   0.764   7.619  0.4610  1.0548 -0.2532
 4569SOL    HW225341   1.100   0.794   7.485 -0.0912 -0.2004  0.0191
 4570SOL     OW25342   2.205   3.833   4.833  0.0481  0.1165  0.0528
 4570SOL    HW125343   2.202   3.829   4.929  1.0747  1.0475  0.1170
 4570SOL    HW225344   2.118   3.804   4.805 -0.0496  0.2997  0.1666
 4571SOL     OW25345   0.327   3.195   2.396  0.2629 -0.1183  0.4634
 4571SOL    HW125346   0.362   3.235   2.475 -3.1835  3.2486  0.2949
 4571SOL    HW225347   0.233   3.208   2.406  0.2896 -0.4216  1.0988
 4572SOL     OW25348   1.895   3.710   9.260 -0.1841  0.4336  0.4165
 4572SOL    HW125349   1.864   3.622   9.237  1.1215  0.1253 -0.1678
 4572SOL    HW225350   1.812   3.755   9.244  1.4328  3.5470  0.8421
 4573SOL     OW25351   0.973   1.070  15.080  0.6906 -0.0940 -0.2813
 4573SOL    HW125352   0.885   1.073  15.043  1.1768  1.5367 -1.3354
 4573SOL    HW225353   0.955   1.091  15.172  0.4024  1.3410 -0.6643
 4574SOL     OW25354   1.332   0.423   6.266  0.7794  0.5453  0.4669
 4574SOL    HW125355   1.377   0.506   6.251 -1.5677  1.5891 -0.7691
 4574SOL    HW225356   1.385   0.375   6.202 -0.2191 -1.4509  1.1116
 4575SOL     OW25357   3.361   1.070   6.987  0.2405  0.0473  0.4505
 4575SOL    HW125358   3.320   1.062   7.073 -0.3802 -0.4876  0.1109
 4575SOL    HW225359   3.377   1.164   6.983  2.9396 -0.4272 -0.0369
 4576SOL     OW25360   1.500   0.951   7.570  0.3167  0.1412  0.3254
 4576SOL    HW125361   1.581   0.910   7.541 -0.2195 -0.8080  0.1423
 4576SOL    HW225362   1.433   0.888   7.541  0.9980 -0.5332  0.2293
 4577SOL     OW25363   0.180   1.965  16.306  0.6907 -0.1921 -0.3771
 4577SOL    HW125364   0.202   1.907  16.233 -0.0571  0.1724 -0.8964
 4577SOL    HW225365   0.199   2.050  16.267 -3.2845  1.3681  1.0499
 4578SOL     OW25366   0.179   3.671   6.695 -0.4186 -0.7133 -0.7341
 4578SOL    HW125367   0.165   3.619   6.616  0.1565 -2.6386  0.4250
 4578SOL    HW225368   0.098   3.708   6.732 -0.6499 -0.3431 -1.6021
 4579SOL     OW25369   3.234   1.061  13.641 -0.3749  0.2049  0.6459
 4579SOL    HW125370   3.327   1.042  13.640 -0.2228  0.9759  0.4159
 4579SOL    HW225371   3.190   0.990  13.689 -3.2894  1.5834  0.0609
 4580SOL     OW25372   2.983   2.769   6.950  0.0434 -0.1991 -0.6419
 4580SOL    HW125373   2.888   2.774   6.958  0.3749  2.1312  1.8266
 4580SOL    HW225374   3.013   2.723   7.028 -1.0015 -0.4451 -0.3955
 4581SOL     OW25375   1.826   2.322  17.049 -0.4341 -0.6067  0.4374
 4581SOL    HW125376   1.883   2.378  16.996 -0.3964 -2.1340 -1.1475
 4581SOL    HW225377   1.774   2.284  16.978  0.6578 -0.8553 -0.2317
 4582SOL     OW25378   4.669   2.226  17.737 -0.4212  0.1361  0.4128
 4582SOL    HW125379   4.676   2.156  17.672  0.3505  3.0876 -2.6918
 4582SOL    HW225380   4.636   2.299  17.685  1.9550 -0.0853 -1.3828
 4583SOL     OW25381   1.564   1.142  16.469  0.2959  0.7464  0.7603
 4583SOL    HW125382   1.633   1.078  16.451 -1.7849 -1.1695 -0.3647
 4583SOL    HW225383   1.582   1.150  16.562  0.9116 -1.3516  0.8141
 4584SOL     OW25384   2.961   0.703   8.215 -0.3578  0.0318 -0.3485
 4584SOL    HW125385   3.025   0.708   8.144 -1.3056 -3.1990 -1.4268
 4584SOL    HW225386   2.896   0.766   8.186 -1.9766 -1.5513 -0.1520
 4585SOL     OW25387   1.628   1.580   6.414  0.6052 -0.3887  0.2495
 4585SOL    HW125388   1.600   1.529   6.337 -3.9550  2.5209 -0.0177
 4585SOL    HW225389   1.676   1.655   6.379 -1.2616  0.9668  0.5686
 4586SOL     OW25390   1.270   2.465   6.533 -0.3672 -0.0773 -0.5926
 4586SOL    HW125391   1.346   2.441   6.586 -2.1085 -0.0886  1.9002
 4586SOL    HW225392   1.202   2.410   6.572  1.0048 -0.5300  1.1272
 4587SOL     OW25393   3.668   1.953   6.954  0.2309  0.2696  0.5293
 4587SOL    HW125394   3.719   1.942   7.034  0.3983 -1.6091  0.1674
 4587SOL    HW225395   3.737   1.976   6.891  0.1931 -0.2075  0.3114
 4588SOL     OW25396   2.044   3.344   5.950  0.5056 -0.7375 -0.2383
 4588SOL    HW125397   2.056   3.421   5.894  3.5034 -0.8535  0.2341
 4588SOL    HW225398   1.979   3.291   5.902  1.7880 -2.5501  0.0252
 4589SOL     OW25399   3.443   0.789   5.907  0.2155  0.5039  0.0796
 4589SOL    HW125400   3.491   0.837   5.840 -0.0398  1.6514  0.7279
 4589SOL    HW225401   3.351   0.817   5.909 -0.2604 -1.2419  2.7785
 4590SOL     OW25402   3.524   0.680   1.552 -0.0034 -0.1247 -0.0306
 4590SOL    HW125403   3.588   0.750   1.540  0.0181 -0.8277 -3.8861
 4590SOL    HW225404   3.452   0.726   1.593 -1.2153 -1.7185 -0.3697
 4591SOL     OW25405   2.753   0.649   7.475  0.2717  0.7633  0.5315
 4591SOL    HW125406   2.685   0.703   7.434  0.3575  0.8888  0.5551
 4591SOL    HW225407   2.800   0.708   7.533 -1.8970  1.1066  1.9627
 4592SOL     OW25408   2.427   0.490   8.338 -0.0761  0.5230  0.4919
 4592SOL    HW125409   2.428   0.573   8.384  0.5405  0.0149  1.3955
 4592SOL    HW225410   2.371   0.444   8.402  0.4627 -1.7882 -0.6882
 4593SOL     OW25411   3.883   0.716   2.177 -0.1239  0.0094  0.7927
 4593SOL    HW125412   3.957   0.753   2.128 -0.6679  2.1228  1.5424
 4593SOL    HW225413   3.866   0.628   2.145  1.7768 -0.3581  0.7827
 4594SOL     OW25414   1.064   0.646   9.552  0.4043  0.8507  0.1528
 4594SOL    HW125415   0.982   0.638   9.600  1.1626  1.0385  1.4781
 4594SOL    HW225416   1.036   0.683   9.469 -1.4673 -1.4203 -0.2189
 4595SOL     OW25417   2.536   0.510  11.431 -0.1085 -0.0144 -0.2589
 4595SOL    HW125418   2.536   0.557  11.348 -2.9532  2.7811  1.3376
 4595SOL    HW225419   2.590   0.432  11.415 -1.5008 -1.1384  0.5672
 4596SOL     OW25420   3.739   4.445   2.348  0.5480 -0.0067  0.0596
 4596SOL    HW125421   3.710   4.380   2.412  1.2743 -0.3889 -0.0059
 4596SOL    HW225422   3.767   4.506   2.416 -1.6202  0.6423  0.3841
 4597SOL     OW25423   2.988   2.673   9.599 -0.2899  0.0111 -0.0044
 4597SOL    HW125424   3.045   2.718   9.661 -0.2455 -1.0281  0.6978
 4597SOL    HW225425   3.057   2.629   9.549 -0.0092 -0.7577  1.0656
 4598SOL     OW25426   0.034   2.232   1.318 -0.0344 -0.3412  0.2333
 4598SOL    HW125427   0.032   2.202   1.227 -0.2593  0.7443 -0.1237
 4598SOL    HW225428   0.124   2.260   1.333  0.7968 -2.5944 -0.5356
 4599SOL     OW25429   3.474   4.061  13.056 -0.4816 -0.4049  0.0310
 4599SOL    HW125430   3.463   4.121  12.982  0.9894 -0.2285 -0.0400
 4599SOL    HW225431   3.480   3.975  13.014 -0.7751 -0.5134  0.2106
 4600SOL     OW25432   2.220   1.579   4.802  0.1022 -0.0029 -0.2226
 4600SOL    HW125433   2.213   1.639   4.876 -1.5318  0.4546 -0.7507
 4600SOL    HW225434   2.316   1.578   4.801  0.0797 -0.5880 -2.2830
 4601SOL     OW25435   2.624   3.860  10.208 -0.4754  0.0060 -0.6892
 4601SOL    HW125436   2.697   3.899  10.257 -1.3424 -0.3996  0.9307
 4601SOL    HW225437   2.609   3.769  10.234  0.1749  0.3467  0.8949
 4602SOL     OW25438   3.449   1.723   9.601 -0.3678 -0.0694  0.3977
 4602SOL    HW125439   3.403   1.703   9.683 -1.1660  2.0127  0.4663
 4602SOL    HW225440   3.372   1.746   9.549  1.2096  0.9452 -1.4797
 4603SOL     OW25441   4.352   0.349  10.439 -0.4040 -0.3477  0.2528
 4603SOL    HW125442   4.379   0.439  10.454 -0.1770 -0.0578 -2.0137
 4603SOL    HW225443   4.424   0.293  10.469 -0.1775  0.6149  1.5008
 4604SOL     OW25444   2.693   2.129   3.406 -0.2042  0.3918 -0.2302
 4604SOL    HW125445   2.732   2.113   3.493 -0.4333 -2.7081 -0.6744
 4604SOL    HW225446   2.668   2.220   3.422  2.4619  1.2481 -0.8044
 4605SOL     OW25447   1.386   2.727   8.186  0.0427  0.3176 -0.0700
 4605SOL    HW125448   1.469   2.679   8.184  0.7524  1.5046  0.6046
 4605SOL    HW225449   1.361   2.712   8.095 -1.6011  2.1722  0.0719
 4606SOL     OW25450   0.268   4.490   9.766  0.1616 -0.1021  0.2487
 4606SOL    HW125451   0.228   4.484   9.853 -0.1456  1.1556  0.1947
 4606SOL    HW225452   0.330   4.561   9.779 -0.1068  0.7483 -3.1223
 4607SOL     OW25453   2.035   1.609   3.744 -0.4801  0.0739 -0.0382
 4607SOL    HW125454   2.078   1.584   3.662 -0.5211 -0.9542  0.2553
 4607SOL    HW225455   2.112   1.591   3.797 -0.9159 -1.8722 -0.0596
 4608SOL     OW25456   1.051   0.669  17.100 -0.6643 -0.3811  0.2955
 4608SOL    HW125457   1.041   0.738  17.035  1.0742  1.1314  1.6263
 4608SOL    HW225458   0.978   0.612  17.078  0.9580 -1.9072 -1.1236
 4609SOL     OW25459   3.680   0.534  11.359  0.1155  0.6381 -0.1974
 4609SOL    HW125460   3.743   0.465  11.338  0.9484  1.2658  0.2232
 4609SOL    HW225461   3.740   0.598  11.399  3.6155 -2.5667 -0.3608
 4610SOL     OW25462   2.939   0.787  12.484  0.2739 -0.0330  0.5705
 4610SOL    HW125463   3.032   0.781  12.507  0.3383  1.0439  0.5818
 4610SOL    HW225464   2.944   0.748  12.397 -1.3509 -2.0398  1.3857
 4611SOL     OW25465   1.213   2.486   5.272  0.0840 -0.0721 -0.1725
 4611SOL    HW125466   1.163   2.435   5.207 -0.3842 -0.0320  0.1576
 4611SOL    HW225467   1.263   2.414   5.311  2.8343  1.4170 -0.9771
 4612SOL     OW25468   1.984   1.505   4.141 -0.1352  0.1606 -0.4552
 4612SOL    HW125469   1.902   1.513   4.092  0.8118  0.3830 -1.9932
 4612SOL    HW225470   2.021   1.427   4.099  1.5642  1.1098 -0.7264
 4613SOL     OW25471   4.051   3.644   4.715  0.0065  0.2318  0.7561
 4613SOL    HW125472   4.139   3.605   4.719  0.3205  0.8875  0.1821
 4613SOL    HW225473   4.017   3.606   4.796 -0.0086 -0.7714  0.2807
 4614SOL     OW25474   0.191   3.095  13.305  0.4143 -0.3771 -0.3217
 4614SOL    HW125475   0.128   3.141  13.250  1.4266 -0.4419 -1.5572
 4614SOL    HW225476   0.277   3.131  13.281 -0.1469  0.4049 -1.1500
 4615SOL     OW25477   4.211   3.819   5.928  0.1496  0.2028 -0.1395
 4615SOL    HW125478   4.252   3.800   6.013 -1.5348  0.3962  0.7261
 4615SOL    HW225479   4.176   3.904   5.955  0.7284  0.6656 -0.8429
 4616SOL     OW25480   0.240   0.782  12.193  0.7361 -0.3762 -0.0403
 4616SOL    HW125481   0.271   0.873  12.186 -1.8851  0.4019 -1.7738
 4616SOL    HW225482   0.198   0.756  12.112 -0.6720  2.3049 -0.1771
 4617SOL     OW25483   0.770   2.250   7.231 -0.1675  0.1948 -0.2798
 4617SOL    HW125484   0.815   2.182   7.181  1.4406  0.0425  1.4028
 4617SOL    HW225485   0.775   2.222   7.322  2.0411 -0.3544 -0.5765
 4618SOL     OW25486   4.666   4.013   0.512 -0.1420 -0.3906 -0.0328
 4618SOL    HW125487   0.010   3.981   0.555 -2.0903 -2.2335  2.2265
 4618SOL    HW225488   4.695   4.010   0.421 -0.1046 -3.9253  0.0620
 4619SOL     OW25489   1.150   2.293   3.274  0.0879  0.1754 -0.0586
 4619SOL    HW125490   1.060   2.270   3.295  0.1242  0.2583  0.1901
 4619SOL    HW225491   1.153   2.387   3.293 -0.2995  0.7006 -2.6081
 4620SOL     OW25492   0.828   2.383   9.530 -0.8772  0.0281 -0.1736
 4620SOL    HW125493   0.863   2.375   9.619  1.0747 -0.8919 -1.0351
 4620SOL    HW225494   0.841   2.300   9.484 -1.9649 -0.5650  0.6089
 4621SOL     OW25495   1.856   0.247  11.496  0.3112 -0.3089 -0.0600
 4621SOL    HW125496   1.870   0.264  11.589  3.3401  0.4698 -0.6617
 4621SOL    HW225497   1.868   0.152  11.500 -2.4120 -0.7183 -1.4261
 4622SOL     OW25498   0.187   2.570  11.112  0.2266  0.0507  0.4144
 4622SOL    HW125499   0.227   2.494  11.070 -1.2845 -1.0889  1.0330
 4622SOL    HW225500   0.241   2.645  11.086 -1.1721  0.8513 -0.1741
 4623SOL     OW25501   4.119   1.181   7.835  0.2349 -0.0813 -0.2825
 4623SOL    HW125502   4.042   1.127   7.853  0.9143 -0.2237  2.2337
 4623SOL    HW225503   4.185   1.113   7.839  0.6449  0.2115 -2.2451
 4624SOL     OW25504   2.932   2.718  13.973  0.4618  0.0357 -0.0730
 4624SOL    HW125505   3.001   2.784  13.979 -0.6648  1.1682  0.3026
 4624SOL    HW225506   2.981   2.657  13.917  0.8601 -0.1066  0.4288
 4625SOL     OW25507   1.573   3.544   3.931 -0.4149  0.3446  0.0732
 4625SOL    HW125508   1.557   3.489   4.007  0.7798  0.5321  0.4571
 4625SOL    HW225509   1.519   3.494   3.870 -0.1556  0.8990 -0.6111
 4626SOL     OW25510   3.901   1.292   4.832 -0.1833 -0.1887 -0.1506
 4626SOL    HW125511   3.909   1.211   4.782 -1.9362 -0.5431  0.1479
 4626SOL    HW225512   3.926   1.271   4.922  1.6213 -0.9736 -0.8423
 4627SOL     OW25513   2.225   4.541   4.652 -0.1644  0.0264 -0.2248
 4627SOL    HW125514   2.303   4.530   4.707 -0.5625 -3.3393 -0.3257
 4627SOL    HW225515   2.158   4.523   4.717 -0.0259  1.7496  0.3881
 4628SOL     OW25516   2.105   3.830   5.541 -0.6821  0.6253 -0.3850
 4628SOL    HW125517   2.198   3.836   5.566 -0.2878 -1.3232 -1.3960
 4628SOL    HW225518   2.092   3.736   5.541 -1.7816  0.7911  1.3858
 4629SOL     OW25519   4.169   4.676   3.948  0.3150 -0.5404 -0.3944
 4629SOL    HW125520   4.181   4.586   3.980 -0.5111  0.4121  2.5840
 4629SOL    HW225521   4.179   4.662   3.854 -1.9911 -0.8582 -0.6124
 4630SOL     OW25522   2.700   0.060  11.775 -0.0189  0.1564 -0.0831
 4630SOL    HW125523   2.679   0.088  11.864  0.6808  2.7344 -0.7376
 4630SOL    HW225524   2.627   0.085  11.718 -1.2797  1.0254  1.9133
 4631SOL     OW25525   3.777   4.389   7.248 -0.1063  0.0231  0.3004
 4631SOL    HW125526   3.776   4.326   7.176 -0.3790 -0.3019  0.5927
 4631SOL    HW225527   3.688   4.378   7.281 -1.0281  0.0382 -2.1736
 4632SOL     OW25528   4.613   1.117   4.433 -0.2000 -0.5397  0.1407
 4632SOL    HW125529   4.628   1.107   4.339  3.7334 -1.6426  0.8593
 4632SOL    HW225530   4.545   1.184   4.433 -1.3841 -1.7699 -2.4184
 4633SOL     OW25531   2.934   2.950   9.879  0.5547 -0.3425  0.2757
 4633SOL    HW125532   2.919   2.925   9.970 -1.3885  0.2819  0.1345
 4633SOL    HW225533   3.005   2.890   9.855  0.9346  0.3418 -0.3238
 4634SOL     OW25534   0.998   2.448  14.132 -0.1321  0.0834  0.7073
 4634SOL    HW125535   1.037   2.369  14.171 -1.7472 -1.2560 -0.3930
 4634SOL    HW225536   0.913   2.443  14.176 -1.1693  1.5228 -1.1515
 4635SOL     OW25537   3.140   4.124   5.595 -0.2735 -0.0383 -0.2198
 4635SOL    HW125538   3.116   4.032   5.582  0.6614 -0.5134  1.3705
 4635SOL    HW225539   3.113   4.161   5.511  1.2444  2.3216  0.3345
 4636SOL     OW25540   1.502   3.933  10.106 -0.1466  0.2319 -0.5770
 4636SOL    HW125541   1.534   3.852  10.145  0.5860  0.6314 -0.3431
 4636SOL    HW225542   1.459   3.895  10.030 -0.2927  2.4002 -1.5938
 4637SOL     OW25543   1.819   3.049  10.119 -0.1281 -0.0671  0.6498
 4637SOL    HW125544   1.834   3.131  10.072 -0.4314 -0.3869 -0.0048
 4637SOL    HW225545   1.817   3.074  10.211  1.0867 -1.6207  1.1102
 4638SOL     OW25546   2.791   1.523  12.937 -0.1351 -0.1127  0.4737
 4638SOL    HW125547   2.836   1.444  12.967  0.2098  0.2200  0.8195
 4638SOL    HW225548   2.750   1.547  13.020 -3.1108  2.3585 -1.7326
 4639SOL     OW25549   3.300   2.252  14.189 -0.0827  0.7034  0.3963
 4639SOL    HW125550   3.234   2.210  14.134  1.3781  0.4601 -1.1882
 4639SOL    HW225551   3.356   2.301  14.129  0.2941  2.2075  1.9830
 4640SOL     OW25552   1.599   2.221   3.871  0.0205  0.6763  0.3188
 4640SOL    HW125553   1.507   2.243   3.864 -0.1153 -0.1967 -0.6434
 4640SOL    HW225554   1.620   2.196   3.781  0.8030  2.1611  0.0884
 4641SOL     OW25555   2.520   1.464   8.199 -0.6688 -0.0116  0.3745
 4641SOL    HW125556   2.554   1.476   8.288  0.3409 -1.5337  0.1950
 4641SOL    HW225557   2.493   1.373   8.209 -1.1493  0.3028  1.9302
 4642SOL     OW25558   3.014   0.510   1.628  0.3133  0.7219 -0.6309
 4642SOL    HW125559   3.075   0.569   1.672  0.3096  0.3426 -0.1257
 4642SOL    HW225560   3.074   0.441   1.602 -0.0660  1.1364 -2.6017
 4643SOL     OW25561   1.146   1.531  10.256  0.5459  0.1732 -0.1618
 4643SOL    HW125562   1.084   1.577  10.311  2.0572  0.7136  1.0958
 4643SOL    HW225563   1.114   1.443  10.278 -0.9963  1.6806  3.6353
 4644SOL     OW25564   1.689   4.638   5.736  0.0735 -0.2265  0.6071
 4644SOL    HW125565   1.766   4.585   5.756  0.4211 -0.6439 -1.8119
 4644SOL    HW225566   1.732   4.699   5.675 -0.1422 -2.2287 -1.5593
 4645SOL     OW25567   1.750   2.963  12.339  0.2855 -0.0383 -0.2187
 4645SOL    HW125568   1.688   2.895  12.312 -0.6148  1.2840 -1.4928
 4645SOL    HW225569   1.698   2.988  12.416  2.0975  0.1400  0.9319
 4646SOL     OW25570   3.016   2.998   7.587  0.3161 -0.2250  0.3064
 4646SOL    HW125571   3.050   2.991   7.676 -0.9286 -1.9897  0.6384
 4646SOL    HW225572   2.923   3.015   7.600  0.2277 -0.3114 -0.1931
 4647SOL     OW25573   3.413   4.372   4.979 -0.0413  0.0463  0.1439
 4647SOL    HW125574   3.434   4.392   5.071  1.8813 -0.3273 -0.2129
 4647SOL    HW225575   3.355   4.446   4.963  0.1298 -0.2046 -1.5706
 4648SOL     OW25576   1.160   4.543   8.344 -0.2826 -0.5855  0.2669
 4648SOL    HW125577   1.075   4.529   8.385  0.5703  1.1253  2.6818
 4648SOL    HW225578   1.209   4.537   8.426 -0.5616  1.0766  0.5674
 4649SOL     OW25579   2.044   3.204  12.955  0.1990 -0.3343 -0.4707
 4649SOL    HW125580   1.982   3.136  12.980 -0.4639 -0.3907 -2.2451
 4649SOL    HW225581   2.105   3.179  13.023 -0.8162 -1.3854  0.0587
 4650SOL     OW25582   1.212   1.704  16.977 -0.2081 -0.6510 -0.7332
 4650SOL    HW125583   1.177   1.636  16.920 -1.1844 -0.9553  0.2387
 4650SOL    HW225584   1.133   1.731  17.024  0.1476  0.8069 -0.9856
 4651SOL     OW25585   4.393   3.770  10.978 -0.5719 -0.4785  0.1997
 4651SOL    HW125586   4.323   3.710  10.953 -1.2888 -0.2012  1.5270
 4651SOL    HW225587   4.455   3.752  10.907 -1.6554  0.1194 -0.9201
 4652SOL     OW25588   3.927   2.786   4.379 -0.5239  0.3689 -0.1194
 4652SOL    HW125589   3.910   2.816   4.290 -0.2801 -0.4200 -0.4324
 4652SOL    HW225590   4.018   2.758   4.370 -0.8068 -0.7205  0.3716
 4653SOL     OW25591   0.981   1.179   0.428 -0.2832 -0.2669  0.0533
 4653SOL    HW125592   0.963   1.216   0.342  0.3019  0.8239  0.3976
 4653SOL    HW225593   1.031   1.099   0.413  0.1540  0.1913 -0.8946
 4654SOL     OW25594   3.615   1.353  17.505  0.9211 -0.1452 -0.3836
 4654SOL    HW125595   3.568   1.371  17.586  0.9373  0.6617 -0.5580
 4654SOL    HW225596   3.574   1.271  17.477  1.0129 -0.4438  0.3518
 4655SOL     OW25597   1.990   2.187   5.396 -0.0455 -0.4294  0.2358
 4655SOL    HW125598   2.024   2.194   5.306  1.3765  0.8954  0.8723
 4655SOL    HW225599   2.054   2.133   5.442 -1.2354 -2.3311 -0.3840
 4656SOL     OW25600   4.437   2.126   4.602 -0.3659  0.3420  0.2977
 4656SOL    HW125601   4.464   2.171   4.682 -0.8767  0.7369  0.2509
 4656SOL    HW225602   4.374   2.064   4.637  0.1495  0.2323  1.0231
 4657SOL     OW25603   4.627   3.201  10.325 -0.0871  0.1072  0.6152
 4657SOL    HW125604   4.614   3.211  10.230 -0.1313 -1.3749  0.4728
 4657SOL    HW225605   4.542   3.176  10.360 -0.2961  0.3136  0.2633
 4658SOL     OW25606   3.705   0.884   7.711 -0.3303  0.4153  0.0649
 4658SOL    HW125607   3.690   0.799   7.751 -0.6012  1.2745  1.7995
 4658SOL    HW225608   3.647   0.893   7.635 -0.2642  0.6132  0.0384
 4659SOL     OW25609   4.093   0.389  12.418 -0.2757  0.0799  0.0297
 4659SOL    HW125610   4.164   0.400  12.356 -0.0284  0.7825  0.4363
 4659SOL    HW225611   4.136   0.349  12.494 -0.3153  0.0122  0.0166
 4660SOL     OW25612   1.518   2.198   4.361  0.4776  0.0517  0.3788
 4660SOL    HW125613   1.480   2.282   4.387  0.1719  0.3002 -0.8789
 4660SOL    HW225614   1.460   2.139   4.410 -0.1801  1.2013  0.9680
 4661SOL     OW25615   2.221   2.696   9.677  0.1112  0.3465  0.0763
 4661SOL    HW125616   2.304   2.705   9.629 -0.1281  0.8036 -0.2486
 4661SOL    HW225617   2.156   2.673   9.611  0.4366  0.3400 -0.2436
 4662SOL     OW25618   0.750   2.257  17.324  0.1842 -0.1488  0.2592
 4662SOL    HW125619   0.784   2.270  17.412 -1.6953 -0.5426  1.0377
 4662SOL    HW225620   0.822   2.203  17.291 -1.3087 -0.4315 -2.5819
 4663SOL     OW25621   3.309   0.762  10.121  0.8361  0.0348 -0.5880
 4663SOL    HW125622   3.258   0.700  10.069  0.4484 -1.0568  1.1118
 4663SOL    HW225623   3.254   0.784  10.196 -0.0139  1.0756 -1.5190
 4664SOL     OW25624   1.290   0.495  14.836  0.2236 -0.9188  0.5787
 4664SOL    HW125625   1.296   0.466  14.745  1.0380  0.5577  0.1567
 4664SOL    HW225626   1.237   0.575  14.837  1.3571 -0.1756  1.1815
 4665SOL     OW25627   3.504   2.278   0.391 -0.1442 -0.4198 -0.4053
 4665SOL    HW125628   3.595   2.248   0.393  0.0736  0.1780 -1.3711
 4665SOL    HW225629   3.492   2.298   0.298 -2.1522  1.2462  0.2181
 4666SOL     OW25630   2.613   1.292   6.956 -0.2374 -0.0712  0.0345
 4666SOL    HW125631   2.626   1.385   6.974  2.8982 -0.4704 -0.2736
 4666SOL    HW225632   2.608   1.257   7.045 -1.0255  1.3518  0.5588
 4667SOL     OW25633   1.363   1.235   8.669 -0.3136  0.0569  0.2132
 4667SOL    HW125634   1.326   1.291   8.737  0.0091 -1.8665  1.9978
 4667SOL    HW225635   1.436   1.201   8.721  0.7158  2.6074  0.3906
 4668SOL     OW25636   3.801   3.050   7.054  0.2836 -0.4386 -0.6642
 4668SOL    HW125637   3.842   3.130   7.020  0.9179 -0.7809 -0.6978
 4668SOL    HW225638   3.745   3.032   6.978  0.1573 -1.0203 -0.4327
 4669SOL     OW25639   2.541   3.964   5.798 -0.3970  0.1791 -0.5864
 4669SOL    HW125640   2.571   3.914   5.874  1.0102  0.6912 -0.7978
 4669SOL    HW225641   2.503   4.039   5.844 -1.9322  0.6250 -2.5668
 4670SOL     OW25642   3.615   2.481  13.723  1.0342 -0.3325 -0.2796
 4670SOL    HW125643   3.700   2.437  13.714  0.9228 -0.0850 -2.6371
 4670SOL    HW225644   3.603   2.466  13.817  2.0296  1.5701  0.1471
 4671SOL     OW25645   3.158   2.100   8.314  0.1626  0.0502 -0.3675
 4671SOL    HW125646   3.125   2.183   8.278  0.0063  0.2077  0.1295
 4671SOL    HW225647   3.219   2.074   8.245  0.1550  1.4273 -0.8999
 4672SOL     OW25648   4.645   1.162   5.144  0.3155 -0.4106 -0.3597
 4672SOL    HW125649   4.591   1.097   5.099  0.2673 -0.3723 -0.3572
 4672SOL    HW225650   4.729   1.151   5.098  0.4436  0.9517 -0.4318
 4673SOL     OW25651   0.286   2.490   4.158 -0.1114  0.7010  0.1186
 4673SOL    HW125652   0.219   2.468   4.094 -1.0814  3.4698  0.1444
 4673SOL    HW225653   0.313   2.578   4.132  0.0834  1.0257  1.4006
 4674SOL     OW25654   4.054   4.668   7.227  0.6376  0.2724 -0.4407
 4674SOL    HW125655   3.998   0.003   7.195  1.1285  2.0648  2.7599
 4674SOL    HW225656   4.014   4.650   7.312 -0.9457  0.0486 -1.2319
 4675SOL     OW25657   4.477   3.007   8.421  0.6079  0.1870  0.0192
 4675SOL    HW125658   4.496   3.100   8.434  2.4155  0.1564 -2.4909
 4675SOL    HW225659   4.539   2.963   8.480  0.9643 -0.4761 -0.8660
 4676SOL     OW25660   0.009   0.928   3.694  0.1042 -0.1563  0.3009
 4676SOL    HW125661   4.726   0.859   3.758  0.2618 -1.2907 -0.8572
 4676SOL    HW225662   0.102   0.912   3.675  0.7263  2.7431  0.9417
 4677SOL     OW25663   1.046   0.199  10.711 -0.1658  0.2003 -0.8627
 4677SOL    HW125664   1.000   0.174  10.790  1.0107  1.2109  0.1534
 4677SOL    HW225665   1.074   0.113  10.681 -0.4432  0.2352 -1.2165
 4678SOL     OW25666   1.316   2.451   3.062  0.0040  0.0635 -0.1994
 4678SOL    HW125667   1.222   2.466   3.072  0.1416  0.8453 -0.0326
 4678SOL    HW225668   1.311   2.435   2.968 -0.7751 -0.0460 -0.1329
 4679SOL     OW25669   1.448   4.499  14.621 -0.5271  0.0220  0.5510
 4679SOL    HW125670   1.540   4.487  14.644 -0.6468 -1.6323  0.1271
 4679SOL    HW225671   1.401   4.439  14.680  0.1579  0.3167  1.4075
 4680SOL     OW25672   1.045   0.718   4.534  0.0604 -0.0655 -0.2944
 4680SOL    HW125673   0.996   0.639   4.559  0.3081 -0.5800 -1.4441
 4680SOL    HW225674   1.011   0.720   4.444 -0.4979 -1.0613 -0.1184
 4681SOL     OW25675   3.589   3.854  11.805  0.1295  0.3312  0.9943
 4681SOL    HW125676   3.576   3.917  11.734  0.4136 -0.5474  0.1438
 4681SOL    HW225677   3.649   3.902  11.862  0.2196 -0.6121  1.6871
 4682SOL     OW25678   2.514   0.705   3.772 -0.1626 -0.1593  0.0358
 4682SOL    HW125679   2.561   0.626   3.748  0.1947  0.6621 -1.9397
 4682SOL    HW225680   2.586   0.748   3.818 -0.9570  0.5129  0.6736
 4683SOL     OW25681   2.715   0.438  12.701  0.2123  0.0520  0.1961
 4683SOL    HW125682   2.692   0.531  12.700  0.4997  0.1296  0.6709
 4683SOL    HW225683   2.808   0.455  12.714  0.0757  1.4849 -0.7055
 4684SOL     OW25684   2.152   1.152   4.073  0.0838  0.0140  0.5848
 4684SOL    HW125685   2.219   1.210   4.109  0.7651 -0.0993 -0.5237
 4684SOL    HW225686   2.106   1.202   4.006 -0.2856 -0.4201  0.5144
 4685SOL     OW25687   2.651   2.095   7.678  0.3071 -0.0392  0.1271
 4685SOL    HW125688   2.558   2.074   7.678  0.7752 -2.1225 -1.1935
 4685SOL    HW225689   2.655   2.185   7.710 -0.1007  0.0937 -0.2146
 4686SOL     OW25690   4.730   3.372   8.698 -0.2802 -0.3132  0.2570
 4686SOL    HW125691   4.649   3.405   8.660  0.4333  1.2839  0.1375
 4686SOL    HW225692   4.700   3.335   8.781  0.4830  0.1519  0.7433
 4687SOL     OW25693   4.647   4.081   2.295 -0.0673  0.7680 -0.8587
 4687SOL    HW125694   4.704   4.158   2.302  1.5074 -0.2575 -2.3553
 4687SOL    HW225695   4.561   4.116   2.273  0.0441  0.0817 -2.4042
 4688SOL     OW25696   0.942   1.033   1.394 -0.0516  0.9398  0.4869
 4688SOL    HW125697   0.921   1.044   1.301  2.1763  0.3212 -0.0832
 4688SOL    HW225698   0.944   1.125   1.419 -1.3032  1.4501 -1.2905
 4689SOL     OW25699   2.757   3.243   4.455 -0.0038  0.3105 -0.1242
 4689SOL    HW125700   2.802   3.323   4.481  2.1551 -1.2920  1.0847
 4689SOL    HW225701   2.805   3.176   4.504 -1.3920  0.4834  1.4807
 4690SOL     OW25702   0.640   3.535   7.259  0.1228  0.1638 -0.3905
 4690SOL    HW125703   0.700   3.587   7.313 -1.0081 -0.1068  1.1384
 4690SOL    HW225704   0.580   3.500   7.326  1.0607 -2.3288 -0.8502
 4691SOL     OW25705   3.325   0.132   6.137 -0.1929 -0.1668  0.4377
 4691SOL    HW125706   3.340   0.169   6.224 -1.2189  0.3747  0.3855
 4691SOL    HW225707   3.230   0.136   6.127 -0.0524 -0.3840 -0.8814
 4692SOL     OW25708   1.901   3.907   0.372 -0.3122  0.3302  0.3660
 4692SOL    HW125709   1.910   3.979   0.434 -0.0577  1.2846 -0.7870
 4692SOL    HW225710   1.983   3.860   0.386  0.5497  1.7774  0.1704
 4693SOL     OW25711   2.683   3.728  16.405 -0.3078 -0.1745  0.6851
 4693SOL    HW125712   2.703   3.638  16.383  0.8955 -0.0991  1.4893
 4693SOL    HW225713   2.598   3.733  16.361  0.8309  0.0192 -1.4474
 4694SOL     OW25714   2.220   4.235  10.234 -0.5594  0.2226  0.2911
 4694SOL    HW125715   2.175   4.293  10.173  0.1302  1.2518  0.7707
 4694SOL    HW225716   2.173   4.153  10.216  1.0401 -0.4757 -0.7113
 4695SOL     OW25717   1.633   1.387   5.172  0.5066 -0.7943 -0.0939
 4695SOL    HW125718   1.726   1.368   5.157  1.3645  2.8642  0.5426
 4695SOL    HW225719   1.636   1.482   5.173  0.6961 -0.7996 -0.0775
 4696SOL     OW25720   0.172   3.761   8.467  0.4348  0.4225 -0.1104
 4696SOL    HW125721   0.228   3.692   8.432 -0.5768 -0.3546 -0.1810
 4696SOL    HW225722   0.131   3.779   8.382 -1.3127 -2.2244  0.1905
 4697SOL     OW25723   2.647   3.952   6.881  0.0352 -0.2661  1.0347
 4697SOL    HW125724   2.613   4.016   6.818  0.6249 -2.1860 -1.2408
 4697SOL    HW225725   2.689   3.887   6.825 -0.0695  0.0626  0.5748
 4698SOL     OW25726   3.656   0.197   5.568  0.5176  0.2605  0.2471
 4698SOL    HW125727   3.574   0.246   5.555 -1.3401 -3.2153 -1.0967
 4698SOL    HW225728   3.627   0.122   5.621  0.9522 -0.3525 -0.3994
 4699SOL     OW25729   4.045   4.145   5.363  0.1728  0.1493 -0.1558
 4699SOL    HW125730   4.127   4.194   5.362  0.0044  0.4291 -0.3406
 4699SOL    HW225731   3.989   4.221   5.346 -0.4545 -0.0146  1.1598
 4700SOL     OW25732   2.376   2.983  17.617  0.0666  0.1839 -0.1272
 4700SOL    HW125733   2.340   2.896  17.636  3.1089 -0.8893  0.7797
 4700SOL    HW225734   2.308   3.029  17.569  0.9078  1.5950  0.0270
 4701SOL     OW25735   1.645   3.999   8.333  0.4590 -0.4327  0.0201
 4701SOL    HW125736   1.577   4.053   8.293  0.8103  0.3695  0.5099
 4701SOL    HW225737   1.679   3.958   8.254  0.0935  1.6133 -1.1799
 4702SOL     OW25738   4.119   0.466   3.323  0.0086  0.6719 -0.3727
 4702SOL    HW125739   4.211   0.482   3.302  0.1190 -0.0401 -0.4405
 4702SOL    HW225740   4.109   0.533   3.390 -1.0230 -1.0783  1.2518
 4703SOL     OW25741   0.574   0.126   7.802 -0.2564 -0.5279  0.7464
 4703SOL    HW125742   0.552   0.215   7.774  1.9803  0.4918  2.1611
 4703SOL    HW225743   0.666   0.121   7.779 -0.0195  0.2934  1.4998
 4704SOL     OW25744   1.194   3.637  13.953  0.0601  0.9397  0.6281
 4704SOL    HW125745   1.217   3.561  14.007  2.4262  3.1687  2.7460
 4704SOL    HW225746   1.135   3.688  14.008 -2.8817 -0.5121 -1.1474
 4705SOL     OW25747   3.438   2.081   5.087  0.4067  0.6310  0.1138
 4705SOL    HW125748   3.508   2.146   5.074  0.2827  0.6559 -0.4662
 4705SOL    HW225749   3.364   2.142   5.080  0.3220  0.5270  0.1054
 4706SOL     OW25750   2.318   0.160   2.798 -0.1737 -0.2640 -0.0620
 4706SOL    HW125751   2.387   0.161   2.732 -0.1369 -0.0552 -0.0205
 4706SOL    HW225752   2.374   0.157   2.876 -1.4958 -1.3088  0.8648
 4707SOL     OW25753   0.327   1.737   2.858 -0.6404  0.3221  0.3033
 4707SOL    HW125754   0.316   1.819   2.810  0.8701  2.5421  3.7403
 4707SOL    HW225755   0.400   1.757   2.918  0.7282 -1.1280 -0.8895
 4708SOL     OW25756   4.234   4.233   2.636  0.1301 -0.3501 -0.1253
 4708SOL    HW125757   4.148   4.224   2.678  1.3148  0.5913  2.5099
 4708SOL    HW225758   4.222   4.244   2.542 -0.4309 -0.9308 -0.1231
 4709SOL     OW25759   2.951   1.420   4.906  0.2070 -0.3167 -0.4926
 4709SOL    HW125760   2.859   1.393   4.907  0.1686 -0.1456  0.9585
 4709SOL    HW225761   3.002   1.339   4.893  1.3178  0.2441  0.4054
 4710SOL     OW25762   3.986   0.475  11.121  0.5407 -0.6052 -0.3155
 4710SOL    HW125763   3.934   0.451  11.197  3.0142  0.1830  1.6272
 4710SOL    HW225764   3.960   0.400  11.068  0.2519 -0.2188 -0.7225
 4711SOL     OW25765   4.494   2.523   6.384 -0.1774  0.0526  0.0033
 4711SOL    HW125766   4.416   2.499   6.434 -0.3954  1.2160  0.2399
 4711SOL    HW225767   4.456   2.603   6.346  2.3783  1.4662  0.3920
 4712SOL     OW25768   0.916   2.377   1.578  0.5823  0.3304  0.3407
 4712SOL    HW125769   0.875   2.407   1.496  0.9572  2.3078  0.8842
 4712SOL    HW225770   0.998   2.422   1.558  1.7412 -1.4700  0.9955
 4713SOL     OW25771   0.053   1.302  14.260 -0.4786 -0.0202 -0.3492
 4713SOL    HW125772   0.133   1.354  14.271  0.8947 -1.9541 -1.1894
 4713SOL    HW225773   0.038   1.284  14.352  0.3401 -0.3556 -0.2789
 4714SOL     OW25774   3.481   0.607   4.091 -0.3728 -0.2157  0.0760
 4714SOL    HW125775   3.462   0.554   4.169 -1.9776 -1.5963 -1.2625
 4714SOL    HW225776   3.556   0.565   4.049  0.2566  1.1682 -0.1705
 4715SOL     OW25777   2.408   1.350   9.283 -0.3858 -0.3296  0.1068
 4715SOL    HW125778   2.443   1.261   9.291  1.0174  0.2305  0.1206
 4715SOL    HW225779   2.403   1.376   9.375  2.5460  1.3048 -0.2052
 4716SOL     OW25780   2.054   3.358   6.569 -0.0779 -0.2295  0.3399
 4716SOL    HW125781   2.095   3.382   6.652  0.8682  0.0900 -0.2075
 4716SOL    HW225782   1.963   3.357   6.597 -0.7257 -0.3928 -1.7635
 4717SOL     OW25783   4.652   1.074   4.851  0.0230 -0.1262 -0.1345
 4717SOL    HW125784   4.671   1.158   4.808  1.1799  0.8014  2.2017
 4717SOL    HW225785   4.682   1.006   4.791  1.3916  1.5528 -1.3813
 4718SOL     OW25786   2.222   1.758   5.853  0.1458  0.3766 -0.2424
 4718SOL    HW125787   2.153   1.822   5.840  0.1935  0.3804 -0.4667
 4718SOL    HW225788   2.178   1.675   5.836 -0.0374  0.3835  0.1938
 4719SOL     OW25789   0.396   2.487   6.105  0.3195 -0.0232  0.0461
 4719SOL    HW125790   0.426   2.403   6.070  0.2315 -0.6269  1.4217
 4719SOL    HW225791   0.384   2.463   6.197  2.2212 -0.6614  0.1504
 4720SOL     OW25792   4.049   3.332   3.643 -0.1587 -0.0827 -0.0387
 4720SOL    HW125793   3.959   3.355   3.663  0.3941 -1.1760  3.6590
 4720SOL    HW225794   4.085   3.419   3.628  0.5734 -0.7203 -1.9799
 4721SOL     OW25795   3.869   3.154   0.952 -0.2772 -0.2775  0.3195
 4721SOL    HW125796   3.778   3.138   0.928 -0.5283  2.7861 -0.7064
 4721SOL    HW225797   3.914   3.071   0.938 -1.3101 -0.6027 -1.0458
 4722SOL     OW25798   4.531   4.261  15.680 -0.0821 -0.2990  0.2272
 4722SOL    HW125799   4.558   4.285  15.769 -1.3861  2.0514  0.0028
 4722SOL    HW225800   4.588   4.323  15.634 -0.0908  0.4050  1.1624
 4723SOL     OW25801   4.705   2.376   3.147  0.2067 -0.1089  0.0515
 4723SOL    HW125802   4.671   2.295   3.108  0.1158 -1.1203  2.2659
 4723SOL    HW225803   4.639   2.393   3.214 -0.9477 -2.1290 -0.5646
 4724SOL     OW25804   0.443   0.678   3.089  0.3490 -0.1139 -0.0369
 4724SOL    HW125805   0.422   0.766   3.056  1.2471  0.5690  1.2243
 4724SOL    HW225806   0.439   0.689   3.184  0.1742  0.5575 -0.1198
 4725SOL     OW25807   4.327   0.522   9.536 -0.1043 -0.4060 -0.6042
 4725SOL    HW125808   4.242   0.518   9.580  1.8338  0.0649  3.2470
 4725SOL    HW225809   4.358   0.433   9.554 -1.1861 -1.1030 -2.1387
 4726SOL     OW25810   3.605   4.213  14.884  0.4865  0.5899 -0.0060
 4726SOL    HW125811   3.586   4.162  14.964 -1.3525 -0.5896 -1.1895
 4726SOL    HW225812   3.656   4.149  14.834 -0.9487  0.6644 -1.5621
 4727SOL     OW25813   0.990   2.681   5.861  0.4615  0.5251  0.3610
 4727SOL    HW125814   1.011   2.712   5.773 -0.5861 -0.3226 -0.1795
 4727SOL    HW225815   0.967   2.760   5.910  0.3267  0.9667 -0.4227
 4728SOL     OW25816   0.615   2.166   6.358  0.0172  0.1737 -0.2268
 4728SOL    HW125817   0.633   2.140   6.448  1.3557  0.9162 -0.2825
 4728SOL    HW225818   0.702   2.186   6.323  1.0402 -1.1468  1.5083
 4729SOL     OW25819   1.735   3.042   7.835  0.3218  0.2433 -0.1136
 4729SOL    HW125820   1.762   3.006   7.919 -0.1407 -2.3452 -1.0841
 4729SOL    HW225821   1.641   3.030   7.827  0.1073  0.5651  2.1320
 4730SOL     OW25822   4.022   0.467  13.127 -0.6270 -0.4160  0.5012
 4730SOL    HW125823   3.980   0.435  13.047  0.5457  0.6182 -0.5180
 4730SOL    HW225824   4.082   0.396  13.146 -0.6955  0.3781  3.6693
 4731SOL     OW25825   4.600   2.020   6.092 -0.3008  0.5802 -0.1728
 4731SOL    HW125826   4.661   1.957   6.131 -0.0246  0.4810 -0.7613
 4731SOL    HW225827   4.641   2.033   6.006 -1.3178 -1.1902 -0.9175
 4732SOL     OW25828   2.022   3.633   4.736  0.0723  0.0333 -0.1410
 4732SOL    HW125829   2.043   3.553   4.784  0.1202 -0.3992 -0.8890
 4732SOL    HW225830   1.958   3.600   4.673  0.5367 -0.1719 -0.4989
 4733SOL     OW25831   0.493   4.221   5.683  0.1061  0.2985 -0.9902
 4733SOL    HW125832   0.530   4.152   5.738 -1.2579 -0.3120 -0.8538
 4733SOL    HW225833   0.569   4.268   5.647  1.5161  0.2738  1.9381
 4734SOL     OW25834   0.469   3.215  14.471  0.1344 -0.2246 -0.3006
 4734SOL    HW125835   0.513   3.271  14.407  1.0071  2.1508  2.3962
 4734SOL    HW225836   0.482   3.264  14.552 -0.0172  0.7301 -0.8539
 4735SOL     OW25837   2.047   0.647   6.762 -0.4480 -0.7976 -0.2899
 4735SOL    HW125838   2.033   0.730   6.808 -1.7243 -1.3846  0.3761
 4735SOL    HW225839   2.109   0.677   6.696  0.3979  2.1569  1.8598
 4736SOL     OW25840   0.646   3.635  14.193  0.2388  0.9091 -0.2174
 4736SOL    HW125841   0.610   3.719  14.221 -0.3184  0.9329 -1.0171
 4736SOL    HW225842   0.662   3.652  14.100  3.0151 -0.0604  0.0831
 4737SOL     OW25843   3.696   2.688   9.794  0.2268  0.2462  0.2493
 4737SOL    HW125844   3.791   2.686   9.787  0.3453  0.4013  1.6777
 4737SOL    HW225845   3.667   2.607   9.752 -1.9288  1.7878 -1.2263
 4738SOL     OW25846   2.421   0.592   8.619 -0.5798 -0.2289  0.2975
 4738SOL    HW125847   2.371   0.669   8.593 -0.8445 -0.2403  0.7801
 4738SOL    HW225848   2.356   0.522   8.617 -0.3294 -0.5250  1.9275
 4739SOL     OW25849   2.838   2.899  11.902 -0.1358  0.3956 -0.5251
 4739SOL    HW125850   2.800   2.927  11.819  0.4015  2.3849 -0.0928
 4739SOL    HW225851   2.787   2.818  11.915  1.3673 -0.6797 -1.3118
 4740SOL     OW25852   4.729   1.340   1.665  0.5299  0.0898  0.6566
 4740SOL    HW125853   0.018   1.365   1.754  0.7757 -0.7779  0.8302
 4740SOL    HW225854   4.670   1.267   1.684  0.6701 -0.0893  0.4056
 4741SOL     OW25855   2.273   4.674   7.983 -0.3861 -0.1209 -0.0109
 4741SOL    HW125856   2.340   4.634   8.038  1.9592  0.6057 -2.3702
 4741SOL    HW225857   2.200   4.613   7.991 -1.8740  1.3974 -2.1307
 4742SOL     OW25858   2.903   2.324   1.109  0.5052  0.3691  0.3363
 4742SOL    HW125859   2.955   2.391   1.064 -0.7611  1.0110 -0.1671
 4742SOL    HW225860   2.862   2.268   1.043  1.4383 -1.3838  1.2502
 4743SOL     OW25861   3.170   2.090   3.741  0.1612  0.0329  0.6376
 4743SOL    HW125862   3.182   2.157   3.809 -0.4331  1.5028 -0.6905
 4743SOL    HW225863   3.221   2.028   3.793  0.2351  0.2126  0.7786
 4744SOL     OW25864   3.306   1.370   7.695 -0.2575  0.3816  0.1863
 4744SOL    HW125865   3.383   1.426   7.687 -1.3126  1.7512 -0.4596
 4744SOL    HW225866   3.317   1.320   7.614 -0.6460 -1.3339  1.1779
 4745SOL     OW25867   1.564   4.648   2.771 -0.0245  0.0172  0.4178
 4745SOL    HW125868   1.504   4.654   2.697  2.8389  3.7094 -1.6472
 4745SOL    HW225869   1.614   4.729   2.758  0.4613 -0.3921 -0.3114
 4746SOL     OW25870   1.749   1.428  15.902  0.0550  0.2175  0.5079
 4746SOL    HW125871   1.760   1.523  15.890  1.7248 -0.0994 -0.3979
 4746SOL    HW225872   1.753   1.429  15.998  1.7580 -0.9215  0.4372
 4747SOL     OW25873   1.126   4.292   4.104  0.4605 -0.1110 -0.2683
 4747SOL    HW125874   1.068   4.357   4.063  0.6298 -0.9895 -1.8836
 4747SOL    HW225875   1.066   4.240   4.158  0.1895  0.9655  0.4914
 4748SOL     OW25876   1.987   2.440  16.883  0.4095 -0.4350  0.0083
 4748SOL    HW125877   2.065   2.475  16.928  1.4228 -0.2417 -1.9147
 4748SOL    HW225878   1.969   2.515  16.827  2.0092  1.3190  1.8223
 4749SOL     OW25879   4.057   3.359   6.352 -0.3590  0.2812  0.0363
 4749SOL    HW125880   4.021   3.294   6.412  0.4940  0.2536  0.5176
 4749SOL    HW225881   4.046   3.433   6.412  0.4803 -0.7586  1.4457
 4750SOL     OW25882   3.835   2.941   2.046  0.4810 -0.2723 -0.4524
 4750SOL    HW125883   3.896   2.988   1.989  0.5118  3.1694  2.4085
 4750SOL    HW225884   3.883   2.915   2.124 -3.6937  0.6416  2.4167
 4751SOL     OW25885   2.098   3.002   6.873 -0.3536  0.0350  0.4082
 4751SOL    HW125886   2.170   3.043   6.920 -0.3155  0.3330  0.0929
 4751SOL    HW225887   2.145   2.957   6.802 -0.9473  1.0841 -0.6457
 4752SOL     OW25888   2.560   0.368   1.049  0.8179 -0.3322 -0.2564
 4752SOL    HW125889   2.598   0.284   1.076  2.4023  0.4874  0.0770
 4752SOL    HW225890   2.535   0.412   1.130  2.6206 -1.2872  0.8425
 4753SOL     OW25891   0.248   3.307   4.603 -0.3934  0.3418  0.8800
 4753SOL    HW125892   0.323   3.364   4.620  1.1336 -1.3771 -0.1398
 4753SOL    HW225893   0.292   3.224   4.618  0.0569  0.4854  0.3330
 4754SOL     OW25894   3.272   2.028   3.309  0.4264  0.1308 -0.3640
 4754SOL    HW125895   3.178   2.021   3.326  1.1357 -0.6627  3.4391
 4754SOL    HW225896   3.305   2.065   3.391 -4.1069  0.1810  1.4278
 4755SOL     OW25897   0.397   2.052   3.227  0.4159 -0.2010  0.2369
 4755SOL    HW125898   0.450   2.124   3.263 -0.1772 -0.6151  1.9493
 4755SOL    HW225899   0.313   2.099   3.227  0.5948  0.1440  2.7478
 4756SOL     OW25900   2.621   2.066   5.715  0.0628 -0.5237 -0.5502
 4756SOL    HW125901   2.703   2.016   5.719  0.6756  0.5449  0.4191
 4756SOL    HW225902   2.580   2.005   5.776 -1.9842  3.6451  2.2222
 4757SOL     OW25903   2.258   0.378   4.342  0.1787 -0.1660  0.3241
 4757SOL    HW125904   2.347   0.344   4.356 -0.5557 -1.8225  0.9508
 4757SOL    HW225905   2.279   0.450   4.282 -0.1224 -0.3438  0.0052
 4758SOL     OW25906   2.633   3.090   4.763  0.2055 -0.1415 -0.1619
 4758SOL    HW125907   2.541   3.099   4.788 -0.3532 -1.2891 -1.7858
 4758SOL    HW225908   2.657   3.171   4.718  2.8310  1.2159  3.7861
 4759SOL     OW25909   4.523   4.192   1.161 -0.4990  0.1954 -0.0727
 4759SOL    HW125910   4.504   4.285   1.159  1.8522  0.6457 -0.5207
 4759SOL    HW225911   4.475   4.159   1.085 -0.3764  1.3307 -0.6285
 4760SOL     OW25912   4.340   1.430   2.194 -0.6161 -0.2721  0.4751
 4760SOL    HW125913   4.374   1.343   2.215 -0.1267 -0.2292 -0.1282
 4760SOL    HW225914   4.269   1.401   2.136 -1.0866  0.0559  0.8877
 4761SOL     OW25915   3.310   2.551   2.966 -0.4067 -0.1578 -0.7710
 4761SOL    HW125916   3.258   2.632   2.961 -0.6023 -0.2615 -0.4250
 4761SOL    HW225917   3.395   2.582   2.935  1.0625 -1.6624  1.8272
 4762SOL     OW25918   3.197   3.259   3.400  0.2451  0.2094  0.0659
 4762SOL    HW125919   3.161   3.188   3.453 -0.0973  1.1489  1.0910
 4762SOL    HW225920   3.184   3.336   3.456 -1.7772 -0.2407  0.2307
 4763SOL     OW25921   4.103   4.264   2.980  0.5373 -0.4055  0.2418
 4763SOL    HW125922   4.193   4.295   2.994 -0.7977  3.7082 -0.1257
 4763SOL    HW225923   4.085   4.286   2.888  1.7235 -1.3263 -0.2006
 4764SOL     OW25924   0.762   0.529   6.690  0.0462  0.8338  0.0656
 4764SOL    HW125925   0.693   0.465   6.671  0.4237  0.6175 -0.5738
 4764SOL    HW225926   0.785   0.480   6.769 -0.8447  0.3790  0.0459
 4765SOL     OW25927   4.158   1.935   6.294  0.0267  0.1361  0.0682
 4765SOL    HW125928   4.092   1.924   6.226 -1.3203  3.9608  0.7830
 4765SOL    HW225929   4.238   1.912   6.247 -0.9968  0.3228 -1.7436
 4766SOL     OW25930   2.218   2.941   7.649  0.0455  0.7001  0.3655
 4766SOL    HW125931   2.213   2.964   7.556  1.9208  1.7532  0.5193
 4766SOL    HW225932   2.252   3.027   7.675  0.6878  0.2328  1.0666
 4767SOL     OW25933   3.805   2.970   7.997 -0.6482  0.3088  0.4423
 4767SOL    HW125934   3.881   2.933   7.953 -1.3837  0.0319 -0.6045
 4767SOL    HW225935   3.849   2.999   8.076  1.7717  0.0025 -0.8044
 4768SOL     OW25936   2.417   2.495  12.604 -0.0289  0.0181  0.4147
 4768SOL    HW125937   2.450   2.430  12.541 -0.1295  0.4680 -0.1060
 4768SOL    HW225938   2.413   2.571  12.546  0.6719 -1.0490 -1.0555
 4769SOL     OW25939   1.338   4.409   5.413  0.1759  0.0806 -0.2756
 4769SOL    HW125940   1.247   4.396   5.384  0.5362  1.6986 -2.0840
 4769SOL    HW225941   1.318   4.481   5.472 -1.6062 -1.7827  1.4099
 4770SOL     OW25942   3.265   4.071  12.726 -0.1717  0.5014  0.1130
 4770SOL    HW125943   3.211   4.011  12.776  1.2042 -1.3134 -0.5962
 4770SOL    HW225944   3.338   4.018  12.694 -1.3031 -1.4079  0.7279
 4771SOL     OW25945   1.734   4.723   4.827  0.1308  0.6062  0.3926
 4771SOL    HW125946   1.796   0.035   4.882  1.4857  1.0789 -1.5613
 4771SOL    HW225947   1.744   0.031   4.743 -3.0565  1.2127  0.3365
 4772SOL     OW25948   4.173   1.405  17.539 -0.3189 -0.1663  0.1951
 4772SOL    HW125949   4.077   1.397  17.536 -0.2488  0.0426 -2.6217
 4772SOL    HW225950   4.200   1.324  17.582 -1.4615  1.1125  3.3361
 4773SOL     OW25951   1.320   2.388   0.267 -0.0838 -0.4117  0.5238
 4773SOL    HW125952   1.247   2.331   0.244 -1.1732  1.4422 -0.6170
 4773SOL    HW225953   1.275   2.472   0.265  1.2558  0.3416  1.6249
 4774SOL     OW25954   3.082   1.761   8.548 -0.2017  0.1570  0.2537
 4774SOL    HW125955   3.062   1.854   8.551  1.0155  0.3904  1.0636
 4774SOL    HW225956   3.088   1.752   8.452  2.3781  1.2908  0.3048
 4775SOL     OW25957   1.351   3.616  15.210  0.2836 -0.0771  0.1515
 4775SOL    HW125958   1.434   3.664  15.218 -1.3832  2.5974  1.4164
 4775SOL    HW225959   1.333   3.597  15.302 -3.3548  0.7831 -0.3858
 4776SOL     OW25960   2.442   4.666   4.123 -0.4053 -0.0153  0.0478
 4776SOL    HW125961   2.405   4.621   4.198 -0.3943 -0.0584  0.0276
 4776SOL    HW225962   2.522   4.618   4.103 -0.0696  0.2783  0.6818
 4777SOL     OW25963   0.110   2.542   0.731  0.8310 -0.6089 -0.0661
 4777SOL    HW125964   0.018   2.514   0.728  1.1791 -1.5477 -1.6803
 4777SOL    HW225965   0.149   2.515   0.648 -0.0827 -1.3583 -0.2566
 4778SOL     OW25966   1.911   1.368  11.022  0.7575 -0.0837 -0.0614
 4778SOL    HW125967   2.000   1.396  11.042  0.4781  2.0677 -1.8424
 4778SOL    HW225968   1.916   1.273  11.010 -0.9794 -0.0862 -0.8857
 4779SOL     OW25969   2.973   0.051   0.689 -0.3440 -0.1053 -0.0637
 4779SOL    HW125970   3.020   0.134   0.696  1.8955 -1.3919  0.1415
 4779SOL    HW225971   2.980   0.015   0.777  0.6038 -0.1340 -0.1461
 4780SOL     OW25972   1.567   3.022   6.537 -0.0793  0.2820 -0.2482
 4780SOL    HW125973   1.569   2.965   6.460  0.9322  0.5145 -0.3968
 4780SOL    HW225974   1.634   2.982   6.593 -0.9186 -1.7707 -0.7244
 4781SOL     OW25975   0.422   3.787   7.207 -0.5996  0.3041 -0.5067
 4781SOL    HW125976   0.391   3.710   7.255 -0.3579  0.3520 -0.2736
 4781SOL    HW225977   0.494   3.808   7.266 -2.2934  3.1022  0.5770
 4782SOL     OW25978   2.078   1.954  11.479 -0.4480 -0.1891  0.4172
 4782SOL    HW125979   2.123   2.019  11.533 -1.7564  1.0811 -0.0165
 4782SOL    HW225980   2.034   2.021  11.426  1.5072  0.6003 -0.2166
 4783SOL     OW25981   4.002   2.580   8.297  0.0217  0.2386  0.1398
 4783SOL    HW125982   4.035   2.634   8.369  2.1917 -1.3643  0.3554
 4783SOL    HW225983   3.907   2.581   8.305 -0.1151  0.7873 -1.5347
 4784SOL     OW25984   1.897   1.079   2.656  0.1161 -0.3411 -0.1536
 4784SOL    HW125985   1.837   1.131   2.602 -0.2558  0.1692  0.7577
 4784SOL    HW225986   1.848   0.998   2.661  2.4597 -1.6619  1.1857
 4785SOL     OW25987   0.716   3.825   5.652 -0.3330 -0.1677 -0.1764
 4785SOL    HW125988   0.670   3.900   5.613  0.2491  0.3023  0.0406
 4785SOL    HW225989   0.732   3.767   5.577 -0.2533 -1.9974  1.2874
 4786SOL     OW25990   1.085   1.964   2.026  0.3193  0.5179 -0.1958
 4786SOL    HW125991   1.152   1.980   1.960  2.1112 -0.0423  1.4786
 4786SOL    HW225992   1.114   1.878   2.056  2.2676  1.4733  0.6667
 4787SOL     OW25993   2.571   1.735  11.491  0.0154 -0.1549  0.3748
 4787SOL    HW125994   2.490   1.694  11.521 -0.0074  0.4452  1.1582
 4787SOL    HW225995   2.557   1.828  11.471 -1.1037 -0.8154 -1.7954
 4788SOL     OW25996   3.730   3.285   9.930 -0.6669  0.5121 -0.1713
 4788SOL    HW125997   3.759   3.336   9.854  2.0842 -0.2219  0.3858
 4788SOL    HW225998   3.728   3.359   9.991  0.6166  1.2454 -1.0078
 4789SOL     OW25999   3.058   2.988   7.877  0.3105 -0.4723  0.2610
 4789SOL    HW126000   3.111   3.068   7.875  0.9176 -0.9155 -1.0482
 4789SOL    HW226001   3.074   2.950   7.963  3.2119 -1.3967 -0.6966
 4790SOL     OW26002   4.489   4.625  11.661  0.0863  0.0826  0.0123
 4790SOL    HW126003   4.524   4.566  11.594 -0.5966 -0.1689 -0.1312
 4790SOL    HW226004   4.552   4.616  11.732  0.8058  1.0297 -0.5155
 4791SOL     OW26005   0.925   1.235  12.322  0.3334  0.2382 -0.0298
 4791SOL    HW126006   0.942   1.149  12.362 -1.5940  1.0194  2.3732
 4791SOL    HW226007   1.012   1.271  12.302  0.2606 -1.2872 -3.1587
 4792SOL     OW26008   3.115   2.378   7.469  0.2705  0.1427 -0.3918
 4792SOL    HW126009   3.059   2.343   7.538 -1.8691  3.7177 -0.2634
 4792SOL    HW226010   3.085   2.334   7.389 -1.8626  1.8486 -0.5491
 4793SOL     OW26011   4.366   0.402   3.209 -0.2632 -0.0563 -0.5573
 4793SOL    HW126012   4.449   0.401   3.162  0.9573 -0.6147  1.6298
 4793SOL    HW226013   4.340   0.311   3.199 -0.1710  0.1059 -2.4130
 4794SOL     OW26014   0.150   4.582   8.537 -0.1346 -0.2169  0.0132
 4794SOL    HW126015   0.119   4.495   8.560  1.6610 -0.8958 -0.1091
 4794SOL    HW226016   0.164   4.636   8.614  2.7080 -1.0858  0.1086
 4795SOL     OW26017   0.293   1.998   6.243 -0.0801 -0.0020  0.1477
 4795SOL    HW126018   0.255   2.083   6.222  0.8091 -0.1491 -2.0206
 4795SOL    HW226019   0.249   1.939   6.182 -1.7943 -0.5708  1.8954
 4796SOL     OW26020   1.700   0.771   3.764 -0.0581 -0.5952  0.2865
 4796SOL    HW126021   1.662   0.685   3.746 -0.5129 -0.4224  0.4262
 4796SOL    HW226022   1.738   0.791   3.679  2.4313 -1.8932  1.0991
 4797SOL     OW26023   3.418   2.849   5.642 -0.2463  0.0703 -0.1308
 4797SOL    HW126024   3.323   2.853   5.629 -0.5097  1.5564  2.1870
 4797SOL    HW226025   3.442   2.871   5.552 -0.7747  0.5391 -0.1529
 4798SOL     OW26026   2.437   1.186  16.746 -0.2021  0.4137 -0.7558
 4798SOL    HW126027   2.356   1.214  16.704 -0.1385  1.8889  0.1319
 4798SOL    HW226028   2.478   1.270  16.763  1.7857 -0.9210  1.1280
 4799SOL     OW26029   3.386   3.746  11.245  0.0078  0.2942  0.3865
 4799SOL    HW126030   3.386   3.836  11.214 -3.6308  0.3211  0.4843
 4799SOL    HW226031   3.297   3.743  11.282  1.1411  3.0589  3.3737
 4800SOL     OW26032   1.010   3.595   8.498  0.4617  0.2581 -0.3751
 4800SOL    HW126033   1.051   3.563   8.578  0.4644  2.5165  0.5313
 4800SOL    HW226034   1.083   3.623   8.444 -0.6751  4.0546  0.0641
 4801SOL     OW26035   1.169   2.387  13.050  0.6051  0.3251 -0.5205
 4801SOL    HW126036   1.088   2.436  13.033 -1.0029 -1.9085  0.5782
 4801SOL    HW226037   1.231   2.459  13.041  2.5595 -1.2269  0.7637
 4802SOL     OW26038   3.643   4.429   5.930 -0.0939  0.3820 -0.3093
 4802SOL    HW126039   3.714   4.490   5.951  1.4477 -1.7892  0.8528
 4802SOL    HW226040   3.610   4.399   6.015  0.6719 -1.1635 -0.5629
 4803SOL     OW26041   4.198   1.412   4.931 -0.0166  0.3494 -0.1142
 4803SOL    HW126042   4.126   1.354   4.953  0.1049  1.8715  4.3925
 4803SOL    HW226043   4.272   1.372   4.977  0.7967 -0.3387 -2.0080
 4804SOL     OW26044   0.921   3.489   8.149 -0.1486 -0.2732 -0.2131
 4804SOL    HW126045   0.956   3.418   8.202 -0.4951 -0.3361 -0.0720
 4804SOL    HW226046   1.000   3.543   8.138 -0.3328 -0.0673 -0.5408
 4805SOL     OW26047   0.720   0.509   7.950  0.4118  0.4746  0.1190
 4805SOL    HW126048   0.762   0.440   8.001 -0.2063 -0.9513 -1.3336
 4805SOL    HW226049   0.782   0.531   7.880  0.8023  1.2958  0.7077
 4806SOL     OW26050   0.260   2.285  17.496  0.4002  1.0109 -0.0033
 4806SOL    HW126051   0.351   2.258  17.506  0.8814  2.1828 -1.0691
 4806SOL    HW226052   0.227   2.199  17.470 -1.6769  1.7237  0.2983
 4807SOL     OW26053   4.430   1.197   8.661  0.1194  0.5075 -0.0298
 4807SOL    HW126054   4.339   1.172   8.679  0.8779 -2.4678 -0.3416
 4807SOL    HW226055   4.429   1.158   8.573  0.9402  1.7093 -0.5601
 4808SOL     OW26056   1.816   2.590   0.160  0.6821  0.2681 -0.2820
 4808SOL    HW126057   1.847   2.501   0.143  2.3372  0.6557  0.6762
 4808SOL    HW226058   1.737   2.587   0.105  0.0072  0.7946  0.6544
 4809SOL     OW26059   3.152   1.241   5.411  0.1360 -0.3921 -0.4014
 4809SOL    HW126060   3.095   1.242   5.333  2.1286  0.6861 -1.8620
 4809SOL    HW226061   3.240   1.229   5.375  0.1294  1.2563 -0.9683
 4810SOL     OW26062   1.350   2.300  14.144  0.6202 -0.1198  0.3635
 4810SOL    HW126063   1.257   2.322  14.146  0.6879 -0.0969  2.6122
 4810SOL    HW226064   1.342   2.204  14.142 -1.6116  0.1650 -3.5545
 4811SOL     OW26065   3.842   3.242  13.024 -0.2161 -0.0289 -0.4432
 4811SOL    HW126066   3.835   3.168  12.965  1.3508  0.3953 -1.1474
 4811SOL    HW226067   3.906   3.291  12.972  0.0954  1.3979  1.2718
 4812SOL     OW26068   0.604   0.423  16.818 -0.3438 -0.1986  0.0389
 4812SOL    HW126069   0.616   0.330  16.838  0.1237 -0.2050 -0.2538
 4812SOL    HW226070   0.526   0.445  16.868  0.0721  0.8032  0.2413
 4813SOL     OW26071   0.403   2.030   6.701  0.9529 -0.6147 -0.0469
 4813SOL    HW126072   0.327   1.994   6.655  0.3968  1.3233 -0.6658
 4813SOL    HW226073   0.466   1.980   6.650 -0.9385 -1.4837 -1.5574
 4814SOL     OW26074   0.823   2.567  10.291 -0.0880  0.2761  0.0067
 4814SOL    HW126075   0.896   2.584  10.231 -1.0470  1.8065 -0.7131
 4814SOL    HW226076   0.756   2.620  10.248  0.1388 -0.0127 -0.7182
 4815SOL     OW26077   0.822   1.944   3.398 -0.4521 -0.3321  0.3964
 4815SOL    HW126078   0.745   1.999   3.410  1.7243  2.3926  1.8721
 4815SOL    HW226079   0.889   2.006   3.370 -1.0442  0.5733  0.9805
 4816SOL     OW26080   2.219   0.577   6.141 -0.1145  0.5253  0.5134
 4816SOL    HW126081   2.302   0.561   6.095 -0.3847 -1.1621  0.6195
 4816SOL    HW226082   2.196   0.665   6.110  0.2753  0.8004  0.9968
 4817SOL     OW26083   0.486   1.861   3.043 -0.2905  0.2478  0.7342
 4817SOL    HW126084   0.481   1.922   3.116 -1.6093 -0.0910  0.9102
 4817SOL    HW226085   0.567   1.823   3.077  0.2312 -0.4385 -1.2576
 4818SOL     OW26086   3.130   0.857  13.813  0.0005 -0.4759  0.5077
 4818SOL    HW126087   3.214   0.879  13.853  0.8827 -0.1533 -1.4714
 4818SOL    HW226088   3.073   0.860  13.890 -0.9418  0.9739 -0.2473
 4819SOL     OW26089   2.204   4.204   6.008  0.2114 -0.1967 -0.0629
 4819SOL    HW126090   2.128   4.252   5.975  0.0193  1.2029  2.4409
 4819SOL    HW226091   2.223   4.255   6.087  0.7335 -0.7419  0.1645
 4820SOL     OW26092   3.442   0.450   1.282  0.1976  0.3010  0.1962
 4820SOL    HW126093   3.363   0.428   1.232 -0.5950  1.1805  1.0697
 4820SOL    HW226094   3.497   0.506   1.227 -1.0350  0.7119 -0.6204
 4821SOL     OW26095   4.126   2.146   4.767 -0.0338  0.2320 -0.1643
 4821SOL    HW126096   4.127   2.171   4.859 -2.3029  1.6319 -0.5250
 4821SOL    HW226097   4.071   2.069   4.771  1.2424 -0.7485 -1.3306
 4822SOL     OW26098   1.787   1.069   7.689 -0.1308 -0.4626 -0.7706
 4822SOL    HW126099   1.708   1.089   7.739  0.9375  0.1215  0.6815
 4822SOL    HW226100   1.791   0.980   7.725  1.1127  0.2307  0.8328
 4823SOL     OW26101   3.048   1.038  12.232 -0.2459 -0.0900 -0.0888
 4823SOL    HW126102   3.053   0.954  12.186  1.8753  0.9927 -1.8087
 4823SOL    HW226103   3.130   1.028  12.280 -0.0036  2.3547 -0.0143
 4824SOL     OW26104   3.320   4.494   2.934  0.1614 -0.1331 -0.4673
 4824SOL    HW126105   3.266   4.416   2.948 -2.3483  1.5768 -0.6642
 4824SOL    HW226106   3.336   4.482   2.841 -0.2259 -1.0471 -0.4125
 4825SOL     OW26107   0.349   0.594  15.991 -0.4514  0.0673 -0.0869
 4825SOL    HW126108   0.362   0.509  15.949 -1.9426  0.1719 -0.7680
 4825SOL    HW226109   0.310   0.556  16.071  1.6595 -1.4083  0.2415
 4826SOL     OW26110   1.290   2.967  12.032 -0.0708  0.0170 -0.7242
 4826SOL    HW126111   1.262   2.978  12.123  0.7619 -1.1713 -0.3183
 4826SOL    HW226112   1.356   3.036  12.028 -0.0177 -0.1467 -2.4852
 4827SOL     OW26113   1.265   3.706  16.416  0.6895  0.4066 -0.1834
 4827SOL    HW126114   1.176   3.739  16.427  0.8539  1.0387 -0.7281
 4827SOL    HW226115   1.294   3.756  16.339  0.7179  0.9773  0.1918
 4828SOL     OW26116   1.471   0.965   9.967  0.1005 -0.2435  0.2823
 4828SOL    HW126117   1.527   0.898   9.929 -2.0307 -1.4895 -0.6518
 4828SOL    HW226118   1.391   0.917   9.948 -0.3757  0.3895  0.6967
 4829SOL     OW26119   0.625   3.747   1.211 -0.0619 -0.4822 -0.2308
 4829SOL    HW126120   0.580   3.721   1.291 -0.7610  0.6189 -0.2572
 4829SOL    HW226121   0.705   3.783   1.250  0.2928 -2.2253  0.6479
 4830SOL     OW26122   1.426   1.984   4.543  0.7583 -0.1528 -0.3887
 4830SOL    HW126123   1.469   1.948   4.465 -0.8393  0.3724 -1.5156
 4830SOL    HW226124   1.353   1.923   4.542  1.4381 -0.9746  0.2509
 4831SOL     OW26125   0.671   3.731   8.550  0.3486  0.1213 -0.2103
 4831SOL    HW126126   0.630   3.716   8.635 -0.9805 -1.2680 -1.0981
 4831SOL    HW226127   0.712   3.647   8.526 -0.5540 -0.3404 -0.1230
 4832SOL     OW26128   2.918   0.961   4.396  0.2407 -0.5609 -0.4708
 4832SOL    HW126129   2.903   0.912   4.315 -0.5850 -1.5033  0.2459
 4832SOL    HW226130   2.829   0.966   4.432  1.0199 -0.5325  1.4339
 4833SOL     OW26131   3.344   3.384   0.034  0.5558 -0.1702  0.6507
 4833SOL    HW126132   3.389   3.378   0.118 -2.3363  0.5604  2.2764
 4833SOL    HW226133   3.271   3.440   0.061  0.0050 -0.1091 -0.9717
 4834SOL     OW26134   1.127   0.117   6.612 -0.4141 -0.6805  0.2382
 4834SOL    HW126135   1.055   0.165   6.572 -0.1784  0.6436  1.3880
 4834SOL    HW226136   1.186   0.186   6.643 -1.0186 -0.5532  1.1188
 4835SOL     OW26137   0.222   3.359  17.367 -0.3735 -0.0009  0.6982
 4835SOL    HW126138   0.249   3.321  17.450 -1.6158 -0.5283  0.8450
 4835SOL    HW226139   0.139   3.400  17.390  0.0443  0.5098  1.2964
 4836SOL     OW26140   0.204   2.035   1.963  0.3497  0.2542  0.8483
 4836SOL    HW126141   0.172   2.073   2.045 -0.6168 -0.0599  0.6154
 4836SOL    HW226142   0.278   1.978   1.983  0.0374 -0.1886  0.7241
 4837SOL     OW26143   1.000   1.134   5.774 -0.1293 -0.1266  0.1364
 4837SOL    HW126144   0.946   1.068   5.818  0.1787 -0.6104 -0.2114
 4837SOL    HW226145   0.959   1.136   5.687 -0.7152  0.3726  0.4239
 4838SOL     OW26146   2.053   1.978   5.762 -0.1323  0.0877  0.1874
 4838SOL    HW126147   1.972   2.027   5.777  0.7776  2.1008 -1.3959
 4838SOL    HW226148   2.123   2.037   5.792  0.0630 -0.0930  0.0824
 4839SOL     OW26149   1.942   4.588  11.099 -0.3742 -0.0204 -0.1428
 4839SOL    HW126150   1.994   4.526  11.150  1.1165  2.7068  1.6610
 4839SOL    HW226151   1.916   4.657  11.160 -0.3042 -0.0402 -0.0908
 4840SOL     OW26152   2.677   0.820  12.496 -0.2128  0.1742 -0.1537
 4840SOL    HW126153   2.771   0.814  12.480 -0.1425  0.3630  0.1873
 4840SOL    HW226154   2.668   0.899  12.550  0.0161 -1.8302  2.8139
 4841SOL     OW26155   4.557   4.238   3.987 -0.4100 -0.2527 -0.2963
 4841SOL    HW126156   4.506   4.194   3.919 -0.6049 -0.9945  0.3377
 4841SOL    HW226157   4.558   4.171   4.055 -0.0685 -0.0124 -0.0635
 4842SOL     OW26158   0.872   2.913   7.998  0.0664 -0.1174  0.0496
 4842SOL    HW126159   0.840   2.897   8.087  0.1813  2.3757  0.5332
 4842SOL    HW226160   0.832   2.997   7.976  0.0838 -0.0828  0.1488
 4843SOL     OW26161   3.808   4.447   7.778 -0.2174  0.0229  0.7255
 4843SOL    HW126162   3.747   4.375   7.782  0.8957 -0.9440  0.3462
 4843SOL    HW226163   3.890   4.406   7.751 -0.3481  1.1481 -1.4227
 4844SOL     OW26164   4.616   4.715  12.637 -0.0790  0.2489  0.2536
 4844SOL    HW126165   4.602   4.640  12.579 -1.9393  0.8665 -0.1255
 4844SOL    HW226166   4.686   4.688  12.695  0.4913  0.3857 -0.3661
 4845SOL     OW26167   2.730   0.969  10.816  0.3740 -0.0815  0.1115
 4845SOL    HW126168   2.657   0.909  10.801 -0.1706  1.2522 -2.5204
 4845SOL    HW226169   2.726   1.026  10.739  0.8069 -1.6853 -1.1012
 4846SOL     OW26170   2.920   1.494   0.800  0.0918  0.1960  0.0474
 4846SOL    HW126171   2.882   1.410   0.824 -0.4794  0.2817 -0.5709
 4846SOL    HW226172   2.964   1.535   0.874 -1.1190 -2.3503  2.1823
 4847SOL     OW26173   3.722   4.019   5.857 -0.4461 -0.3498 -0.2871
 4847SOL    HW126174   3.773   3.977   5.788 -2.5176  0.2287 -2.1598
 4847SOL    HW226175   3.736   4.108   5.825 -1.8444 -0.0248 -0.0102
 4848SOL     OW26176   3.623   4.265   3.233 -0.1953 -0.1855 -0.8340
 4848SOL    HW126177   3.616   4.171   3.217 -1.0036 -0.1001 -0.9922
 4848SOL    HW226178   3.531   4.285   3.247  0.2920  0.3954  1.4625
 4849SOL     OW26179   0.530   2.614   9.248 -0.0140 -0.3655  0.2100
 4849SOL    HW126180   0.622   2.608   9.222 -0.0465  0.3537 -0.0650
 4849SOL    HW226181   0.537   2.653   9.335  3.2125 -0.3158 -0.0532
 4850SOL     OW26182   1.176   2.342   9.849 -0.0854 -0.3361  0.4718
 4850SOL    HW126183   1.244   2.380   9.904  0.1413 -0.8507  0.5442
 4850SOL    HW226184   1.228   2.276   9.803  0.1743 -0.0828  0.4055
 4851SOL     OW26185   0.196   1.585   7.807 -0.1173  0.0395 -0.4422
 4851SOL    HW126186   0.252   1.510   7.825  0.5353  0.5102 -0.4831
 4851SOL    HW226187   0.266   1.647   7.789  1.3142 -1.8008 -1.1307
 4852SOL     OW26188   2.569   3.699  14.117  0.5864 -0.4430 -0.2322
 4852SOL    HW126189   2.546   3.674  14.027  0.4604  0.1978 -0.3822
 4852SOL    HW226190   2.633   3.632  14.142 -0.7726 -2.2340 -1.5867
 4853SOL     OW26191   1.936   1.867   3.374 -0.2871 -0.4420  0.7502
 4853SOL    HW126192   2.002   1.926   3.338 -0.0863 -2.0670 -1.5223
 4853SOL    HW226193   1.943   1.912   3.458  2.0164  0.2125  0.2105
 4854SOL     OW26194   0.871   1.264   1.915  0.0059 -0.3735  0.3209
 4854SOL    HW126195   0.934   1.233   1.980 -0.6925 -1.0574  0.6836
 4854SOL    HW226196   0.822   1.182   1.905 -1.3860  0.5350 -0.3160
 4855SOL     OW26197   0.563   2.157   7.677 -0.3720  0.1261 -0.2905
 4855SOL    HW126198   0.527   2.233   7.721 -0.5335  0.0893 -0.3578
 4855SOL    HW226199   0.485   2.105   7.657 -1.6462  1.4388  1.4090
 4856SOL     OW26200   3.370   0.679   4.993 -0.0378 -0.2326  0.1553
 4856SOL    HW126201   3.457   0.717   4.983 -0.9226  1.4718 -1.1517
 4856SOL    HW226202   3.383   0.593   4.954 -1.7332 -0.5691  0.3046
 4857SOL     OW26203   3.543   0.405  16.383 -0.2652 -0.0843  0.2313
 4857SOL    HW126204   3.614   0.380  16.443 -1.1356 -1.4945  0.6884
 4857SOL    HW226205   3.558   0.344  16.311  1.3357  0.7567 -0.1500
 4858SOL     OW26206   4.218   4.624   7.484  0.0109  0.2555 -0.2543
 4858SOL    HW126207   4.142   4.672   7.519 -0.7318 -1.7587  0.8914
 4858SOL    HW226208   4.278   4.699   7.489  1.1763 -0.6893 -0.1659
 4859SOL     OW26209   1.434   2.422  12.490  0.4605 -0.0776 -0.6945
 4859SOL    HW126210   1.351   2.468  12.504  0.8144  0.6379 -0.9119
 4859SOL    HW226211   1.399   2.338  12.462 -2.5980  1.0203 -0.1880
 4860SOL     OW26212   1.494   3.216  13.016  0.0619 -0.0959 -0.1394
 4860SOL    HW126213   1.572   3.178  12.975 -0.1844 -0.2714 -0.4473
 4860SOL    HW226214   1.529   3.246  13.100  0.2558  0.0141 -0.2589
 4861SOL     OW26215   3.181   1.996   2.384 -0.4302 -0.0257 -0.0379
 4861SOL    HW126216   3.196   1.904   2.404 -0.9226  0.0764  0.8020
 4861SOL    HW226217   3.244   2.005   2.312  0.7552  2.1606  1.2785
 4862SOL     OW26218   2.854   2.025  11.482 -0.0372 -0.2802 -0.3128
 4862SOL    HW126219   2.811   2.101  11.443  0.1543  0.3709  0.7201
 4862SOL    HW226220   2.888   1.992  11.399  2.3936 -1.5200  1.1540
 4863SOL     OW26221   3.713   0.275   3.065  0.0066 -0.4653 -0.5810
 4863SOL    HW126222   3.734   0.202   3.123 -4.8092 -1.7683 -0.5693
 4863SOL    HW226223   3.760   0.333   3.126  0.5197 -0.1512 -1.2697
 4864SOL     OW26224   1.039   3.554   7.215 -0.5230 -0.3658  0.2604
 4864SOL    HW126225   1.112   3.606   7.180 -1.3661  0.7770  0.2067
 4864SOL    HW226226   1.068   3.476   7.263 -0.0910  0.3490  1.1671
 4865SOL     OW26227   1.329   0.788  15.315  0.3509 -0.1575 -0.4143
 4865SOL    HW126228   1.302   0.710  15.266  0.5979  0.4924 -1.5820
 4865SOL    HW226229   1.249   0.841  15.314  1.1844  1.0720 -1.1690
 4866SOL     OW26230   4.411   3.346   6.473  0.1853  0.1338 -0.1600
 4866SOL    HW126231   4.466   3.272   6.501  0.6587  0.6417  0.2595
 4866SOL    HW226232   4.365   3.349   6.557  0.6860  1.7345  0.0443
 4867SOL     OW26233   3.656   3.510   2.227  0.5557 -0.0820  0.2331
 4867SOL    HW126234   3.716   3.440   2.256 -0.1906  0.0024  1.9785
 4867SOL    HW226235   3.576   3.458   2.219  1.0584 -0.8220 -0.0979
 4868SOL     OW26236   3.997   0.516  11.706 -0.1410  0.0978 -0.7449
 4868SOL    HW126237   3.913   0.474  11.726  1.4094 -2.2987  0.7127
 4868SOL    HW226238   4.050   0.440  11.730  0.5208  0.1586 -2.0477
 4869SOL     OW26239   2.343   0.882   3.662  0.1359 -0.5439  0.3444
 4869SOL    HW126240   2.259   0.837   3.671  0.5480 -1.0288  1.7750
 4869SOL    HW226241   2.410   0.821   3.693 -1.1421 -1.8611  0.4793
 4870SOL     OW26242   4.340   4.500  10.039 -0.7677 -0.0488  0.2786
 4870SOL    HW126243   4.425   4.528  10.007 -0.2016 -3.1576 -0.9464
 4870SOL    HW226244   4.300   4.505   9.953  1.6385  0.8619 -0.7845
 4871SOL     OW26245   4.207   0.623   5.961  0.3017 -0.0062 -0.3527
 4871SOL    HW126246   4.187   0.675   5.883 -0.3250  0.0011 -0.1890
 4871SOL    HW226247   4.124   0.576   5.964  0.7189 -0.8183 -1.6831
 4872SOL     OW26248   2.695   0.958   8.892  0.3999  0.1805 -0.2085
 4872SOL    HW126249   2.690   0.995   8.804 -3.0760 -0.6758 -0.3600
 4872SOL    HW226250   2.602   0.966   8.913  0.8406  2.8719  0.8222
 4873SOL     OW26251   3.806   1.253   4.181  0.2331 -0.8495 -0.6862
 4873SOL    HW126252   3.737   1.202   4.137 -1.9412 -0.2149  2.0112
 4873SOL    HW226253   3.770   1.339   4.161  0.9964 -0.7526 -1.6510
 4874SOL     OW26254   1.500   0.745   2.331  0.7609  0.2175 -0.2298
 4874SOL    HW126255   1.575   0.796   2.362  1.5731  0.5492 -2.7052
 4874SOL    HW226256   1.506   0.673   2.394 -0.8668  1.0015  0.8231
 4875SOL     OW26257   0.218   2.851   8.136  0.0651 -0.1587 -0.1454
 4875SOL    HW126258   0.181   2.923   8.187 -0.3670 -1.1726  0.9879
 4875SOL    HW226259   0.214   2.780   8.200 -1.0242 -0.8961 -1.0360
 4876SOL     OW26260   0.996   4.121   5.530 -0.3240 -0.3912  0.0815
 4876SOL    HW126261   1.028   4.086   5.613 -1.5341  0.5879  0.9766
 4876SOL    HW226262   0.986   4.040   5.481  0.3007 -0.7635  0.5814
 4877SOL     OW26263   0.222   0.509   6.048  0.3243 -0.3703  0.4603
 4877SOL    HW126264   0.259   0.595   6.067  1.8550 -1.2316  1.3811
 4877SOL    HW226265   0.170   0.504   6.128 -0.7264  1.0900 -0.1362
 4878SOL     OW26266   1.484   2.026   1.459  0.3193  0.0702  0.0053
 4878SOL    HW126267   1.529   2.055   1.539 -2.3145  2.6112  0.5689
 4878SOL    HW226268   1.481   1.933   1.483  1.1274 -0.3874 -1.7072
 4879SOL     OW26269   1.081   3.797   7.593  0.2652 -0.1033 -0.2358
 4879SOL    HW126270   1.014   3.850   7.637  0.5053  1.6440 -1.9620
 4879SOL    HW226271   1.144   3.794   7.665  0.8996  1.9481 -0.7075
 4880SOL     OW26272   3.136   0.733   4.855 -0.3639  0.3844 -0.3940
 4880SOL    HW126273   3.209   0.717   4.915 -1.1239 -2.2965 -0.1524
 4880SOL    HW226274   3.155   0.822   4.827 -0.5074  0.2546 -0.9090
 4881SOL     OW26275   3.887   2.731   5.530  0.2097 -0.1549 -0.1373
 4881SOL    HW126276   3.820   2.766   5.470  0.4038  1.6981  0.7254
 4881SOL    HW226277   3.966   2.756   5.483 -2.0392  0.8370 -3.4215
 4882SOL     OW26278   4.619   0.474   9.706 -0.0140  0.1412 -0.1263
 4882SOL    HW126279   4.563   0.446   9.778  0.9788 -1.0777  0.1743
 4882SOL    HW226280   4.604   0.409   9.637 -2.7908  0.3162  0.3003
 4883SOL     OW26281   0.227   2.414   1.404 -0.4776  0.6040  0.1743
 4883SOL    HW126282   0.229   2.424   1.499 -3.7651 -3.4790  0.6274
 4883SOL    HW226283   0.316   2.391   1.376 -0.4879 -0.6826  1.2361
 4884SOL     OW26284   3.039   0.128   2.372  0.3606  0.7796 -0.2431
 4884SOL    HW126285   3.086   0.066   2.317  2.6065  1.4686  0.8926
 4884SOL    HW226286   2.999   0.072   2.438  0.3860  1.5973  0.4696
 4885SOL     OW26287   3.365   3.314   9.827  0.5725 -0.0724 -0.4494
 4885SOL    HW126288   3.392   3.385   9.887  2.7011 -0.1346 -1.3372
 4885SOL    HW226289   3.289   3.361   9.792 -1.7108 -1.5876  2.5155
 4886SOL     OW26290   0.982   4.592   1.820 -0.1774 -0.0079 -0.4541
 4886SOL    HW126291   1.077   4.588   1.828 -0.2039 -2.4548 -1.2830
 4886SOL    HW226292   0.960   4.596   1.913  0.8537 -0.1986 -0.2022
 4887SOL     OW26293   0.575   2.701  11.329  0.5531 -0.0158  0.2674
 4887SOL    HW126294   0.588   2.721  11.421  0.8932 -1.8002  0.6119
 4887SOL    HW226295   0.485   2.667  11.334 -0.4247  2.0501 -2.8268
 4888SOL     OW26296   1.708   2.259   5.098  0.0103  0.1804  0.5129
 4888SOL    HW126297   1.755   2.183   5.064 -1.4885 -0.1638 -0.7479
 4888SOL    HW226298   1.619   2.239   5.069 -0.0853  2.2210 -0.5664
 4889SOL     OW26299   2.577   3.484   5.956  0.4602  0.4176  0.3539
 4889SOL    HW126300   2.494   3.476   5.909  1.5296  1.0736 -1.6416
 4889SOL    HW226301   2.559   3.443   6.041  0.2776 -0.2679 -0.0217
 4890SOL     OW26302   1.568   1.116   9.663 -0.1608 -0.2937  0.4811
 4890SOL    HW126303   1.603   1.157   9.742  3.7707 -1.7911 -0.4682
 4890SOL    HW226304   1.652   1.124   9.617 -0.0265 -4.3583  0.0415
 4891SOL     OW26305   4.234   4.727   1.706 -0.3297 -0.6172  1.0737
 4891SOL    HW126306   4.300   0.007   1.773  1.3264 -0.4696 -0.6117
 4891SOL    HW226307   4.177   4.655   1.734 -2.6750  0.5458 -0.6622
 4892SOL     OW26308   2.012   2.762   2.624 -0.5655  0.9246  0.4688
 4892SOL    HW126309   2.098   2.805   2.622 -0.1996  0.2922  2.5873
 4892SOL    HW226310   2.038   2.670   2.627 -0.3838  0.9478 -0.4506
 4893SOL     OW26311   1.166   0.845   6.117  0.8183 -0.4973  1.0492
 4893SOL    HW126312   1.152   0.914   6.052 -0.4734 -2.3733 -0.6853
 4893SOL    HW226313   1.127   0.775   6.064  1.5859  0.3036 -0.5618
 4894SOL     OW26314   2.010   0.638   9.429  0.1078 -0.0405  0.2420
 4894SOL    HW126315   1.953   0.659   9.354  0.6334  0.6729  0.0457
 4894SOL    HW226316   1.944   0.619   9.496  1.7698 -1.1794  1.5373
 4895SOL     OW26317   4.327   0.450   7.475  0.1618  1.1010 -0.1647
 4895SOL    HW126318   4.394   0.485   7.416  2.5963 -3.4918 -0.1737
 4895SOL    HW226319   4.375   0.412   7.549  0.7491 -0.3048 -1.2729
 4896SOL     OW26320   2.985   2.138  12.698 -0.1673  0.2979 -0.4927
 4896SOL    HW126321   3.004   2.045  12.685 -0.7712 -0.3234  3.0648
 4896SOL    HW226322   2.944   2.163  12.615  1.1220  1.6762 -0.7000
 4897SOL     OW26323   4.681   3.275   5.237 -0.7507 -0.1324 -0.1139
 4897SOL    HW126324   0.021   3.299   5.289 -0.0681 -0.4738 -0.9523
 4897SOL    HW226325   4.637   3.360   5.236 -1.5408 -0.5342  2.3630
 4898SOL     OW26326   1.114   2.551   1.843 -0.3619 -0.6015  0.0450
 4898SOL    HW126327   1.166   2.548   1.763 -2.8982  0.5142 -1.6225
 4898SOL    HW226328   1.079   2.640   1.833  3.6570  0.7428 -1.9123
 4899SOL     OW26329   3.727   1.053   3.137 -0.4643  0.2342  0.3912
 4899SOL    HW126330   3.813   1.053   3.095 -0.3756  1.2069  0.5727
 4899SOL    HW226331   3.692   1.131   3.093  1.4092  1.1990  0.6005
 4900SOL     OW26332   4.284   2.726   5.558 -0.0647  0.3958  0.1911
 4900SOL    HW126333   4.268   2.819   5.544 -3.3740  0.1739  2.6365
 4900SOL    HW226334   4.228   2.688   5.491  1.3933  0.6221 -1.1688
 4901SOL     OW26335   4.065   1.597  14.704 -0.0611 -0.2154  1.4186
 4901SOL    HW126336   4.070   1.687  14.735 -1.4641 -0.8951  3.6078
 4901SOL    HW226337   3.986   1.601  14.649  1.7333  1.9451 -0.9948
 4902SOL     OW26338   2.116   4.674   1.602 -0.3830 -0.2678  0.1202
 4902SOL    HW126339   2.194   4.671   1.546 -0.4713 -1.1032  0.0481
 4902SOL    HW226340   2.155   4.651   1.687 -0.7055  1.2849  0.6856
 4903SOL     OW26341   3.079   0.586   5.218 -0.6988 -0.5269  0.2963
 4903SOL    HW126342   3.067   0.493   5.234  2.7838 -1.3249 -1.6124
 4903SOL    HW226343   3.175   0.590   5.219 -0.7852  1.7768 -0.0614
 4904SOL     OW26344   4.552   3.318   9.351 -0.1685 -0.6305  0.3747
 4904SOL    HW126345   4.630   3.371   9.335  0.5183 -1.7802 -0.0948
 4904SOL    HW226346   4.542   3.321   9.446  0.5505  2.1533  0.3846
 4905SOL     OW26347   2.827   4.373   6.621  0.3251 -0.0410 -0.6966
 4905SOL    HW126348   2.802   4.464   6.606 -0.2495 -0.0244  0.3179
 4905SOL    HW226349   2.915   4.391   6.653 -0.4685  1.3584  0.6975
 4906SOL     OW26350   2.758   4.127  17.108  0.0596 -0.1321 -0.1687
 4906SOL    HW126351   2.680   4.071  17.112  1.4558 -2.1395 -1.1130
 4906SOL    HW226352   2.831   4.083  17.152  1.0268 -0.2087 -1.8503
 4907SOL     OW26353   1.664   2.445   5.782  0.6614  0.3028 -0.0274
 4907SOL    HW126354   1.688   2.535   5.800  1.7517 -0.0943  0.5049
 4907SOL    HW226355   1.709   2.432   5.699  1.7812 -0.1668  0.6437
 4908SOL     OW26356   2.085   0.297   5.844 -0.1336 -0.1739  0.2474
 4908SOL    HW126357   2.034   0.238   5.898 -1.7460  1.1922  0.2220
 4908SOL    HW226358   2.025   0.371   5.839 -1.9059 -1.7951 -1.9813
 4909SOL     OW26359   0.280   2.632   9.144  0.0461  0.5703 -0.0759
 4909SOL    HW126360   0.274   2.722   9.113  0.6905  0.4403 -0.5808
 4909SOL    HW226361   0.370   2.632   9.176 -0.0906  0.8330  0.3147
 4910SOL     OW26362   4.351   0.347  12.320  0.2133  0.7716 -0.2348
 4910SOL    HW126363   4.332   0.262  12.282  1.5926  1.1460 -1.7673
 4910SOL    HW226364   4.363   0.398  12.240  0.5603 -1.0575 -1.3396
 4911SOL     OW26365   0.167   3.717   4.303 -0.2838 -0.3036  0.2833
 4911SOL    HW126366   0.096   3.702   4.241  0.8647 -2.4599 -0.5056
 4911SOL    HW226367   0.237   3.688   4.244 -1.6047 -0.2206 -1.3128
 4912SOL     OW26368   4.170   1.494   0.861  0.0738  0.0634 -0.1920
 4912SOL    HW126369   4.080   1.521   0.880  0.7673  2.2802 -0.0526
 4912SOL    HW226370   4.205   1.535   0.940  0.0743 -2.6142  1.1911
 4913SOL     OW26371   4.616   3.504   0.623  0.2318 -0.0919 -0.0917
 4913SOL    HW126372   4.563   3.571   0.581  0.1506  0.1506  0.4015
 4913SOL    HW226373   4.654   3.453   0.551 -0.7531  0.4896 -1.0144
 4914SOL     OW26374   2.360   0.231   4.850 -0.3439  0.6161 -0.0071
 4914SOL    HW126375   2.384   0.208   4.939  0.5871 -1.7023 -0.8821
 4914SOL    HW226376   2.431   0.295   4.843  0.9370 -0.9807 -1.5424
 4915SOL     OW26377   0.176   3.576   8.683 -0.0369 -0.0226 -0.6358
 4915SOL    HW126378   0.129   3.493   8.680  3.3604 -1.9680  0.6182
 4915SOL    HW226379   0.158   3.596   8.591 -0.3273 -1.3418 -0.8716
 4916SOL     OW26380   0.346   3.479   5.137  0.0164 -0.2009 -0.2921
 4916SOL    HW126381   0.277   3.461   5.202  2.0097  2.0311  2.4539
 4916SOL    HW226382   0.405   3.404   5.144 -1.0256 -1.0681 -0.6984
 4917SOL     OW26383   4.018   1.202   6.008  0.0319 -0.2989  0.0246
 4917SOL    HW126384   4.097   1.167   6.050  2.0923  1.4577 -2.3715
 4917SOL    HW226385   4.023   1.161   5.922  0.9151 -2.2341  0.9853
 4918SOL     OW26386   3.490   1.612   2.963 -0.5288 -0.1361 -0.6727
 4918SOL    HW126387   3.488   1.611   3.058 -0.9578  1.0827 -0.6730
 4918SOL    HW226388   3.463   1.523   2.938  1.6797 -0.5726 -1.5486
 4919SOL     OW26389   3.887   0.275  10.999 -0.4748  0.0569  0.1427
 4919SOL    HW126390   3.889   0.179  10.995 -1.1660  0.0364  0.2697
 4919SOL    HW226391   3.893   0.295  10.905  0.7537  1.3548  0.5006
 4920SOL     OW26392   1.207   3.524   6.504 -0.1613  0.0676  0.1840
 4920SOL    HW126393   1.267   3.459   6.467  0.5561  0.6913  0.2440
 4920SOL    HW226394   1.123   3.478   6.507 -0.2431  0.2726  0.9452
 4921SOL     OW26395   2.738   4.080  17.453 -0.8215  0.0230 -0.1883
 4921SOL    HW126396   2.663   4.123  17.411  1.0181  1.6929 -1.7514
 4921SOL    HW226397   2.752   4.014  17.385 -1.1170  1.9929 -2.1845
 4922SOL     OW26398   2.530   2.401   8.905 -0.2524 -0.0701  0.1914
 4922SOL    HW126399   2.576   2.404   8.989 -1.3931  0.0125  0.8134
 4922SOL    HW226400   2.436   2.390   8.919 -0.2309  0.7746  1.0185
 4923SOL     OW26401   2.738   2.130   4.213  0.4789 -0.1366 -0.0538
 4923SOL    HW126402   2.686   2.058   4.176  1.0351 -0.1396 -0.8146
 4923SOL    HW226403   2.793   2.078   4.272 -0.5586  1.4013  2.2686
 4924SOL     OW26404   0.140   2.477  15.371  0.2933 -0.2011  0.1612
 4924SOL    HW126405   0.102   2.492  15.284 -0.3493  0.3500  0.5437
 4924SOL    HW226406   0.175   2.387  15.369 -0.6940 -0.5810  0.3752
 4925SOL     OW26407   2.952   3.782   8.410  0.4183 -0.0059  0.2657
 4925SOL    HW126408   2.873   3.790   8.463 -1.0097 -0.2893 -1.8357
 4925SOL    HW226409   2.964   3.690   8.432 -0.5272  0.2780  1.9980
 4926SOL     OW26410   2.742   4.040   2.255 -0.7745 -0.2260 -0.2993
 4926SOL    HW126411   2.770   4.131   2.260 -1.4642 -0.0741  0.8493
 4926SOL    HW226412   2.814   3.993   2.297 -0.4648  1.3980  0.9988
 4927SOL     OW26413   4.329   2.302   5.183  0.7555 -0.3134 -0.2399
 4927SOL    HW126414   4.349   2.369   5.118  0.5213 -0.5905 -0.5922
 4927SOL    HW226415   4.313   2.235   5.117  1.8487 -1.5854  0.7927
 4928SOL     OW26416   4.485   1.743  10.119 -0.3081 -0.0087 -0.1318
 4928SOL    HW126417   4.462   1.673  10.180 -0.9746 -1.4823 -2.0753
 4928SOL    HW226418   4.549   1.687  10.074  1.4414  1.6377  0.3373
 4929SOL     OW26419   4.415   2.823   7.869  0.5417 -0.0763 -0.6253
 4929SOL    HW126420   4.508   2.835   7.850  0.2016  1.0379 -1.5730
 4929SOL    HW226421   4.416   2.789   7.958 -1.7460  0.8728 -0.2346
 4930SOL     OW26422   2.007   2.272  16.462  0.2977 -0.0920 -0.1560
 4930SOL    HW126423   2.033   2.334  16.394 -4.1017  1.6342 -0.2695
 4930SOL    HW226424   2.079   2.281  16.525 -0.4867  0.9794  0.5819
 4931SOL     OW26425   0.862   0.595   4.352  0.0365 -0.2168 -0.5233
 4931SOL    HW126426   0.840   0.582   4.444  0.7619 -0.9220 -0.4546
 4931SOL    HW226427   0.813   0.519   4.319 -0.7622  0.3305 -0.6118
 4932SOL     OW26428   0.421   3.525   3.384 -0.1553  0.7599  0.2893
 4932SOL    HW126429   0.330   3.507   3.361  0.0526 -0.6479  0.5838
 4932SOL    HW226430   0.444   3.595   3.322 -0.9123  0.9957  0.2757
 4933SOL     OW26431   0.787   1.874   0.118 -0.2251 -0.4003 -0.2401
 4933SOL    HW126432   0.729   1.950   0.128 -1.3463 -1.0318 -1.8457
 4933SOL    HW226433   0.751   1.856   0.031  1.3960  0.0894 -1.0131
 4934SOL     OW26434   2.625   3.951   7.477  0.1014 -0.5046  0.1271
 4934SOL    HW126435   2.638   4.046   7.481 -1.5935 -0.3101  0.9405
 4934SOL    HW226436   2.531   3.941   7.468  0.1068 -0.5261  0.0935
 4935SOL     OW26437   2.192   2.025   8.437  0.5170  0.6798  0.4003
 4935SOL    HW126438   2.241   1.956   8.481 -2.2214 -2.4921 -1.5134
 4935SOL    HW226439   2.259   2.081   8.399  1.3321 -0.0520  0.7532
 4936SOL     OW26440   2.303   0.800  17.475 -0.1342  0.4357 -0.2040
 4936SOL    HW126441   2.393   0.833  17.474 -1.1228  3.2105  2.7055
 4936SOL    HW226442   2.288   0.772  17.565  2.4479 -1.0445 -0.2357
 4937SOL     OW26443   0.525   0.437   4.529 -0.3158 -0.4955  0.2604
 4937SOL    HW126444   0.518   0.498   4.455 -0.7549 -0.5597  0.2499
 4937SOL    HW226445   0.493   0.495   4.598 -1.1344 -0.8086  0.1458
 4938SOL     OW26446   0.009   1.622   5.654  0.5090 -0.1274 -0.1164
 4938SOL    HW126447   4.693   1.600   5.576  0.2639  1.4974 -0.4201
 4938SOL    HW226448   0.051   1.698   5.615  0.7577 -0.2790 -0.1470
 4939SOL     OW26449   2.412   3.524   3.389  0.4159 -0.3926  0.2461
 4939SOL    HW126450   2.386   3.491   3.475  0.2677  1.9707  1.1167
 4939SOL    HW226451   2.451   3.610   3.403 -1.1830  0.7797 -2.5245
 4940SOL     OW26452   3.889   4.481   6.344  0.1199  0.3363  0.7031
 4940SOL    HW126453   3.942   4.507   6.418 -0.1506  1.5209  0.4713
 4940SOL    HW226454   3.820   4.547   6.347  0.8798  1.1401  0.2651
 4941SOL     OW26455   2.915   1.280   3.131 -0.0969 -0.0373  0.1853
 4941SOL    HW126456   3.006   1.259   3.152 -0.7053 -0.9094  1.9513
 4941SOL    HW226457   2.882   1.190   3.125  1.8114 -0.6585 -0.9836
 4942SOL     OW26458   4.658   2.612   4.932 -0.4901  0.2813 -0.6062
 4942SOL    HW126459   4.735   2.571   4.971 -1.0079  0.5400  0.6771
 4942SOL    HW226460   4.708   2.657   4.863  0.8606  0.8319  0.7460
 4943SOL     OW26461   0.487   0.890   4.837 -1.1879  0.0987 -0.0984
 4943SOL    HW126462   0.532   0.854   4.913  0.7602  0.5704 -1.0326
 4943SOL    HW226463   0.557   0.932   4.787 -1.2188 -0.9169 -1.0039
 4944SOL     OW26464   0.121   1.906   5.572  0.1296 -0.1908 -0.2484
 4944SOL    HW126465   0.107   1.991   5.528  0.9446  0.9853  1.7623
 4944SOL    HW226466   0.217   1.908   5.575  0.1591 -1.8930 -0.3889
 4945SOL     OW26467   1.711   0.246   8.950  0.0263 -0.0060  0.4158
 4945SOL    HW126468   1.696   0.322   9.006  0.7009 -0.7965  1.6671
 4945SOL    HW226469   1.641   0.185   8.972 -0.2072  0.6642  1.5167
 4946SOL     OW26470   0.008   4.392   4.292 -0.0533 -0.2692  0.6728
 4946SOL    HW126471   4.697   4.474   4.306  0.0836 -0.0632 -0.0752
 4946SOL    HW226472   0.069   4.417   4.223 -1.8724 -0.6628 -1.0790
 4947SOL     OW26473   2.866   0.824  15.224 -0.2922  0.1885  0.2520
 4947SOL    HW126474   2.779   0.848  15.193 -1.0012  0.1011  2.1756
 4947SOL    HW226475   2.877   0.743  15.174 -0.3403  2.2661 -3.0662
 4948SOL     OW26476   2.414   1.204   2.459  0.2818 -0.1944  0.0499
 4948SOL    HW126477   2.399   1.113   2.483 -0.9611  0.2025  0.8110
 4948SOL    HW226478   2.508   1.210   2.473  0.2329  2.1765 -0.5382
 4949SOL     OW26479   3.782   2.813   5.280 -0.0405 -0.5596 -0.5140
 4949SOL    HW126480   3.724   2.871   5.231 -0.7852 -1.1818 -0.3632
 4949SOL    HW226481   3.775   2.728   5.237 -0.7615 -0.9499  0.4035
 4950SOL     OW26482   1.560   0.275   4.181  0.4250  0.0101 -0.3756
 4950SOL    HW126483   1.553   0.186   4.145 -1.5850 -0.2049  0.5185
 4950SOL    HW226484   1.479   0.315   4.150  0.3013  1.0217  1.2704
 4951SOL     OW26485   1.215   0.350   8.491  0.7874 -0.3162 -0.3801
 4951SOL    HW126486   1.256   0.352   8.405 -0.6087  1.5370 -1.0044
 4951SOL    HW226487   1.294   0.337   8.544  0.0433 -0.4143  0.7146
 4952SOL     OW26488   3.580   0.817   7.468  0.2386 -0.8453  0.0572
 4952SOL    HW126489   3.624   0.875   7.405 -1.2743  2.2821  1.8693
 4952SOL    HW226490   3.648   0.750   7.474  0.8437 -0.1571  0.7720
 4953SOL     OW26491   2.319   2.657   8.956 -0.1028  0.6762  0.2063
 4953SOL    HW126492   2.316   2.570   8.917 -3.1775  0.5821  0.6112
 4953SOL    HW226493   2.258   2.628   9.023  0.6494  0.1379  0.6529
 4954SOL     OW26494   0.542   3.810   2.275  0.3534 -0.0758  0.3073
 4954SOL    HW126495   0.610   3.768   2.327  1.7271  3.2810  1.2472
 4954SOL    HW226496   0.514   3.872   2.342  0.5735  1.2620 -0.8271
 4955SOL     OW26497   3.692   0.808   4.328 -0.2628  0.5025 -0.7950
 4955SOL    HW126498   3.703   0.738   4.393  1.3086 -0.6361 -2.2806
 4955SOL    HW226499   3.646   0.755   4.264 -1.7204  2.0243 -1.0138
 4956SOL     OW26500   1.414   4.093   9.222 -0.0170 -0.6016 -0.2396
 4956SOL    HW126501   1.413   4.085   9.126 -1.3783  1.3847 -0.3691
 4956SOL    HW226502   1.384   4.009   9.258  0.2318 -1.3503 -1.7492
 4957SOL     OW26503   2.663   0.137  12.068  0.1330 -0.0721  0.2431
 4957SOL    HW126504   2.568   0.140  12.079  0.0666  0.2735 -0.4162
 4957SOL    HW226505   2.683   0.230  12.059 -0.9409  0.3947  2.6103
 4958SOL     OW26506   0.163   2.564   7.014  0.9274  0.0964 -0.0050
 4958SOL    HW126507   0.177   2.646   7.062  2.2327  0.8956 -1.7400
 4958SOL    HW226508   0.252   2.538   6.991  0.5725 -0.7036 -0.4677
 4959SOL     OW26509   3.033   1.450  10.539  0.1921  0.4680 -0.6133
 4959SOL    HW126510   2.977   1.390  10.488 -1.1472  0.6167  0.6744
 4959SOL    HW226511   2.992   1.439  10.625  0.6044 -2.1569 -0.7402
 4960SOL     OW26512   0.900   4.580   1.152 -0.9267  0.2257  0.0726
 4960SOL    HW126513   0.830   4.641   1.130  0.8968  1.6767 -1.7079
 4960SOL    HW226514   0.851   4.544   1.226 -1.6810  0.2682 -0.4064
 4961SOL     OW26515   3.636   2.391   8.716 -0.6225  0.1369 -0.1853
 4961SOL    HW126516   3.550   2.431   8.703 -0.5102 -0.3423 -2.3371
 4961SOL    HW226517   3.690   2.470   8.711 -2.2532  1.1546 -1.8023
 4962SOL     OW26518   1.687   3.802   6.786  0.0781 -0.2658  0.3841
 4962SOL    HW126519   1.609   3.778   6.836  0.5528 -0.8270  0.8669
 4962SOL    HW226520   1.670   3.891   6.757  1.9236  0.4694  1.5065
 4963SOL     OW26521   2.941   0.002   7.764 -0.2200  0.3053 -0.6022
 4963SOL    HW126522   2.888   0.081   7.773 -0.5336 -0.1981  1.8461
 4963SOL    HW226523   2.895   4.691   7.693  1.4213  0.1948 -1.5824
 4964SOL     OW26524   0.475   3.931  12.217  0.4643 -0.1686 -0.1506
 4964SOL    HW126525   0.381   3.949  12.222  0.4161 -1.1326  2.2603
 4964SOL    HW226526   0.513   3.994  12.278  0.7538 -0.5832  0.0903
 4965SOL     OW26527   2.205   2.704   7.772 -0.0155 -0.4437 -0.0700
 4965SOL    HW126528   2.298   2.699   7.793  0.6711 -0.1516 -3.1641
 4965SOL    HW226529   2.196   2.796   7.747  2.4765 -0.4242 -0.8752
 4966SOL     OW26530   4.685   4.555  11.884  0.2405  0.2706  0.0534
 4966SOL    HW126531   0.015   4.516  11.941 -0.8579 -2.5694 -0.5840
 4966SOL    HW226532   4.645   4.473  11.855  1.2826 -1.1065  2.5188
 4967SOL     OW26533   0.492   3.010   0.432  0.3754 -0.0630 -0.4545
 4967SOL    HW126534   0.580   2.982   0.406  0.1475 -1.5166  0.3659
 4967SOL    HW226535   0.506   3.038   0.522  0.1587 -1.3474 -0.0297
 4968SOL     OW26536   3.792   1.212   9.022  0.2369 -0.0246  0.5068
 4968SOL    HW126537   3.809   1.185   8.932 -3.3247 -0.1881 -0.1329
 4968SOL    HW226538   3.724   1.278   9.006  1.6274  0.9637 -1.2364
 4969SOL     OW26539   1.753   1.701   9.353  1.1063  0.0053 -0.3497
 4969SOL    HW126540   1.809   1.727   9.426 -0.5905  1.4803  0.4346
 4969SOL    HW226541   1.758   1.780   9.299 -2.1264  0.9578  0.7550
 4970SOL     OW26542   1.849   1.501  10.776 -0.4148  0.6056 -0.6877
 4970SOL    HW126543   1.927   1.510  10.722 -0.6390  0.5850 -1.0186
 4970SOL    HW226544   1.883   1.444  10.844 -0.8950 -2.5800 -3.0839
 4971SOL     OW26545   1.107   1.793   7.536  0.5594  0.4180  0.0314
 4971SOL    HW126546   1.139   1.795   7.446  0.4060 -1.0134 -0.0635
 4971SOL    HW226547   1.166   1.734   7.584  0.1709 -0.7125 -0.8553
 4972SOL     OW26548   2.660   0.981   9.633 -0.2409 -0.1703  0.0593
 4972SOL    HW126549   2.573   0.972   9.595 -1.7755  2.2242  3.0160
 4972SOL    HW226550   2.645   0.923   9.707  2.2995  0.7022  1.2678
 4973SOL     OW26551   1.510   1.180   1.990 -0.5766  0.4284  0.4544
 4973SOL    HW126552   1.478   1.128   1.917  0.1815  1.8826 -0.9149
 4973SOL    HW226553   1.432   1.234   2.004 -1.6971 -0.6349 -1.7013
 4974SOL     OW26554   3.375   0.419   3.766 -0.4201  0.0642 -1.1920
 4974SOL    HW126555   3.381   0.457   3.678 -0.0378 -0.0816 -1.2301
 4974SOL    HW226556   3.312   0.482   3.801 -0.6138 -0.9780  0.3622
 4975SOL     OW26557   1.915   2.840  16.531  0.2616 -0.1864  0.4118
 4975SOL    HW126558   1.895   2.799  16.615 -1.2383 -0.2716  0.0062
 4975SOL    HW226559   1.958   2.919  16.563  2.0286 -1.2644  0.6955
 4976SOL     OW26560   3.360   1.480   9.784 -0.5167 -0.6574 -0.2331
 4976SOL    HW126561   3.406   1.407   9.743  0.0339 -0.1040 -0.5924
 4976SOL    HW226562   3.433   1.530   9.820 -1.0991 -1.1101  1.5446
 4977SOL     OW26563   4.100   0.461   7.263 -0.0936  0.7162  0.1412
 4977SOL    HW126564   4.194   0.441   7.263 -0.7229 -2.2869 -1.8935
 4977SOL    HW226565   4.089   0.473   7.168  0.5860  0.9822  0.0967
 4978SOL     OW26566   4.361   2.972   9.766 -0.2709  0.1721  0.5807
 4978SOL    HW126567   4.397   2.884   9.769 -1.0289 -0.0773  2.2328
 4978SOL    HW226568   4.429   3.016   9.816  0.4509 -1.2181  0.8236
 4979SOL     OW26569   2.364   1.909   4.255 -0.2469  0.1968 -0.1386
 4979SOL    HW126570   2.292   1.971   4.265 -0.4951 -0.0206 -0.5802
 4979SOL    HW226571   2.324   1.830   4.219 -2.3511  1.6388 -0.9541
 4980SOL     OW26572   0.226   0.286   9.620  0.0991 -0.0523 -0.1819
 4980SOL    HW126573   0.274   0.292   9.703 -1.9460 -0.2381  1.0177
 4980SOL    HW226574   0.158   0.222   9.643 -0.8735  0.5236 -1.4352
 4981SOL     OW26575   2.777   1.692   9.644 -0.0255 -0.0032 -0.3035
 4981SOL    HW126576   2.746   1.621   9.700 -1.2633  0.2239 -0.7065
 4981SOL    HW226577   2.698   1.743   9.623  0.6233  1.4057  0.6383
 4982SOL     OW26578   4.192   0.709   5.416  0.4219  0.1163 -0.1198
 4982SOL    HW126579   4.269   0.710   5.359 -0.4584 -3.3975 -1.3568
 4982SOL    HW226580   4.122   0.748   5.363  0.9038  1.8252  0.4883
 4983SOL     OW26581   2.391   4.675   7.214 -0.0662  0.3500  0.0489
 4983SOL    HW126582   2.406   4.581   7.199  0.3490  0.3885  0.2360
 4983SOL    HW226583   2.448   4.723   7.154  2.2533 -0.5346  1.5833
 4984SOL     OW26584   0.514   2.270   4.542 -0.0040  0.0413 -0.3759
 4984SOL    HW126585   0.476   2.182   4.543 -0.3860  0.2086  0.2601
 4984SOL    HW226586   0.505   2.309   4.629  2.2604 -0.0072 -0.1306
 4985SOL     OW26587   0.568   4.728  13.910  0.2434  0.0401  0.4276
 4985SOL    HW126588   0.535   0.009  13.822  1.7068 -2.9912 -0.6938
 4985SOL    HW226589   0.659   4.708  13.889 -0.2564 -1.1645 -0.6163
 4986SOL     OW26590   3.170   1.958  10.186  0.2209  0.0193  0.0422
 4986SOL    HW126591   3.188   1.880  10.239 -0.5720 -0.9794 -1.1512
 4986SOL    HW226592   3.228   1.960  10.111 -2.4525 -4.3722 -2.1557
 4987SOL     OW26593   1.882   3.124   4.809  0.7870  0.0649  0.3501
 4987SOL    HW126594   1.939   3.052   4.836  1.4581 -0.3559 -2.1577
 4987SOL    HW226595   1.947   3.163   4.750  1.6851 -1.9058  0.0294
 4988SOL     OW26596   0.472   2.754   6.038  0.1179  0.5613  0.1739
 4988SOL    HW126597   0.447   2.664   6.056  0.9310  0.1955 -0.5721
 4988SOL    HW226598   0.427   2.785   6.117 -1.1556 -0.4607 -0.1510
 4989SOL     OW26599   0.275   2.899   9.123  0.3710 -0.4394 -0.3559
 4989SOL    HW126600   0.229   2.930   9.201 -0.6036 -1.1176 -0.6463
 4989SOL    HW226601   0.214   2.932   9.057  1.8668  1.7196 -0.6175
 4990SOL     OW26602   4.484   3.716  11.876  0.1520  0.9706 -0.1389
 4990SOL    HW126603   4.545   3.746  11.943 -0.0500 -0.0901  0.5136
 4990SOL    HW226604   4.450   3.642  11.927 -0.0100  0.8102 -0.4841
 4991SOL     OW26605   3.573   4.586   7.056 -0.1082  0.0004 -0.1536
 4991SOL    HW126606   3.618   4.628   6.983 -1.6130 -0.8205 -1.5439
 4991SOL    HW226607   3.501   4.641   7.087 -3.8298 -3.5943 -2.5790
 4992SOL     OW26608   2.143   2.703   6.702 -0.2303  0.0073  0.2142
 4992SOL    HW126609   2.159   2.644   6.775  1.2898  1.6308  1.1974
 4992SOL    HW226610   2.065   2.663   6.665 -0.0185 -0.5621  0.3906
 4993SOL     OW26611   1.750   2.400  16.511  0.6434  0.3443  0.3114
 4993SOL    HW126612   1.710   2.342  16.577 -0.5823 -0.5431 -1.2133
 4993SOL    HW226613   1.824   2.342  16.494  0.4502  0.6690 -1.5737
 4994SOL     OW26614   2.475   0.230  12.501 -0.6236 -0.1372  0.0431
 4994SOL    HW126615   2.409   0.234  12.571 -0.9925  3.8908 -0.5386
 4994SOL    HW226616   2.425   0.172  12.445 -1.7985 -1.5232  2.5337
 4995SOL     OW26617   4.042   1.992   5.264  0.3398  0.2202  0.3262
 4995SOL    HW126618   3.979   2.025   5.200  0.5019  1.6749  0.9302
 4995SOL    HW226619   3.988   1.962   5.338  1.6923  1.4433  1.8183
 4996SOL     OW26620   3.710   4.035   7.225  0.6497  0.1287  0.2690
 4996SOL    HW126621   3.773   4.079   7.168  2.0705 -0.9818  0.9873
 4996SOL    HW226622   3.664   4.100   7.279  1.3045  0.0683  0.8896
 4997SOL     OW26623   3.849   2.332  13.655 -0.6949  0.0770  0.3618
 4997SOL    HW126624   3.914   2.402  13.660 -1.5383  0.7788  1.6470
 4997SOL    HW226625   3.842   2.318  13.561 -0.7151  2.6526 -0.0350
 4998SOL     OW26626   0.173   3.860   6.370  0.6834  0.0267 -0.0671
 4998SOL    HW126627   0.161   3.949   6.402 -1.3003 -0.1303 -0.3912
 4998SOL    HW226628   0.186   3.870   6.276  0.6201 -3.9932 -0.5108
 4999SOL     OW26629   4.007   2.313  10.347 -0.6130  0.4212 -0.2766
 4999SOL    HW126630   4.043   2.231  10.313 -0.0994 -0.5247  2.5198
 4999SOL    HW226631   3.914   2.294  10.354 -0.5192 -0.3098 -1.0456
 5000SOL     OW26632   2.803   1.328   6.435 -0.8058  1.0196  0.0349
 5000SOL    HW126633   2.819   1.376   6.516  1.7395 -1.1876  0.8649
 5000SOL    HW226634   2.814   1.397   6.370  0.7335  0.8927  0.1432
 5001SOL     OW26635   2.035   3.870   9.050  0.1343  0.4060  0.3700
 5001SOL    HW126636   1.947   3.872   9.013  0.2848 -0.8571 -0.0710
 5001SOL    HW226637   2.030   3.786   9.096  1.3968 -0.1570 -0.5089
 5002SOL     OW26638   2.163   1.931  14.723  0.4484 -0.7607 -0.6637
 5002SOL    HW126639   2.256   1.918  14.706  0.6865 -0.1193  0.1720
 5002SOL    HW226640   2.176   2.019  14.758  2.2403 -0.8148 -1.1928
 5003SOL     OW26641   3.984   0.559   9.232  0.5247 -0.0918  0.3339
 5003SOL    HW126642   4.014   0.470   9.213 -3.3473 -1.2359 -0.4932
 5003SOL    HW226643   4.052   0.617   9.198  0.4127 -0.9183 -1.3164
 5004SOL     OW26644   2.906   4.125   1.537  0.8893 -0.0770 -0.1770
 5004SOL    HW126645   3.001   4.133   1.533  1.0954 -2.1018  0.6610
 5004SOL    HW226646   2.903   4.035   1.571  0.4079  0.0383  0.0898
 5005SOL     OW26647   0.662   2.107  14.197 -0.1395 -0.0178 -0.0384
 5005SOL    HW126648   0.739   2.095  14.253 -0.5162  0.6933  0.6458
 5005SOL    HW226649   0.615   2.149  14.269 -0.7491 -1.7209  0.5663
 5006SOL     OW26650   3.964   3.892   5.387  0.6145 -0.0485  0.6218
 5006SOL    HW126651   3.948   3.877   5.294 -0.3974  2.8141  0.3205
 5006SOL    HW226652   3.990   3.984   5.379 -0.2762  0.3468  2.2342
 5007SOL     OW26653   4.457   4.430  15.039  0.2988 -0.1631  0.0312
 5007SOL    HW126654   4.364   4.424  15.061 -0.0661 -1.1683 -1.7794
 5007SOL    HW226655   4.460   4.355  14.979 -1.3965 -0.3184  0.1305
 5008SOL     OW26656   2.555   4.362   5.067  0.5213 -0.2480 -0.2152
 5008SOL    HW126657   2.504   4.295   5.111 -0.3477  1.3153  1.1781
 5008SOL    HW226658   2.492   4.397   5.003 -0.0219 -0.2096  0.3446
 5009SOL     OW26659   2.208   0.008   9.745 -0.2264  0.2033  0.3465
 5009SOL    HW126660   2.279   4.681   9.754 -1.5132 -1.1796  0.7109
 5009SOL    HW226661   2.256   0.078   9.700  3.3581 -1.2310  1.9377
 5010SOL     OW26662   1.315   0.472   5.562 -0.0776 -0.3947  0.8113
 5010SOL    HW126663   1.322   0.387   5.605 -1.2183 -1.6949 -1.5713
 5010SOL    HW226664   1.354   0.526   5.631 -0.9809  0.5317  0.6107
 5011SOL     OW26665   1.438   4.140   3.468  0.3760  0.1263  0.4173
 5011SOL    HW126666   1.454   4.233   3.486 -0.5969  0.8240 -2.2760
 5011SOL    HW226667   1.466   4.091   3.545  1.8143  0.6017  0.1961
 5012SOL     OW26668   2.354   4.648  17.212 -0.0993 -0.2804 -1.1302
 5012SOL    HW126669   2.348   0.002  17.246 -4.3287 -1.0262  0.1085
 5012SOL    HW226670   2.385   4.659  17.122  0.1135  0.9452 -0.9071
 5013SOL     OW26671   2.044   0.374   7.975 -0.3674  0.0176 -0.1906
 5013SOL    HW126672   2.002   0.306   8.027  2.4739  0.2259  2.4283
 5013SOL    HW226673   2.075   0.436   8.042  2.0582  0.7533 -1.9946
 5014SOL     OW26674   0.509   4.708  17.167 -0.0471 -0.2671  0.8084
 5014SOL    HW126675   0.484   4.661  17.088  0.1099  0.7613  0.1365
 5014SOL    HW226676   0.576   0.030  17.131 -1.6760  0.6306 -0.7509
 5015SOL     OW26677   4.702   2.338   8.542  1.1734  0.0395  0.0575
 5015SOL    HW126678   4.627   2.398   8.546 -0.9125 -2.5604 -0.0085
 5015SOL    HW226679   4.687   2.288   8.462  0.2567  0.4350 -0.0287
 5016SOL     OW26680   3.320   1.533   9.313  0.7479  0.1381  1.0933
 5016SOL    HW126681   3.408   1.500   9.331  1.5526  2.3061  1.1070
 5016SOL    HW226682   3.265   1.455   9.326  1.0958 -0.4817 -1.1285
 5017SOL     OW26683   0.684   1.058   3.192 -0.4851 -0.5838 -0.2388
 5017SOL    HW126684   0.595   1.095   3.193 -0.7247 -1.1238 -2.0598
 5017SOL    HW226685   0.708   1.081   3.281 -2.2267 -1.1786  0.3887
 5018SOL     OW26686   2.105   0.206   7.539  0.0517  0.2978  0.4027
 5018SOL    HW126687   2.191   0.234   7.507  0.6393 -2.3285 -0.3349
 5018SOL    HW226688   2.123   0.160   7.621  0.1774 -0.9715 -0.3260
 5019SOL     OW26689   3.777   4.653   6.008  0.2425 -0.2542  0.0826
 5019SOL    HW126690   3.778   4.723   5.943 -0.4798  1.1595  1.5997
 5019SOL    HW226691   3.759   4.698   6.090 -1.7077 -1.4166  0.2806
 5020SOL     OW26692   1.872   3.280   5.698 -0.4800 -0.0050 -0.0310
 5020SOL    HW126693   1.874   3.373   5.674  0.6484 -0.2773 -1.0007
 5020SOL    HW226694   1.781   3.272   5.727 -0.7006  0.9831 -0.4525
 5021SOL     OW26695   1.361   0.783  12.032 -0.4368  0.4241 -0.0871
 5021SOL    HW126696   1.449   0.789  11.995  0.5518  2.8663  2.5944
 5021SOL    HW226697   1.311   0.730  11.971  2.5449 -1.8565 -0.5565
 5022SOL     OW26698   0.196   2.391   8.423 -0.2228  0.2106  0.0343
 5022SOL    HW126699   0.121   2.379   8.481 -0.9733  1.1455 -0.7276
 5022SOL    HW226700   0.249   2.318   8.452 -0.6860  0.4396  1.4762
 5023SOL     OW26701   1.320   1.125   9.086 -0.1446 -0.2811  0.2822
 5023SOL    HW126702   1.402   1.174   9.080 -0.8274  1.0171  1.7177
 5023SOL    HW226703   1.260   1.194   9.112 -0.3074  0.2478 -1.4919
 5024SOL     OW26704   2.015   1.960   7.493  0.0985  0.0312 -0.0482
 5024SOL    HW126705   2.091   1.945   7.436  0.1261  1.8219 -0.4943
 5024SOL    HW226706   2.042   1.914   7.572  0.0712  1.2141  0.6486
 5025SOL     OW26707   2.845   3.646   8.082 -0.0038 -0.3961  0.1353
 5025SOL    HW126708   2.887   3.560   8.087 -1.4552 -1.1565 -0.9177
 5025SOL    HW226709   2.762   3.636   8.128 -0.4094  0.9637 -0.3036
 5026SOL     OW26710   1.412   1.465  10.137  0.2495 -0.5175 -0.4150
 5026SOL    HW126711   1.322   1.468  10.167  1.3062 -0.0308  2.7014
 5026SOL    HW226712   1.449   1.531  10.196 -1.3420 -0.2661  0.3008
 5027SOL     OW26713   0.668   4.285   4.802 -0.0358 -0.1956 -0.0071
 5027SOL    HW126714   0.648   4.294   4.709 -2.6531  2.1675  0.7719
 5027SOL    HW226715   0.660   4.190   4.814 -1.1670 -0.0745  0.1921
 5028SOL     OW26716   0.227   3.301   6.690 -0.1055 -0.6619  0.0685
 5028SOL    HW126717   0.178   3.268   6.765 -2.9972  1.8157 -0.7079
 5028SOL    HW226718   0.189   3.254   6.616  1.1063 -0.0456 -0.9422
 5029SOL     OW26719   1.388   0.178   6.366  0.1083  0.1774  0.3712
 5029SOL    HW126720   1.363   0.270   6.363 -0.1008  0.1262  0.4982
 5029SOL    HW226721   1.449   0.172   6.440  2.5266 -1.6929 -1.7492
 5030SOL     OW26722   3.680   0.000   9.321 -0.0022 -0.2602  0.0525
 5030SOL    HW126723   3.602   4.681   9.328  1.8074 -2.8595 -0.6137
 5030SOL    HW226724   3.736   4.686   9.380  0.4337 -0.0752 -0.2100
 5031SOL     OW26725   0.811   0.599   6.106  0.3822  0.1617  0.2433
 5031SOL    HW126726   0.862   0.679   6.094 -0.1135  0.2715 -1.2170
 5031SOL    HW226727   0.883   0.542   6.079  2.1681  2.9909 -0.9833
 5032SOL     OW26728   3.748   4.733   8.695 -0.4648 -0.0941  0.1093
 5032SOL    HW126729   3.768   4.640   8.688 -0.6462 -0.0867 -0.4416
 5032SOL    HW226730   3.680   0.005   8.762 -0.9588  1.5104 -0.5951
 5033SOL     OW26731   0.035   2.428  17.423 -0.6672  0.1138  0.0465
 5033SOL    HW126732   0.111   2.480  17.397 -2.1342  3.9778  3.6353
 5033SOL    HW226733   0.086   2.356  17.461 -0.1032  2.4112  3.6052
 5034SOL     OW26734   1.918   1.071   3.799  0.0054  0.2329  0.2550
 5034SOL    HW126735   1.888   0.985   3.827 -0.8313  0.4603  0.0468
 5034SOL    HW226736   1.839   1.124   3.811  0.4432  0.6047  1.5055
 5035SOL     OW26737   2.322   0.178  10.608  0.3078  0.3756  0.0035
 5035SOL    HW126738   2.379   0.103  10.591  0.2207  0.6842 -1.6278
 5035SOL    HW226739   2.301   0.209  10.520  1.7809  2.1326  0.2610
 5036SOL     OW26740   2.421   0.016  16.040 -0.3150 -0.2999 -0.1797
 5036SOL    HW126741   2.504   0.060  16.022 -1.5131  2.4337  0.9254
 5036SOL    HW226742   2.421   4.672  15.988 -0.8912 -0.1440 -0.4259
 5037SOL     OW26743   1.807   2.752   2.405  0.0874  0.8149  0.2054
 5037SOL    HW126744   1.742   2.820   2.425 -2.8137 -1.6779 -0.7779
 5037SOL    HW226745   1.854   2.743   2.489 -0.1572  0.0191  0.2536
 5038SOL     OW26746   4.017   1.501   9.219 -0.1340 -0.2264 -0.3374
 5038SOL    HW126747   4.106   1.522   9.192  0.4202 -0.5238  1.2973
 5038SOL    HW226748   3.996   1.422   9.169 -2.3588  1.1288 -1.5966
 5039SOL     OW26749   0.650   3.777   2.626 -0.0441  0.4213 -0.5738
 5039SOL    HW126750   0.691   3.737   2.549 -1.4459  1.6747 -1.9721
 5039SOL    HW226751   0.659   3.870   2.608 -0.6951  0.3733 -1.1659
 5040SOL     OW26752   4.045   0.929   2.066 -0.4737 -0.4170  0.1496
 5040SOL    HW126753   4.073   0.984   2.140  0.9268  0.4026 -0.9796
 5040SOL    HW226754   4.091   0.971   1.993  0.8111 -2.6067 -0.3151
 5041SOL     OW26755   2.005   1.462   4.965 -0.1344  0.1399 -0.0697
 5041SOL    HW126756   1.956   1.435   4.887 -1.7713  2.1851  0.2405
 5041SOL    HW226757   2.094   1.442   4.935 -0.6486 -1.0602 -0.8019
 5042SOL     OW26758   2.432   3.526  14.430 -0.4403 -0.1594  0.3077
 5042SOL    HW126759   2.420   3.482  14.346  0.8175  1.4925 -0.7210
 5042SOL    HW226760   2.426   3.447  14.484 -2.5400 -1.0783 -1.2492
 5043SOL     OW26761   2.290   1.075   3.431 -0.7369 -0.2777 -0.4694
 5043SOL    HW126762   2.302   1.017   3.506 -0.3720  1.4156  0.8001
 5043SOL    HW226763   2.194   1.073   3.433 -0.7077  0.4680  2.1503
 5044SOL     OW26764   3.237   1.596   6.203 -0.0797  0.0492 -0.1209
 5044SOL    HW126765   3.226   1.538   6.278  0.3137  0.1416  0.0052
 5044SOL    HW226766   3.178   1.666   6.231 -2.1142 -0.7912 -2.2466
 5045SOL     OW26767   2.204   4.125   4.298  0.3635 -0.1793  0.0861
 5045SOL    HW126768   2.193   4.031   4.307  0.3049 -0.0957  0.8943
 5045SOL    HW226769   2.274   4.132   4.364 -0.3279 -0.6487  0.8585
 5046SOL     OW26770   1.541   1.856   5.352 -0.0464  0.6844  0.0318
 5046SOL    HW126771   1.591   1.832   5.430  0.2268  0.2609 -0.2748
 5046SOL    HW226772   1.606   1.912   5.311  0.2972  0.4798  0.2964
 5047SOL     OW26773   3.972   0.563   3.947  0.1190  0.8481 -0.4292
 5047SOL    HW126774   4.056   0.607   3.962  0.4234 -0.4046  1.5236
 5047SOL    HW226775   4.006   0.475   3.930  1.8229  1.5709 -0.7435
 5048SOL     OW26776   4.395   0.876   9.220  0.3367  0.0619  0.4029
 5048SOL    HW126777   4.415   0.943   9.154  1.2297 -1.3503 -0.7497
 5048SOL    HW226778   4.444   0.803   9.185  0.4934  0.6598 -0.6293
 5049SOL     OW26779   0.150   1.906   6.934 -0.2127 -0.8254  0.4525
 5049SOL    HW126780   0.168   1.852   7.011 -0.4157 -1.1131  0.2971
 5049SOL    HW226781   0.209   1.979   6.953 -0.9098 -0.8244  2.6497
 5050SOL     OW26782   4.604   3.097  15.437 -0.0183  0.0017  0.0890
 5050SOL    HW126783   4.587   3.179  15.483 -1.2827  1.0866 -2.3172
 5050SOL    HW226784   4.626   3.048  15.517 -3.1079 -1.4586  0.0527
 5051SOL     OW26785   2.757   1.049   3.121  0.0363  0.3535 -0.0117
 5051SOL    HW126786   2.702   0.990   3.172  1.0094  0.5843  1.3125
 5051SOL    HW226787   2.719   1.060   3.034 -0.2780 -0.2419  0.0512
 5052SOL     OW26788   1.369   0.064   8.594  0.4808  0.2680  0.2414
 5052SOL    HW126789   1.309   4.725   8.596 -0.6456  1.2242  2.0125
 5052SOL    HW226790   1.444   0.034   8.542 -0.9216  0.7880 -2.0545
 5053SOL     OW26791   1.444   3.306  12.368  0.3304  0.4449 -0.5462
 5053SOL    HW126792   1.402   3.365  12.432  1.7053  1.2664 -0.4040
 5053SOL    HW226793   1.373   3.249  12.338  0.3550  0.8259 -1.3322
 5054SOL     OW26794   3.694   1.305  12.139  0.1228 -0.4612  0.1925
 5054SOL    HW126795   3.606   1.268  12.150  0.3056 -0.4645  1.5881
 5054SOL    HW226796   3.688   1.376  12.203  0.1146  0.5331 -0.9180
 5055SOL     OW26797   1.272   1.242  11.860 -0.0780 -0.3826  0.0162
 5055SOL    HW126798   1.328   1.273  11.788 -0.1442  2.1739  1.0418
 5055SOL    HW226799   1.316   1.289  11.931 -1.7774  2.9063 -1.1150
 5056SOL     OW26800   1.255   3.334   8.062 -0.2142 -0.3599  0.5523
 5056SOL    HW126801   1.230   3.425   8.045 -1.9436 -1.2065 -1.5557
 5056SOL    HW226802   1.348   3.335   8.042 -0.2919  0.4347  0.2529
 5057SOL     OW26803   3.437   4.103   5.682 -0.0469  0.5095 -0.4668
 5057SOL    HW126804   3.357   4.110   5.630 -0.5026  2.0700  0.4283
 5057SOL    HW226805   3.398   4.107   5.770 -1.1276 -0.8078 -0.8912
 5058SOL     OW26806   4.108   0.147   3.206 -0.2918 -0.2154 -0.3119
 5058SOL    HW126807   4.017   0.130   3.230  0.5968 -1.3983  2.2627
 5058SOL    HW226808   4.101   0.130   3.112 -1.2046  1.5681 -0.5703
 5059SOL     OW26809   4.449   1.345   6.814  0.4449 -0.5935  0.3712
 5059SOL    HW126810   4.523   1.389   6.774 -1.8388 -0.0102 -3.1732
 5059SOL    HW226811   4.381   1.372   6.753 -0.2033 -2.3681  0.3001
 5060SOL     OW26812   3.677   4.531  10.083  0.1621 -0.0804  0.0025
 5060SOL    HW126813   3.770   4.553  10.092 -0.1112  0.7738  0.7852
 5060SOL    HW226814   3.667   4.476  10.161  2.5473 -1.4170 -0.6356
 5061SOL     OW26815   3.970   1.664   3.100  0.3581  0.1603  0.7102
 5061SOL    HW126816   4.019   1.583   3.087  1.8067  0.9863  1.0013
 5061SOL    HW226817   3.898   1.657   3.037  0.2306 -1.1855  0.9973
 5062SOL     OW26818   3.659   0.468   3.574  0.2001 -1.0587  0.0581
 5062SOL    HW126819   3.744   0.452   3.613  0.6778 -2.5776 -1.6221
 5062SOL    HW226820   3.638   0.560   3.594  0.9211 -0.7365 -0.6674
 5063SOL     OW26821   1.698   1.242   3.813 -0.3132 -0.3559  0.1123
 5063SOL    HW126822   1.746   1.304   3.758 -0.7659  0.9012  1.1607
 5063SOL    HW226823   1.634   1.215   3.747 -0.6330 -1.4524  0.8628
 5064SOL     OW26824   1.054   0.987   2.340  0.2803 -1.0884 -0.5278
 5064SOL    HW126825   1.109   1.021   2.411  0.7102 -3.1062  0.1065
 5064SOL    HW226826   1.104   0.906   2.326  1.1905 -0.6132 -0.0305
 5065SOL     OW26827   2.601   2.744   3.998 -0.7072  0.0771 -0.3522
 5065SOL    HW126828   2.696   2.738   4.011 -1.1927 -2.0762  2.2317
 5065SOL    HW226829   2.583   2.655   4.028 -1.8488  0.2917 -0.4323
 5066SOL     OW26830   1.051   2.430   9.169  0.0262  0.3448 -0.0821
 5066SOL    HW126831   1.076   2.349   9.215 -1.3592 -0.0851 -0.0826
 5066SOL    HW226832   1.086   2.408   9.082 -0.8460 -3.4126  0.4817
 5067SOL     OW26833   1.451   2.642  17.532 -0.0211  0.0678 -0.1365
 5067SOL    HW126834   1.433   2.550  17.552  2.0474 -0.1793  0.5818
 5067SOL    HW226835   1.539   2.632  17.496 -0.3183 -1.8156 -0.3361
 5068SOL     OW26836   4.500   1.316  14.516  0.1106  0.1529  0.0306
 5068SOL    HW126837   4.484   1.411  14.513 -1.2026 -0.0142  2.0121
 5068SOL    HW226838   4.447   1.291  14.440  0.9400 -1.1042 -0.1258
 5069SOL     OW26839   3.899   3.077  10.009  0.5185 -0.6717  0.0986
 5069SOL    HW126840   3.860   3.138   9.947  1.7674  0.0242  0.0020
 5069SOL    HW226841   3.833   3.008  10.021  0.4024 -0.2043  2.0807
 5070SOL     OW26842   3.597   1.555   9.163  0.4788 -0.0899 -0.4593
 5070SOL    HW126843   3.592   1.522   9.253 -2.0201  2.2534  0.2687
 5070SOL    HW226844   3.572   1.470   9.124  0.9299 -0.8495  0.9111
 5071SOL     OW26845   1.343   2.782   4.184 -0.3428 -0.1056 -0.0065
 5071SOL    HW126846   1.299   2.699   4.165 -1.4756 -0.0876  2.5457
 5071SOL    HW226847   1.331   2.841   4.109 -1.5166 -0.4235 -0.0716
 5072SOL     OW26848   3.593   0.913   9.546  0.2547  0.4404  0.3399
 5072SOL    HW126849   3.621   0.971   9.475  0.9678  2.2791  2.1400
 5072SOL    HW226850   3.639   0.953   9.620  1.5651 -0.9105  0.2405
 5073SOL     OW26851   0.165   0.427  10.763 -0.6011 -0.2289 -0.0811
 5073SOL    HW126852   0.096   0.480  10.803 -0.3782 -0.8257  1.0716
 5073SOL    HW226853   0.155   0.442  10.669 -2.0600  1.8501  0.4237
 5074SOL     OW26854   3.746   1.648   1.717  0.5155  0.0034 -0.2797
 5074SOL    HW126855   3.680   1.636   1.785  2.3356  0.1392  1.5224
 5074SOL    HW226856   3.697   1.619   1.641  2.0108 -1.4594 -0.6845
 5075SOL     OW26857   0.641   4.345   4.017 -0.2024 -0.7386 -0.1116
 5075SOL    HW126858   0.697   4.413   4.055  1.6401 -1.1940 -2.0229
 5075SOL    HW226859   0.669   4.361   3.927  1.1678  0.1830  0.4716
 5076SOL     OW26860   1.011   2.294   8.539 -0.0514 -0.4082  1.0468
 5076SOL    HW126861   0.936   2.352   8.543 -0.3068 -0.6460 -0.4081
 5076SOL    HW226862   1.058   2.309   8.457 -1.0003 -0.4572  0.5015
 5077SOL     OW26863   3.006   3.114   3.530  0.3072  0.5179  0.0250
 5077SOL    HW126864   3.024   3.060   3.606  3.1450  1.3343 -0.0843
 5077SOL    HW226865   2.924   3.152   3.562  1.4026  2.2130  0.8424
 5078SOL     OW26866   1.390   2.235   8.586 -0.0343 -0.3243  0.2052
 5078SOL    HW126867   1.313   2.220   8.640  0.0014  0.4779  0.4783
 5078SOL    HW226868   1.422   2.145   8.578  0.0122 -0.1100 -2.0022
 5079SOL     OW26869   0.239   1.490   6.759  0.1290 -0.1522 -0.4284
 5079SOL    HW126870   0.302   1.554   6.726  0.6339  0.7795  2.3962
 5079SOL    HW226871   0.293   1.442   6.822 -0.6823 -0.7928 -0.2168
 5080SOL     OW26872   2.285   1.888  12.415 -0.5591  0.3989  0.3584
 5080SOL    HW126873   2.197   1.922  12.434 -0.6243 -1.5200  3.4165
 5080SOL    HW226874   2.338   1.961  12.449 -2.2498  1.7753  0.0598
 5081SOL     OW26875   4.674   2.773   3.113  0.5078  0.5506  0.0568
 5081SOL    HW126876   4.713   2.691   3.083  0.6769  0.3081  0.9265
 5081SOL    HW226877   4.611   2.751   3.182 -1.1942 -0.7857 -1.9459
 5082SOL     OW26878   1.901   3.558   5.374 -0.3101 -0.6392 -0.1971
 5082SOL    HW126879   1.817   3.530   5.338 -0.7074 -3.5767  3.0531
 5082SOL    HW226880   1.874   3.556   5.466  0.5512 -1.4777  0.0362
 5083SOL     OW26881   1.299   0.571   1.087 -0.0362 -0.5620  1.0770
 5083SOL    HW126882   1.340   0.485   1.094 -0.3448 -0.8344 -0.4411
 5083SOL    HW226883   1.357   0.627   1.137 -0.3876  0.2831  0.5266
 5084SOL     OW26884   3.332   3.681   5.178  0.1139 -0.3664 -0.0889
 5084SOL    HW126885   3.315   3.625   5.254 -0.5611  0.1027  0.1085
 5084SOL    HW226886   3.381   3.617   5.128  0.7796 -0.4737  0.7118
 5085SOL     OW26887   4.652   3.920   5.638 -0.4528 -0.3334 -0.5132
 5085SOL    HW126888   4.557   3.923   5.653 -0.1862 -2.0701  1.5308
 5085SOL    HW226889   4.659   3.952   5.548  1.2533  2.5765  0.6833
 5086SOL     OW26890   2.676   1.163   5.015  0.7050 -0.8111 -0.0303
 5086SOL    HW126891   2.721   1.099   4.959  3.0470  0.4611  0.3751
 5086SOL    HW226892   2.672   1.122   5.101  1.3722  1.6506  1.1490
 5087SOL     OW26893   0.473   4.568  16.923  0.3855 -0.0916 -0.1048
 5087SOL    HW126894   0.417   4.499  16.888  0.4935 -0.7413  1.0164
 5087SOL    HW226895   0.487   4.620  16.843 -0.1345  1.1778  0.6286
 5088SOL     OW26896   3.821   2.211   9.156  0.1194 -0.0289  1.2589
 5088SOL    HW126897   3.797   2.202   9.064 -0.4518  0.4406  1.3656
 5088SOL    HW226898   3.901   2.263   9.153  2.1702 -3.1851  0.8727
 5089SOL     OW26899   2.521   2.727  12.773 -0.6088 -0.1446  0.1072
 5089SOL    HW126900   2.509   2.754  12.682 -0.2141 -2.4050 -0.6325
 5089SOL    HW226901   2.613   2.753  12.779 -0.6304 -0.2948  1.1504
 5090SOL     OW26902   2.864   2.406   6.431 -0.0420  0.2734  0.0149
 5090SOL    HW126903   2.870   2.368   6.344  0.9993  0.3638  0.0558
 5090SOL    HW226904   2.771   2.407   6.454  0.1344 -2.1906  0.8574
 5091SOL     OW26905   4.419   4.019   3.551  0.0865  0.2739  0.0249
 5091SOL    HW126906   4.423   3.946   3.490  0.8720 -0.5802  1.0819
 5091SOL    HW226907   4.484   4.081   3.519  0.5570 -0.1034  0.2524
 5092SOL     OW26908   0.918   2.260   0.891  0.1528 -0.1248 -0.3602
 5092SOL    HW126909   1.004   2.294   0.915  0.0721 -1.4327  1.7285
 5092SOL    HW226910   0.877   2.332   0.842 -0.8948  2.0208  3.6187
 5093SOL     OW26911   0.796   1.622  12.270  0.3110  0.9610 -0.1431
 5093SOL    HW126912   0.799   1.555  12.201  0.0793  1.9704 -1.1331
 5093SOL    HW226913   0.840   1.700  12.238  0.6535 -0.0975 -2.2453
 5094SOL     OW26914   3.817   2.235   1.091 -0.0668  0.7441 -0.5967
 5094SOL    HW126915   3.728   2.251   1.060  0.3346  2.4387 -0.8259
 5094SOL    HW226916   3.836   2.325   1.115  1.1081  0.4635 -0.4583
 5095SOL     OW26917   1.504   2.022   0.317 -0.0742 -0.1578 -0.4531
 5095SOL    HW126918   1.436   2.044   0.254  0.1439  0.0430 -0.6182
 5095SOL    HW226919   1.500   2.090   0.385  0.3120  0.4136 -1.0025
 5096SOL     OW26920   1.389   2.169   2.340  0.0928 -0.0553  0.2771
 5096SOL    HW126921   1.480   2.142   2.348 -0.1323 -1.1271 -0.7524
 5096SOL    HW226922   1.351   2.116   2.410 -2.0992  1.6204  0.3519
 5097SOL     OW26923   0.607   4.089   4.083  0.2318 -0.1198  0.2977
 5097SOL    HW126924   0.667   4.063   4.012 -0.4153  0.5069 -0.4888
 5097SOL    HW226925   0.609   4.184   4.073 -2.6065  0.1148  1.9724
 5098SOL     OW26926   2.341   2.289  13.644 -0.5098 -0.4732 -0.1928
 5098SOL    HW126927   2.296   2.212  13.609 -1.3891 -0.5708  1.1510
 5098SOL    HW226928   2.424   2.263  13.685  0.3814  0.6341 -1.2909
 5099SOL     OW26929   2.998   1.972   8.804  0.2358  0.1083 -0.3929
 5099SOL    HW126930   2.905   1.955   8.818 -0.0613  1.6146 -0.5103
 5099SOL    HW226931   2.994   2.002   8.713 -0.2227  0.4444 -0.2664
 5100SOL     OW26932   3.747   0.294  14.382 -0.2112 -0.3337  0.1280
 5100SOL    HW126933   3.809   0.264  14.314 -0.4419  0.0028 -0.2309
 5100SOL    HW226934   3.777   0.382  14.401 -0.7369 -0.2060  0.3418
 5101SOL     OW26935   3.478   1.121   2.454 -0.0359 -0.8053  0.0957
 5101SOL    HW126936   3.428   1.112   2.535  0.3418  0.3872  0.4531
 5101SOL    HW226937   3.548   1.183   2.475 -1.6681  1.3673 -0.8807
 5102SOL     OW26938   3.807   0.085  17.671  0.0966  0.4119 -0.3525
 5102SOL    HW126939   3.816   0.176  17.644 -0.0287  1.1699  2.1823
 5102SOL    HW226940   3.891   0.072  17.716  0.8206 -1.2905 -2.1966
 5103SOL     OW26941   0.422   3.924   0.608  0.4011 -0.0105  0.4618
 5103SOL    HW126942   0.467   3.839   0.606  0.3415 -0.0205 -0.2115
 5103SOL    HW226943   0.335   3.893   0.633 -0.0404  0.4914 -0.4566
 5104SOL     OW26944   2.060   1.568   4.399 -0.0681 -0.0176  0.3087
 5104SOL    HW126945   2.030   1.585   4.309 -0.4954 -3.0459 -0.0929
 5104SOL    HW226946   2.034   1.476   4.398  0.9949 -0.3094 -3.5076
 5105SOL     OW26947   3.884   3.335   7.282 -0.4253  0.0955  0.4219
 5105SOL    HW126948   3.910   3.391   7.354 -1.2489  2.8696 -1.4445
 5105SOL    HW226949   3.930   3.254   7.305 -2.0619 -1.7133 -2.6135
 5106SOL     OW26950   2.221   3.431   7.083 -0.1891  0.5123  0.1629
 5106SOL    HW126951   2.248   3.518   7.114 -0.7120 -0.1226  2.3580
 5106SOL    HW226952   2.222   3.380   7.163  0.6616 -2.3391 -1.6865
 5107SOL     OW26953   2.306   4.503   4.322 -0.3370 -0.1616  0.2932
 5107SOL    HW126954   2.374   4.441   4.346 -0.6956  0.2657  2.4109
 5107SOL    HW226955   2.294   4.538   4.410  2.5177 -2.2596  1.5011
 5108SOL     OW26956   0.604   1.254   6.819 -0.0959  0.2648  0.1515
 5108SOL    HW126957   0.538   1.285   6.881 -0.8034  0.5398 -0.7350
 5108SOL    HW226958   0.597   1.160   6.833  1.4778  0.1289  0.0283
 5109SOL     OW26959   2.716   0.037   9.395 -0.0243  0.4224 -0.1147
 5109SOL    HW126960   2.666   4.695   9.418  0.5377 -0.7137 -2.7489
 5109SOL    HW226961   2.765   0.010   9.318  2.0659 -1.9655  2.0542
 5110SOL     OW26962   1.693   3.455   2.655  0.0863 -0.1014 -0.3222
 5110SOL    HW126963   1.760   3.388   2.641 -0.3857 -0.6092 -0.1396
 5110SOL    HW226964   1.689   3.505   2.574  0.3941  2.1042  1.0334
 5111SOL     OW26965   0.590   0.633   7.312  0.0294  0.3361 -0.3271
 5111SOL    HW126966   0.508   0.584   7.302 -0.5888  1.1837  0.6247
 5111SOL    HW226967   0.612   0.610   7.402  3.9826 -1.0055 -1.6487
 5112SOL     OW26968   1.711   1.250  17.574  0.2868 -0.8847 -0.1169
 5112SOL    HW126969   1.787   1.292  17.534  0.8934 -0.7148  1.2179
 5112SOL    HW226970   1.681   1.188  17.508 -1.5600 -0.4045  0.2748
 5113SOL     OW26971   2.714   0.733  12.050 -0.1924 -0.3074 -0.9762
 5113SOL    HW126972   2.686   0.696  12.134  2.0927  1.2958  0.4881
 5113SOL    HW226973   2.648   0.802  12.038  0.3494  0.5647  0.9848
 5114SOL     OW26974   3.652   1.600   6.908  0.3967 -0.3596  0.2656
 5114SOL    HW126975   3.720   1.625   6.846  0.1448 -2.0179 -0.6677
 5114SOL    HW226976   3.599   1.678   6.891  2.2342  1.3618  2.4149
 5115SOL     OW26977   1.833   4.330  12.327  0.3766  0.3040  0.0468
 5115SOL    HW126978   1.784   4.248  12.322  0.6992  0.1770 -1.1119
 5115SOL    HW226979   1.862   4.326  12.418 -0.3699  0.9297  0.3206
 5116SOL     OW26980   0.665   3.411   6.640 -0.1134  0.2219 -0.1768
 5116SOL    HW126981   0.596   3.366   6.688  0.9249 -1.1755  0.0186
 5116SOL    HW226982   0.622   3.493   6.616  0.0485  0.3648  0.0210
 5117SOL     OW26983   3.069   4.344   4.935  0.2792  0.4037 -0.6317
 5117SOL    HW126984   2.980   4.318   4.957  0.9045 -1.9127 -0.8504
 5117SOL    HW226985   3.068   4.439   4.948 -0.5772  0.4305 -0.9232
 5118SOL     OW26986   3.290   1.679   5.679  0.4382 -0.6773  0.8174
 5118SOL    HW126987   3.370   1.722   5.648 -2.4191  3.5864 -0.6497
 5118SOL    HW226988   3.326   1.592   5.658 -0.2983 -0.9441  0.6707
 5119SOL     OW26989   2.263   1.425   5.762  0.0726  0.0020 -0.1010
 5119SOL    HW126990   2.315   1.476   5.700 -2.4634  0.9000 -1.5127
 5119SOL    HW226991   2.322   1.416   5.837 -0.6617 -0.1661  0.4563
 5120SOL     OW26992   2.297   2.910   5.206  0.4075 -0.1670  0.3800
 5120SOL    HW126993   2.306   2.906   5.111 -0.3713  0.8707  0.2559
 5120SOL    HW226994   2.210   2.871   5.215 -0.5309  1.5223 -1.3954
 5121SOL     OW26995   1.315   2.938  12.666 -0.8308  0.0354  0.0006
 5121SOL    HW126996   1.334   3.026  12.699 -0.3930  0.0250 -0.2262
 5121SOL    HW226997   1.309   2.888  12.748  0.6699 -1.9230 -1.1044
 5122SOL     OW26998   3.120   2.771   2.872 -0.3100 -0.5554 -0.3831
 5122SOL    HW126999   3.028   2.750   2.887 -0.4164 -0.6972 -1.2143
 5122SOL    HW227000   3.118   2.751   2.778  0.5684  0.4788 -0.6154
 5123SOL     OW27001   3.709   3.482   2.566  0.5851 -0.0394 -0.3620
 5123SOL    HW127002   3.800   3.453   2.556  0.8973  0.5617  0.8279
 5123SOL    HW227003   3.701   3.550   2.500 -1.1763  0.2975  0.1982
 5124SOL     OW27004   2.019   1.786   0.892 -0.1104 -0.1430  0.4391
 5124SOL    HW127005   1.929   1.758   0.879 -0.3434  0.3883  0.9029
 5124SOL    HW227006   2.055   1.714   0.943 -0.7084 -1.2286 -0.6836
 5125SOL     OW27007   0.118   2.976   8.920  0.1440 -0.0972  1.0380
 5125SOL    HW127008   0.152   3.025   8.844  2.6842 -1.1891  1.4522
 5125SOL    HW227009   0.025   2.967   8.899 -0.1327 -1.2803  2.8471
 5126SOL     OW27010   4.591   3.149   7.023  0.4829  0.0518  0.3907
 5126SOL    HW127011   4.549   3.153   7.109 -0.3824  2.9155 -0.1723
 5126SOL    HW227012   4.531   3.103   6.965  1.0322  0.4904 -0.5195
 5127SOL     OW27013   2.288   1.755   6.951  0.3734 -0.0444  0.3906
 5127SOL    HW127014   2.252   1.835   6.989 -1.0419  0.8059 -2.7219
 5127SOL    HW227015   2.280   1.687   7.018  0.3315  0.9281  1.3551
 5128SOL     OW27016   4.418   2.494   5.021  0.1719 -0.4109  0.6537
 5128SOL    HW127017   4.415   2.590   5.021  1.0699 -0.3807  1.7859
 5128SOL    HW227018   4.513   2.480   5.019  0.0812 -0.9974  0.4748
 5129SOL     OW27019   2.667   4.209   7.492 -0.0083  0.4684 -0.1444
 5129SOL    HW127020   2.596   4.272   7.508  0.6695  0.5721  2.3862
 5129SOL    HW227021   2.740   4.249   7.539 -0.5624  0.0680  1.0522
 5130SOL     OW27022   0.392   0.474  16.972 -0.1121  0.1283 -0.6833
 5130SOL    HW127023   0.328   0.423  17.021 -1.2915  1.7183 -0.5528
 5130SOL    HW227024   0.335   0.520  16.910 -0.0205 -2.7175 -2.8715
 5131SOL     OW27025   2.956   4.639   8.329  0.2771 -0.6221  0.1787
 5131SOL    HW127026   2.864   4.611   8.325  0.2448 -0.8704  2.3104
 5131SOL    HW227027   2.979   4.659   8.239  0.1348 -0.9697  0.0646
 5132SOL     OW27028   0.574   1.923   6.237 -0.1213  0.0733  0.1587
 5132SOL    HW127029   0.479   1.919   6.228 -0.3075  0.4378  1.9340
 5132SOL    HW227030   0.580   2.009   6.279 -2.1177  0.4786 -0.3924
 5133SOL     OW27031   3.271   3.293   3.951  0.1119 -0.5804 -0.0998
 5133SOL    HW127032   3.284   3.387   3.936 -0.5797 -0.1576  1.9743
 5133SOL    HW227033   3.319   3.256   3.876  0.4070 -1.7264  0.6484
 5134SOL     OW27034   3.615   3.891   7.641  0.5350 -0.1205  0.7325
 5134SOL    HW127035   3.651   3.863   7.557  1.5686 -0.6222  1.3361
 5134SOL    HW227036   3.581   3.978   7.621  1.7412  0.3874  0.9077
 5135SOL     OW27037   0.324   3.852   2.650 -0.2949 -0.1285  0.2449
 5135SOL    HW127038   0.258   3.873   2.715 -1.5637  1.0831 -1.4300
 5135SOL    HW227039   0.393   3.835   2.714  0.3482  0.3360 -0.3234
 5136SOL     OW27040   3.073   4.218   5.356  0.7565  0.0933  0.2059
 5136SOL    HW127041   3.110   4.306   5.364 -0.5664  0.8042 -1.2670
 5136SOL    HW227042   3.084   4.205   5.262  0.5933  0.5349  0.1248
 5137SOL     OW27043   1.601   2.510   7.026  0.1240  0.4028  0.9198
 5137SOL    HW127044   1.513   2.514   7.062 -0.0002 -0.1073  0.6686
 5137SOL    HW227045   1.594   2.420   6.994  0.3664  0.8739 -0.4528
 5138SOL     OW27046   1.559   4.442   7.978 -0.5416 -0.0852  0.1281
 5138SOL    HW127047   1.572   4.474   8.067 -2.3386  0.8132  0.0577
 5138SOL    HW227048   1.478   4.489   7.960 -1.3720 -1.4902  0.1444
 5139SOL     OW27049   3.046   2.266   2.175 -0.8497  0.5826  0.1618
 5139SOL    HW127050   3.114   2.309   2.123 -0.7378  0.0596 -0.1147
 5139SOL    HW227051   3.101   2.227   2.242  0.4905 -1.6196 -2.2580
 5140SOL     OW27052   0.566   3.729   3.982 -0.2536  0.0864  0.4174
 5140SOL    HW127053   0.661   3.730   3.975 -0.4006  0.8211 -1.5916
 5140SOL    HW227054   0.531   3.787   3.915  2.7600  0.8945 -0.4191
 5141SOL     OW27055   0.588   2.197  10.913 -0.0860  0.0598  0.4329
 5141SOL    HW127056   0.632   2.242  10.841 -0.1476  2.2534  1.7557
 5141SOL    HW227057   0.508   2.168  10.868  0.1624  1.6123 -0.9903
 5142SOL     OW27058   1.924   3.767   5.817  0.5725  0.4056  0.4579
 5142SOL    HW127059   1.961   3.855   5.807 -0.3183  0.7556  0.2818
 5142SOL    HW227060   2.003   3.712   5.821  0.1308 -0.3061 -0.4952
 5143SOL     OW27061   2.882   3.768   6.020  0.1439 -0.1502 -0.5248
 5143SOL    HW127062   2.886   3.741   6.111 -4.2268 -0.7052 -0.5139
 5143SOL    HW227063   2.889   3.679   5.985  0.3854  0.1561 -1.2749
 5144SOL     OW27064   2.643   0.212   4.981  0.3054 -0.2251  0.2645
 5144SOL    HW127065   2.648   0.174   5.069 -1.3817 -0.6627  0.1623
 5144SOL    HW227066   2.723   0.264   4.990  0.5333 -0.3731 -0.9980
 5145SOL     OW27067   3.139   1.048   2.020 -0.0730 -0.1569 -0.0968
 5145SOL    HW127068   3.062   1.004   2.055 -0.4002  0.6800  0.2530
 5145SOL    HW227069   3.104   1.095   1.944  1.2317 -0.6399 -1.0037
 5146SOL     OW27070   0.998   1.136   4.852  0.0914 -0.2556  0.1463
 5146SOL    HW127071   0.966   1.067   4.794  0.4690 -0.0143 -0.3540
 5146SOL    HW227072   1.089   1.142   4.822  0.4609 -2.0181  0.9052
 5147SOL     OW27073   2.916   4.191   2.414  0.3268 -0.9014 -0.4429
 5147SOL    HW127074   2.985   4.255   2.428  0.2869 -0.8292 -0.5754
 5147SOL    HW227075   2.932   4.136   2.490 -0.6469 -1.5299 -0.6875
 5148SOL     OW27076   2.091   1.186   8.355 -0.2409 -0.6626 -0.0527
 5148SOL    HW127077   2.058   1.136   8.281 -1.9516  0.6657 -0.1740
 5148SOL    HW227078   2.100   1.272   8.316 -0.7675 -0.7200 -0.2971
 5149SOL     OW27079   4.420   1.921  15.357 -0.4181 -0.4384 -0.1269
 5149SOL    HW127080   4.346   1.886  15.307 -0.8024  1.1395 -0.6604
 5149SOL    HW227081   4.502   1.904  15.311  0.4342 -1.8053  1.9247
 5150SOL     OW27082   3.292   0.978  12.343  0.0982  0.0114  0.3291
 5150SOL    HW127083   3.305   1.029  12.423  0.4774  0.0285  0.2558
 5150SOL    HW227084   3.327   0.892  12.368 -0.5843  0.0943  1.5784
 5151SOL     OW27085   1.705   4.231  13.134  0.3092  0.2479 -0.0616
 5151SOL    HW127086   1.780   4.222  13.075 -0.3973 -0.7555 -0.8084
 5151SOL    HW227087   1.728   4.172  13.206 -0.9526  0.0967  0.2090
 5152SOL     OW27088   0.264   1.234  15.198  0.1273 -0.1857  0.5589
 5152SOL    HW127089   0.185   1.237  15.145 -0.9646 -0.3154  2.1646
 5152SOL    HW227090   0.218   1.249  15.281 -0.6801 -0.2643  0.1235
 5153SOL     OW27091   1.410   1.437  11.989 -0.1708  0.6063  0.2842
 5153SOL    HW127092   1.377   1.469  12.073  3.3024 -0.8262  2.1584
 5153SOL    HW227093   1.497   1.473  11.972  0.4871 -0.8907  0.4178
 5154SOL     OW27094   2.077   1.675   9.552 -0.7373 -0.0475  0.2581
 5154SOL    HW127095   2.053   1.696   9.642  0.0975  2.2833 -0.0635
 5154SOL    HW227096   2.117   1.757   9.525  0.0681 -1.4206 -2.7481
 5155SOL     OW27097   0.857   0.418  12.554  0.6245 -0.0038 -0.4863
 5155SOL    HW127098   0.914   0.388  12.483  0.2677 -1.3550 -0.1932
 5155SOL    HW227099   0.869   0.513  12.551  0.4842  0.0015 -0.9147
 5156SOL     OW27100   1.741   4.359   0.972  0.1381  0.9901  0.3427
 5156SOL    HW127101   1.683   4.285   0.993  1.6089 -0.4903 -0.7817
 5156SOL    HW227102   1.759   4.393   1.060 -3.0059  3.6864 -0.0579
 5157SOL     OW27103   1.725   1.430   0.048 -0.5095  0.0072  0.1210
 5157SOL    HW127104   1.634   1.454   0.063 -1.0913 -2.1060 -0.0722
 5157SOL    HW227105   1.704   1.343   0.015 -1.5160  0.2628  0.0922
 5158SOL     OW27106   4.171   0.593   1.377 -0.3399  0.1124 -0.2176
 5158SOL    HW127107   4.256   0.598   1.420  0.3611 -0.2060 -1.5567
 5158SOL    HW227108   4.192   0.525   1.313  0.4508  1.0405 -0.9455
 5159SOL     OW27109   0.456   1.985  15.934  0.0351 -0.3325 -0.1556
 5159SOL    HW127110   0.400   2.023  16.001  0.4187 -1.3689  0.7589
 5159SOL    HW227111   0.455   2.045  15.859  0.9924 -0.7368 -0.4886
 5160SOL     OW27112   3.086   2.414  15.199 -0.0474  0.5709  0.2851
 5160SOL    HW127113   3.136   2.438  15.277  0.5377 -2.4314  0.8212
 5160SOL    HW227114   3.014   2.477  15.195  0.8527  1.6581  1.1276
 5161SOL     OW27115   3.358   0.590  10.991  0.3596 -0.1589  0.6595
 5161SOL    HW127116   3.433   0.633  10.951  1.4427 -1.5345  1.1973
 5161SOL    HW227117   3.402   0.549  11.066  2.2211  0.7421  0.0503
 5162SOL     OW27118   0.527   2.996  13.968  0.1189  0.4860  0.1719
 5162SOL    HW127119   0.489   2.912  13.994  0.3000  0.6641  0.9924
 5162SOL    HW227120   0.476   3.008  13.888  0.0287 -0.3125  0.1080
 5163SOL     OW27121   3.187   3.074   7.400  1.0363 -0.3603  0.2621
 5163SOL    HW127122   3.141   3.038   7.477  0.6652  1.9055  1.1005
 5163SOL    HW227123   3.250   3.133   7.440 -0.1502  0.9450  0.2325
 5164SOL     OW27124   1.442   1.929   3.642  0.0138  0.0960  0.2481
 5164SOL    HW127125   1.481   1.884   3.567  0.1507 -2.7201  2.0255
 5164SOL    HW227126   1.509   1.995   3.660  0.7579 -0.8808  1.0439
 5165SOL     OW27127   1.523   0.417   4.580  0.1823 -0.0013 -0.2352
 5165SOL    HW127128   1.541   0.511   4.577 -1.7816  0.3916  0.1950
 5165SOL    HW227129   1.596   0.391   4.524  0.5260  1.4833 -0.4727
 5166SOL     OW27130   1.481   3.029   7.045  0.0265 -0.1302 -0.0002
 5166SOL    HW127131   1.513   2.978   6.972  2.4907  4.0435 -1.8440
 5166SOL    HW227132   1.397   2.984   7.044 -0.3344  0.4544  2.5868
 5167SOL     OW27133   2.324   1.275   8.894 -0.0484 -0.4462 -0.5354
 5167SOL    HW127134   2.287   1.285   8.981 -2.5224 -1.7893 -1.4199
 5167SOL    HW227135   2.244   1.303   8.850 -0.5358  3.9487  3.1551
 5168SOL     OW27136   4.146   2.713   4.005 -0.4487  0.3995 -0.6077
 5168SOL    HW127137   4.132   2.757   3.921 -0.8593 -2.2635 -1.9574
 5168SOL    HW227138   4.231   2.752   4.023 -2.2754  3.5085  1.2302
 5169SOL     OW27139   3.454   3.396  11.643  0.0862  0.2699  0.1401
 5169SOL    HW127140   3.543   3.433  11.641 -0.1480  0.7787 -1.0247
 5169SOL    HW227141   3.410   3.464  11.591  0.9460  0.0861 -0.8327
 5170SOL     OW27142   0.819   3.678   6.375 -0.2389  0.0185  0.4010
 5170SOL    HW127143   0.793   3.746   6.437 -1.2632  0.2817 -0.3254
 5170SOL    HW227144   0.839   3.729   6.296 -1.5696  2.3472  1.5867
 5171SOL     OW27145   0.677   1.680   3.600 -0.4533 -0.0402  0.0873
 5171SOL    HW127146   0.582   1.676   3.596 -0.4901 -0.6209  1.3609
 5171SOL    HW227147   0.683   1.775   3.592 -1.2871  0.0653  0.7253
 5172SOL     OW27148   4.235   4.281   6.636  0.0769  0.2400 -0.1161
 5172SOL    HW127149   4.326   4.309   6.642 -0.3507  1.4960  0.4448
 5172SOL    HW227150   4.227   4.234   6.553  1.6835 -0.3820  0.0752
 5173SOL     OW27151   1.178   0.278  11.107 -0.0712  0.3476 -0.2240
 5173SOL    HW127152   1.164   0.353  11.165 -1.5498  1.7914 -2.4238
 5173SOL    HW227153   1.123   0.307  11.034  0.9381  2.5089 -0.1274
 5174SOL     OW27154   3.290   1.529   5.941  0.9535  0.4106 -0.1333
 5174SOL    HW127155   3.259   1.567   6.023 -2.6663 -0.5511 -1.0636
 5174SOL    HW227156   3.290   1.607   5.885  2.9014  0.7951  0.4019
 5175SOL     OW27157   2.379   1.588   7.199 -0.3112 -0.0408 -0.1374
 5175SOL    HW127158   2.435   1.577   7.123 -0.7298  0.2836 -0.4900
 5175SOL    HW227159   2.439   1.632   7.259 -0.7766 -1.5698  1.4559
 5176SOL     OW27160   2.345   2.202   4.063  0.4425 -0.8220  0.3338
 5176SOL    HW127161   2.355   2.121   4.013  0.3048 -1.7954  1.8962
 5176SOL    HW227162   2.251   2.218   4.064  0.4367 -0.8769  1.0692
 5177SOL     OW27163   3.071   1.742   8.942 -0.0798 -0.7775 -0.1163
 5177SOL    HW127164   3.012   1.742   9.016  1.5889  0.0318  1.2125
 5177SOL    HW227165   3.054   1.824   8.896  1.5711  0.4672  1.4841
 5178SOL     OW27166   0.257   3.078   3.546  0.0369  0.1216  0.4776
 5178SOL    HW127167   0.344   3.084   3.506 -1.2212 -2.3346 -2.6344
 5178SOL    HW227168   0.279   3.018   3.618  1.4168  0.7175  0.5558
 5179SOL     OW27169   3.348   1.859   3.121  0.3926  0.7864  0.6207
 5179SOL    HW127170   3.286   1.882   3.052 -0.2687 -1.9854  0.3147
 5179SOL    HW227171   3.329   1.926   3.187  0.5467  0.2381  1.2130
 5180SOL     OW27172   3.446   2.600  16.620 -0.6269  1.1552 -0.3486
 5180SOL    HW127173   3.478   2.528  16.565 -2.6105  0.2274 -0.3027
 5180SOL    HW227174   3.453   2.675  16.562 -2.1360  2.0179  0.5744
 5181SOL     OW27175   1.471   2.637   8.783 -1.0019 -0.0026 -0.1542
 5181SOL    HW127176   1.543   2.701   8.787 -0.9031 -0.1406  0.2565
 5181SOL    HW227177   1.452   2.633   8.877 -1.9260 -1.2982 -0.4125
 5182SOL     OW27178   3.532   4.208   5.309  0.1628  0.4975 -0.1068
 5182SOL    HW127179   3.518   4.302   5.297 -0.8569  0.5325  1.3641
 5182SOL    HW227180   3.585   4.181   5.234  1.6547  1.1044  0.7166
 5183SOL     OW27181   4.489   3.177   4.112 -0.0707  0.0953  0.1852
 5183SOL    HW127182   4.500   3.219   4.197  0.7903 -2.2619  1.2147
 5183SOL    HW227183   4.400   3.143   4.121 -0.1295  0.5087  1.1319
 5184SOL     OW27184   1.575   1.975  10.789 -0.1685 -0.5999  0.1486
 5184SOL    HW127185   1.508   1.915  10.757 -0.1408 -0.4564 -0.1760
 5184SOL    HW227186   1.651   1.922  10.768  0.5669  1.4217 -2.2675
 5185SOL     OW27187   2.096   2.093   5.167 -0.3576  0.2612  0.6696
 5185SOL    HW127188   2.180   2.051   5.185  0.1305 -0.1097 -2.4433
 5185SOL    HW227189   2.044   2.015   5.188 -2.5837  0.6668 -3.3042
 5186SOL     OW27190   0.209   1.558  17.655 -0.0433  0.2986 -0.0410
 5186SOL    HW127191   0.163   1.615  17.716 -1.1532  0.7922 -1.3411
 5186SOL    HW227192   0.293   1.604  17.649  0.1728 -0.5827 -4.0388
 5187SOL     OW27193   4.422   2.140   8.178 -0.4971 -0.0803 -0.4639
 5187SOL    HW127194   4.458   2.061   8.137 -2.3719  0.3111 -2.8341
 5187SOL    HW227195   4.336   2.110   8.207  0.1437 -0.8082  0.7130
 5188SOL     OW27196   4.572   2.081   6.855  0.4116  0.0942 -0.6922
 5188SOL    HW127197   4.598   2.049   6.941 -0.8731  1.0632  0.0618
 5188SOL    HW227198   4.579   1.996   6.810 -3.4527 -1.6721  2.0363
 5189SOL     OW27199   1.781   1.356   0.868 -0.2775 -0.1683  0.0989
 5189SOL    HW127200   1.841   1.356   0.793 -1.7013 -1.0530 -1.0434
 5189SOL    HW227201   1.726   1.280   0.848  0.4661 -0.3093 -1.4760
 5190SOL     OW27202   4.307   0.730   9.806  0.2293 -0.1762 -0.6884
 5190SOL    HW127203   4.248   0.772   9.743 -2.3071 -1.8186  0.5722
 5190SOL    HW227204   4.255   0.649   9.808 -0.9872  0.6263  0.2578
 5191SOL     OW27205   2.149   3.745   5.089  0.1375  0.2750 -0.0503
 5191SOL    HW127206   2.209   3.769   5.160 -0.6679 -1.7455  1.3185
 5191SOL    HW227207   2.070   3.732   5.142 -0.8485  0.6525 -1.4232
 5192SOL     OW27208   0.891   1.549   6.117  0.2996  0.3988  0.0401
 5192SOL    HW127209   0.828   1.589   6.057 -1.4987 -0.3124  1.4540
 5192SOL    HW227210   0.839   1.478   6.155  1.4088 -0.1163  0.5867
 5193SOL     OW27211   2.052   4.524  11.383 -0.1331  0.2774  0.2267
 5193SOL    HW127212   2.055   4.428  11.380 -1.5392  0.3266 -2.8127
 5193SOL    HW227213   2.065   4.553  11.473  0.9198 -0.6835  0.3784
 5194SOL     OW27214   1.681   2.882   5.612  0.3276  0.3891  0.6253
 5194SOL    HW127215   1.635   2.911   5.534  0.5452 -0.4747  0.1782
 5194SOL    HW227216   1.605   2.868   5.667  1.3904  1.2584  2.3088
 5195SOL     OW27217   2.448   4.502   9.432 -0.0463  0.1739  0.0108
 5195SOL    HW127218   2.419   4.490   9.342  2.1650  0.9754 -0.8069
 5195SOL    HW227219   2.386   4.440   9.471 -0.1568  1.7191  2.2902
 5196SOL     OW27220   3.343   2.144  17.727  0.1213  0.2268 -0.3107
 5196SOL    HW127221   3.292   2.096   0.050  1.1305  0.0615  0.3534
 5196SOL    HW227222   3.410   2.176   0.046  0.3689  1.7616 -1.3779
 5197SOL     OW27223   3.406   1.990   0.474  0.0544 -0.1916  0.0637
 5197SOL    HW127224   3.401   2.017   0.566 -1.4359  1.1043 -0.4058
 5197SOL    HW227225   3.433   2.069   0.428 -1.5222  0.1017 -0.3538
 5198SOL     OW27226   4.349   1.814   5.601  0.2310  0.2870  0.2001
 5198SOL    HW127227   4.395   1.866   5.535  0.2548  0.2820  0.2127
 5198SOL    HW227228   4.339   1.734   5.549  2.5530  0.4244 -0.4976
 5199SOL     OW27229   0.915   1.376   1.490  0.0137 -0.1520  0.2235
 5199SOL    HW127230   0.854   1.321   1.540  2.5989 -1.4436  1.9604
 5199SOL    HW227231   1.000   1.350   1.526 -0.4396 -0.6838  0.8995
 5200SOL     OW27232   0.527   3.255   2.217 -0.4633 -0.1285 -0.3103
 5200SOL    HW127233   0.457   3.225   2.159 -0.3591  0.6047 -0.8099
 5200SOL    HW227234   0.477   3.243   2.297  1.3781 -1.9270  0.5711
 5201SOL     OW27235   2.443   3.603  10.099  0.2281  0.2742  0.3868
 5201SOL    HW127236   2.369   3.569  10.150 -1.1254  1.5278 -0.7537
 5201SOL    HW227237   2.513   3.589  10.163 -2.1808 -2.9538  2.3243
 5202SOL     OW27238   1.280   4.674  12.965  0.3790  0.0892  0.0516
 5202SOL    HW127239   1.235   4.598  13.002  1.1392 -0.4355 -0.1033
 5202SOL    HW227240   1.203   4.728  12.944 -0.7539 -0.9730  1.4871
 5203SOL     OW27241   0.539   3.967   5.810 -0.3018  0.3778 -0.5450
 5203SOL    HW127242   0.470   3.922   5.761 -1.9527  0.5960  1.6111
 5203SOL    HW227243   0.610   3.909   5.782 -0.3236  0.1736 -0.1772
 5204SOL     OW27244   0.339   2.760  10.987  0.3780 -0.4124  0.3984
 5204SOL    HW127245   0.412   2.737  10.930  0.9742 -0.9811  1.3894
 5204SOL    HW227246   0.275   2.793  10.924  1.0769  0.9693  0.4049
 5205SOL     OW27247   1.514   1.831   8.130  0.3509 -0.1070 -0.2305
 5205SOL    HW127248   1.511   1.750   8.179 -2.3543  1.5475  2.3594
 5205SOL    HW227249   1.592   1.877   8.161  0.8585 -1.1635  0.0432
 5206SOL     OW27250   3.302   1.739  10.247 -0.3092 -0.7720 -0.0686
 5206SOL    HW127251   3.369   1.679  10.217 -0.8677 -0.9578 -0.9388
 5206SOL    HW227252   3.283   1.703  10.334 -0.3964  1.1567  0.7249
 5207SOL     OW27253   1.066   3.730   4.295  0.2948  0.0201  0.7320
 5207SOL    HW127254   0.998   3.788   4.329 -0.2460  0.5405 -1.2682
 5207SOL    HW227255   1.123   3.714   4.370  0.2972 -2.3510  0.2264
 5208SOL     OW27256   3.609   2.480   7.589 -0.1698  0.5925 -0.3648
 5208SOL    HW127257   3.634   2.420   7.659  0.5401 -0.1086 -1.2185
 5208SOL    HW227258   3.543   2.427   7.544  0.7981  0.6226 -1.8256
 5209SOL     OW27259   0.482   1.058   3.534 -0.6764 -0.0527 -0.4305
 5209SOL    HW127260   0.508   1.147   3.511 -0.0450 -0.0699  0.2065
 5209SOL    HW227261   0.522   1.053   3.621 -0.8943 -1.5070 -0.4094
 5210SOL     OW27262   4.685   3.952   6.669 -0.4562 -0.2767 -0.4473
 5210SOL    HW127263   4.593   3.971   6.651 -1.2707 -2.4066  1.5162
 5210SOL    HW227264   4.677   3.876   6.726 -2.6424 -1.2083 -1.9801
 5211SOL     OW27265   0.098   0.546   9.840 -0.0719  0.0413  0.0083
 5211SOL    HW127266   0.019   0.530   9.788 -0.5395  0.3569  0.6298
 5211SOL    HW227267   0.147   0.601   9.779 -2.5404 -1.2942 -3.1574
 5212SOL     OW27268   4.571   4.208   3.416  0.3412 -0.0458 -0.1337
 5212SOL    HW127269   4.632   4.163   3.358  0.5029  1.3044 -1.0260
 5212SOL    HW227270   4.623   4.279   3.455  3.6485 -1.6807 -1.6511
 5213SOL     OW27271   1.741   4.634   5.374  0.4117 -0.2233  0.1141
 5213SOL    HW127272   1.784   4.688   5.308 -0.7554  2.5784  1.6506
 5213SOL    HW227273   1.675   4.594   5.318 -0.4828  0.9721  0.3297
 5214SOL     OW27274   3.680   3.162   7.306  0.6912 -0.2954 -0.4136
 5214SOL    HW127275   3.739   3.236   7.293  0.8311 -0.0085  1.8768
 5214SOL    HW227276   3.692   3.119   7.221  3.0317 -0.9497  0.2628
 5215SOL     OW27277   1.908   0.372   7.589  0.4451  0.4321 -0.1479
 5215SOL    HW127278   1.968   0.446   7.599  2.8634 -1.2437 -2.1238
 5215SOL    HW227279   1.969   0.299   7.580 -0.3567 -0.3198  0.5722
 5216SOL     OW27280   2.761   2.919   8.765 -0.6827  0.0093  0.1967
 5216SOL    HW127281   2.803   2.851   8.818  0.3699 -0.4140 -1.1519
 5216SOL    HW227282   2.684   2.921   8.821 -2.8379 -2.9152 -2.6357
 5217SOL     OW27283   4.303   2.397   6.813  0.0723 -0.1689  0.6643
 5217SOL    HW127284   4.228   2.426   6.761 -0.2844 -0.3406  1.0815
 5217SOL    HW227285   4.335   2.322   6.764  0.6161  0.0863  0.6373
 5218SOL     OW27286   3.848   1.477  17.467 -0.2748  0.9347 -0.3338
 5218SOL    HW127287   3.762   1.437  17.479  0.4361 -0.7716 -0.9377
 5218SOL    HW227288   3.852   1.487  17.372  1.7137 -0.1304 -0.3529
 5219SOL     OW27289   3.731   4.653   8.267  0.2640  0.0701 -0.1591
 5219SOL    HW127290   3.783   4.733   8.273  1.4287 -0.8904  2.4427
 5219SOL    HW227291   3.642   4.687   8.261  0.0031 -0.8726 -1.5858
 5220SOL     OW27292   3.389   4.105   2.784  0.2744  0.0466  0.3238
 5220SOL    HW127293   3.471   4.091   2.832  1.9340  0.5229 -2.3739
 5220SOL    HW227294   3.361   4.014   2.780 -1.0996  0.4618  0.6126
 5221SOL     OW27295   2.550   4.711  17.740 -0.2489  0.6710 -0.2349
 5221SOL    HW127296   2.586   0.063   0.013  0.3345  0.2937  0.5130
 5221SOL    HW227297   2.535   4.680   0.087 -0.7408 -2.1092 -1.2788
 5222SOL     OW27298   1.457   3.104   9.697  0.1993  0.0833 -0.2182
 5222SOL    HW127299   1.536   3.050   9.694  0.5148  0.5304  0.0348
 5222SOL    HW227300   1.488   3.187   9.733  1.5078 -0.9845  1.0697
 5223SOL     OW27301   4.337   0.865   1.687 -0.0571 -0.1429  0.3448
 5223SOL    HW127302   4.365   0.950   1.721  1.7583 -0.2442 -0.9357
 5223SOL    HW227303   4.268   0.889   1.625  0.3778  0.6361  0.1565
 5224SOL     OW27304   3.876   1.884   8.990 -0.6054 -0.1095  0.6409
 5224SOL    HW127305   3.959   1.918   8.956  0.3479 -1.3732  1.7203
 5224SOL    HW227306   3.904   1.803   9.032 -2.6489 -1.5826 -0.8404
 5225SOL     OW27307   1.295   2.719   4.948 -0.1342 -0.2975  0.3609
 5225SOL    HW127308   1.302   2.776   5.024  0.8151 -0.8078  0.6600
 5225SOL    HW227309   1.319   2.783   4.881 -1.3981  0.0378  0.2417
 5226SOL     OW27310   2.503   3.113   2.730 -0.6850 -0.1780  0.2542
 5226SOL    HW127311   2.515   3.060   2.651 -5.3327 -0.7179 -0.0935
 5226SOL    HW227312   2.557   3.186   2.703  1.1160 -1.5872  0.0435
 5227SOL     OW27313   0.388   1.178   5.858  0.3415  0.2266 -0.1900
 5227SOL    HW127314   0.320   1.232   5.817  0.1050  0.0144 -0.0778
 5227SOL    HW227315   0.369   1.086   5.840 -1.4846  0.7612 -0.9564
 5228SOL     OW27316   2.947   2.099   7.557  0.2858  0.0337  0.7203
 5228SOL    HW127317   2.878   2.165   7.553  2.1269  1.9719  1.4209
 5228SOL    HW227318   2.930   2.035   7.488  1.6486 -0.1686  0.5612
 5229SOL     OW27319   4.648   0.223  12.172 -0.4730 -0.2497 -0.1358
 5229SOL    HW127320   4.591   0.162  12.124  0.0602 -1.5075  0.8226
 5229SOL    HW227321   4.731   0.182  12.148 -0.8154 -1.0460  0.0521
 5230SOL     OW27322   2.419   2.699   7.013  0.0645 -0.3445  0.1473
 5230SOL    HW127323   2.439   2.610   6.983  1.3370  0.3768 -1.1696
 5230SOL    HW227324   2.416   2.673   7.105 -0.1354 -3.4664 -0.7355
 5231SOL     OW27325   0.219   4.555  14.089 -0.6038 -0.4121 -0.1942
 5231SOL    HW127326   0.259   4.627  14.041 -1.0910  0.1312  0.2203
 5231SOL    HW227327   0.171   4.601  14.158  1.0251  0.4153  0.3751
 5232SOL     OW27328   2.863   0.423   2.399 -1.0158  0.7521 -0.2851
 5232SOL    HW127329   2.862   0.518   2.390  2.9268  0.8424  0.1400
 5232SOL    HW227330   2.877   0.395   2.309 -1.7703 -1.4648  0.2876
 5233SOL     OW27331   0.800   3.680   2.382  0.4555  0.4808  0.7827
 5233SOL    HW127332   0.885   3.688   2.426  0.3251 -2.8259  1.6471
 5233SOL    HW227333   0.817   3.594   2.343 -0.6995 -0.2374  1.8657
 5234SOL     OW27334   2.643   0.731   5.618 -0.3464  0.0441 -0.3326
 5234SOL    HW127335   2.612   0.640   5.624  1.8823 -0.7207 -0.3560
 5234SOL    HW227336   2.588   0.781   5.677  0.1307  0.2231 -0.0358
 5235SOL     OW27337   2.681   0.731  17.736  0.0766 -0.2109  0.5816
 5235SOL    HW127338   2.610   0.722  17.673  1.0648 -0.9308 -0.4377
 5235SOL    HW227339   2.713   0.640  17.735 -1.8000 -0.8743  0.9427
 5236SOL     OW27340   4.043   2.095  15.301  0.0517 -0.0318  0.7037
 5236SOL    HW127341   4.086   2.088  15.386  0.9148 -0.0680  0.2734
 5236SOL    HW227342   3.953   2.115  15.327 -0.5968 -3.6258  1.2171
 5237SOL     OW27343   4.350   2.908   0.783 -0.1320 -0.2107 -0.0748
 5237SOL    HW127344   4.281   2.871   0.838 -0.1585 -2.1541 -1.4118
 5237SOL    HW227345   4.346   2.998   0.815 -1.1945  0.0307 -0.9071
 5238SOL     OW27346   1.883   3.579   8.973  0.1386 -0.4663  0.0976
 5238SOL    HW127347   1.813   3.643   8.961  0.2428 -0.2334  0.7034
 5238SOL    HW227348   1.928   3.601   8.892 -0.6626  1.2498  0.1265
 5239SOL     OW27349   0.101   3.456  14.602 -0.5278 -0.0010  0.5947
 5239SOL    HW127350   0.026   3.477  14.545 -0.1461  0.1751  0.1584
 5239SOL    HW227351   0.071   3.381  14.654  1.7360  0.4950  2.5955
 5240SOL     OW27352   4.517   1.225   7.051 -0.1254  0.1582  1.0629
 5240SOL    HW127353   4.611   1.231   7.068  0.1796  1.3640 -1.1080
 5240SOL    HW227354   4.521   1.243   6.957  0.4043 -0.0992  1.0359
 5241SOL     OW27355   4.248   4.431   6.289 -0.0696  0.0365 -0.0593
 5241SOL    HW127356   4.170   4.439   6.234  1.0693 -1.9311 -1.9571
 5241SOL    HW227357   4.260   4.519   6.325  1.3950  0.9194 -2.6904
 5242SOL     OW27358   3.265   0.717   2.720 -0.1490  0.3194  0.3799
 5242SOL    HW127359   3.171   0.730   2.728 -0.2534 -0.7630  0.9582
 5242SOL    HW227360   3.262   0.644   2.658 -2.3559  0.1203  0.7280
 5243SOL     OW27361   0.113   0.312   5.242 -0.3915 -0.3666  0.2540
 5243SOL    HW127362   0.177   0.383   5.243 -0.3540 -0.3745 -1.0494
 5243SOL    HW227363   0.166   0.240   5.276 -1.9913 -1.9716 -0.6218
 5244SOL     OW27364   2.881   0.659   2.178  0.4024 -0.4703  0.3092
 5244SOL    HW127365   2.931   0.615   2.109  2.7093  2.1197  0.3016
 5244SOL    HW227366   2.832   0.724   2.129  1.2947  1.1085  1.5129
 5245SOL     OW27367   2.039   0.381   9.643 -0.4512 -0.3806  0.3289
 5245SOL    HW127368   1.951   0.409   9.618 -0.1153 -1.1369 -1.7746
 5245SOL    HW227369   2.043   0.420   9.730  0.9760 -0.4928  0.3211
 5246SOL     OW27370   4.432   3.540  10.763 -0.0185  0.1536  0.4367
 5246SOL    HW127371   4.434   3.500  10.849  0.0767  3.0665  1.7891
 5246SOL    HW227372   4.483   3.475  10.715 -1.8619 -1.8486  1.1962
 5247SOL     OW27373   3.806   0.561  14.377 -0.1018 -0.5176 -0.3160
 5247SOL    HW127374   3.767   0.648  14.388  0.5608 -0.4193  1.4171
 5247SOL    HW227375   3.898   0.586  14.389 -0.6919  2.3994 -1.8284
 5248SOL     OW27376   1.819   0.150  16.072 -0.1498  0.1592 -0.3028
 5248SOL    HW127377   1.839   0.239  16.041 -3.0529  1.0246  0.2820
 5248SOL    HW227378   1.896   0.129  16.125 -0.5313  0.9846  0.5695
 5249SOL     OW27379   4.480   1.229   7.664 -0.4683  0.0199  0.1619
 5249SOL    HW127380   4.542   1.164   7.696  0.5302  1.4092  1.0687
 5249SOL    HW227381   4.401   1.197   7.706 -0.4418  1.4020  1.2701
 5250SOL     OW27382   4.614   4.609   8.753 -0.1306  0.0851 -0.3117
 5250SOL    HW127383   4.610   4.544   8.683  1.8479 -0.5716  0.1685
 5250SOL    HW227384   4.696   4.597   8.802 -1.2341 -0.3599  1.4487
 5251SOL     OW27385   0.401   1.703   3.569  0.5574  0.2857 -0.3051
 5251SOL    HW127386   0.380   1.748   3.651 -1.6060  0.7012 -1.0930
 5251SOL    HW227387   0.362   1.617   3.588 -0.1487  0.2259 -2.0515
 5252SOL     OW27388   0.095   3.244  13.091 -0.1776  0.1471 -0.1575
 5252SOL    HW127389   0.023   3.198  13.049 -0.3992 -0.4030  0.8064
 5252SOL    HW227390   0.153   3.266  13.019 -1.5717  4.3444  0.0356
 5253SOL     OW27391   0.427   0.524  14.922 -0.6160  0.2511 -0.2429
 5253SOL    HW127392   0.436   0.606  14.970 -1.6446  0.7064 -0.8371
 5253SOL    HW227393   0.504   0.527  14.866 -0.3002 -0.5832  0.1405
 5254SOL     OW27394   4.299   3.650   7.930  0.1271 -0.3794  0.3846
 5254SOL    HW127395   4.311   3.563   7.969 -0.5880 -1.0400 -0.8413
 5254SOL    HW227396   4.288   3.609   7.844  0.4353  1.9487 -0.7715
 5255SOL     OW27397   0.810   2.796  15.732 -0.5982  0.2398  0.5786
 5255SOL    HW127398   0.735   2.815  15.675  0.6506  1.5141 -0.6136
 5255SOL    HW227399   0.814   2.700  15.724 -1.8286  0.3623 -1.4475
 5256SOL     OW27400   2.652   2.966   5.295  0.3927  0.3851  0.2353
 5256SOL    HW127401   2.583   2.904   5.319 -0.6137  1.9790  1.4522
 5256SOL    HW227402   2.629   3.046   5.343  0.3116  0.4997  0.0061
 5257SOL     OW27403   3.681   2.411   6.909  0.8017  0.3867 -0.1254
 5257SOL    HW127404   3.631   2.358   6.971 -0.7155  2.8323  0.7487
 5257SOL    HW227405   3.752   2.427   6.971  1.7053 -0.0651 -1.0308
 5258SOL     OW27406   3.381   1.256   8.301  0.6520 -0.0061 -0.4956
 5258SOL    HW127407   3.408   1.166   8.284  1.7984 -0.2406  2.5075
 5258SOL    HW227408   3.457   1.305   8.269  1.1152 -0.4734 -0.1225
 5259SOL     OW27409   2.377   3.574   1.783  0.5948 -0.5180 -0.6777
 5259SOL    HW127410   2.436   3.648   1.770  0.2148 -0.1280 -0.1473
 5259SOL    HW227411   2.436   3.522   1.838 -1.8768 -1.1253  1.3771
 5260SOL     OW27412   2.070   3.970  10.942  0.4362 -0.6996  0.4466
 5260SOL    HW127413   2.063   3.934  11.030  0.3370 -0.9248  0.3476
 5260SOL    HW227414   2.025   3.901  10.894 -0.0083  0.3469 -0.6658
 5261SOL     OW27415   1.048   1.544   7.383 -0.6009  0.6059 -0.1768
 5261SOL    HW127416   1.077   1.526   7.294 -2.5479  0.0817 -0.7132
 5261SOL    HW227417   1.135   1.549   7.422 -0.7696 -1.7934  0.4982
 5262SOL     OW27418   0.892   4.217  13.117 -0.6273  0.5567  0.1274
 5262SOL    HW127419   0.808   4.180  13.092 -0.6102  1.2352 -0.9464
 5262SOL    HW227420   0.946   4.151  13.074  1.3099  0.7520  2.2072
 5263SOL     OW27421   3.211   1.721   7.814  0.2063  0.5114 -0.2324
 5263SOL    HW127422   3.178   1.740   7.726 -1.4719  1.4365  0.6002
 5263SOL    HW227423   3.287   1.780   7.818  0.5995  0.0017 -0.2498
 5264SOL     OW27424   4.638   3.733   3.887 -0.4440  0.2747  0.3199
 5264SOL    HW127425   4.594   3.719   3.803 -0.6703 -0.6554  0.5972
 5264SOL    HW227426   4.614   3.825   3.898  1.2286  0.6739  0.5936
 5265SOL     OW27427   2.039   2.823   5.246  0.3888  0.0452  0.1960
 5265SOL    HW127428   1.994   2.872   5.315  2.1081  1.1450  0.5380
 5265SOL    HW227429   1.964   2.828   5.187  0.5496  0.4976  0.0273
 5266SOL     OW27430   1.060   1.584  17.178 -0.1537 -0.0268 -0.4143
 5266SOL    HW127431   1.137   1.613  17.227  1.5860 -3.2648 -1.2489
 5266SOL    HW227432   1.033   1.502  17.219  0.0125  0.8211  1.3535
 5267SOL     OW27433   0.893   1.280   5.245 -0.5760  0.4918 -0.1851
 5267SOL    HW127434   0.805   1.275   5.207 -0.8647  1.3122  0.3830
 5267SOL    HW227435   0.947   1.248   5.173 -0.8953 -1.6279  0.5345
 5268SOL     OW27436   2.028   2.522   7.202  0.1709  0.2667  0.8864
 5268SOL    HW127437   1.949   2.573   7.221 -0.2424 -1.1882  3.0420
 5268SOL    HW227438   2.051   2.490   7.290  4.4719  0.7601 -0.0472
 5269SOL     OW27439   0.935   4.356   4.642  0.2407  0.1226 -0.1526
 5269SOL    HW127440   0.923   4.395   4.556  2.0031  1.4111  0.2039
 5269SOL    HW227441   1.003   4.290   4.629  0.3523  0.1859  0.1189
 5270SOL     OW27442   1.618   2.007  14.031  0.1437 -0.1540  0.4544
 5270SOL    HW127443   1.551   1.941  14.012 -1.0355  0.9907  0.6654
 5270SOL    HW227444   1.664   1.968  14.105  0.1414 -0.3245  0.3660
 5271SOL     OW27445   1.738   3.652   8.313  0.0841  0.2347 -0.1177
 5271SOL    HW127446   1.651   3.665   8.275 -0.6309 -3.2227  0.3750
 5271SOL    HW227447   1.796   3.632   8.240 -0.7245  3.4733 -1.6661
 5272SOL     OW27448   1.018   3.973  13.510 -0.4186 -0.2862 -0.0368
 5272SOL    HW127449   0.993   3.911  13.579  0.2526 -0.6373 -0.1119
 5272SOL    HW227450   1.107   3.997  13.535 -0.6520  0.9894 -0.4443
 5273SOL     OW27451   4.601   1.490   9.113 -0.2625  0.2737  0.0797
 5273SOL    HW127452   4.630   1.574   9.148  1.3882  0.0890 -0.8815
 5273SOL    HW227453   4.588   1.516   9.022 -0.8393  0.3562  0.1864
 5274SOL     OW27454   3.078   2.742   3.764  0.0495 -0.4501 -0.3617
 5274SOL    HW127455   3.050   2.734   3.672 -1.6451 -1.2291  0.2244
 5274SOL    HW227456   3.060   2.652   3.789  0.2739 -0.7159 -1.1581
 5275SOL     OW27457   0.719   2.483   1.420  0.7521  0.2736  0.2319
 5275SOL    HW127458   0.671   2.560   1.390  1.6643 -0.9089 -4.2228
 5275SOL    HW227459   0.688   2.408   1.370 -1.1406  0.5980  0.9341
 5276SOL     OW27460   3.918   1.153  13.952  0.6070  0.2173  0.1595
 5276SOL    HW127461   3.969   1.179  13.876 -0.4626 -0.0136 -0.6369
 5276SOL    HW227462   3.854   1.096  13.909 -0.0087  1.4688 -0.5800
 5277SOL     OW27463   0.343   4.367   9.373  0.4539 -0.6286  0.9065
 5277SOL    HW127464   0.273   4.419   9.413  2.1738  1.9269  0.5515
 5277SOL    HW227465   0.297   4.327   9.300  0.4242  0.6627  0.2151
 5278SOL     OW27466   2.769   4.449   5.313  0.4710  0.0120  0.0893
 5278SOL    HW127467   2.677   4.474   5.313 -0.2867 -2.7372  1.6391
 5278SOL    HW227468   2.772   4.353   5.316  0.0091 -0.0005  0.1427
 5279SOL     OW27469   2.831   2.374   6.152 -0.4740  0.1086  0.0876
 5279SOL    HW127470   2.772   2.301   6.133 -0.2991  0.0010 -0.0321
 5279SOL    HW227471   2.918   2.344   6.125  0.6378  2.0522  1.5324
 5280SOL     OW27472   2.234   2.867   8.793  0.0294 -0.0107  0.0750
 5280SOL    HW127473   2.216   2.921   8.870  2.0616 -1.0955  1.3278
 5280SOL    HW227474   2.262   2.791   8.844 -1.1048  1.3360  2.6815
 5281SOL     OW27475   3.329   4.013   4.208  0.0245  0.3430  0.0581
 5281SOL    HW127476   3.249   4.040   4.255 -0.1127  1.1319 -0.6316
 5281SOL    HW227477   3.335   4.091   4.153  2.3251 -0.1171 -0.3538
 5282SOL     OW27478   4.712   1.086  11.132  0.7227 -0.3686  0.0072
 5282SOL    HW127479   4.645   1.149  11.160  2.6735  0.1702  3.4644
 5282SOL    HW227480   0.040   1.124  11.191  0.7290  0.1820 -0.3524
 5283SOL     OW27481   3.271   2.133  10.864 -0.2081  0.1041 -0.0293
 5283SOL    HW127482   3.254   2.183  10.944 -1.9490  0.2786 -0.5185
 5283SOL    HW227483   3.231   2.049  10.886  1.8114 -0.6950  0.6599
 5284SOL     OW27484   1.367   4.224   7.428  0.2424  0.2849  0.2286
 5284SOL    HW127485   1.427   4.180   7.369 -1.8165 -0.8433 -0.9854
 5284SOL    HW227486   1.432   4.272   7.481 -0.0726 -0.4761  1.2984
 5285SOL     OW27487   3.567   2.962  17.536 -0.2573  0.6291 -0.3842
 5285SOL    HW127488   3.572   3.021  17.611  0.9837  1.7176 -1.3362
 5285SOL    HW227489   3.489   2.910  17.554 -0.2995  1.2793  1.3108
 5286SOL     OW27490   0.569   4.202  10.723 -0.1944  0.6715  0.0333
 5286SOL    HW127491   0.509   4.130  10.743  1.0881 -0.2066  0.7127
 5286SOL    HW227492   0.512   4.277  10.742  0.1956  0.6868  1.1229
 5287SOL     OW27493   0.450   3.749  12.467  0.3766  0.7897 -0.7848
 5287SOL    HW127494   0.538   3.717  12.486 -1.2706 -1.0382  3.7457
 5287SOL    HW227495   0.466   3.790  12.382 -0.4532  2.0753 -0.3228
 5288SOL     OW27496   4.224   2.284   8.571 -0.2078 -0.2008 -0.6629
 5288SOL    HW127497   4.151   2.346   8.569  0.3789  0.5263  0.1596
 5288SOL    HW227498   4.185   2.199   8.591  0.8875 -0.4527  0.4203
 5289SOL     OW27499   1.108   4.491   7.600 -0.0577 -0.0722  0.3446
 5289SOL    HW127500   1.137   4.582   7.612  1.1642 -0.5006  0.5780
 5289SOL    HW227501   1.018   4.509   7.572  0.0696 -0.7963 -0.4936
 5290SOL     OW27502   2.812   0.725   5.952  0.5143  0.0126 -0.4732
 5290SOL    HW127503   2.754   0.764   6.017  0.3425  0.7884 -1.0976
 5290SOL    HW227504   2.796   0.774   5.872 -1.1005 -1.4101 -1.0131
 5291SOL     OW27505   3.114   2.935  14.409 -0.6838 -0.1861 -0.5419
 5291SOL    HW127506   3.168   3.006  14.375 -2.0196  1.1064  0.0289
 5291SOL    HW227507   3.150   2.918  14.496 -3.6965 -0.6764  0.6165
 5292SOL     OW27508   0.420   2.168   2.883 -0.6391  0.6818  0.1563
 5292SOL    HW127509   0.510   2.187   2.858 -0.9257  0.0392 -1.3238
 5292SOL    HW227510   0.430   2.082   2.924  0.1662  1.1487  0.9655
 5293SOL     OW27511   2.919   1.067  13.091 -0.4460 -0.2075  0.0914
 5293SOL    HW127512   2.893   1.119  13.167  0.7900  1.3998 -0.5920
 5293SOL    HW227513   2.977   1.002  13.130 -1.1008 -0.6266  0.3676
 5294SOL     OW27514   1.202   1.858   2.521 -0.1535 -0.4502  0.0012
 5294SOL    HW127515   1.237   1.820   2.440  0.7131 -0.2370  0.2773
 5294SOL    HW227516   1.196   1.780   2.577  2.2874 -1.8750 -1.7042
 5295SOL     OW27517   2.106   4.448  13.901  0.2075 -0.1111  0.0004
 5295SOL    HW127518   2.082   4.409  13.985  2.1480 -0.7846  0.2387
 5295SOL    HW227519   2.042   4.405  13.845 -0.7805  0.9991  0.2836
 5296SOL     OW27520   3.060   0.556   7.813 -0.0747  0.4301 -0.0134
 5296SOL    HW127521   2.989   0.501   7.779  1.6083 -0.5475 -1.8879
 5296SOL    HW227522   3.026   0.604   7.889  0.8984  2.3455 -0.8001
 5297SOL     OW27523   0.456   0.674   5.827 -0.4138  0.2902 -0.0550
 5297SOL    HW127524   0.542   0.685   5.787 -0.7446  2.7703 -0.1083
 5297SOL    HW227525   0.459   0.585   5.861  0.2059  0.1154 -0.5845
 5298SOL     OW27526   0.470   2.028  13.650 -0.2883 -0.1424 -0.4356
 5298SOL    HW127527   0.544   2.017  13.710 -1.1378 -1.1846  0.4049
 5298SOL    HW227528   0.471   2.123  13.639  1.3216 -0.1647 -0.5627
 5299SOL     OW27529   3.715   2.863   4.914  0.2390 -0.0195  0.1867
 5299SOL    HW127530   3.673   2.815   4.842 -2.2642 -0.2559  1.8033
 5299SOL    HW227531   3.790   2.808   4.936  1.0943  1.1385  0.1761
 5300SOL     OW27532   0.748   4.558   8.403 -0.4495  0.3037 -0.4442
 5300SOL    HW127533   0.690   4.512   8.463 -1.0696  0.4526 -0.9308
 5300SOL    HW227534   0.815   4.592   8.463  0.2538  3.7823 -3.2307
 5301SOL     OW27535   0.095   4.295   2.434  0.1584  0.2244  0.1957
 5301SOL    HW127536   0.159   4.228   2.459 -1.0851 -1.0555 -0.0570
 5301SOL    HW227537   0.104   4.361   2.503  2.5251 -0.1925  0.3010
 5302SOL     OW27538   3.467   3.298   0.265  0.4925  0.0200  0.5638
 5302SOL    HW127539   3.456   3.343   0.349 -3.5347 -0.2818  0.1885
 5302SOL    HW227540   3.395   3.236   0.282  0.2361  0.3434  0.6633
 5303SOL     OW27541   3.667   2.742   2.408 -0.4924 -0.2637 -0.0258
 5303SOL    HW127542   3.633   2.831   2.404 -1.0813 -0.4588  0.5967
 5303SOL    HW227543   3.585   2.701   2.437  0.2114 -0.8207  1.2176
 5304SOL     OW27544   3.329   3.474   1.931 -0.2124  0.0293  0.9078
 5304SOL    HW127545   3.366   3.563   1.937 -0.5300  0.3728 -1.8449
 5304SOL    HW227546   3.411   3.427   1.917  0.3590  1.2266  0.1414
 5305SOL     OW27547   3.827   3.524   9.773  0.0089 -0.3477  0.6223
 5305SOL    HW127548   3.887   3.561   9.708  1.8404 -2.4635  1.0782
 5305SOL    HW227549   3.759   3.482   9.721  0.1477 -0.2553  0.3675
 5306SOL     OW27550   4.470   4.614  12.430  0.2676  0.3413 -0.2458
 5306SOL    HW127551   4.440   4.660  12.352  2.5337  1.9507 -0.1486
 5306SOL    HW227552   4.558   4.586  12.405 -1.3027 -3.3478 -1.7502
 5307SOL     OW27553   4.286   0.304  17.533 -0.3821  0.6678  0.3320
 5307SOL    HW127554   4.371   0.261  17.530 -0.9417 -0.3905 -0.6266
 5307SOL    HW227555   4.276   0.323  17.440  2.2831  0.9026  0.1013
 5308SOL     OW27556   3.488   1.845   4.964  0.4106  0.1457 -0.2598
 5308SOL    HW127557   3.450   1.920   5.009 -2.1722 -0.1866 -1.8809
 5308SOL    HW227558   3.460   1.858   4.873  1.7264  1.2175 -0.5222
 5309SOL     OW27559   1.695   2.058   0.099 -0.6626 -0.7330 -0.0423
 5309SOL    HW127560   1.645   2.072   0.179  1.4539 -2.4169  1.5821
 5309SOL    HW227561   1.664   2.120   0.033 -0.5527 -1.5158 -0.8344
 5310SOL     OW27562   0.049   1.318  14.530 -0.7925 -0.0153  0.3090
 5310SOL    HW127563   4.693   1.303  14.549 -0.7054 -1.9898 -0.7986
 5310SOL    HW227564   0.084   1.375  14.598 -2.5161  0.5485  0.7010
 5311SOL     OW27565   1.144   4.042  15.273  0.0831 -0.7892 -0.5833
 5311SOL    HW127566   1.052   4.055  15.295  0.6321  0.2653  1.0860
 5311SOL    HW227567   1.176   3.988  15.345 -0.6336 -0.6703 -0.1744
 5312SOL     OW27568   3.902   0.715   9.464  0.3366  0.4818  0.0050
 5312SOL    HW127569   3.939   0.642   9.413  2.2636  2.6891 -1.7610
 5312SOL    HW227570   3.846   0.660   9.518  1.2515  1.6343  2.1307
 5313SOL     OW27571   0.268   2.347  10.913 -0.5916 -0.1867  0.0684
 5313SOL    HW127572   0.290   2.407  10.842 -0.3706 -2.0426 -1.4183
 5313SOL    HW227573   0.288   2.262  10.874  0.7949  0.1000  0.1398
 5314SOL     OW27574   0.979   1.919  14.885 -0.0037  0.0114  0.3010
 5314SOL    HW127575   1.071   1.896  14.889 -0.5848 -2.3267  0.0380
 5314SOL    HW227576   0.962   1.956  14.972 -4.3375 -1.4491  0.0652
 5315SOL     OW27577   2.032   3.691  10.223  0.1280 -0.4263  0.2548
 5315SOL    HW127578   1.968   3.685  10.152  3.7482  2.1853 -3.2592
 5315SOL    HW227579   2.086   3.613  10.216  1.4038  0.5337 -0.5566
 5316SOL     OW27580   2.135   2.689   4.608  0.2037 -1.0901 -0.6368
 5316SOL    HW127581   2.130   2.709   4.515 -1.6906 -1.0384 -0.5247
 5316SOL    HW227582   2.187   2.763   4.641  1.1893 -1.2405 -1.8576
 5317SOL     OW27583   0.719   1.231   9.274  0.3958 -0.6398 -0.1152
 5317SOL    HW127584   0.697   1.308   9.326 -1.5069 -1.7299  0.6798
 5317SOL    HW227585   0.641   1.227   9.218 -0.8412  1.0354  1.5049
 5318SOL     OW27586   4.143   0.407   1.189  0.0091  0.0839 -0.4400
 5318SOL    HW127587   4.178   0.318   1.187 -0.9081 -0.3024  0.6340
 5318SOL    HW227588   4.070   0.392   1.249  1.4985  1.1218  1.6481
 5319SOL     OW27589   3.869   2.366   6.708 -0.6142  0.0012  0.4705
 5319SOL    HW127590   3.798   2.377   6.770 -0.3102  1.3445  0.5726
 5319SOL    HW227591   3.925   2.317   6.769  1.2385  1.8742  0.2943
 5320SOL     OW27592   4.241   2.135   3.651 -0.0984 -0.1814 -0.2512
 5320SOL    HW127593   4.295   2.158   3.726  0.3770 -2.5776  0.1601
 5320SOL    HW227594   4.256   2.208   3.591  1.1704 -0.6392 -0.4881
 5321SOL     OW27595   4.563   1.734   4.928 -0.6781 -0.8628  0.1859
 5321SOL    HW127596   4.613   1.804   4.971 -0.2498 -0.1264 -1.5379
 5321SOL    HW227597   4.511   1.789   4.871  2.6339  1.6310 -0.4388
 5322SOL     OW27598   0.091   2.147   1.722 -0.2689  0.4542  0.8287
 5322SOL    HW127599   0.132   2.113   1.801 -2.3234 -3.0331  0.3867
 5322SOL    HW227600   0.122   2.095   1.648 -0.5681  1.1991  0.1705
 5323SOL     OW27601   4.728   3.652  17.247  0.1266  0.1859  0.5019
 5323SOL    HW127602   0.041   3.675  17.326  0.5059  0.0117  0.3161
 5323SOL    HW227603   4.666   3.587  17.279  0.9835 -0.7982  0.1449
 5324SOL     OW27604   3.671   0.947   7.980  0.1048  0.6283 -0.3053
 5324SOL    HW127605   3.605   0.879   7.988  2.5935 -1.9207 -1.4987
 5324SOL    HW227606   3.720   0.914   7.904 -2.6702 -0.5294 -1.5850
 5325SOL     OW27607   0.773   2.858  13.871 -0.3821 -0.2676 -0.1346
 5325SOL    HW127608   0.691   2.908  13.875 -0.8094 -1.0235  0.4441
 5325SOL    HW227609   0.783   2.820  13.958 -0.6281  0.6281  0.2932
 5326SOL     OW27610   2.764   4.041   5.668 -0.3362 -0.0633  0.3052
 5326SOL    HW127611   2.777   3.950   5.642 -0.3481 -0.7283  2.6473
 5326SOL    HW227612   2.678   4.034   5.710 -0.0042 -0.3733  0.9261
 5327SOL     OW27613   0.043   1.124   3.167 -0.2820  0.6609 -0.3369
 5327SOL    HW127614   0.054   1.109   3.261  2.9077 -0.5013 -0.8920
 5327SOL    HW227615   0.052   1.220   3.167  0.8508  0.5643  0.9671
 5328SOL     OW27616   3.674   1.620  12.738 -0.6335 -0.2215  0.0671
 5328SOL    HW127617   3.643   1.552  12.678  0.3195  0.0445 -0.7281
 5328SOL    HW227618   3.602   1.680  12.718 -1.8966 -0.9175  2.4635
 5329SOL     OW27619   0.719   2.692   2.724  0.1320  0.3841 -0.0249
 5329SOL    HW127620   0.732   2.605   2.761  0.5295  0.0776 -0.9051
 5329SOL    HW227621   0.623   2.691   2.718  0.0846  1.2585  0.4548
 5330SOL     OW27622   4.261   3.013   8.643 -0.7704 -0.1736  0.4630
 5330SOL    HW127623   4.335   2.989   8.586  0.4638  2.0274  1.1138
 5330SOL    HW227624   4.298   3.032   8.729  0.0602  1.8901 -0.3559
 5331SOL     OW27625   0.586   4.577   5.124 -0.4600  0.2455 -0.5434
 5331SOL    HW127626   0.600   4.561   5.218 -1.8416  0.9101 -0.2218
 5331SOL    HW227627   0.527   4.652   5.125 -0.9893 -0.1745  0.7760
 5332SOL     OW27628   3.709   0.063   1.812  0.3228 -0.3382 -0.3081
 5332SOL    HW127629   3.789   0.116   1.806 -0.5379  1.2424  2.1204
 5332SOL    HW227630   3.739   4.734   1.749 -3.3954  0.7852 -3.2206
 5333SOL     OW27631   0.929   0.519   8.855  0.4398  0.0927 -0.3882
 5333SOL    HW127632   0.994   0.541   8.921  0.0522  0.9319 -0.2840
 5333SOL    HW227633   0.978   0.466   8.793  0.8949  0.2962 -0.1960
 5334SOL     OW27634   3.171   0.546   0.877  0.7847 -0.1451  0.3771
 5334SOL    HW127635   3.087   0.545   0.831  0.2137 -1.3797  1.4567
 5334SOL    HW227636   3.203   0.457   0.863  0.1675 -0.1813 -0.7850
 5335SOL     OW27637   3.658   3.423   4.456 -0.4042  0.0289 -0.0596
 5335SOL    HW127638   3.731   3.484   4.462  0.3597 -0.8855 -0.2547
 5335SOL    HW227639   3.663   3.402   4.363  0.5040  1.7899 -0.4115
 5336SOL     OW27640   2.833   2.846   5.666  0.2900 -0.5749 -0.6345
 5336SOL    HW127641   2.824   2.767   5.613 -0.7171 -0.7973 -0.1265
 5336SOL    HW227642   2.775   2.917   5.638 -0.6014 -0.5831  1.2010
 5337SOL     OW27643   0.764   3.981   2.475 -0.3419  0.0966 -0.0090
 5337SOL    HW127644   0.847   3.948   2.442 -0.7836  0.0108 -1.0161
 5337SOL    HW227645   0.795   4.071   2.486  0.7815 -0.1958 -0.7924
 5338SOL     OW27646   1.018   3.424   0.293 -0.3763 -0.3428  0.0696
 5338SOL    HW127647   1.113   3.412   0.301 -0.3200  0.0756  0.0426
 5338SOL    HW227648   1.006   3.514   0.264  0.6705  0.7445  3.0421
 5339SOL     OW27649   0.676   4.028   4.810  0.6556  0.5791 -0.7564
 5339SOL    HW127650   0.699   4.037   4.717  0.0049 -0.1311 -0.9876
 5339SOL    HW227651   0.707   3.939   4.824 -0.6942  0.1882 -0.2967
 5340SOL     OW27652   4.592   1.049   3.950  0.0612 -0.2632 -0.2561
 5340SOL    HW127653   4.654   1.026   4.019 -1.4995  1.8812  1.8709
 5340SOL    HW227654   4.599   1.145   3.949 -0.1808 -0.2524 -0.8643
 5341SOL     OW27655   2.078   3.123   6.127 -0.2027 -0.1699 -0.0243
 5341SOL    HW127656   2.108   3.087   6.210 -0.8640 -0.0047  0.2873
 5341SOL    HW227657   2.096   3.217   6.116 -1.2249 -0.0129 -0.3880
 5342SOL     OW27658   1.896   3.257   3.430  0.0348 -0.1062  0.0233
 5342SOL    HW127659   1.891   3.299   3.516  2.5711 -0.2604  0.2599
 5342SOL    HW227660   1.983   3.288   3.405  0.4176 -0.2695  1.1344
 5343SOL     OW27661   1.187   2.581   2.720  0.4534 -0.4932  0.1674
 5343SOL    HW127662   1.190   2.673   2.744  1.2104 -0.9536  1.7969
 5343SOL    HW227663   1.151   2.579   2.631  3.0213  0.3889 -0.8721
 5344SOL     OW27664   3.787   3.618  15.087 -0.1744 -0.7843 -0.1080
 5344SOL    HW127665   3.703   3.651  15.055  1.0489  2.1389 -0.2924
 5344SOL    HW227666   3.826   3.616  14.999 -3.5848  1.1281 -1.6700
 5345SOL     OW27667   1.003   2.369   3.548 -0.5483 -0.4328 -0.0844
 5345SOL    HW127668   0.946   2.391   3.622  1.5126  0.2628  1.2742
 5345SOL    HW227669   1.084   2.371   3.598 -0.8126 -0.3066  0.3418
 5346SOL     OW27670   3.332   0.806   4.010 -0.2855 -0.2156 -0.2395
 5346SOL    HW127671   3.387   0.740   4.052 -1.1441 -0.8130 -0.0444
 5346SOL    HW227672   3.263   0.823   4.074 -2.4747 -1.7101 -2.1836
 5347SOL     OW27673   3.232   0.055   8.726  0.0826 -0.0261  0.0615
 5347SOL    HW127674   3.238   0.088   8.636  0.9793  2.1858  0.9352
 5347SOL    HW227675   3.174   0.110   8.779  0.3972 -2.0259  2.4855
 5348SOL     OW27676   0.484   1.736   9.112 -0.0033  0.0210  0.4810
 5348SOL    HW127677   0.575   1.704   9.108 -0.6656 -1.2603 -3.8653
 5348SOL    HW227678   0.503   1.808   9.053  0.0556  0.4624  1.0352
 5349SOL     OW27679   2.334   0.940   2.506  0.2189  0.6461 -0.2990
 5349SOL    HW127680   2.290   0.971   2.585 -0.6318 -1.3229  0.0123
 5349SOL    HW227681   2.266   0.936   2.438  1.8926 -0.1439 -1.9383
 5350SOL     OW27682   1.308   3.574  14.889  0.1763  0.1015  0.0965
 5350SOL    HW127683   1.236   3.623  14.850 -0.4981  0.3871  1.7018
 5350SOL    HW227684   1.313   3.501  14.827 -1.0963 -0.2564  0.4208
 5351SOL     OW27685   0.501   1.572  14.783 -1.1088  0.8156 -0.4170
 5351SOL    HW127686   0.449   1.604  14.857  1.3089  2.1647  0.6554
 5351SOL    HW227687   0.531   1.654  14.745 -2.7346  0.6335 -2.1063
 5352SOL     OW27688   1.028   2.002   2.346  0.1691  0.1394  0.1083
 5352SOL    HW127689   1.068   1.942   2.409  0.2384 -1.4914 -1.5072
 5352SOL    HW227690   1.066   1.979   2.262 -1.2746 -3.0115  0.3062
 5353SOL     OW27691   3.644   1.109  12.353  0.0562  0.1388 -0.3031
 5353SOL    HW127692   3.701   1.124  12.429 -0.7348  0.0331  0.3168
 5353SOL    HW227693   3.712   1.092  12.288  0.4646  0.9975 -0.0983
 5354SOL     OW27694   4.148   0.900   3.169  0.9353  0.3117 -0.3370
 5354SOL    HW127695   4.083   0.928   3.105 -0.3031 -1.9225 -0.0357
 5354SOL    HW227696   4.122   0.953   3.245 -2.1966 -0.4378 -0.8649
 5355SOL     OW27697   1.025   1.389   6.812 -0.1038 -0.0536  0.2173
 5355SOL    HW127698   1.063   1.436   6.738  1.5032  1.9636  2.3318
 5355SOL    HW227699   0.933   1.414   6.803 -0.6398 -1.6956  0.9756
 5356SOL     OW27700   4.183   3.743  16.226  0.3737 -0.3056 -0.0925
 5356SOL    HW127701   4.210   3.697  16.305  2.5203 -0.5414 -0.9663
 5356SOL    HW227702   4.095   3.705  16.219  1.4114 -2.6187 -0.1956
 5357SOL     OW27703   2.366   2.303   4.342 -0.2701 -0.0027  0.1942
 5357SOL    HW127704   2.446   2.265   4.380  1.0162  1.8546 -0.6460
 5357SOL    HW227705   2.360   2.267   4.253  2.3083 -0.2484  0.1125
 5358SOL     OW27706   4.735   2.546   9.277  0.4737 -0.1894  0.1075
 5358SOL    HW127707   4.700   2.476   9.222  0.7241  1.3827 -2.0355
 5358SOL    HW227708   0.089   2.548   9.244  0.7384  1.6557  0.9350
 5359SOL     OW27709   3.549   0.714   3.798  0.0807 -0.2860  0.3174
 5359SOL    HW127710   3.472   0.723   3.854 -2.5703 -0.2430 -3.2954
 5359SOL    HW227711   3.512   0.703   3.710  3.0909  1.5138 -1.1764
 5360SOL     OW27712   4.201   1.487  13.377  0.0424  0.4990 -0.2310
 5360SOL    HW127713   4.178   1.549  13.308  0.4052 -0.6041 -1.3478
 5360SOL    HW227714   4.295   1.504  13.374  0.0847  0.2699 -0.2305
 5361SOL     OW27715   2.890   1.972   4.383  0.1960 -0.2756  0.7929
 5361SOL    HW127716   2.831   1.899   4.401  0.2187 -0.4237  0.2594
 5361SOL    HW227717   2.906   2.007   4.471  2.9802  3.4351 -1.1649
 5362SOL     OW27718   4.629   2.209   4.910  0.4542 -0.2248  0.1312
 5362SOL    HW127719   4.636   2.237   5.001 -3.6695  0.4830  0.2020
 5362SOL    HW227720   4.721   2.188   4.891 -0.3392 -1.0244 -2.7800
 5363SOL     OW27721   3.255   0.789   2.083 -0.4528 -0.2495  0.6351
 5363SOL    HW127722   3.203   0.862   2.115  2.4756  1.5636  1.2248
 5363SOL    HW227723   3.306   0.828   2.012 -0.2992 -0.2024  0.7707
 5364SOL     OW27724   2.282   4.582   3.725  0.1683  0.1382 -0.5298
 5364SOL    HW127725   2.209   4.639   3.702 -1.4191 -0.6196  2.7386
 5364SOL    HW227726   2.247   4.493   3.730  1.4053 -0.1324  3.2897
 5365SOL     OW27727   0.383   0.259  14.702  0.2390 -0.1714 -0.3705
 5365SOL    HW127728   0.329   0.233  14.776  0.5438  0.8495  0.2140
 5365SOL    HW227729   0.347   0.346  14.682  1.2945  0.1367 -0.9670
 5366SOL     OW27730   3.951   4.264   6.740 -0.1216 -0.1857  0.6252
 5366SOL    HW127731   3.922   4.329   6.804  2.5206 -0.3503  1.9902
 5366SOL    HW227732   4.022   4.297   6.685  0.9682  0.1588  2.2291
 5367SOL     OW27733   2.495   3.219   2.372  0.2406  0.2569  0.7701
 5367SOL    HW127734   2.497   3.159   2.447 -0.6456 -1.2121 -0.3809
 5367SOL    HW227735   2.418   3.276   2.382  0.8603  1.4440 -1.3529
 5368SOL     OW27736   0.285   1.813   4.498  0.1688  0.4059  0.2988
 5368SOL    HW127737   0.374   1.839   4.518 -0.0819  1.2660  0.2751
 5368SOL    HW227738   0.266   1.880   4.433 -2.0340 -0.3795  0.1239
 5369SOL     OW27739   3.837   1.343   1.522  0.3818 -0.2016  0.1556
 5369SOL    HW127740   3.849   1.273   1.586 -0.5649  0.4956  1.0862
 5369SOL    HW227741   3.783   1.298   1.457 -1.2187  0.0834  1.2945
 5370SOL     OW27742   2.553   1.238   7.429 -0.5401  0.1661  0.7578
 5370SOL    HW127743   2.475   1.264   7.478  1.0062 -0.3832  3.4795
 5370SOL    HW227744   2.594   1.324   7.425 -0.7819  0.2155 -0.5795
 5371SOL     OW27745   3.743   0.386   5.121  0.4152  0.4868  0.3783
 5371SOL    HW127746   3.724   0.405   5.029  1.1475 -0.1353  0.0977
 5371SOL    HW227747   3.664   0.399   5.172 -0.4039 -0.2777 -0.7017
 5372SOL     OW27748   4.706   0.786   3.136  0.2794  0.0081 -0.2026
 5372SOL    HW127749   0.018   0.811   3.057 -1.5837  1.4250 -0.8739
 5372SOL    HW227750   4.656   0.865   3.153 -2.6810 -1.9958  0.3924
 5373SOL     OW27751   3.871   1.495   9.737 -0.7826  0.0332  0.1815
 5373SOL    HW127752   3.910   1.554   9.672  0.1878  0.8935  1.5498
 5373SOL    HW227753   3.934   1.507   9.809  0.1835  3.3679 -1.1981
 5374SOL     OW27754   1.284   3.801   4.140 -0.5811 -0.6959  0.0476
 5374SOL    HW127755   1.211   3.770   4.194  0.3477 -1.4338  0.8555
 5374SOL    HW227756   1.313   3.872   4.197 -1.5008  0.1530 -0.5231
 5375SOL     OW27757   4.518   4.003   4.467  0.2657  0.4761  0.2633
 5375SOL    HW127758   4.538   3.952   4.546  0.6242 -0.5631 -0.5140
 5375SOL    HW227759   4.583   3.980   4.401 -1.6358  0.6261 -1.6334
 5376SOL     OW27760   4.376   2.714   0.575 -0.3866  0.2739  0.7810
 5376SOL    HW127761   4.369   2.795   0.626  1.0649  1.5313 -1.0668
 5376SOL    HW227762   4.288   2.678   0.588  0.3938 -1.4128  1.3942
 5377SOL     OW27763   0.853   1.830   2.642 -0.4122  0.3693  0.1812
 5377SOL    HW127764   0.834   1.758   2.582 -1.3110  1.6907 -1.1134
 5377SOL    HW227765   0.846   1.796   2.731 -2.2342 -4.6720 -1.8547
 5378SOL     OW27766   2.662   1.072   2.843 -0.6482  0.0135  0.0848
 5378SOL    HW127767   2.653   1.138   2.774 -0.0497  1.2517  1.2126
 5378SOL    HW227768   2.570   1.074   2.869 -1.1761 -0.9589 -1.6817
 5379SOL     OW27769   4.252   3.768   5.229  0.1630 -0.7548 -0.4224
 5379SOL    HW127770   4.261   3.852   5.184 -0.4068 -1.5473 -1.9948
 5379SOL    HW227771   4.192   3.722   5.170  0.6302 -2.0121  0.0878
 5380SOL     OW27772   3.042   1.711   9.651  0.2271  0.1130 -0.1118
 5380SOL    HW127773   3.066   1.618   9.650  2.9553  0.8143 -0.1483
 5380SOL    HW227774   2.948   1.706   9.636  0.7371  0.1957 -3.5086
 5381SOL     OW27775   4.598   3.688   2.467  0.0426 -0.4993 -0.0494
 5381SOL    HW127776   4.531   3.756   2.462 -0.7535 -1.3256 -0.5691
 5381SOL    HW227777   4.668   3.739   2.426  1.4150 -2.0666  0.3495
 5382SOL     OW27778   3.329   2.338   8.891  0.7997  1.2288  0.2711
 5382SOL    HW127779   3.382   2.329   8.970  0.4241 -1.3843  0.2088
 5382SOL    HW227780   3.287   2.253   8.906  0.9226  1.3566  1.3910
 5383SOL     OW27781   3.648   3.089   6.790  0.2178 -0.5425  0.1633
 5383SOL    HW127782   3.659   3.183   6.775 -2.8070 -0.2819 -0.4494
 5383SOL    HW227783   3.573   3.075   6.733  0.0694  0.4477  0.1054
 5384SOL     OW27784   0.823   3.586   3.679  0.5332 -0.5921  0.1077
 5384SOL    HW127785   0.901   3.546   3.640 -0.4177  0.7688 -3.1960
 5384SOL    HW227786   0.769   3.593   3.600  1.8077 -1.5620 -0.8485
 5385SOL     OW27787   0.692   0.759   3.673  0.0699 -0.1646  0.0238
 5385SOL    HW127788   0.683   0.786   3.582  1.2657 -1.4490 -0.4768
 5385SOL    HW227789   0.786   0.744   3.688 -0.0696 -0.2176  0.8370
 5386SOL     OW27790   2.760   0.478  17.638  0.3594 -0.1268 -0.3434
 5386SOL    HW127791   2.760   0.383  17.649  0.7950 -0.1519 -0.5882
 5386SOL    HW227792   2.802   0.477  17.552  0.0833  1.4907 -0.5118
 5387SOL     OW27793   2.616   3.343   9.137 -0.0987 -0.1177  0.4074
 5387SOL    HW127794   2.702   3.340   9.096  0.2001  3.1043  0.8273
 5387SOL    HW227795   2.643   3.380   9.221  1.2862  0.8454 -0.4594
 5388SOL     OW27796   4.170   3.896   8.887 -0.1919 -0.1433  0.2218
 5388SOL    HW127797   4.208   3.913   8.800  1.1762  0.8255  1.0167
 5388SOL    HW227798   4.250   3.885   8.938 -0.3883  1.4495  0.8410
 5389SOL     OW27799   1.229   2.413   8.179  0.5087 -0.2189  0.1738
 5389SOL    HW127800   1.244   2.417   8.085 -1.8694  0.0610 -0.1832
 5389SOL    HW227801   1.268   2.327   8.195  0.6405 -0.2590 -0.3787
 5390SOL     OW27802   0.983   3.070   2.547 -0.2788  0.1331 -0.5058
 5390SOL    HW127803   1.048   3.071   2.617  0.7604  0.7617 -1.4592
 5390SOL    HW227804   0.988   2.976   2.529 -0.4863 -0.0076  0.1906
 5391SOL     OW27805   2.075   3.047   3.549  0.3186  0.7188  0.2451
 5391SOL    HW127806   2.111   3.075   3.633  3.3053  1.9586 -1.4922
 5391SOL    HW227807   2.118   3.112   3.493  2.2238  0.4992  1.4796
 5392SOL     OW27808   1.205   1.113   7.566  0.0828 -0.4035  0.4452
 5392SOL    HW127809   1.291   1.155   7.564  1.2324 -2.8082 -0.2934
 5392SOL    HW227810   1.222   1.037   7.622  1.2447  0.6339  1.4964
 5393SOL     OW27811   1.426   4.107  15.259  0.3716  0.1930  0.0553
 5393SOL    HW127812   1.455   4.032  15.207 -1.6484 -1.6075  1.4976
 5393SOL    HW227813   1.338   4.083  15.286 -0.1418  0.8194 -1.0563
 5394SOL     OW27814   4.150   3.678   6.456 -0.0146  0.1961 -0.2090
 5394SOL    HW127815   4.222   3.684   6.519 -0.3840  1.1293  0.1328
 5394SOL    HW227816   4.078   3.645   6.510  2.0939  1.2573  3.2634
 5395SOL     OW27817   1.998   1.707  14.783  0.0746 -0.2473  1.0162
 5395SOL    HW127818   1.986   1.699  14.878  0.5827 -0.7304  1.0333
 5395SOL    HW227819   2.058   1.782  14.781  1.0441 -1.0468  0.1092
 5396SOL     OW27820   1.517   0.515   3.808  1.1389  0.5027  0.0487
 5396SOL    HW127821   1.450   0.556   3.863  1.4539 -1.7458  2.1129
 5396SOL    HW227822   1.468   0.493   3.729  2.1124 -0.5724 -0.2604
 5397SOL     OW27823   2.852   1.333  10.404  0.4948 -0.3417 -0.3934
 5397SOL    HW127824   2.770   1.300  10.368 -1.1026  1.1915  1.8387
 5397SOL    HW227825   2.867   1.379  10.322  2.3061  0.0694  0.1709
 5398SOL     OW27826   1.198   1.113   9.418  0.0988  0.4749 -0.3792
 5398SOL    HW127827   1.150   1.179   9.368 -0.8183 -0.6086 -0.9235
 5398SOL    HW227828   1.282   1.155   9.438  0.1750  0.8558 -1.5282
 5399SOL     OW27829   0.424   0.842  15.864  0.0039  0.4661  0.2831
 5399SOL    HW127830   0.403   0.763  15.913  0.3599 -0.2619 -0.7291
 5399SOL    HW227831   0.403   0.911  15.927  2.5577  0.0116  1.6503
 5400SOL     OW27832   2.041   1.161   5.448 -0.3808  0.1251  0.5793
 5400SOL    HW127833   1.957   1.200   5.471 -0.5725  0.4132 -0.6107
 5400SOL    HW227834   2.089   1.167   5.531 -1.1831 -1.9407  1.1899
 5401SOL     OW27835   1.994   4.500   5.439  0.0373  0.2931 -0.6371
 5401SOL    HW127836   1.983   4.406   5.449  1.2322 -0.0158 -2.0936
 5401SOL    HW227837   1.906   4.529   5.413  0.2377  0.1968 -1.4174
 5402SOL     OW27838   2.154   2.298   4.991 -0.2359  0.1234  0.5832
 5402SOL    HW127839   2.084   2.272   4.932  0.4057  1.0699 -0.5803
 5402SOL    HW227840   2.135   2.236   5.061  1.0761 -0.6318  0.2643
 5403SOL     OW27841   3.958   0.632  11.461 -0.0533  0.2559  0.1697
 5403SOL    HW127842   4.047   0.665  11.454 -0.4697  1.5965  0.9584
 5403SOL    HW227843   3.965   0.574  11.537 -0.6455  0.9417  0.7534
 5404SOL     OW27844   1.669   4.657   3.758 -0.5660  0.4117 -0.6092
 5404SOL    HW127845   1.740   4.657   3.694 -0.6234  0.5159 -0.6728
 5404SOL    HW227846   1.591   4.661   3.703  0.4589  0.1587 -2.0808
 5405SOL     OW27847   2.441   1.035   6.244  0.3217 -0.4870  0.0858
 5405SOL    HW127848   2.484   1.068   6.323  0.3604  0.2949 -0.2607
 5405SOL    HW227849   2.353   1.053   6.279  1.4542  0.2456  2.5554
 5406SOL     OW27850   4.054   3.278   4.352 -0.1536  0.1250 -0.4743
 5406SOL    HW127851   4.038   3.372   4.345  2.4669  0.6969  1.0146
 5406SOL    HW227852   3.968   3.241   4.336 -0.8058  1.2829  0.3362
 5407SOL     OW27853   0.152   1.364   3.991  0.4413  0.0892 -0.0640
 5407SOL    HW127854   0.163   1.297   3.923 -0.2998  0.5829 -0.6733
 5407SOL    HW227855   0.190   1.322   4.067  0.2944 -0.5115 -0.3232
 5408SOL     OW27856   1.435   2.501   1.378  0.2322  0.0661 -0.3804
 5408SOL    HW127857   1.454   2.407   1.369  0.8858 -0.0143  1.9315
 5408SOL    HW227858   1.381   2.509   1.299  0.9410  0.4236 -0.8270
 5409SOL     OW27859   2.580   1.168   7.172 -0.2081 -0.0066 -0.0980
 5409SOL    HW127860   2.597   1.189   7.264 -2.0108  3.2737 -0.4945
 5409SOL    HW227861   2.632   1.089   7.156  0.1742  0.1811  0.1926
 5410SOL     OW27862   4.578   2.372  17.241  0.3123  0.8622  0.4097
 5410SOL    HW127863   4.519   2.329  17.303  0.4696 -2.4117 -1.7107
 5410SOL    HW227864   4.666   2.365  17.278 -0.5381 -1.1040  2.0399
 5411SOL     OW27865   0.294   1.635  16.673 -0.0197 -1.1905  0.4487
 5411SOL    HW127866   0.313   1.727  16.659 -0.7287 -1.1370 -0.1614
 5411SOL    HW227867   0.236   1.610  16.601  1.1963  0.0231 -0.9513
 5412SOL     OW27868   2.871   2.248  14.756 -0.0233  0.4460 -0.0893
 5412SOL    HW127869   2.794   2.221  14.706  1.3828 -1.7477 -1.0613
 5412SOL    HW227870   2.907   2.305  14.688  0.4816 -0.1753 -0.3456
 5413SOL     OW27871   3.850   3.306  14.241  0.5709  0.1273  0.1644
 5413SOL    HW127872   3.891   3.342  14.319 -1.6583  0.3384  1.2298
 5413SOL    HW227873   3.761   3.340  14.246  0.8653  0.9986 -0.4253
 5414SOL     OW27874   1.216   2.915   5.971  0.0019 -0.5962 -0.8298
 5414SOL    HW127875   1.142   2.855   5.975 -0.6199  0.1687 -0.9722
 5414SOL    HW227876   1.184   2.996   6.011  0.6649 -0.0326 -1.4365
 5415SOL     OW27877   1.738   1.761   3.746 -0.2425  0.0057 -0.0049
 5415SOL    HW127878   1.738   1.795   3.656 -0.1296  3.0657  1.1453
 5415SOL    HW227879   1.701   1.834   3.796 -0.3632  0.2597 -0.4618
 5416SOL     OW27880   2.126   0.901   8.998  0.6549 -0.0938 -0.2781
 5416SOL    HW127881   2.073   0.970   9.036  2.3585  1.1121 -0.0883
 5416SOL    HW227882   2.096   0.917   8.908  0.6997 -0.4221 -0.3502
 5417SOL     OW27883   2.131   3.371   7.506 -0.3869  0.5376  0.7018
 5417SOL    HW127884   2.039   3.353   7.492  0.1274 -1.5956  0.0386
 5417SOL    HW227885   2.141   3.396   7.414 -0.8359 -1.8392  0.0183
 5418SOL     OW27886   3.482   1.240   5.445 -0.4071 -0.5784 -0.1066
 5418SOL    HW127887   3.532   1.300   5.389  1.4065 -1.9770 -0.0169
 5418SOL    HW227888   3.537   1.161   5.446 -1.9023 -1.5972  1.0422
 5419SOL     OW27889   1.622   3.560   0.752 -0.0044 -0.2365  0.2277
 5419SOL    HW127890   1.707   3.599   0.736  0.1360 -0.4851  0.3682
 5419SOL    HW227891   1.578   3.559   0.666 -1.3461 -0.3837  0.9066
 5420SOL     OW27892   2.774   2.973   6.527 -0.5025  0.5880  0.0862
 5420SOL    HW127893   2.803   2.967   6.436  1.3501  0.6586  0.6807
 5420SOL    HW227894   2.832   2.905   6.561 -1.7964 -1.3075 -1.4783
 5421SOL     OW27895   1.532   1.096   7.331 -0.7166  0.2468  0.8199
 5421SOL    HW127896   1.482   1.172   7.303 -2.4259 -1.5525 -0.9890
 5421SOL    HW227897   1.493   1.065   7.413  0.5344 -0.5866  1.0914
 5422SOL     OW27898   2.719   1.795   5.542 -0.1057  0.2880  0.5570
 5422SOL    HW127899   2.628   1.782   5.513  0.1400  1.1363 -0.5780
 5422SOL    HW227900   2.764   1.728   5.491  0.9883  2.9174 -1.8995
 5423SOL     OW27901   0.222   2.144   4.595 -0.3260 -0.3968 -0.2263
 5423SOL    HW127902   0.207   2.176   4.506 -0.6425 -0.2276 -0.1118
 5423SOL    HW227903   0.196   2.052   4.585  2.0604 -1.1670  0.5365
 5424SOL     OW27904   3.673   4.610   7.550 -0.0181 -0.5683  0.3192
 5424SOL    HW127905   3.640   4.677   7.610  1.0568 -0.9607  1.3534
 5424SOL    HW227906   3.732   4.561   7.607  0.3166 -0.3343  0.1771
 5425SOL     OW27907   3.902   1.725  17.023  0.4313 -0.2970  0.3380
 5425SOL    HW127908   3.839   1.670  16.976 -0.3939 -0.6127  1.8045
 5425SOL    HW227909   3.896   1.696  17.114 -0.8160  1.0869  0.6926
 5426SOL     OW27910   2.913   3.940   2.016  0.1058 -0.6119 -0.3260
 5426SOL    HW127911   2.869   3.893   2.086 -0.3060 -0.3083 -0.3820
 5426SOL    HW227912   2.941   3.865   1.963 -0.3256  0.0146 -1.4484
 5427SOL     OW27913   1.979   4.101   2.940  0.5379 -0.2155 -0.1354
 5427SOL    HW127914   1.886   4.081   2.940  0.2320  1.1940  0.1403
 5427SOL    HW227915   1.977   4.188   2.899 -1.2153  0.5500  1.5632
 5428SOL     OW27916   3.624   2.709   4.690 -0.0817 -0.3474 -0.1760
 5428SOL    HW127917   3.567   2.633   4.700  0.2904 -0.7257 -0.8464
 5428SOL    HW227918   3.687   2.663   4.634  1.2902  1.5642 -0.1909
 5429SOL     OW27919   0.990   1.828   1.027  0.1730 -0.1792  0.1196
 5429SOL    HW127920   0.939   1.891   0.977 -1.2571 -0.4686  1.2146
 5429SOL    HW227921   0.928   1.796   1.092  0.2965 -0.0382  0.3071
 5430SOL     OW27922   0.693   1.558   7.840 -0.1512 -0.6468  0.7445
 5430SOL    HW127923   0.700   1.623   7.909 -1.0107 -1.0001  1.1568
 5430SOL    HW227924   0.771   1.584   7.791 -1.5253  0.4379 -0.8676
 5431SOL     OW27925   1.117   4.272   2.952 -0.5217 -0.0842 -0.1200
 5431SOL    HW127926   1.138   4.365   2.943 -3.9037  0.8415  1.3580
 5431SOL    HW227927   1.040   4.272   3.009 -1.3359  4.0119 -1.2788
 5432SOL     OW27928   1.816   3.835   8.503 -0.6753 -0.2396  0.3906
 5432SOL    HW127929   1.813   3.760   8.443  2.7071 -0.3781  0.4019
 5432SOL    HW227930   1.754   3.890   8.456  0.2436  1.0291  0.6683
 5433SOL     OW27931   0.028   0.183   6.190  0.2097  0.5982 -0.3568
 5433SOL    HW127932   0.075   0.175   6.272  1.2279 -0.1015 -1.0113
 5433SOL    HW227933   0.070   0.115   6.138  0.9141  0.4980  0.3512
 5434SOL     OW27934   3.028   2.207   7.246 -0.4254  0.3703 -0.0860
 5434SOL    HW127935   2.957   2.147   7.223  0.5870 -1.4448  1.5313
 5434SOL    HW227936   3.106   2.164   7.210 -0.1661 -0.9422  2.0634
 5435SOL     OW27937   1.873   1.643   6.269 -0.1187 -0.1527  0.0110
 5435SOL    HW127938   1.871   1.683   6.182  0.6739  0.1042  0.1114
 5435SOL    HW227939   1.815   1.569   6.250 -0.3217 -0.3570  1.4276
 5436SOL     OW27940   1.005   2.791   1.468 -0.1699 -0.0392 -0.1023
 5436SOL    HW127941   0.912   2.775   1.448 -0.4197  0.3753  0.7489
 5436SOL    HW227942   1.044   2.824   1.387  2.7354 -1.9493  0.5347
 5437SOL     OW27943   0.051   3.967   0.271  0.5411 -0.3970  0.5074
 5437SOL    HW127944   0.134   3.929   0.243 -0.8740 -0.4068 -3.6765
 5437SOL    HW227945   4.728   3.897   0.242 -1.1028  1.3673 -0.3946
 5438SOL     OW27946   3.613   2.763  14.623 -0.3262  0.2310 -0.4466
 5438SOL    HW127947   3.566   2.833  14.579  0.2314  0.3049 -0.9185
 5438SOL    HW227948   3.539   2.718  14.664  0.4135 -0.0508  0.5974
 5439SOL     OW27949   0.352   1.624  15.786 -0.3109 -0.0092  0.3910
 5439SOL    HW127950   0.386   1.598  15.700 -0.9579 -2.8525  1.0042
 5439SOL    HW227951   0.394   1.709  15.799  0.5437 -0.3544 -0.1694
 5440SOL     OW27952   2.485   2.780   2.795  0.2449  0.6189 -0.8204
 5440SOL    HW127953   2.551   2.711   2.793 -1.1724 -0.7291 -1.4571
 5440SOL    HW227954   2.535   2.859   2.816 -0.0906  0.4295  0.6435
 5441SOL     OW27955   3.606   2.023   4.209  0.0335 -0.3376  0.0936
 5441SOL    HW127956   3.647   2.103   4.175 -0.3303 -0.4823 -0.7005
 5441SOL    HW227957   3.657   1.955   4.165 -1.5310 -1.9080  0.7077
 5442SOL     OW27958   0.151   4.276   5.100  0.5280  0.0852 -0.0404
 5442SOL    HW127959   0.059   4.256   5.087  0.5732 -1.5495  2.0479
 5442SOL    HW227960   0.203   4.196   5.100  1.6591  0.8247  1.3168
 5443SOL     OW27961   2.895   0.158  12.213  0.0197 -0.9364  0.1589
 5443SOL    HW127962   2.942   0.164  12.130  1.1747  3.5433  1.1242
 5443SOL    HW227963   2.810   0.121  12.189  0.4200 -1.2353 -0.8079
 5444SOL     OW27964   0.600   0.125   2.903 -0.8161 -0.3172 -0.1485
 5444SOL    HW127965   0.505   0.124   2.887 -0.8080 -0.8940 -0.1753
 5444SOL    HW227966   0.623   0.207   2.860 -1.0457 -1.2900 -2.1620
 5445SOL     OW27967   1.105   2.820   9.000  0.0388  0.4546 -0.1958
 5445SOL    HW127968   1.185   2.802   8.951 -0.5152  0.3994 -1.0881
 5445SOL    HW227969   1.120   2.785   9.088 -1.5151  0.5964  0.1178
 5446SOL     OW27970   3.900   0.253   1.797 -0.0635  0.0248 -0.1199
 5446SOL    HW127971   3.857   0.330   1.834  0.3420  1.6101 -2.8708
 5446SOL    HW227972   3.963   0.228   1.864  0.6355  1.8579 -0.0917
 5447SOL     OW27973   2.162   2.450   3.243  0.4594  0.1010 -0.5426
 5447SOL    HW127974   2.154   2.356   3.228  1.0761 -0.5797  3.5334
 5447SOL    HW227975   2.230   2.444   3.310  0.2623  1.3819 -0.2284
 5448SOL     OW27976   4.162   1.643   7.251 -0.3181 -0.2578  0.0293
 5448SOL    HW127977   4.113   1.567   7.281 -0.5823  0.5775  1.6869
 5448SOL    HW227978   4.225   1.594   7.197 -0.0033 -0.1384  0.2904
 5449SOL     OW27979   2.311   1.650   8.823  0.0793  0.3271  0.2025
 5449SOL    HW127980   2.256   1.624   8.749 -0.1992 -0.6326  0.7507
 5449SOL    HW227981   2.252   1.607   8.884 -1.9733  1.0288 -1.2679
 5450SOL     OW27982   3.036   4.638  16.447  0.0692  0.2574  0.0259
 5450SOL    HW127983   3.100   4.611  16.381  0.9374 -0.2898  1.0955
 5450SOL    HW227984   3.018   4.728  16.419 -1.0076  1.2762  4.0024
 5451SOL     OW27985   2.740   2.972   2.886  0.2069 -0.1567  0.3589
 5451SOL    HW127986   2.755   3.052   2.936 -1.7880  1.5086 -1.7455
 5451SOL    HW227987   2.669   3.004   2.830  0.3554  0.2281  0.3942
 5452SOL     OW27988   0.339   2.523   4.499  0.1460 -0.1083  0.4889
 5452SOL    HW127989   0.332   2.434   4.465 -1.2735 -0.4917  1.7896
 5452SOL    HW227990   0.310   2.507   4.588 -0.8593 -1.1754 -0.0265
 5453SOL     OW27991   0.010   1.582   7.473  0.3364  0.6910 -0.0313
 5453SOL    HW127992   0.002   1.565   7.567 -0.4406  1.6579  0.0846
 5453SOL    HW227993   4.680   1.652   7.468 -1.4585 -1.1720 -2.4934
 5454SOL     OW27994   0.095   1.463  11.254  0.2607 -0.0208 -0.3502
 5454SOL    HW127995   0.004   1.470  11.282  0.9311 -0.0594  1.8426
 5454SOL    HW227996   0.092   1.520  11.177 -1.3462 -3.4513 -2.8197
 5455SOL     OW27997   2.708   1.782   4.480 -0.3576 -0.3504 -0.4490
 5455SOL    HW127998   2.713   1.687   4.491 -2.3012 -0.5395 -1.1415
 5455SOL    HW227999   2.622   1.808   4.515  0.7916  1.7008  0.8427
 5456SOL     OW28000   1.152   0.684  12.665  0.5032 -0.0069  0.3862
 5456SOL    HW128001   1.126   0.604  12.619 -2.1878  1.0107  0.1297
 5456SOL    HW228002   1.195   0.655  12.745  0.3078  0.2723  0.5943
 5457SOL     OW28003   0.881   4.174  15.673  0.1719  0.2446  0.7216
 5457SOL    HW128004   0.843   4.229  15.741 -3.7512  0.3174 -1.5449
 5457SOL    HW228005   0.804   4.123  15.648  0.2023  0.6934 -0.2874
 5458SOL     OW28006   0.350   1.455  14.564  0.5219  0.0259  0.4528
 5458SOL    HW128007   0.409   1.501  14.624  0.7449 -3.1617  2.6865
 5458SOL    HW228008   0.268   1.474  14.611  1.1707 -3.6589  3.0874
 5459SOL     OW28009   0.967   2.389   2.091 -0.4292  0.2871 -0.2960
 5459SOL    HW128010   0.948   2.325   2.023 -1.4217  1.6520 -1.2934
 5459SOL    HW228011   1.035   2.446   2.054 -0.8534  0.8948 -0.1288
 5460SOL     OW28012   2.262   1.261  17.314 -0.0444  0.5737  0.4220
 5460SOL    HW128013   2.246   1.185  17.370 -2.6777  2.7041  2.5925
 5460SOL    HW228014   2.290   1.209  17.239  1.2107 -1.7745  2.5084
 5461SOL     OW28015   3.652   2.504   9.316  0.5153  0.0605 -0.2417
 5461SOL    HW128016   3.610   2.448   9.250 -1.1918  1.4171 -0.3069
 5461SOL    HW228017   3.604   2.471   9.391  2.9728 -2.4993  0.2202
 5462SOL     OW28018   0.053   2.849   2.213  0.0087  0.0297 -0.0571
 5462SOL    HW128019   0.034   2.915   2.146 -0.2278  0.3769  0.3458
 5462SOL    HW228020   4.703   2.809   2.225 -0.0255 -0.1941 -1.0301
 5463SOL     OW28021   2.118   2.958   5.924  0.0317 -0.4440  0.0494
 5463SOL    HW128022   2.124   2.868   5.957 -0.0921 -1.1059 -1.7067
 5463SOL    HW228023   2.143   3.012   5.998  2.2517 -0.4284 -0.7099
 5464SOL     OW28024   1.772   0.824   7.804 -0.1206 -0.9063 -0.1506
 5464SOL    HW128025   1.749   0.811   7.712  0.9960 -1.1673 -0.4050
 5464SOL    HW228026   1.850   0.767   7.804  1.7111  1.5963  0.9741
 5465SOL     OW28027   0.563   3.954   5.477 -0.4293  0.3004  0.1331
 5465SOL    HW128028   0.518   3.894   5.416  0.4810  1.9730 -2.1701
 5465SOL    HW228029   0.498   4.022   5.498 -0.4925 -0.1396  1.3462
 5466SOL     OW28030   0.002   1.601   1.824 -0.3495 -0.0963 -0.3324
 5466SOL    HW128031   4.662   1.549   1.850 -0.4948  0.4993  0.4302
 5466SOL    HW228032   4.694   1.686   1.818  2.0134  1.0828 -0.7232
 5467SOL     OW28033   2.017   1.024   8.763 -0.2236  0.5240  0.4731
 5467SOL    HW128034   1.967   1.011   8.682 -1.6569 -2.6519  1.8556
 5467SOL    HW228035   2.105   1.009   8.728 -0.7378 -0.2073 -0.5282
 5468SOL     OW28036   2.332   0.369  13.655  0.2855  0.9144  0.0299
 5468SOL    HW128037   2.248   0.400  13.622  0.7541  1.9073 -0.2134
 5468SOL    HW228038   2.294   0.296  13.704  0.7737  1.6904  1.5819
 5469SOL     OW28039   3.975   3.398   2.609  0.0678 -0.2224  0.2370
 5469SOL    HW128040   3.967   3.314   2.654 -1.8224 -0.1904 -0.0463
 5469SOL    HW228041   4.046   3.438   2.659 -0.0766  0.2006  0.1079
 5470SOL     OW28042   0.660   4.664   3.078 -0.1667  0.6270  0.1179
 5470SOL    HW128043   0.655   4.734   3.012 -2.5870 -0.2274 -0.6163
 5470SOL    HW228044   0.713   4.599   3.031 -1.1567  0.6847 -1.1038
 5471SOL     OW28045   1.944   4.472   1.822  0.0918  0.1458 -0.3962
 5471SOL    HW128046   1.948   4.500   1.913 -0.5793 -0.7857 -0.0738
 5471SOL    HW228047   2.034   4.472   1.790  0.4490 -1.4608  0.6097
 5472SOL     OW28048   0.411   0.513  10.773  0.6305  0.0139  0.0964
 5472SOL    HW128049   0.319   0.503  10.752  0.6172  2.7838 -1.2461
 5472SOL    HW228050   0.434   0.425  10.802 -2.2387 -0.8124 -0.2014
 5473SOL     OW28051   0.841   1.210  10.476 -0.7694 -0.1369  0.5696
 5473SOL    HW128052   0.805   1.299  10.481 -0.9431 -0.2305  1.0417
 5473SOL    HW228053   0.831   1.187  10.569  1.5677 -1.8374  0.4043
 5474SOL     OW28054   1.389   2.719  11.998 -0.7200  0.0751 -1.3531
 5474SOL    HW128055   1.461   2.747  12.055  1.2211  0.0471 -3.8323
 5474SOL    HW228056   1.344   2.803  11.994  0.0704  0.6072  0.9405
 5475SOL     OW28057   2.748   2.625   5.468  0.4564  0.7776 -0.2259
 5475SOL    HW128058   2.835   2.591   5.491  0.3112  1.2251  0.9915
 5475SOL    HW228059   2.735   2.565   5.395  1.4300  1.2847 -0.8107
 5476SOL     OW28060   3.249   1.168   8.640  0.8235  0.2897  0.0261
 5476SOL    HW128061   3.212   1.184   8.727  1.3563 -0.5480  0.4089
 5476SOL    HW228062   3.326   1.225   8.639 -0.4445  1.9882  0.1413
 5477SOL     OW28063   2.931   1.961   5.553 -0.1467  0.3247  0.1005
 5477SOL    HW128064   2.959   1.922   5.471  1.1903  0.8401  0.3155
 5477SOL    HW228065   2.846   1.917   5.562  0.1847 -0.1757  0.8040
 5478SOL     OW28066   3.613   0.011   9.908 -0.6336  0.3087  0.0282
 5478SOL    HW128067   3.518   4.735   9.906 -0.7551  1.3191 -0.1485
 5478SOL    HW228068   3.636   4.669   9.959  0.6021  0.7110  0.0986
 5479SOL     OW28069   2.964   1.536   8.804  0.6251 -0.2823  0.4272
 5479SOL    HW128070   3.053   1.510   8.780  0.0970 -1.1521 -0.5908
 5479SOL    HW228071   2.974   1.630   8.819  0.9103 -0.0665 -1.1120
 5480SOL     OW28072   2.264   3.061   5.457 -0.1488 -0.3793 -0.2138
 5480SOL    HW128073   2.358   3.066   5.475 -0.3226 -0.7226  0.8106
 5480SOL    HW228074   2.267   3.026   5.368 -1.9346  3.1337 -1.6339
 5481SOL     OW28075   3.048   2.747  11.699  0.2800 -0.7852  0.3605
 5481SOL    HW128076   3.093   2.763  11.616 -0.9777 -0.9233 -0.3410
 5481SOL    HW228077   3.015   2.834  11.722 -0.8382 -0.5448 -2.1885
 5482SOL     OW28078   2.477   0.500   1.271  0.4079  0.3447  0.3653
 5482SOL    HW128079   2.415   0.506   1.343 -1.9160 -0.8995 -1.5284
 5482SOL    HW228080   2.456   0.584   1.232  0.0581  0.2611  0.3687
 5483SOL     OW28081   3.452   0.482   4.307 -0.0458 -0.1828  0.1415
 5483SOL    HW128082   3.493   0.486   4.394 -1.2024  0.7108  0.6491
 5483SOL    HW228083   3.499   0.406   4.275  0.5770 -0.2794  1.2792
 5484SOL     OW28084   1.931   0.026  11.344 -0.2719  0.3321  0.5793
 5484SOL    HW128085   1.986   4.696  11.387  1.8221 -0.5201 -3.3801
 5484SOL    HW228086   1.844   4.734  11.372 -0.4272  1.7963  1.5148
 5485SOL     OW28087   4.122   1.856   3.585 -0.7002 -0.0247  0.4255
 5485SOL    HW128088   4.107   1.806   3.504  1.5565  0.1799 -0.1311
 5485SOL    HW228089   4.149   1.943   3.556 -1.1466 -0.6322 -1.8658
 5486SOL     OW28090   0.007   3.209   0.906  0.0276 -0.2313  0.5420
 5486SOL    HW128091   4.721   3.157   0.983 -2.3727 -2.1130 -1.4152
 5486SOL    HW228092   4.735   3.299   0.940 -1.3890  0.9209 -2.8177
 5487SOL     OW28093   3.816   3.361   3.787  0.0864  0.0760  0.0578
 5487SOL    HW128094   3.751   3.416   3.829  0.3538  0.2018  0.3107
 5487SOL    HW228095   3.768   3.308   3.724  0.2287  1.3695 -1.1307
 5488SOL     OW28096   0.646   2.376   4.312  0.2726  0.7573  0.6259
 5488SOL    HW128097   0.604   2.312   4.369  1.5947  1.3262  2.2644
 5488SOL    HW228098   0.722   2.319   4.309 -0.2081  0.1957 -0.5778
 5489SOL     OW28099   1.508   4.478   7.219 -0.1261 -0.3488  0.5714
 5489SOL    HW128100   1.589   4.526   7.202 -0.2812 -0.3851 -0.2699
 5489SOL    HW228101   1.476   4.537   7.286 -2.0950  1.0087 -1.5900
 5490SOL     OW28102   2.355   0.796  13.948  0.4374 -0.1796  0.1248
 5490SOL    HW128103   2.352   0.892  13.951  0.6998 -0.1447 -0.5720
 5490SOL    HW228104   2.277   0.774  13.999  2.7370  2.7151  4.9003
 5491SOL     OW28105   3.624   2.471   9.621  0.4095 -0.4180  0.3526
 5491SOL    HW128106   3.562   2.404   9.649 -1.9584  2.2592  1.5716
 5491SOL    HW228107   3.697   2.416   9.592 -0.6546 -0.6127 -1.9416
 5492SOL     OW28108   0.782   3.634   5.462  0.4228 -0.1949 -0.3444
 5492SOL    HW128109   0.727   3.630   5.384  1.7107  0.3631 -1.2863
 5492SOL    HW228110   0.807   3.541   5.469 -0.7470 -0.5557 -0.8238
 5493SOL     OW28111   3.087   0.244  17.337  0.2342 -0.3728 -0.1267
 5493SOL    HW128112   3.066   0.241  17.244 -0.1211 -1.1385 -0.0230
 5493SOL    HW228113   3.182   0.232  17.330  0.3121 -0.2746  0.7297
 5494SOL     OW28114   4.459   0.321   7.083  0.3063 -0.3271  0.2017
 5494SOL    HW128115   4.534   0.262   7.077  1.3005  0.9068  0.3499
 5494SOL    HW228116   4.399   0.285   7.018 -0.3524  3.2540 -1.1610
 5495SOL     OW28117   3.235   4.203   0.649  0.5168 -0.2986  0.4154
 5495SOL    HW128118   3.319   4.223   0.691 -0.8270  1.7928  2.1754
 5495SOL    HW228119   3.247   4.236   0.560  2.5924 -1.2297  0.3533
 5496SOL     OW28120   0.224   4.143   3.544  0.2389  0.1671 -0.2091
 5496SOL    HW128121   0.226   4.215   3.481 -0.3687  1.6409  1.4564
 5496SOL    HW228122   0.198   4.191   3.622  1.0277 -0.9895  0.7731
 5497SOL     OW28123   2.552   0.844   6.098 -0.8636  0.1469 -0.1652
 5497SOL    HW128124   2.578   0.794   6.175 -2.1991  0.2792  0.3550
 5497SOL    HW228125   2.503   0.909   6.148 -1.1148  0.1428 -0.4114
 5498SOL     OW28126   2.350   1.226   7.614 -0.3876 -0.3474 -0.5849
 5498SOL    HW128127   2.342   1.319   7.594  0.4271 -0.0563  0.4358
 5498SOL    HW228128   2.297   1.219   7.693 -0.3709 -0.4974 -0.5858
 5499SOL     OW28129   3.644   2.296   3.567 -0.4467 -0.3695  0.0103
 5499SOL    HW128130   3.606   2.361   3.509  0.5909 -0.5130 -0.8159
 5499SOL    HW228131   3.726   2.271   3.524  0.2951 -0.5569  1.5211
 5500SOL     OW28132   0.925   2.983   6.961 -0.1198  0.0083  0.0773
 5500SOL    HW128133   0.883   2.930   6.894  0.2926 -0.7964  0.4632
 5500SOL    HW228134   0.852   2.996   7.021 -1.4778 -0.7272 -1.4158
 5501SOL     OW28135   3.376   0.898   8.525 -0.2156  0.3194 -0.7099
 5501SOL    HW128136   3.328   0.967   8.571  0.3176  0.5760 -0.5455
 5501SOL    HW228137   3.384   0.944   8.441 -0.3918  3.3775  0.9679
 5502SOL     OW28138   1.722   1.095   4.579 -0.2916 -0.2609  0.3643
 5502SOL    HW128139   1.652   1.153   4.547  0.8921  1.6514  1.2680
 5502SOL    HW228140   1.684   1.049   4.654 -2.1731  0.1909 -0.3002
 5503SOL     OW28141   0.459   2.199   8.145 -0.1455 -0.4115  0.2134
 5503SOL    HW128142   0.530   2.161   8.196 -1.6315 -1.6533  1.3726
 5503SOL    HW228143   0.471   2.290   8.170 -1.0617 -0.2170 -0.0273
 5504SOL     OW28144   0.151   1.020  13.127 -0.3283  0.1371  0.1280
 5504SOL    HW128145   0.230   1.073  13.127 -0.7032  0.6977  3.2392
 5504SOL    HW228146   0.190   0.935  13.141  1.2327  0.5206 -1.8428
 5505SOL     OW28147   3.306   2.903  16.964  0.0655  0.1259  0.2491
 5505SOL    HW128148   3.261   2.955  17.031 -0.7514 -1.3165  0.8236
 5505SOL    HW228149   3.334   2.827  17.014  1.0772 -0.3409 -1.0462
 5506SOL     OW28150   0.016   1.907   5.825  0.4347  0.4694 -0.6707
 5506SOL    HW128151   0.061   1.922   5.742 -1.1027  0.4601 -1.4958
 5506SOL    HW228152   0.024   1.812   5.833 -0.1317  0.6114  1.4304
 5507SOL     OW28153   2.086   1.596  15.128  0.0300  0.7980  0.2036
 5507SOL    HW128154   2.013   1.534  15.132  1.7660 -1.1891  0.8796
 5507SOL    HW228155   2.047   1.682  15.111 -0.5149  0.1186 -2.0019
 5508SOL     OW28156   4.213   1.322   4.187  0.7578  0.1314  0.3319
 5508SOL    HW128157   4.141   1.261   4.203  1.3379 -0.3297  1.1342
 5508SOL    HW228158   4.195   1.337   4.094  0.8560 -1.6888  0.0198
 5509SOL     OW28159   2.514   3.210   5.746  0.1888 -0.0567 -0.1460
 5509SOL    HW128160   2.439   3.251   5.788  1.6336  1.8197  0.6630
 5509SOL    HW228161   2.473   3.125   5.736  1.6293 -1.3790  4.8544
 5510SOL     OW28162   4.453   1.783   5.848  0.2378 -0.0969 -0.2224
 5510SOL    HW128163   4.402   1.798   5.768 -0.3451  0.7340  0.3077
 5510SOL    HW228164   4.542   1.789   5.811 -0.0002 -1.0232 -0.9336
 5511SOL     OW28165   4.391   3.721   6.579  0.4176  0.5306  0.0445
 5511SOL    HW128166   4.463   3.715   6.517 -1.2940  2.2466 -2.1158
 5511SOL    HW228167   4.429   3.685   6.659  0.4056  2.3551  0.8623
 5512SOL     OW28168   2.452   0.436   5.050  0.2303  0.5747 -0.3288
 5512SOL    HW128169   2.544   0.462   5.053 -0.0096  1.1663  1.7544
 5512SOL    HW228170   2.455   0.367   5.116  0.2911  2.5399  1.7277
 5513SOL     OW28171   0.984   0.290   4.588 -0.0483  0.8296 -0.3007
 5513SOL    HW128172   0.914   0.296   4.523 -0.2094 -0.5561 -0.2430
 5513SOL    HW228173   0.940   0.263   4.668 -1.2070  1.8285 -0.5998
 5514SOL     OW28174   3.267   1.555  10.469 -0.6534 -1.2619  0.1148
 5514SOL    HW128175   3.314   1.591  10.544 -0.1268 -1.2818 -0.2063
 5514SOL    HW228176   3.195   1.507  10.511 -0.7822  0.2716  1.6372
 5515SOL     OW28177   3.297   0.846   6.236 -0.2398  0.3811 -0.1206
 5515SOL    HW128178   3.295   0.934   6.273  0.7059  0.0853  0.6272
 5515SOL    HW228179   3.215   0.849   6.185 -1.3419  0.6319  1.6909
 5516SOL     OW28180   4.607   0.544   5.221 -0.0909 -0.5925 -0.4372
 5516SOL    HW128181   4.524   0.562   5.175 -0.2159 -3.0314 -1.1445
 5516SOL    HW228182   4.575   0.475   5.279  2.0942 -1.2168  0.0288
 5517SOL     OW28183   1.900   2.955   0.514 -0.2054  0.3000 -0.0146
 5517SOL    HW128184   1.868   2.913   0.435 -1.8113  2.7443 -0.6816
 5517SOL    HW228185   1.848   3.034   0.496  0.4789  0.1129 -2.7886
 5518SOL     OW28186   0.579   4.556   2.216 -0.6255 -0.4172  0.2730
 5518SOL    HW128187   0.601   4.475   2.170 -0.5539 -2.2533  3.5223
 5518SOL    HW228188   0.648   4.574   2.279  0.6425  0.9873 -1.5248
 5519SOL     OW28189   4.574   1.906   7.601 -0.3265 -0.0714 -0.7365
 5519SOL    HW128190   4.635   1.863   7.661 -0.6708 -0.2276 -0.4960
 5519SOL    HW228191   4.500   1.846   7.605 -0.1013 -0.1467  2.5285
 5520SOL     OW28192   4.044   0.898   7.557  0.1011  0.0588  0.1936
 5520SOL    HW128193   4.069   0.871   7.645 -1.5932 -1.4993  0.2105
 5520SOL    HW228194   4.054   0.816   7.510  2.2320  0.8232 -0.6780
 5521SOL     OW28195   4.493   1.138  12.472 -0.2115 -0.1241  0.4964
 5521SOL    HW128196   4.494   1.056  12.424  0.3531  1.4565 -2.2136
 5521SOL    HW228197   4.579   1.136  12.513 -0.6934  1.0724  1.5786
 5522SOL     OW28198   2.560   1.230   9.025 -0.2548 -0.1501  0.2303
 5522SOL    HW128199   2.495   1.161   9.041  0.3426 -0.4953  1.1335
 5522SOL    HW228200   2.518   1.281   8.955 -1.2552 -2.0858 -0.5921
 5523SOL     OW28201   1.112   4.234   5.924  0.2603 -0.5803  0.4261
 5523SOL    HW128202   1.098   4.153   5.876  0.8317 -0.1918 -0.4043
 5523SOL    HW228203   1.200   4.216   5.957  1.3525  1.9660 -1.0645
 5524SOL     OW28204   2.810   3.764   5.709  0.9334 -0.1942 -0.4480
 5524SOL    HW128205   2.725   3.721   5.715  0.7475 -0.0110 -1.8645
 5524SOL    HW228206   2.829   3.784   5.801 -1.3547 -2.0212  0.4013
 5525SOL     OW28207   3.050   0.891   3.201 -0.2309 -0.3864  0.1322
 5525SOL    HW128208   3.059   0.817   3.140 -0.1323 -1.0232  0.9238
 5525SOL    HW228209   2.993   0.949   3.150  0.7119  1.5006  1.2043
 5526SOL     OW28210   2.264   0.434  12.687 -0.3846 -0.2275  0.2683
 5526SOL    HW128211   2.215   0.396  12.614 -0.2613 -0.1664  0.1556
 5526SOL    HW228212   2.214   0.393  12.758 -1.8777 -0.4019 -0.8855
 5527SOL     OW28213   1.289   3.039   8.841 -0.3424  0.7265 -0.1569
 5527SOL    HW128214   1.246   3.032   8.756  0.5557  0.7595 -0.6120
 5527SOL    HW228215   1.383   3.045   8.823 -0.1229 -1.6040  0.2300
 5528SOL     OW28216   0.958   3.738  15.370  0.1123  0.1239  0.4738
 5528SOL    HW128217   0.972   3.716  15.278 -0.9655  2.2626 -0.2196
 5528SOL    HW228218   0.929   3.829  15.358 -1.9841 -0.3895  1.5865
 5529SOL     OW28219   1.332   1.575   4.185 -0.3452  0.2937 -0.0155
 5529SOL    HW128220   1.402   1.553   4.125  0.1425 -0.5241  0.8588
 5529SOL    HW228221   1.331   1.670   4.174  0.4895  0.3025  0.0120
 5530SOL     OW28222   4.641   0.474   5.820 -0.2222 -0.2325  0.2304
 5530SOL    HW128223   4.656   0.385   5.851  0.4600 -0.3323 -0.3951
 5530SOL    HW228224   4.662   0.466   5.727  2.4052 -0.8686  0.8770
 5531SOL     OW28225   0.746   1.083  14.953 -0.4298 -0.8115  0.1568
 5531SOL    HW128226   0.692   1.027  14.898 -0.7487 -1.3291  0.9875
 5531SOL    HW228227   0.763   1.163  14.904  1.3128  0.2186  2.4145
 5532SOL     OW28228   3.792   3.725   4.258 -0.2612 -0.3587 -0.0363
 5532SOL    HW128229   3.844   3.740   4.337  0.4955 -0.7788 -0.4486
 5532SOL    HW228230   3.707   3.733   4.300 -0.6669 -1.0611 -0.7264
 5533SOL     OW28231   2.238   4.308   9.333  0.2760 -0.3616  0.2874
 5533SOL    HW128232   2.301   4.248   9.292  0.4337  0.0093 -0.0108
 5533SOL    HW228233   2.191   4.255   9.398 -0.2873 -0.9271 -0.5660
 5534SOL     OW28234   3.793   1.577   5.511 -0.4653  0.3206 -0.1782
 5534SOL    HW128235   3.818   1.562   5.602  0.3567  1.9218 -0.1241
 5534SOL    HW228236   3.871   1.611   5.467 -1.5874  1.0268 -1.5946
 5535SOL     OW28237   0.925   3.839  12.700  0.4194 -0.0135  0.7220
 5535SOL    HW128238   0.987   3.789  12.753 -0.7068 -1.6419  0.4876
 5535SOL    HW228239   0.865   3.851  12.773 -0.9921  1.2863 -0.6585
 5536SOL     OW28240   1.247   2.457   2.075  0.1137 -1.1520  0.1342
 5536SOL    HW128241   1.204   2.488   1.996  1.9663  0.6509 -0.1639
 5536SOL    HW228242   1.335   2.492   2.061  0.2341 -1.6800 -0.4112
 5537SOL     OW28243   2.988   3.753   2.847  0.1414 -0.0656  0.0849
 5537SOL    HW128244   3.033   3.834   2.872  0.9392 -0.8809  1.3216
 5537SOL    HW228245   2.900   3.772   2.880  0.3107  0.1213  0.4293
 5538SOL     OW28246   0.931   3.278  16.898  0.8430  0.4336 -0.3086
 5538SOL    HW128247   0.961   3.363  16.930  0.7842 -0.3696  1.9142
 5538SOL    HW228248   0.837   3.293  16.900  0.5644 -1.3261 -0.3139
 5539SOL     OW28249   2.851   4.389   8.593  0.7205 -1.1513 -0.5638
 5539SOL    HW128250   2.922   4.411   8.533  0.2474 -0.5316 -0.8904
 5539SOL    HW228251   2.886   4.422   8.676  0.1927  1.6498 -1.4923
 5540SOL     OW28252   4.471   4.723   5.877 -0.3705 -0.2090  0.4692
 5540SOL    HW128253   4.455   4.734   5.783 -0.1000  1.9758  0.6744
 5540SOL    HW228254   4.384   4.703   5.912  0.1560 -1.5794  1.0209
 5541SOL     OW28255   4.673   1.775   0.358  0.5012 -0.0045  0.2357
 5541SOL    HW128256   4.677   1.692   0.309 -1.5917 -0.4715  0.8828
 5541SOL    HW228257   0.011   1.834   0.340  1.1688 -0.7215  0.6113
 5542SOL     OW28258   3.230   4.623   3.456  0.7061 -0.2434 -0.1575
 5542SOL    HW128259   3.173   4.590   3.386 -0.7156 -0.8759  1.2947
 5542SOL    HW228260   3.209   4.716   3.452  1.1754 -0.1489 -0.3332
 5543SOL     OW28261   1.484   3.565  16.488 -0.5790 -0.8702 -0.2984
 5543SOL    HW128262   1.412   3.614  16.447 -0.1614 -0.6913 -0.8090
 5543SOL    HW228263   1.441   3.579  16.573  0.3764 -0.4322  0.1131
 5544SOL     OW28264   3.115   0.634   9.468  0.2371  0.0815 -1.1198
 5544SOL    HW128265   3.061   0.591   9.535  0.7790 -0.6075 -1.1270
 5544SOL    HW228266   3.201   0.596   9.487  0.9156  1.8558 -0.6089
 5545SOL     OW28267   2.523   0.178   4.644 -0.0143  0.7386 -0.0993
 5545SOL    HW128268   2.444   0.182   4.698 -0.6072 -1.0208 -0.8340
 5545SOL    HW228269   2.589   0.220   4.700 -1.1621  0.5557  1.4085
 5546SOL     OW28270   3.353   2.749   2.019 -0.2678 -0.6844  0.1836
 5546SOL    HW128271   3.303   2.805   2.079  0.2005 -0.1645  0.0867
 5546SOL    HW228272   3.426   2.811   2.021 -2.0020  1.4287 -1.3368
 5547SOL     OW28273   4.449   0.415   7.728 -0.1716 -0.0505  0.3735
 5547SOL    HW128274   4.429   0.447   7.816 -1.4498 -0.8718  0.3744
 5547SOL    HW228275   4.490   0.331   7.750  0.7651 -0.0883 -1.4972
 5548SOL     OW28276   4.498   3.556   3.028  0.4273  0.5520 -0.1723
 5548SOL    HW128277   4.436   3.621   2.995 -0.2106  0.4257  0.7765
 5548SOL    HW228278   4.497   3.572   3.122 -0.9336 -2.5309  0.3448
 5549SOL     OW28279   1.729   0.136   3.328 -0.0989 -0.0488  0.7697
 5549SOL    HW128280   1.688   0.207   3.278 -0.7131 -0.3451  0.8510
 5549SOL    HW228281   1.804   0.113   3.274 -0.3920 -4.3703  2.2330
 5550SOL     OW28282   2.483   2.619   4.587 -0.5154  0.3730  0.4304
 5550SOL    HW128283   2.430   2.642   4.510  0.2888 -0.3007 -0.3233
 5550SOL    HW228284   2.486   2.696   4.643 -0.4216  1.4959 -1.0964
 5551SOL     OW28285   4.704   4.539   1.365 -0.4963 -0.9617  0.0437
 5551SOL    HW128286   4.661   4.581   1.439 -1.1487 -2.1177  0.3263
 5551SOL    HW228287   4.629   4.515   1.310 -0.5277 -0.5036 -0.1191
 5552SOL     OW28288   3.068   0.385   7.103  0.3501 -0.1892  0.3797
 5552SOL    HW128289   3.003   0.420   7.163  0.2064  1.8480 -0.9891
 5552SOL    HW228290   3.140   0.448   7.106  1.7176 -1.7791  0.9499
 5553SOL     OW28291   1.227   0.884   9.935 -0.2285 -0.1714 -0.0887
 5553SOL    HW128292   1.164   0.866  10.006  2.3616 -3.6434  1.3210
 5553SOL    HW228293   1.171   0.941   9.882  0.5021  0.9707  0.3597
 5554SOL     OW28294   2.350   4.464  16.205  0.2094  0.4821  0.0274
 5554SOL    HW128295   2.442   4.490  16.200  0.3683 -0.1738 -0.4377
 5554SOL    HW228296   2.293   4.491  16.133  0.0459  0.2792  0.0822
 5555SOL     OW28297   0.953   2.055  10.324 -0.4393  0.6922  1.1125
 5555SOL    HW128298   1.048   2.054  10.335 -0.0626  1.2934 -2.0510
 5555SOL    HW228299   0.929   2.140  10.362 -2.0058  0.6922  0.1093
 5556SOL     OW28300   2.255   0.389   8.547  0.7013  0.6594 -0.6221
 5556SOL    HW128301   2.163   0.396   8.522  0.0556 -0.1698  1.5304
 5556SOL    HW228302   2.241   0.317   8.608  2.0319  0.3199 -0.7299
 5557SOL     OW28303   2.375   1.927   0.438  0.1061 -0.5772  0.6589
 5557SOL    HW128304   2.462   1.897   0.462  1.1747  0.4305 -1.9997
 5557SOL    HW228305   2.368   2.010   0.484  1.2898 -0.9580  1.5256
 5558SOL     OW28306   0.763   0.894   7.214  0.0686  0.3492 -0.3913
 5558SOL    HW128307   0.679   0.857   7.189  0.0892  0.3637 -0.4803
 5558SOL    HW228308   0.776   0.977   7.169 -0.7131  1.0475  0.6697
 5559SOL     OW28309   3.202   0.293  16.589  0.5896  0.1522  0.7973
 5559SOL    HW128310   3.248   0.350  16.651  1.5830 -1.3220  1.4006
 5559SOL    HW228311   3.123   0.262  16.633  0.8188 -0.6776  0.6209
 5560SOL     OW28312   0.349   1.015   2.008  0.5017 -0.3528  0.2756
 5560SOL    HW128313   0.413   0.944   2.003  0.0241 -0.7250 -0.6791
 5560SOL    HW228314   0.345   1.020   2.103 -0.9751 -2.6753  0.3488
 5561SOL     OW28315   1.738   1.235  15.026 -0.3200  0.1518 -0.0772
 5561SOL    HW128316   1.658   1.233  14.972 -1.4788  0.8848  1.6019
 5561SOL    HW228317   1.746   1.142  15.046  0.7208  0.1815 -0.3454
 5562SOL     OW28318   3.340   0.140  17.282  0.3963  0.2680  0.6044
 5562SOL    HW128319   3.328   0.049  17.253  0.9095  0.8942 -1.5826
 5562SOL    HW228320   3.370   0.131  17.372  0.7824  1.4813  0.5913
 5563SOL     OW28321   0.206   1.586   4.380 -0.3635 -0.0686  0.1100
 5563SOL    HW128322   0.159   1.627   4.307  0.2290 -1.3643 -0.9976
 5563SOL    HW228323   0.221   1.666   4.431  0.4846 -0.3073  0.2460
 5564SOL     OW28324   4.652   0.245  12.618  0.6024  0.2692 -0.3142
 5564SOL    HW128325   4.690   0.257  12.705  0.2211  3.6338 -0.6024
 5564SOL    HW228326   4.634   0.152  12.625 -0.1885  0.4907  0.5285
 5565SOL     OW28327   0.514   2.753   9.995  0.3265  0.5473 -0.2891
 5565SOL    HW128328   0.582   2.762   9.928  1.7709 -2.6893  0.7061
 5565SOL    HW228329   0.564   2.754  10.077 -1.1351 -1.9801  0.6444
 5566SOL     OW28330   3.277   0.995   1.010 -0.1614 -0.4301 -0.4113
 5566SOL    HW128331   3.305   0.940   1.082 -2.3622  0.3409  1.0213
 5566SOL    HW228332   3.293   0.942   0.931  0.0697  0.6941 -1.1204
 5567SOL     OW28333   2.162   3.625   2.448  0.7001 -0.3205 -0.1230
 5567SOL    HW128334   2.158   3.683   2.373  1.4665 -0.7715 -0.5129
 5567SOL    HW228335   2.250   3.588   2.442  0.1526 -2.1360  2.9210
 5568SOL     OW28336   4.388   3.291   8.923 -0.4565 -0.0244 -0.1745
 5568SOL    HW128337   4.308   3.335   8.895 -1.2505 -0.4030  1.4956
 5568SOL    HW228338   4.450   3.341   8.870  0.2803  1.7597  2.3648
 5569SOL     OW28339   4.366   0.081   2.189  0.6914 -0.0039  0.1665
 5569SOL    HW128340   4.287   0.120   2.226  0.4528  2.1592 -2.6179
 5569SOL    HW228341   4.436   0.134   2.227 -0.0333  0.8249  0.3401
 5570SOL     OW28342   1.427   2.642   2.057 -0.1607  0.1282  0.5179
 5570SOL    HW128343   1.497   2.606   2.002 -1.5666 -1.0081 -0.5321
 5570SOL    HW228344   1.379   2.689   1.990 -0.8040 -2.6283 -0.9469
 5571SOL     OW28345   1.312   1.891   9.736 -0.4479 -0.1162 -0.4398
 5571SOL    HW128346   1.338   1.980   9.711 -1.8289  0.2588 -0.5549
 5571SOL    HW228347   1.337   1.894   9.828 -0.1941  0.8108 -0.5422
 5572SOL     OW28348   3.333   0.276  13.919 -0.1178  0.0524  0.3351
 5572SOL    HW128349   3.324   0.187  13.885  0.3790 -1.0880  3.1927
 5572SOL    HW228350   3.324   0.263  14.013 -1.8769  1.1764  0.3270
 5573SOL     OW28351   0.348   4.541   2.891  0.4785  0.2062  0.3452
 5573SOL    HW128352   0.294   4.462   2.880  0.6917 -0.1332  1.7001
 5573SOL    HW228353   0.411   4.502   2.951  2.6634  1.7678 -0.9447
 5574SOL     OW28354   2.637   1.226   8.702  0.7328  0.3200 -0.3267
 5574SOL    HW128355   2.597   1.283   8.767  1.0175  0.4674 -0.2819
 5574SOL    HW228356   2.568   1.212   8.637  0.1785 -1.1668  0.5800
 5575SOL     OW28357   1.937   0.653   6.454 -0.1413  0.1546  0.0940
 5575SOL    HW128358   1.936   0.670   6.359 -1.3565 -0.1276  0.0595
 5575SOL    HW228359   2.029   0.649   6.482 -0.6579 -2.0976  1.4579
 5576SOL     OW28360   0.416   1.245   2.562  0.3097 -0.2824  0.1590
 5576SOL    HW128361   0.362   1.168   2.579 -3.1935  1.9009 -1.1953
 5576SOL    HW228362   0.361   1.306   2.611 -2.4526 -1.5752 -1.3536
 5577SOL     OW28363   4.511   0.029   4.014 -0.6396  0.0541 -0.4573
 5577SOL    HW128364   4.549   4.678   4.006  0.9361  0.4426  2.8846
 5577SOL    HW228365   4.426   0.012   4.054 -0.6692  3.6096  1.0584
 5578SOL     OW28366   1.515   3.114  12.005 -0.1211  0.3673 -0.1999
 5578SOL    HW128367   1.575   3.106  11.931 -1.2955 -0.3266 -1.0723
 5578SOL    HW228368   1.552   3.183  12.061  1.8193 -1.8147  1.1800
 5579SOL     OW28369   0.325   0.837   6.459  0.3998  0.1193 -0.1133
 5579SOL    HW128370   0.239   0.824   6.419 -0.1969  0.6251  1.0077
 5579SOL    HW228371   0.315   0.911   6.518 -1.3217  0.6497 -1.0675
 5580SOL     OW28372   1.118   1.804   4.449 -0.5257  0.2897  0.2733
 5580SOL    HW128373   1.181   1.747   4.404 -1.3763 -1.6196  1.4953
 5580SOL    HW228374   1.072   1.841   4.374  0.0550  3.2373  1.3583
 5581SOL     OW28375   3.434   4.592   9.406  0.4150 -0.3854  0.1836
 5581SOL    HW128376   3.415   4.642   9.485 -2.2769 -0.5884 -0.3420
 5581SOL    HW228377   3.405   4.507   9.438 -2.0400  0.5892  0.5420
 5582SOL     OW28378   3.755   4.721   1.541  0.6372 -0.8616 -0.8746
 5582SOL    HW128379   3.802   0.065   1.517  1.1088  0.3467  4.0950
 5582SOL    HW228380   3.676   0.001   1.490  0.0007 -1.7709 -0.1727
 5583SOL     OW28381   2.760   1.437  12.687 -0.2130 -0.3118 -0.3793
 5583SOL    HW128382   2.722   1.512  12.640 -1.7815 -1.6225 -1.2088
 5583SOL    HW228383   2.772   1.470  12.776 -0.1207 -0.2363 -0.4198
 5584SOL     OW28384   1.302   1.258   5.950  0.6413 -0.2335 -0.3391
 5584SOL    HW128385   1.377   1.247   5.892  1.3082  1.2447  0.2282
 5584SOL    HW228386   1.241   1.314   5.902  2.5608  1.3128 -0.9905
 5585SOL     OW28387   4.078   2.022  13.251  0.0700  0.1041 -0.3174
 5585SOL    HW128388   4.095   1.946  13.307 -2.6091 -1.9244 -2.1864
 5585SOL    HW228389   3.983   2.019  13.237  0.0446  0.9534 -0.3174
 5586SOL     OW28390   2.751   2.687   2.186  0.5630 -0.1349 -0.3162
 5586SOL    HW128391   2.834   2.733   2.173  2.7309 -3.0746  3.1683
 5586SOL    HW228392   2.779   2.631   2.259  0.8888 -0.1584 -0.4579
 5587SOL     OW28393   1.462   1.468   7.138 -0.3311  0.1159  0.0163
 5587SOL    HW128394   1.535   1.406   7.133  1.3589  2.1857 -1.3075
 5587SOL    HW228395   1.502   1.546   7.176 -0.6138 -0.0000  0.5412
 5588SOL     OW28396   2.605   2.872  17.148 -0.0183 -0.3044 -0.5490
 5588SOL    HW128397   2.691   2.912  17.164 -0.2937  0.1439 -0.2126
 5588SOL    HW228398   2.575   2.853  17.237  0.7751  1.9365  0.2159
 5589SOL     OW28399   4.132   0.751   5.756 -0.1233 -0.1824  0.2747
 5589SOL    HW128400   4.068   0.820   5.776 -0.8381 -0.9436  0.6206
 5589SOL    HW228401   4.109   0.734   5.664 -1.1164 -1.1712  0.7091
 5590SOL     OW28402   2.242   2.861   2.368  0.1326 -0.0149  0.4390
 5590SOL    HW128403   2.240   2.852   2.464  0.1934  2.6944  0.7029
 5590SOL    HW228404   2.307   2.930   2.356 -0.0454  0.2285  0.8706
 5591SOL     OW28405   0.879   1.850  12.120  0.2426  0.0018 -0.1937
 5591SOL    HW128406   0.801   1.906  12.123  2.0529  2.3664  2.8027
 5591SOL    HW228407   0.943   1.921  12.120 -0.7104  0.8487  0.0020
 5592SOL     OW28408   2.567   0.446   4.777  0.2327  0.0402  0.2747
 5592SOL    HW128409   2.578   0.509   4.848  0.7858 -1.3606  1.4205
 5592SOL    HW228410   2.658   0.417   4.767 -0.0420 -1.0674  1.0809
 5593SOL     OW28411   0.509   1.038   8.699 -0.9065 -0.0229  0.9354
 5593SOL    HW128412   0.560   0.957   8.691  0.9555  1.0648  1.9294
 5593SOL    HW228413   0.534   1.074   8.784  0.7817  0.0628  0.4069
 5594SOL     OW28414   1.200   1.355   3.970 -0.1616 -0.7611 -0.4265
 5594SOL    HW128415   1.140   1.315   3.906  0.1840 -1.8031 -0.0965
 5594SOL    HW228416   1.257   1.279   3.972  0.8119  0.0909  2.6952
 5595SOL     OW28417   2.545   1.536   4.572  0.2100 -0.8134  0.2894
 5595SOL    HW128418   2.598   1.463   4.541 -0.2704 -0.7433 -0.6895
 5595SOL    HW228419   2.473   1.543   4.510  0.1665 -0.7240  0.3495
 5596SOL     OW28420   0.622   0.362   2.740 -0.1655 -0.1031 -0.1742
 5596SOL    HW128421   0.541   0.337   2.695  1.6595 -1.0838 -2.8967
 5596SOL    HW228422   0.593   0.437   2.791  1.9817  1.1759 -0.8366
 5597SOL     OW28423   1.758   2.876   8.106  0.0471 -0.0706  0.2088
 5597SOL    HW128424   1.846   2.845   8.127 -0.1511 -2.0424 -1.8791
 5597SOL    HW228425   1.722   2.798   8.065 -0.0104  0.4608 -0.7657
 5598SOL     OW28426   1.665   3.730  17.637 -0.3350  0.0012 -0.2490
 5598SOL    HW128427   1.658   3.638  17.610  1.6022  0.1070 -1.0645
 5598SOL    HW228428   1.713   3.722  17.719  0.9332 -3.0636 -1.3070
 5599SOL     OW28429   1.037   4.419  16.111 -0.3275  0.2020  0.2409
 5599SOL    HW128430   0.961   4.477  16.119 -0.4313  0.0049  0.6942
 5599SOL    HW228431   1.074   4.458  16.033  1.3841  0.5996  1.2571
 5600SOL     OW28432   2.536   0.101   9.062  0.5898  0.0806 -0.0747
 5600SOL    HW128433   2.469   0.154   9.020 -0.8290 -2.4070 -0.9046
 5600SOL    HW228434   2.592   0.175   9.088 -0.1398  0.5936  0.0357
 5601SOL     OW28435   0.599   1.640  14.473 -0.5699  0.1296  0.2149
 5601SOL    HW128436   0.684   1.610  14.441 -0.1117  0.0035  1.5652
 5601SOL    HW228437   0.544   1.567  14.445 -0.6623  0.8281 -1.4004
 5602SOL     OW28438   1.813   2.354   6.547 -0.6170 -0.3327  0.0668
 5602SOL    HW128439   1.815   2.383   6.455 -0.2606  1.7706  0.7372
 5602SOL    HW228440   1.723   2.321   6.551 -0.8659  0.1235 -1.7663
 5603SOL     OW28441   4.547   3.064   1.526  0.4804 -0.2224 -0.5343
 5603SOL    HW128442   4.620   3.126   1.513  0.3672  0.6079  2.7103
 5603SOL    HW228443   4.510   3.109   1.602  1.7649 -1.9304  1.0967
 5604SOL     OW28444   0.460   0.709   8.500  0.1554 -0.7403 -0.4199
 5604SOL    HW128445   0.506   0.627   8.485 -1.0500 -0.9494 -2.9485
 5604SOL    HW228446   0.505   0.726   8.583 -1.4742 -0.4846  0.4088
 5605SOL     OW28447   3.921   4.100   5.030  0.1340  0.5055  1.1189
 5605SOL    HW128448   3.834   4.089   5.067  0.0291  1.9844  1.3272
 5605SOL    HW228449   3.935   4.193   5.050 -0.0427  0.9913 -1.0055
 5606SOL     OW28450   3.701   4.025   9.528 -0.1714  0.2626  0.3259
 5606SOL    HW128451   3.748   4.102   9.560  2.4469 -0.4968 -1.6948
 5606SOL    HW228452   3.766   3.997   9.463 -0.1319  1.4146 -0.1204
 5607SOL     OW28453   3.040   0.603  16.627 -0.0454  0.3490  0.1404
 5607SOL    HW128454   3.117   0.604  16.683 -0.0316  0.7172  0.1108
 5607SOL    HW228455   2.983   0.650  16.687  0.9719  1.3585  0.3128
 5608SOL     OW28456   3.887   4.322   1.287  0.1366 -0.1599 -0.2878
 5608SOL    HW128457   3.919   4.290   1.371 -2.2490 -0.0613  0.6631
 5608SOL    HW228458   3.946   4.396   1.273 -0.2764  0.1039 -0.6652
 5609SOL     OW28459   4.641   1.031  14.365 -0.0353 -0.4882  0.1154
 5609SOL    HW128460   4.663   0.996  14.279 -1.3096 -2.5574  0.6388
 5609SOL    HW228461   4.603   1.117  14.347 -1.0920 -0.7031  1.2498
 5610SOL     OW28462   0.115   1.015  14.530  0.4659 -0.4433  0.9024
 5610SOL    HW128463   0.030   1.001  14.487  0.6672  2.8721 -0.5710
 5610SOL    HW228464   0.129   1.108  14.511  1.8022 -1.0205 -0.8910
 5611SOL     OW28465   4.533   1.942   8.799 -0.9836  0.1175 -0.5943
 5611SOL    HW128466   4.536   1.940   8.704  1.4920 -0.7413 -0.4870
 5611SOL    HW228467   4.485   2.024   8.807 -3.4279 -1.5548  2.2855
 5612SOL     OW28468   3.033   3.008   3.774 -0.0210 -0.3438  0.1579
 5612SOL    HW128469   2.948   2.990   3.815 -1.1055  0.2847 -1.8380
 5612SOL    HW228470   3.081   2.931   3.804 -0.0761 -0.2484  0.4879
 5613SOL     OW28471   2.033   4.137  13.242 -0.2836 -0.2382 -0.5735
 5613SOL    HW128472   2.003   4.058  13.198  1.8852 -0.1505 -2.2063
 5613SOL    HW228473   2.009   4.214  13.190 -0.8799  0.7507  1.1625
 5614SOL     OW28474   4.654   3.080   1.162  0.6589  0.0899 -0.6303
 5614SOL    HW128475   4.569   3.120   1.147  0.9283  1.2607  0.9769
 5614SOL    HW228476   4.652   3.034   1.247 -1.4817  0.8236 -0.2945
 5615SOL     OW28477   3.935   3.097   8.659 -0.4330  0.0933  0.6600
 5615SOL    HW128478   3.878   3.168   8.690  2.6465  2.8096  0.0572
 5615SOL    HW228479   3.928   3.034   8.731  1.7465  1.1257  1.7686
 5616SOL     OW28480   1.471   3.630   8.177 -0.1314  0.1214  0.3748
 5616SOL    HW128481   1.424   3.692   8.122  0.9626  1.7135  1.2380
 5616SOL    HW228482   1.514   3.585   8.104  0.0410  1.5911 -0.4165
 5617SOL     OW28483   2.962   3.647   7.493 -0.0998  0.1030 -0.2591
 5617SOL    HW128484   2.985   3.571   7.439  0.8229 -1.4878  2.3874
 5617SOL    HW228485   2.956   3.602   7.576 -1.4885 -0.3891 -0.6307
 5618SOL     OW28486   1.918   4.321  13.712  0.3503 -0.1690 -0.1542
 5618SOL    HW128487   1.876   4.386  13.655  2.4105  1.3863  0.0869
 5618SOL    HW228488   1.949   4.253  13.653 -2.9710 -2.3888  0.6869
 5619SOL     OW28489   1.534   0.886   3.949 -0.1375  0.6748 -0.5470
 5619SOL    HW128490   1.599   0.856   3.886 -1.6175 -0.5397 -1.5079
 5619SOL    HW228491   1.490   0.802   3.967  0.7181  0.3892  0.1999
 5620SOL     OW28492   3.008   3.376   9.418  0.2043  0.3800 -0.2679
 5620SOL    HW128493   3.039   3.310   9.355 -0.3221 -0.4485  0.3457
 5620SOL    HW228494   3.030   3.461   9.380  0.7504  0.3834  0.0476
 5621SOL     OW28495   1.228   1.891   8.328  0.3585 -0.0477  0.4944
 5621SOL    HW128496   1.174   1.855   8.398 -2.7072  1.2802 -1.2244
 5621SOL    HW228497   1.299   1.826   8.329 -0.0081 -0.4642 -0.3108
 5622SOL     OW28498   3.410   2.974  14.544 -0.2950 -0.3221  0.8060
 5622SOL    HW128499   3.393   3.062  14.510  0.5570  0.2861  1.9793
 5622SOL    HW228500   3.388   2.978  14.637 -1.2432  0.9723  0.5407
 5623SOL     OW28501   0.597   1.830   7.964 -0.1062  0.4048  0.2268
 5623SOL    HW128502   0.633   1.896   7.904  1.4565  0.2939  1.0431
 5623SOL    HW228503   0.647   1.850   8.043 -0.5030  0.7256  0.3941
 5624SOL     OW28504   0.722   1.515   8.814  0.1266 -0.1836 -0.5878
 5624SOL    HW128505   0.712   1.444   8.751 -0.9447 -2.3464  1.9985
 5624SOL    HW228506   0.659   1.573   8.771  1.7705  1.7486 -0.3948
 5625SOL     OW28507   0.954   3.097  14.626 -0.1156 -0.4034  0.7962
 5625SOL    HW128508   0.871   3.121  14.666 -0.0734 -0.0214  0.6484
 5625SOL    HW228509   0.938   3.069  14.536  0.2294  1.6470  0.0972
 5626SOL     OW28510   0.376   4.404  15.299 -0.3693 -0.5334 -0.3987
 5626SOL    HW128511   0.386   4.445  15.385 -1.3372  0.1434 -0.6187
 5626SOL    HW228512   0.318   4.463  15.251 -0.8461  0.5443  1.5208
 5627SOL     OW28513   0.095   0.666  14.208  0.0212 -0.2920  0.0035
 5627SOL    HW128514   0.002   0.689  14.211 -0.7699 -3.3149 -1.2732
 5627SOL    HW228515   0.127   0.708  14.128  1.6387 -2.0769 -0.2942
 5628SOL     OW28516   4.388   2.863   4.083 -0.1589  0.0487 -0.0804
 5628SOL    HW128517   4.418   2.923   4.151 -0.7449  0.2300  0.0166
 5628SOL    HW228518   4.407   2.912   4.003 -2.2885  1.6400  0.3909
 5629SOL     OW28519   1.047   3.634   2.500  0.1576  0.7483 -0.1248
 5629SOL    HW128520   0.997   3.624   2.581 -1.5526  2.1750 -0.9969
 5629SOL    HW228521   1.140   3.640   2.522 -0.0883 -0.2584  1.1802
 5630SOL     OW28522   3.260   2.171   6.438  0.0492  0.3880  0.2172
 5630SOL    HW128523   3.353   2.149   6.439  0.2174  1.1435  1.0214
 5630SOL    HW228524   3.267   2.238   6.370 -2.0900  2.8237  2.3962
 5631SOL     OW28525   0.884   3.760   8.203 -0.3019 -0.2556  0.5070
 5631SOL    HW128526   0.905   3.673   8.235 -0.4827 -0.1132  1.0097
 5631SOL    HW228527   0.803   3.736   8.158 -0.9539  1.3910  0.8124
 5632SOL     OW28528   1.103   4.306   7.956  0.5351 -0.7657  0.3670
 5632SOL    HW128529   1.083   4.347   8.040 -0.6683 -0.9922  0.1836
 5632SOL    HW228530   1.015   4.283   7.928 -0.1156  1.5646  0.4738
 5633SOL     OW28531   0.301   4.209   6.302 -0.2074  0.0860  0.6910
 5633SOL    HW128532   0.231   4.203   6.367 -1.4355  0.9477 -0.5489
 5633SOL    HW228533   0.273   4.153   6.229 -2.0686 -1.1922  2.3928
 5634SOL     OW28534   2.127   0.253   7.255 -0.3975 -0.6246  0.6681
 5634SOL    HW128535   2.181   0.330   7.237 -2.0360  0.1206 -1.1057
 5634SOL    HW228536   2.112   0.262   7.349 -0.4259  0.3717  0.5733
 5635SOL     OW28537   3.622   4.050   2.957 -0.2248  0.2337 -0.2026
 5635SOL    HW128538   3.617   4.050   3.052  0.5700  0.6707 -0.1631
 5635SOL    HW228539   3.686   4.119   2.941 -0.7918  0.6850 -0.5044
 5636SOL     OW28540   3.814   3.894   4.737 -0.2781  0.2289 -0.6088
 5636SOL    HW128541   3.789   3.986   4.725  0.5967  0.7351  1.3231
 5636SOL    HW228542   3.882   3.889   4.671  0.3415  3.2057 -0.2062
 5637SOL     OW28543   0.408   3.954  10.797  0.0538  0.0167 -0.4961
 5637SOL    HW128544   0.347   3.921  10.730 -0.3253  0.8542 -0.5617
 5637SOL    HW228545   0.354   3.955  10.875 -0.9376  1.8829 -1.1952
 5638SOL     OW28546   4.060   1.826   9.708 -0.2903  0.5308  0.0341
 5638SOL    HW128547   4.049   1.915   9.742 -2.6550  0.7030 -1.1586
 5638SOL    HW228548   3.971   1.793   9.721  0.0182 -0.9344 -1.6987
 5639SOL     OW28549   0.299   1.536   5.950  0.4106 -0.0256 -0.6389
 5639SOL    HW128550   0.271   1.490   5.871  0.7208  0.2839 -0.9309
 5639SOL    HW228551   0.379   1.576   5.917 -0.1024  3.1240  1.9047
 5640SOL     OW28552   2.262   0.324  10.832 -0.0898 -0.2185 -0.4508
 5640SOL    HW128553   2.212   0.290  10.906  0.5789  3.4334  1.7231
 5640SOL    HW228554   2.246   0.253  10.771 -0.0495 -0.5951 -0.0202
 5641SOL     OW28555   3.262   3.851   3.248  0.1330  0.5846 -0.1643
 5641SOL    HW128556   3.241   3.902   3.326 -1.1421  1.7738 -1.2826
 5641SOL    HW228557   3.214   3.890   3.175 -0.3131  0.4904  0.0735
 5642SOL     OW28558   1.709   1.673   4.293  0.3373 -0.5634 -0.5481
 5642SOL    HW128559   1.750   1.630   4.368 -2.0929  1.4761  1.9177
 5642SOL    HW228560   1.731   1.615   4.220  1.8523 -0.6096 -0.0534
 5643SOL     OW28561   3.658   0.647   3.162 -0.4246  0.5745  0.2847
 5643SOL    HW128562   3.711   0.659   3.241  0.3445 -0.4684 -0.0847
 5643SOL    HW228563   3.706   0.704   3.102 -1.4379 -0.1044 -1.1670
 5644SOL     OW28564   1.301   1.745   7.105 -0.1118 -0.3201 -0.3269
 5644SOL    HW128565   1.270   1.657   7.125 -0.8738  0.0780  0.2292
 5644SOL    HW228566   1.379   1.731   7.052 -0.6536  0.6288 -1.3754
 5645SOL     OW28567   2.906   2.251   5.494 -0.4054  0.6426 -0.3415
 5645SOL    HW128568   2.847   2.177   5.480 -0.0880  0.2572  0.3149
 5645SOL    HW228569   2.980   2.195   5.516 -1.9730 -0.5909  1.7341
 5646SOL     OW28570   4.613   1.895  15.598 -0.1682  0.4865  0.1489
 5646SOL    HW128571   4.681   1.959  15.577  0.2969 -0.7264 -2.0791
 5646SOL    HW228572   4.652   1.846  15.669 -0.3937 -0.3639 -0.3182
 5647SOL     OW28573   0.307   3.571   1.269 -1.2512 -0.0304 -0.3438
 5647SOL    HW128574   0.367   3.619   1.325 -2.3098  2.5434 -1.4154
 5647SOL    HW228575   0.287   3.644   1.210  1.8257  0.2004 -1.0610
 5648SOL     OW28576   1.073   3.536   3.599  0.0322  0.1916 -0.2953
 5648SOL    HW128577   1.106   3.578   3.679 -3.4695 -0.0611  1.2588
 5648SOL    HW228578   1.154   3.529   3.549 -0.6132  2.0058 -1.5879
 5649SOL     OW28579   0.163   4.311   3.731 -0.1511  0.3048  0.5546
 5649SOL    HW128580   0.239   4.370   3.728  0.4526 -0.4497  0.9691
 5649SOL    HW228581   0.178   4.282   3.821 -1.1418  1.6630  1.1632
 5650SOL     OW28582   1.200   0.872   3.868 -0.0119  0.1080  0.0839
 5650SOL    HW128583   1.245   0.849   3.786  0.7037  1.5865  0.0541
 5650SOL    HW228584   1.214   0.791   3.917  0.8774  0.5805  0.6084
 5651SOL     OW28585   4.619   1.612   5.365  0.1795 -0.6211  0.2894
 5651SOL    HW128586   4.666   1.556   5.303 -1.9271 -1.9832 -0.0667
 5651SOL    HW228587   4.613   1.696   5.321 -1.4019 -1.1144 -0.4322
 5652SOL     OW28588   4.650   0.521  12.625 -0.1299 -0.0256  0.2740
 5652SOL    HW128589   4.656   0.426  12.623  0.8307  0.0253  0.9813
 5652SOL    HW228590   4.565   0.540  12.585 -0.6265 -5.3844 -1.2169
 5653SOL     OW28591   0.871   3.701   1.768  0.5047 -0.5967 -0.4175
 5653SOL    HW128592   0.807   3.647   1.813 -0.2337  0.9013  0.3393
 5653SOL    HW228593   0.852   3.788   1.804 -3.6302 -1.5395 -0.4156
 5654SOL     OW28594   0.075   2.261   7.849  0.5539  0.0934  0.7061
 5654SOL    HW128595   0.143   2.212   7.896  0.1330 -0.1841  1.0170
 5654SOL    HW228596   0.075   2.217   7.764  0.4315 -0.0244  0.7677
 5655SOL     OW28597   3.514   2.390   1.902  0.1791 -0.1008  0.0939
 5655SOL    HW128598   3.522   2.461   1.966  1.2369 -2.0977  2.2071
 5655SOL    HW228599   3.516   2.443   1.823  0.9938  2.9350  2.1314
 5656SOL     OW28600   2.679   4.343   8.034 -0.6498 -0.1628 -0.2250
 5656SOL    HW128601   2.713   4.337   8.123 -1.3066 -3.0710 -0.1754
 5656SOL    HW228602   2.743   4.396   7.986 -2.9333  1.5787 -1.3717
 5657SOL     OW28603   2.674   0.710   4.911  0.4711  0.8186  0.1496
 5657SOL    HW128604   2.700   0.797   4.880  1.3574  0.4277 -0.2054
 5657SOL    HW228605   2.761   0.675   4.930 -0.2364 -0.3213  1.2858
 5658SOL     OW28606   3.720   0.100   3.914 -0.7276  0.3181  0.3363
 5658SOL    HW128607   3.680   0.183   3.942 -1.3741  0.1232 -0.0037
 5658SOL    HW228608   3.784   0.077   3.981  0.4468 -0.9010 -1.1982
 5659SOL     OW28609   3.043   1.031   4.940  0.2107 -0.1605 -0.1241
 5659SOL    HW128610   2.977   1.021   5.009 -0.5009  0.9299 -0.6586
 5659SOL    HW228611   3.115   0.990   4.989  0.0201 -1.0134 -0.5461
 5660SOL     OW28612   2.536   4.666   6.485  0.1804 -0.1223  0.2736
 5660SOL    HW128613   2.442   4.683   6.475 -0.1845 -3.2190 -1.4971
 5660SOL    HW228614   2.547   4.606   6.559  1.9572 -1.8281 -1.3688
 5661SOL     OW28615   1.875   1.636  11.867 -0.6321  0.1127 -0.3764
 5661SOL    HW128616   1.893   1.543  11.852 -0.2732 -0.0707  1.2044
 5661SOL    HW228617   1.962   1.672  11.883  0.5024 -1.6505 -2.4579
 5662SOL     OW28618   0.894   2.513   3.137  0.5774  0.0943 -0.2697
 5662SOL    HW128619   0.931   2.503   3.050  0.7269  1.4027 -0.3649
 5662SOL    HW228620   0.836   2.589   3.128 -0.6292 -0.8015 -0.0684
 5663SOL     OW28621   2.028   3.478  15.272  0.1265 -0.2446 -0.1620
 5663SOL    HW128622   2.007   3.448  15.184 -2.3327 -0.3736  0.4712
 5663SOL    HW228623   1.999   3.408  15.330  0.9829  1.0256  1.8174
 5664SOL     OW28624   2.289   2.920   4.680 -0.6486 -0.1543 -0.5016
 5664SOL    HW128625   2.317   2.983   4.747  0.9502 -1.9907  0.5649
 5664SOL    HW228626   2.355   2.851   4.691  0.1959  1.3672  3.8574
 5665SOL     OW28627   2.362   2.798   8.556 -0.0074 -0.2635  0.4871
 5665SOL    HW128628   2.437   2.856   8.546  0.8953 -1.4420  0.5019
 5665SOL    HW228629   2.317   2.827   8.635  0.0453  0.0456  0.4018
 5666SOL     OW28630   3.459   4.710   3.598  0.7161  0.0791 -0.1470
 5666SOL    HW128631   3.429   4.696   3.688 -1.0666 -0.1974 -0.7776
 5666SOL    HW228632   3.379   4.717   3.546 -0.2134 -0.8409  1.1559
 5667SOL     OW28633   0.663   2.179   1.637  0.3447  0.8166  0.3429
 5667SOL    HW128634   0.572   2.194   1.665  0.5637  0.2292  1.3384
 5667SOL    HW228635   0.704   2.264   1.656  0.1502  1.4483 -2.0812
 5668SOL     OW28636   2.994   0.678  10.189 -0.8903  0.4302  0.4572
 5668SOL    HW128637   2.937   0.633  10.250  1.7053  2.7981  4.6222
 5668SOL    HW228638   3.046   0.737  10.244  0.9577 -1.0064  0.2809
 5669SOL     OW28639   0.908   2.927   0.963 -0.2227 -0.1291  0.1581
 5669SOL    HW128640   0.950   2.875   0.895 -1.3552  0.4126 -0.9588
 5669SOL    HW228641   0.880   2.861   1.026  0.4435  0.5999  1.2139
 5670SOL     OW28642   1.767   0.647   3.109 -0.3869  0.4811 -0.4962
 5670SOL    HW128643   1.778   0.557   3.078  0.4319  0.5631 -0.4607
 5670SOL    HW228644   1.845   0.689   3.070  1.2986 -1.0739  1.1985
 5671SOL     OW28645   2.585   4.325   3.595  0.6683 -0.4210  0.1053
 5671SOL    HW128646   2.520   4.379   3.550  1.2962 -0.4264 -0.7978
 5671SOL    HW228647   2.530   4.256   3.634 -2.2528  1.1812 -1.2221
 5672SOL     OW28648   1.577   0.427   0.812 -0.0435 -0.2871  0.6449
 5672SOL    HW128649   1.656   0.399   0.857  1.1737  2.4207  0.2430
 5672SOL    HW228650   1.554   0.352   0.758  1.8010 -1.2865  1.2822
 5673SOL     OW28651   1.513   3.667   3.672  0.0370  0.1184 -0.1123
 5673SOL    HW128652   1.576   3.645   3.740 -0.6050 -0.5578  0.2613
 5673SOL    HW228653   1.553   3.738   3.621 -0.0446  1.6810  1.9873
 5674SOL     OW28654   1.705   3.839   4.129  0.8065 -0.2323 -0.1745
 5674SOL    HW128655   1.629   3.833   4.071  0.7587 -2.8016  0.1822
 5674SOL    HW228656   1.708   3.933   4.149  0.4083 -0.1543 -0.4781
 5675SOL     OW28657   0.181   2.122  11.086  0.0579  0.2468 -0.7805
 5675SOL    HW128658   0.178   2.217  11.072 -2.7157  0.0791 -1.3101
 5675SOL    HW228659   0.090   2.098  11.105  0.7758 -1.7853  0.1222
 5676SOL     OW28660   2.399   4.352   2.350  0.3304  0.1449  0.3791
 5676SOL    HW128661   2.468   4.376   2.287 -0.3348 -2.3208 -1.2580
 5676SOL    HW228662   2.364   4.440   2.367  0.8821  1.1273 -3.4523
 5677SOL     OW28663   1.340   0.634   3.987 -0.9925 -0.1447 -0.6923
 5677SOL    HW128664   1.325   0.675   4.072 -0.9902  0.2914 -0.9067
 5677SOL    HW228665   1.298   0.549   4.004  1.8034 -0.2824  5.4255
 5678SOL     OW28666   0.053   3.243   3.425  0.5709  0.2675 -0.6688
 5678SOL    HW128667   0.007   3.167   3.389  0.0307 -0.5118  1.6541
 5678SOL    HW228668   0.100   3.197   3.494  0.5084  2.4957  0.8710
 5679SOL     OW28669   2.798   0.589  11.818 -0.0768  0.0285  0.2760
 5679SOL    HW128670   2.768   0.663  11.870 -1.8496 -0.2362 -0.3676
 5679SOL    HW228671   2.775   0.625  11.732 -2.0432 -1.3192  0.2390
 5680SOL     OW28672   0.191   0.669  11.767  0.2658  0.3606 -0.1962
 5680SOL    HW128673   0.153   0.757  11.763  0.2794  0.3784  0.0537
 5680SOL    HW228674   0.197   0.655  11.862  1.9305 -1.6930 -0.5998
 5681SOL     OW28675   0.542   4.361   3.039 -0.2989  0.3607 -0.1156
 5681SOL    HW128676   0.531   4.276   3.082  1.5528 -0.3198 -0.9901
 5681SOL    HW228677   0.579   4.399   3.119 -2.2215  2.0506 -0.0029
 5682SOL     OW28678   3.323   4.602  14.328  0.2010  0.4100  0.9282
 5682SOL    HW128679   3.411   4.625  14.357  0.5248  0.5901 -0.2162
 5682SOL    HW228680   3.290   4.539  14.392 -0.6019  0.3627  0.4727
 5683SOL     OW28681   0.654   3.109   5.388  0.3344 -0.6089  0.1067
 5683SOL    HW128682   0.704   3.080   5.465  2.2975 -0.2505 -1.0260
 5683SOL    HW228683   0.606   3.032   5.359 -0.2532 -0.4418  0.6353
 5684SOL     OW28684   4.100   4.704   1.477 -0.0573 -0.2737 -0.1940
 5684SOL    HW128685   4.056   0.053   1.485  0.2071 -0.4762  3.4145
 5684SOL    HW228686   4.155   4.716   1.554 -0.1199 -0.8468 -0.0659
 5685SOL     OW28687   0.326   1.482   3.090  0.3291 -0.4867  0.1980
 5685SOL    HW128688   0.255   1.452   3.148 -0.4572  1.2546  0.1475
 5685SOL    HW228689   0.342   1.576   3.099  2.5080 -0.8491  0.0982
 5686SOL     OW28690   4.397   3.158  10.476  0.3067  0.0290  0.0327
 5686SOL    HW128691   4.398   3.063  10.485 -0.6908 -0.1769 -1.8957
 5686SOL    HW228692   4.302   3.164  10.483  0.5876  2.7486  1.5871
 5687SOL     OW28693   1.706   0.848   5.245  0.2155  0.2671  0.0983
 5687SOL    HW128694   1.714   0.793   5.322 -1.4520  1.5350  1.1761
 5687SOL    HW228695   1.771   0.914   5.269 -0.1495  0.0968  1.5572
 5688SOL     OW28696   0.716   2.983   1.789 -0.3896  0.3688 -0.5031
 5688SOL    HW128697   0.778   2.973   1.717  1.9982 -1.8791  1.8505
 5688SOL    HW228698   0.701   2.896   1.827 -0.2362  0.4162 -0.3370
 5689SOL     OW28699   2.442   3.379   4.479 -0.3603  0.2756  0.3504
 5689SOL    HW128700   2.469   3.295   4.441 -0.1294  0.8185 -0.6777
 5689SOL    HW228701   2.517   3.396   4.536  0.0911 -0.0060 -0.1546
 5690SOL     OW28702   4.712   3.481   0.383  0.1589 -0.3573 -0.2425
 5690SOL    HW128703   4.729   3.403   0.330 -0.2039  0.0861 -1.0022
 5690SOL    HW228704   0.067   3.513   0.380  0.0554 -0.2999 -2.5169
 5691SOL     OW28705   1.364   1.392  13.705 -0.5569  0.3458 -0.2137
 5691SOL    HW128706   1.342   1.476  13.747 -0.0122  0.5441 -0.3229
 5691SOL    HW228707   1.446   1.415  13.661 -0.4157  1.7646  0.7558
 5692SOL     OW28708   3.048   1.482   9.079 -0.2359 -0.6663 -0.3460
 5692SOL    HW128709   3.024   1.485   8.986  0.4700 -3.9676 -0.6266
 5692SOL    HW228710   2.982   1.531   9.127 -0.2557 -1.3283  0.3050
 5693SOL     OW28711   1.493   1.730   8.484 -0.0589 -0.1084  0.0267
 5693SOL    HW128712   1.433   1.656   8.494  1.3407 -1.2529  0.1306
 5693SOL    HW228713   1.562   1.684   8.435 -1.5887 -1.5582 -0.7504
 5694SOL     OW28714   4.307   3.532   4.727 -0.2020  0.1557  0.2974
 5694SOL    HW128715   4.354   3.516   4.808 -2.2062  1.4605  1.7262
 5694SOL    HW228716   4.338   3.459   4.673  1.2048  1.4803 -0.6950
 5695SOL     OW28717   1.277   2.757  17.356 -1.0470 -0.0916  0.8800
 5695SOL    HW128718   1.339   2.729  17.423  0.1270  0.5534  0.0696
 5695SOL    HW228719   1.227   2.676  17.347 -2.3665  0.5505  2.4315
 5696SOL     OW28720   2.343   3.418  17.295 -0.7972  0.0695  0.3362
 5696SOL    HW128721   2.330   3.337  17.246  0.1856 -1.7324  3.0513
 5696SOL    HW228722   2.267   3.470  17.268  0.2694  1.1885 -0.5468
 5697SOL     OW28723   0.364   0.014  17.438 -0.2887 -0.0974  0.1049
 5697SOL    HW128724   0.417   0.017  17.358 -1.6595  0.0754 -0.8204
 5697SOL    HW228725   0.433   0.004  17.503 -1.3451  1.1018  1.4010
 5698SOL     OW28726   2.880   2.231   2.999 -0.0079  0.0775  0.3989
 5698SOL    HW128727   2.855   2.159   3.057  0.2469 -0.5993 -0.3463
 5698SOL    HW228728   2.905   2.301   3.061  1.3092 -0.0069 -0.0397
 5699SOL     OW28729   3.682   0.939   3.382  0.3760 -0.1260 -0.1068
 5699SOL    HW128730   3.682   0.985   3.298 -0.0318  2.9671  1.5844
 5699SOL    HW228731   3.744   0.872   3.355  0.4333 -0.5623  1.1217
 5700SOL     OW28732   1.675   0.194   3.607  0.6787 -0.0395  0.8178
 5700SOL    HW128733   1.691   0.149   3.524 -2.1519 -0.3769  0.4486
 5700SOL    HW228734   1.579   0.195   3.599  0.1880 -1.6412  5.9496
 5701SOL     OW28735   4.083   1.706  15.795 -0.2868  0.4024  0.4308
 5701SOL    HW128736   4.039   1.681  15.875 -1.2827 -0.8286 -0.5009
 5701SOL    HW228737   4.033   1.781  15.762  0.8546 -0.5296 -3.4838
 5702SOL     OW28738   2.172   4.377  10.627 -0.6356  0.1536 -0.1290
 5702SOL    HW128739   2.147   4.286  10.610  0.1209 -0.0426 -0.1928
 5702SOL    HW228740   2.137   4.425  10.551  0.4879  0.4836 -0.4427
 5703SOL     OW28741   4.054   3.405   5.147 -0.2522 -0.0105  0.1705
 5703SOL    HW128742   4.030   3.355   5.069  2.0277 -1.1923  0.2341
 5703SOL    HW228743   4.070   3.334   5.209 -0.2481  2.0073  2.4946
 5704SOL     OW28744   1.937   0.402   6.134  0.2813 -0.0558 -0.0266
 5704SOL    HW128745   1.999   0.440   6.071 -0.8119 -0.6813 -1.5009
 5704SOL    HW228746   1.980   0.318   6.152 -0.5774 -0.0591  1.8971
 5705SOL     OW28747   1.624   0.197  16.854 -0.3639 -0.6560  0.0795
 5705SOL    HW128748   1.635   0.103  16.869  0.4602 -0.5585  0.1168
 5705SOL    HW228749   1.713   0.233  16.855 -1.7336  2.7168 -1.1646
 5706SOL     OW28750   0.486   2.003   5.874  0.0964  0.5598 -0.2829
 5706SOL    HW128751   0.466   1.936   5.808  0.0225 -0.2956  0.6172
 5706SOL    HW228752   0.412   1.994   5.934  0.8346 -1.5854  0.3045
 5707SOL     OW28753   4.731   3.185   7.393  0.1659  0.1841 -0.4156
 5707SOL    HW128754   0.039   3.255   7.347  3.9037 -1.4094  0.7246
 5707SOL    HW228755   0.046   3.105   7.382  0.3761  0.2367  0.1725
 5708SOL     OW28756   0.118   3.802   2.957 -0.2811  0.1654  0.4955
 5708SOL    HW128757   0.079   3.886   2.931  1.3855  0.3018 -1.5851
 5708SOL    HW228758   0.083   3.752   2.883 -0.5760 -0.4060  1.0189
 5709SOL     OW28759   3.293   1.465   4.828  0.3041  0.4591  0.1372
 5709SOL    HW128760   3.300   1.465   4.924 -3.6180 -1.0300  0.4249
 5709SOL    HW228761   3.242   1.386   4.809  0.1862  0.7953 -0.9188
 5710SOL     OW28762   4.330   3.475   4.344  0.3461 -0.3364  0.3656
 5710SOL    HW128763   4.416   3.513   4.327  0.2310 -0.1544  0.1939
 5710SOL    HW228764   4.346   3.425   4.424  0.5895 -2.3142 -0.9147
 5711SOL     OW28765   1.894   3.755  17.445 -0.4329 -0.2629  0.1702
 5711SOL    HW128766   1.861   3.803  17.369 -2.3174 -0.0529  1.1181
 5711SOL    HW228767   1.825   3.770  17.509 -0.9011 -1.0604 -0.1515
 5712SOL     OW28768   1.230   4.619   6.736  0.1943 -0.1859 -0.4587
 5712SOL    HW128769   1.186   4.697   6.702  2.9493  0.4201 -2.6770
 5712SOL    HW228770   1.288   4.590   6.665 -1.6597 -2.4346 -1.0478
 5713SOL     OW28771   1.392   1.763   3.089  0.0018  0.3665 -0.0691
 5713SOL    HW128772   1.445   1.805   3.021  0.2701 -1.1638 -0.8086
 5713SOL    HW228773   1.429   1.675   3.096 -1.2005 -0.2289 -1.1700
 5714SOL     OW28774   1.543   1.247   1.176  0.1770  0.5943 -0.3437
 5714SOL    HW128775   1.507   1.219   1.091 -1.8930  3.7678 -0.5137
 5714SOL    HW228776   1.637   1.236   1.161  0.1611 -0.7970  0.6868
 5715SOL     OW28777   3.661   1.924   7.466  0.8537  0.2350  0.2324
 5715SOL    HW128778   3.660   1.902   7.559  0.3023  2.8113  0.8490
 5715SOL    HW228779   3.739   1.977   7.447  1.2601 -0.2900  0.4450
 5716SOL     OW28780   3.456   3.906  12.671  0.6009 -0.2559  0.3695
 5716SOL    HW128781   3.467   3.843  12.743 -1.4183 -0.7554  0.2335
 5716SOL    HW228782   3.483   3.854  12.596  0.3472  0.4676 -0.2248
 5717SOL     OW28783   1.719   1.158   2.176  0.0361 -0.0901 -0.3868
 5717SOL    HW128784   1.784   1.177   2.108  0.9043 -2.6600 -0.2815
 5717SOL    HW228785   1.637   1.154   2.128  0.3924  3.2324 -1.2420
 5718SOL     OW28786   0.219   3.721   6.032  0.0443 -0.2972 -0.0048
 5718SOL    HW128787   0.147   3.661   6.011  0.2637 -0.4051 -0.4522
 5718SOL    HW228788   0.220   3.783   5.959 -0.0612  0.5671  0.7220
 5719SOL     OW28789   1.891   0.007   8.649  0.2024  0.1039 -0.1895
 5719SOL    HW128790   1.901   4.682   8.722  1.1509 -0.6197 -0.9205
 5719SOL    HW228791   1.911   0.093   8.685  2.1235  0.0609 -1.1312
 5720SOL     OW28792   1.113   3.323   2.103 -0.4308 -0.2540 -0.7301
 5720SOL    HW128793   1.037   3.382   2.101 -1.1970 -1.2045  0.8633
 5720SOL    HW228794   1.076   3.245   2.144  0.0862  0.1931  0.5663
 5721SOL     OW28795   3.384   4.406   3.546 -0.1476  0.2955  0.1583
 5721SOL    HW128796   3.451   4.451   3.494  0.0683  0.8653  0.9238
 5721SOL    HW228797   3.320   4.477   3.551  0.7122  1.2674 -2.5031
 5722SOL     OW28798   1.259   4.282  16.202  0.2098  0.1162  0.5660
 5722SOL    HW128799   1.226   4.229  16.274 -1.9752  1.0672  0.2591
 5722SOL    HW228800   1.177   4.323  16.175  0.8417  0.4421 -0.8959
 5723SOL     OW28801   2.284   4.677  12.875 -0.2150 -0.0607  0.2488
 5723SOL    HW128802   2.316   0.015  12.926  2.1086 -0.8943 -0.0176
 5723SOL    HW228803   2.354   4.619  12.902 -1.5586 -0.5251  2.6811
 5724SOL     OW28804   4.650   2.366   4.386 -0.2251 -0.2815  0.0432
 5724SOL    HW128805   4.652   2.331   4.475 -1.0135  0.0770  0.1962
 5724SOL    HW228806   4.602   2.303   4.332  0.1213  0.7297 -1.4487
 5725SOL     OW28807   4.097   1.110   2.638  0.3494 -0.1605 -0.4275
 5725SOL    HW128808   4.155   1.169   2.686  0.9674  1.2555 -2.9369
 5725SOL    HW228809   4.128   1.027   2.674 -1.3080 -1.1171 -1.2267
 5726SOL     OW28810   2.825   1.214   0.719  0.0794 -0.0258  0.0851
 5726SOL    HW128811   2.745   1.161   0.712 -1.0158  1.5050  1.0726
 5726SOL    HW228812   2.819   1.245   0.809  0.9200  0.3071  0.0305
 5727SOL     OW28813   3.192   1.970  11.413  0.2593  0.0368  0.0184
 5727SOL    HW128814   3.208   1.951  11.320 -0.7656  1.1655 -0.3897
 5727SOL    HW228815   3.282   1.974  11.447  0.1315  2.7293  0.0502
 5728SOL     OW28816   1.927   3.289   4.399 -0.4647 -0.1146 -0.2373
 5728SOL    HW128817   1.924   3.225   4.470  1.6225 -0.3592 -0.3815
 5728SOL    HW228818   1.991   3.246   4.342  1.1317 -0.4763  1.8127
 5729SOL     OW28819   4.145   3.301   5.710 -0.4917  0.4819  0.4875
 5729SOL    HW128820   4.138   3.359   5.786  1.0750  0.2651  0.7960
 5729SOL    HW228821   4.052   3.279   5.704 -0.5975  1.1048 -0.0903
 5730SOL     OW28822   3.026   1.634   8.006  0.2593  0.0695  0.4570
 5730SOL    HW128823   2.964   1.672   7.943  0.0534 -0.6394  0.2320
 5730SOL    HW228824   3.104   1.621   7.952  1.6904  1.1115  2.3035
 5731SOL     OW28825   0.007   0.184   3.430 -0.1598 -0.0435  0.1603
 5731SOL    HW128826   4.691   0.234   3.492  2.8907  1.2568  1.6851
 5731SOL    HW228827   4.700   0.203   3.347  0.1378 -1.3626 -0.3063
 5732SOL     OW28828   4.396   2.975   5.927  0.5275 -0.0442  0.0058
 5732SOL    HW128829   4.422   2.960   5.836  1.5123 -0.9284  0.4408
 5732SOL    HW228830   4.409   3.070   5.919 -0.2709 -0.1249 -2.1510
 5733SOL     OW28831   1.060   0.699   5.270  0.2383  0.2429  0.3528
 5733SOL    HW128832   1.078   0.739   5.185  1.2786 -3.4248 -1.1452
 5733SOL    HW228833   1.082   0.610   5.243 -0.4406  0.0397  0.4575
 5734SOL     OW28834   4.537   3.070   6.222  0.2418  0.0896 -0.2729
 5734SOL    HW128835   4.575   3.118   6.149 -0.2427 -0.5082 -0.9245
 5734SOL    HW228836   4.446   3.101   6.223  0.2650  0.1449  0.1100
 5735SOL     OW28837   0.235   2.371   2.635  0.2077  0.0228 -0.1576
 5735SOL    HW128838   0.189   2.436   2.582 -0.4684 -0.8173 -0.6002
 5735SOL    HW228839   0.175   2.296   2.634  1.5759 -1.0924  0.0888
 5736SOL     OW28840   1.920   4.523  17.066  0.2109 -0.3337 -0.3773
 5736SOL    HW128841   1.984   4.494  17.001 -1.0116 -0.8024 -1.3657
 5736SOL    HW228842   1.964   4.599  17.104 -0.3303 -0.3845  0.3429
 5737SOL     OW28843   3.272   0.877   8.910  0.3627  0.0487 -0.2350
 5737SOL    HW128844   3.294   0.951   8.967  0.2450  0.8126 -1.1920
 5737SOL    HW228845   3.357   0.859   8.870 -0.2877 -0.7814 -1.2214
 5738SOL     OW28846   2.264   4.397   8.061  0.2743  0.3237 -0.8157
 5738SOL    HW128847   2.255   4.363   8.150 -1.1427  0.3554 -0.9507
 5738SOL    HW228848   2.206   4.339   8.012  1.1650 -0.4184 -0.9863
 5739SOL     OW28849   0.694   3.471   3.183 -0.4293  0.4518  0.5020
 5739SOL    HW128850   0.646   3.457   3.101 -1.2682  1.2612  0.8572
 5739SOL    HW228851   0.773   3.516   3.155 -0.0210 -0.2361  0.5476
 5740SOL     OW28852   2.910   3.839   1.548  0.0904  1.0203  0.8072
 5740SOL    HW128853   2.984   3.811   1.602 -0.0703 -1.2801 -0.1674
 5740SOL    HW228854   2.848   3.772   1.579  0.7648 -0.1887 -0.4405
 5741SOL     OW28855   0.023   3.730   2.732  0.4979 -0.6025  0.1251
 5741SOL    HW128856   4.725   3.819   2.725  0.4401 -0.5805  0.6344
 5741SOL    HW228857   4.707   3.694   2.661 -2.6617 -1.7986  3.0791
 5742SOL     OW28858   3.420   2.945  15.920 -0.4552 -0.0702 -0.0770
 5742SOL    HW128859   3.348   2.917  15.977 -0.3626  1.7880  0.9805
 5742SOL    HW228860   3.438   2.861  15.880  0.1324  0.0122  0.0077
 5743SOL     OW28861   1.008   3.803  16.411 -0.4658  0.2785 -0.0184
 5743SOL    HW128862   1.002   3.870  16.343  1.0938  1.3109  0.8537
 5743SOL    HW228863   0.932   3.749  16.390  1.0132 -2.0559  0.6407
 5744SOL     OW28864   4.217   3.680   2.046 -0.0282  0.2954  0.1823
 5744SOL    HW128865   4.181   3.761   2.082 -1.8156 -0.1363 -0.6148
 5744SOL    HW228866   4.147   3.616   2.063  0.0210  0.2579  0.2438
 5745SOL     OW28867   0.924   1.070  11.885 -0.0989 -0.0040 -0.2811
 5745SOL    HW128868   0.952   1.145  11.937  1.8044 -0.0500 -1.2342
 5745SOL    HW228869   0.988   1.074  11.813  1.3675 -1.2291  0.9611
 5746SOL     OW28870   4.439   0.684   8.389  0.0582 -0.2031 -0.4139
 5746SOL    HW128871   4.403   0.596   8.400  2.8538 -1.1301  1.3103
 5746SOL    HW228872   4.391   0.730   8.458  3.3123  0.1618  1.6245
 5747SOL     OW28873   4.068   2.967   2.877  0.1326  0.1126  0.2412
 5747SOL    HW128874   4.119   3.042   2.906 -0.5242  0.3870  0.6850
 5747SOL    HW228875   4.132   2.920   2.823 -1.8565 -0.3755 -1.7263
 5748SOL     OW28876   3.016   1.006   7.028 -0.0973 -0.0496  0.4581
 5748SOL    HW128877   3.070   1.027   7.104 -0.7716  0.2017  0.8658
 5748SOL    HW228878   3.079   0.977   6.962  0.1585  0.8882  0.3023
 5749SOL     OW28879   0.187   0.918   1.772 -0.0452 -0.2992 -0.1722
 5749SOL    HW128880   0.239   0.840   1.749 -2.3180 -1.3569 -1.7288
 5749SOL    HW228881   0.214   0.926   1.863 -1.2210  0.0426  0.1470
 5750SOL     OW28882   3.672   2.916   8.873 -0.4277  0.1558 -0.0810
 5750SOL    HW128883   3.577   2.902   8.872  0.2051 -4.0221  1.1179
 5750SOL    HW228884   3.684   2.994   8.926 -3.4659  1.2348 -0.9592
 5751SOL     OW28885   1.480   0.658   6.221  0.4236 -0.2023 -0.1920
 5751SOL    HW128886   1.565   0.615   6.210  0.5868 -0.0095  0.3600
 5751SOL    HW228887   1.490   0.738   6.169 -0.9757  1.1234  1.6154
 5752SOL     OW28888   4.437   1.584  15.659  0.1625 -0.3467  0.5744
 5752SOL    HW128889   4.401   1.508  15.614 -0.6893 -0.4547  1.4302
 5752SOL    HW228890   4.498   1.556  15.727 -0.4639 -1.4856  0.6710
 5753SOL     OW28891   1.936   1.452   7.665 -0.4027 -0.4293  0.2520
 5753SOL    HW128892   1.959   1.367   7.702 -1.2929 -1.3952 -1.3891
 5753SOL    HW228893   1.841   1.450   7.654 -0.3839  1.5473 -0.2691
 5754SOL     OW28894   1.231   1.974  15.152 -0.6790  0.2828 -0.0058
 5754SOL    HW128895   1.145   1.943  15.126  0.1313 -3.0583  1.3227
 5754SOL    HW228896   1.230   2.057  15.103  0.0309  0.5002  0.3410
 5755SOL     OW28897   3.600   3.976  15.398 -0.6004  0.3992 -0.3612
 5755SOL    HW128898   3.609   3.976  15.303 -0.1259  1.5931 -0.3255
 5755SOL    HW228899   3.682   3.936  15.427 -0.9673  0.8457  1.2698
 5756SOL     OW28900   2.146   2.614  12.421 -0.1201  0.1165  0.3615
 5756SOL    HW128901   2.160   2.604  12.515  2.1957  0.2760  0.0271
 5756SOL    HW228902   2.125   2.707  12.412 -2.4298 -0.5567 -1.2348
 5757SOL     OW28903   0.589   3.607   5.917 -0.4520  0.9011 -0.1189
 5757SOL    HW128904   0.562   3.636   6.004  1.2561  0.9909  0.3790
 5757SOL    HW228905   0.504   3.604   5.871 -1.0245  0.4031  0.9802
 5758SOL     OW28906   4.279   4.220   4.969  0.0544 -0.4491 -0.7193
 5758SOL    HW128907   4.252   4.256   4.885  0.1277  1.7264  0.1764
 5758SOL    HW228908   4.346   4.154   4.948  2.5377  1.6079  0.7150
 5759SOL     OW28909   3.276   2.980   9.100  0.1319 -0.1241  0.2020
 5759SOL    HW128910   3.201   3.003   9.044  0.7188  1.6207  0.1362
 5759SOL    HW228911   3.230   2.951   9.179  0.3316 -1.3450 -0.1385
 5760SOL     OW28912   0.021   1.189   8.402 -0.2357  0.1850 -0.0820
 5760SOL    HW128913   0.083   1.204   8.474 -2.1143  0.0117  1.5536
 5760SOL    HW228914   0.024   1.274   8.358 -1.9843  0.5577  0.5113
 5761SOL     OW28915   3.352   3.739   4.692  0.0952  0.1088 -0.1145
 5761SOL    HW128916   3.336   3.666   4.633  1.1444 -1.2061  1.2406
 5761SOL    HW228917   3.352   3.689   4.773 -0.9542 -1.4210 -1.0639
 5762SOL     OW28918   3.057   0.182   6.092 -0.0531 -0.4408  0.1452
 5762SOL    HW128919   3.025   0.122   6.159 -1.3719 -0.6926 -0.7064
 5762SOL    HW228920   2.976   0.227   6.066 -1.3505 -2.7822  0.1749
 5763SOL     OW28921   3.909   3.413   2.342  0.0132  0.4363  0.2762
 5763SOL    HW128922   3.932   3.410   2.435 -0.6956  0.3969  0.4475
 5763SOL    HW228923   3.909   3.319   2.326  1.2345  0.9817 -3.0328
 5764SOL     OW28924   1.806   4.351   7.912 -0.1167  0.0008 -0.0468
 5764SOL    HW128925   1.851   4.384   7.989  1.1943 -3.2070  0.5402
 5764SOL    HW228926   1.713   4.371   7.925  0.4506  2.3768  0.2817
 5765SOL     OW28927   2.478   1.921   2.618  0.3128  0.2796 -0.2568
 5765SOL    HW128928   2.530   1.911   2.539  1.1560  1.2784  0.1675
 5765SOL    HW228929   2.401   1.959   2.575 -0.6756 -0.4935  0.8176
 5766SOL     OW28930   0.684   4.360   8.645 -0.1634  0.0433  0.4972
 5766SOL    HW128931   0.613   4.425   8.644  0.8347  1.0829 -2.2813
 5766SOL    HW228932   0.733   4.404   8.715  0.3467 -2.2520  1.5781
 5767SOL     OW28933   2.031   2.572  12.163  0.4459 -0.0450  0.5391
 5767SOL    HW128934   1.943   2.584  12.199 -0.1289  0.3556 -0.9590
 5767SOL    HW228935   2.080   2.564  12.244 -1.6899  1.6236  1.9936
 5768SOL     OW28936   3.047   0.044   9.270 -0.1675  0.2829  0.5887
 5768SOL    HW128937   3.007   0.124   9.304 -0.0606  1.3629 -1.8124
 5768SOL    HW228938   3.138   0.060   9.293  0.1417  1.6716 -1.6566
 5769SOL     OW28939   1.184   2.799  12.477 -0.5709  0.4846 -0.0612
 5769SOL    HW128940   1.218   2.858  12.544 -1.4894  1.0183 -0.0687
 5769SOL    HW228941   1.168   2.724  12.534 -1.6505 -1.6119 -3.1033
 5770SOL     OW28942   4.409   0.910   2.986  0.6407  0.2286  0.1567
 5770SOL    HW128943   4.345   0.952   2.929  0.7075  1.5787  1.0777
 5770SOL    HW228944   4.439   0.974   3.051  0.5353  0.7766 -0.3370
 5771SOL     OW28945   3.607   4.245   8.620  0.4165 -1.1173 -0.1765
 5771SOL    HW128946   3.575   4.302   8.550  0.6871 -0.8497 -0.0839
 5771SOL    HW228947   3.524   4.212   8.654 -0.6587 -0.6133 -2.3318
 5772SOL     OW28948   2.757   2.082   9.344  0.4838  0.4504  0.2458
 5772SOL    HW128949   2.693   2.151   9.362  0.1235  0.2721 -0.3154
 5772SOL    HW228950   2.837   2.109   9.388  1.0831  1.5134 -1.4806
 5773SOL     OW28951   3.743   2.568  14.533 -0.0472  0.0762 -0.4507
 5773SOL    HW128952   3.809   2.543  14.597  0.6307  1.6163 -0.5524
 5773SOL    HW228953   3.698   2.638  14.580 -0.7676  0.0095 -1.0427
 5774SOL     OW28954   3.867   1.473   7.949 -0.3474  0.7030  0.4935
 5774SOL    HW128955   3.806   1.479   8.023 -0.9798  0.2978  0.0101
 5774SOL    HW228956   3.862   1.561   7.913  0.3850  0.0997 -1.0831
 5775SOL     OW28957   1.596   0.068  14.864 -0.7173 -0.0387  0.3130
 5775SOL    HW128958   1.575   0.161  14.855 -0.5332  0.2009  2.4552
 5775SOL    HW228959   1.683   0.063  14.823 -0.6716  0.2397  0.3729
 5776SOL     OW28960   2.245   1.493  11.860 -0.1598 -1.1454 -0.0412
 5776SOL    HW128961   2.272   1.531  11.777  0.3565  1.0784  1.1378
 5776SOL    HW228962   2.310   1.422  11.869 -1.4360 -1.9970  2.4998
 5777SOL     OW28963   3.852   2.199  10.094 -0.2815  0.0736 -0.3252
 5777SOL    HW128964   3.819   2.120  10.053 -0.6889  0.1591 -0.1691
 5777SOL    HW228965   3.797   2.267  10.055 -3.7504 -3.3322 -1.3930
 5778SOL     OW28966   1.909   4.729   2.213 -0.8018  0.4507  0.5893
 5778SOL    HW128967   1.872   0.080   2.204 -1.0987  0.4543  1.7985
 5778SOL    HW228968   1.947   4.720   2.301 -2.6169  1.5441  1.4677
 5779SOL     OW28969   1.848   3.592   6.685  0.3621 -0.7233  0.4731
 5779SOL    HW128970   1.777   3.646   6.719 -1.0968 -1.6073 -1.1695
 5779SOL    HW228971   1.823   3.566   6.596 -2.5467 -1.5207  1.5102
 5780SOL     OW28972   1.783   3.488   3.612 -0.0460 -0.3517  0.3085
 5780SOL    HW128973   1.727   3.431   3.664 -0.1111  1.0498  1.7733
 5780SOL    HW228974   1.773   3.566   3.667 -0.1468  0.1556 -0.4380
 5781SOL     OW28975   3.925   4.413  13.275  0.1440  0.0571  0.3130
 5781SOL    HW128976   3.836   4.438  13.252  0.6398  0.7560 -0.8360
 5781SOL    HW228977   3.917   4.423  13.370  2.3171  0.1360  0.4888
 5782SOL     OW28978   2.936   2.088  12.424  0.0669 -0.5173 -0.3290
 5782SOL    HW128979   3.027   2.114  12.410 -0.1703 -1.6844 -3.9856
 5782SOL    HW228980   2.896   2.087  12.337 -2.0179  0.8057  0.6111
 5783SOL     OW28981   3.579   1.504   5.370 -0.0989  0.2665 -0.1900
 5783SOL    HW128982   3.665   1.533   5.401  0.4583  0.5309 -2.0374
 5783SOL    HW228983   3.520   1.576   5.394 -0.0081 -0.2848  1.7434
 5784SOL     OW28984   4.444   2.397  14.456 -0.5291  0.0080  0.8196
 5784SOL    HW128985   4.353   2.423  14.470 -0.3441  1.9849 -1.5872
 5784SOL    HW228986   4.432   2.393  14.361 -0.8678  0.7476  0.8276
 5785SOL     OW28987   1.510   1.836   4.341 -0.3746 -0.6289 -0.8289
 5785SOL    HW128988   1.591   1.792   4.316 -0.1378 -1.6049  1.6679
 5785SOL    HW228989   1.477   1.853   4.253  0.7200 -0.2097 -1.1514
 5786SOL     OW28990   1.881   1.444   8.890  0.9827  0.2570 -0.9645
 5786SOL    HW128991   1.849   1.355   8.908  2.8210 -0.3886 -0.8795
 5786SOL    HW228992   1.892   1.477   8.979 -3.4951  1.6574 -0.9594
 5787SOL     OW28993   2.831   1.155   5.508  0.6110 -0.0118  0.0261
 5787SOL    HW128994   2.873   1.217   5.449 -0.7392 -0.5194 -1.4466
 5787SOL    HW228995   2.758   1.120   5.457  0.1196 -0.2630  0.8982
 5788SOL     OW28996   0.943   2.537  12.391  0.8219 -0.2733 -0.3113
 5788SOL    HW128997   0.981   2.467  12.444 -0.2665 -0.9028 -0.3640
 5788SOL    HW228998   0.871   2.566  12.447 -1.0885 -2.5255 -1.5811
 5789SOL     OW28999   0.485   1.618   8.190 -0.0611  0.1044 -0.3564
 5789SOL    HW129000   0.476   1.596   8.283 -0.6077  2.5018  0.1714
 5789SOL    HW229001   0.547   1.691   8.197  0.9614 -0.7806 -0.1976
 5790SOL     OW29002   1.630   2.522  12.324 -0.8627 -0.1181 -0.5059
 5790SOL    HW129003   1.565   2.495  12.389  1.2395  0.3696  1.7917
 5790SOL    HW229004   1.694   2.451  12.332 -0.6637  0.2319  0.9565
 5791SOL     OW29005   0.082   1.437  12.237 -0.0432  0.1154  0.2384
 5791SOL    HW129006   0.164   1.388  12.239 -0.7636 -1.1428 -1.2072
 5791SOL    HW229007   0.121   1.524  12.242 -0.4624  0.3163  0.0270
 5792SOL     OW29008   1.216   2.945   4.352  0.2540 -0.0841 -0.2551
 5792SOL    HW129009   1.256   2.887   4.287  2.4319 -1.3207  2.1473
 5792SOL    HW229010   1.177   3.012   4.297  2.1460  0.4395 -0.9388
 5793SOL     OW29011   4.543   4.040   8.370 -0.1295  0.0010 -0.0129
 5793SOL    HW129012   4.458   4.075   8.396 -0.9877 -0.8417 -1.7168
 5793SOL    HW229013   4.518   3.987   8.294  0.4861 -1.9854  1.1628
 5794SOL     OW29014   0.475   4.721   6.466 -0.2620 -0.4846  0.6964
 5794SOL    HW129015   0.490   0.035   6.547 -0.0010  2.0106 -0.8957
 5794SOL    HW229016   0.387   0.018   6.447  0.4719  0.5858 -0.8563
 5795SOL     OW29017   0.312   4.431   5.777 -0.6615  0.1556  0.0798
 5795SOL    HW129018   0.306   4.343   5.741 -2.3289  0.8526 -1.3377
 5795SOL    HW229019   0.404   4.451   5.761 -0.5005 -0.5672  0.1112
 5796SOL     OW29020   3.948   0.116   7.044  0.3072 -0.0883  0.1842
 5796SOL    HW129021   3.879   0.142   7.105  0.7878 -1.1607  1.1917
 5796SOL    HW229022   3.895   0.112   6.965 -0.5439 -0.8785  0.7956
 5797SOL     OW29023   3.127   3.315   6.902  0.7722 -0.4007  0.2107
 5797SOL    HW129024   3.150   3.325   6.995 -1.5420 -1.1651  0.8758
 5797SOL    HW229025   3.043   3.271   6.916 -0.5905  2.3515  0.7866
 5798SOL     OW29026   1.671   1.461   1.996  0.3344 -0.9037 -0.2502
 5798SOL    HW129027   1.713   1.379   1.968 -0.6579 -0.9223 -1.7015
 5798SOL    HW229028   1.629   1.485   1.913  1.7028  1.2126 -0.3417
 5799SOL     OW29029   1.537   2.328  15.747  0.3145 -0.2464 -0.2670
 5799SOL    HW129030   1.498   2.290  15.825 -0.2955 -0.0684 -0.4904
 5799SOL    HW229031   1.618   2.276  15.747  1.1927  1.1016  1.3898
 5800SOL     OW29032   2.395   4.240  11.660  0.1660  0.0474  0.1190
 5800SOL    HW129033   2.399   4.246  11.565 -0.5456  1.8987  0.2067
 5800SOL    HW229034   2.306   4.213  11.681  0.2959 -0.4071  0.0838
 5801SOL     OW29035   0.756   3.430  17.223 -0.2796 -0.3835  0.2231
 5801SOL    HW129036   0.731   3.523  17.224  0.0990 -0.2978  1.8801
 5801SOL    HW229037   0.728   3.401  17.136 -0.5403  0.2050  0.1054
 5802SOL     OW29038   2.684   4.447   7.339 -0.4793  0.2165 -0.7916
 5802SOL    HW129039   2.595   4.443   7.303 -1.1997 -1.9346  1.2492
 5802SOL    HW229040   2.698   4.353   7.346 -0.4992  0.2918  0.2911
 5803SOL     OW29041   3.032   1.082  12.712 -0.1568 -0.7272 -0.2709
 5803SOL    HW129042   3.092   1.024  12.666  2.4425  1.2490  0.6320
 5803SOL    HW229043   3.032   1.161  12.657  1.7968  0.8153  1.9302
 5804SOL     OW29044   4.415   2.702   1.205  0.2714 -0.4525  0.7576
 5804SOL    HW129045   4.509   2.695   1.187  0.5509  1.9206  1.2217
 5804SOL    HW229046   4.409   2.671   1.296  0.3233 -0.7304  0.6640
 5805SOL     OW29047   0.237   2.095   7.377 -0.4316  0.2349  0.2312
 5805SOL    HW129048   0.220   2.187   7.396 -0.9227  0.1634  0.1321
 5805SOL    HW229049   0.322   2.082   7.418 -0.6039 -0.3904  0.3931
 5806SOL     OW29050   1.366   0.287   8.764 -0.2679 -0.4375 -0.8342
 5806SOL    HW129051   1.349   0.218   8.700  0.6729 -0.8993 -0.5874
 5806SOL    HW229052   1.460   0.298   8.750 -0.4739 -1.8197 -3.2491
 5807SOL     OW29053   2.859   2.510   7.185 -0.2676  0.0497 -0.1578
 5807SOL    HW129054   2.937   2.566   7.175  0.6795 -1.7311 -2.8484
 5807SOL    HW229055   2.859   2.461   7.103 -1.9742  0.4945 -0.4138
 5808SOL     OW29056   4.243   2.562   1.073  0.1074  0.1034  0.1343
 5808SOL    HW129057   4.277   2.641   1.115  0.5969  0.0324 -0.1318
 5808SOL    HW229058   4.318   2.516   1.038 -0.5151 -0.9869  0.2342
 5809SOL     OW29059   4.494   4.335   6.300  0.2177  0.1278 -0.5061
 5809SOL    HW129060   4.405   4.369   6.289 -0.0629 -0.2012  0.7405
 5809SOL    HW229061   4.533   4.358   6.216  1.1188  1.5858  0.3294
 5810SOL     OW29062   1.787   3.253  11.761 -0.3765  0.3937 -0.3600
 5810SOL    HW129063   1.831   3.198  11.826 -1.5001  0.8430  0.7843
 5810SOL    HW229064   1.786   3.198  11.683 -0.9963 -1.5716  1.0207
 5811SOL     OW29065   0.107   4.693   3.580 -0.3565  0.7814  0.4600
 5811SOL    HW129066   0.116   4.622   3.517  2.9911  0.1345  1.6411
 5811SOL    HW229067   0.087   0.036   3.530 -0.5896 -0.4629 -1.4076
 5812SOL     OW29068   0.733   1.314  14.756  0.1574 -0.1184  0.0316
 5812SOL    HW129069   0.777   1.258  14.692  0.7218  1.9359 -1.3706
 5812SOL    HW229070   0.757   1.400  14.724  1.4717 -0.4083  0.2596
 5813SOL     OW29071   1.897   3.111  11.980 -0.2003 -0.3326 -0.6320
 5813SOL    HW129072   1.907   3.080  12.069  0.0259  0.0685 -0.5188
 5813SOL    HW229073   1.893   3.027  11.934  2.8029 -0.7274 -0.1548
 5814SOL     OW29074   3.785   0.201   7.272 -0.0252 -0.2589  0.1730
 5814SOL    HW129075   3.764   0.109   7.288  1.8122 -0.5262  0.9827
 5814SOL    HW229076   3.840   0.234   7.343 -0.0494 -1.3582  0.7018
 5815SOL     OW29077   2.716   3.435   8.434  0.0702  0.2331 -0.4188
 5815SOL    HW129078   2.783   3.504   8.436  1.5795 -1.2869  1.4989
 5815SOL    HW229079   2.689   3.430   8.526 -0.1292  2.3383 -0.3446
 5816SOL     OW29080   2.482   4.715   8.170 -0.2042 -0.4011 -0.1676
 5816SOL    HW129081   2.577   4.722   8.159 -0.2335 -0.9392 -0.7301
 5816SOL    HW229082   2.461   0.064   8.131  0.3333 -0.2507 -0.1407
 5817SOL     OW29083   2.731   1.288   7.759  0.0380 -0.1913  0.1394
 5817SOL    HW129084   2.723   1.194   7.747  0.4721 -0.1529 -0.4369
 5817SOL    HW229085   2.786   1.299   7.837 -0.9567 -2.5541  1.1750
 5818SOL     OW29086   3.435   1.684   7.449  0.2903 -0.5664 -0.5955
 5818SOL    HW129087   3.516   1.733   7.466 -1.2574  1.2138  1.5847
 5818SOL    HW229088   3.429   1.628   7.526  1.5004 -0.9481 -0.7863
 5819SOL     OW29089   0.841   2.286  17.560  0.4070 -0.1638  0.0216
 5819SOL    HW129090   0.867   2.216  17.620 -1.8656 -1.5631 -0.6312
 5819SOL    HW229091   0.863   2.366  17.607 -0.3478 -0.3619  0.7228
 5820SOL     OW29092   2.969   0.539  12.659 -0.0516 -0.0021 -0.5770
 5820SOL    HW129093   3.013   0.624  12.664 -1.9268  0.8643  0.8699
 5820SOL    HW229094   2.967   0.527  12.564  0.9810 -0.9102 -0.4785
 5821SOL     OW29095   1.394   4.015   7.625  0.6200  0.1401 -0.2253
 5821SOL    HW129096   1.369   4.101   7.592  1.1884  0.5869  0.5200
 5821SOL    HW229097   1.322   3.988   7.683  0.0898  0.3318 -0.7943
 5822SOL     OW29098   2.440   4.127   4.427  0.5815 -0.1324  0.0258
 5822SOL    HW129099   2.446   4.056   4.491  2.5825 -1.3631 -1.5274
 5822SOL    HW229100   2.475   4.208   4.464  0.9338  0.1483 -0.9145
 5823SOL     OW29101   3.908   0.463   9.863  0.2145  0.3397 -0.7024
 5823SOL    HW129102   3.840   0.401   9.889 -1.4441  1.5591 -2.1248
 5823SOL    HW229103   3.887   0.538   9.918  0.0692  1.3055 -2.0518
 5824SOL     OW29104   0.921   2.547   7.774 -0.4820  0.1849  0.4947
 5824SOL    HW129105   0.964   2.629   7.797 -2.3400  0.5070  2.8713
 5824SOL    HW229106   0.887   2.566   7.687  0.8811 -1.7546 -0.4637
 5825SOL     OW29107   3.650   1.330   3.950  0.0087 -0.6239 -0.0122
 5825SOL    HW129108   3.622   1.419   3.930 -1.1409 -0.8994  0.3809
 5825SOL    HW229109   3.735   1.326   3.907 -0.0015  0.5884 -0.1347
 5826SOL     OW29110   0.961   1.322  11.053  0.0419  0.0341  0.5219
 5826SOL    HW129111   0.876   1.351  11.021  0.3962  0.0147 -0.4394
 5826SOL    HW229112   1.020   1.395  11.033 -0.2704  0.1247 -0.0475
 5827SOL     OW29113   2.229   0.608   9.741  0.1770 -0.4671  0.6086
 5827SOL    HW129114   2.257   0.583   9.830 -2.9797 -1.9615  1.1860
 5827SOL    HW229115   2.182   0.690   9.752  1.0891  0.0294  0.8079
 5828SOL     OW29116   1.921   1.689   6.813  0.4093 -0.1412 -0.2008
 5828SOL    HW129117   1.941   1.675   6.720  1.3342 -2.0348  0.2802
 5828SOL    HW229118   1.937   1.783   6.822 -0.4093 -0.1003  0.8283
 5829SOL     OW29119   3.609   0.797   4.895 -0.0176 -0.2694  0.0225
 5829SOL    HW129120   3.677   0.758   4.840  0.8880  1.8851 -0.3486
 5829SOL    HW229121   3.634   0.889   4.894 -0.0925 -0.2429  0.6707
 5830SOL     OW29122   4.181   2.676   4.276  0.1456  0.1125 -0.0408
 5830SOL    HW129123   4.251   2.738   4.259  1.4348 -1.0903  0.8393
 5830SOL    HW229124   4.156   2.652   4.186 -3.0341  0.9662  0.6308
 5831SOL     OW29125   4.071   4.687   2.392 -0.3533  0.0858 -0.4087
 5831SOL    HW129126   4.017   4.666   2.315  1.6233 -1.7029 -1.3262
 5831SOL    HW229127   4.120   0.031   2.370 -2.5086  0.6928 -3.0274
 5832SOL     OW29128   1.348   3.636   2.241 -0.3756 -0.2104  0.6159
 5832SOL    HW129129   1.365   3.708   2.302 -0.1983 -0.4195  0.8082
 5832SOL    HW229130   1.266   3.668   2.203 -0.1940 -2.8935 -2.0682
 5833SOL     OW29131   4.249   1.325   8.912 -0.4943  0.0380  0.2362
 5833SOL    HW129132   4.169   1.336   8.964 -0.6588 -1.3978  0.3068
 5833SOL    HW229133   4.227   1.235   8.885 -0.4766  0.3563 -0.8300
 5834SOL     OW29134   0.866   1.816   9.810  0.2967 -0.2343 -0.5176
 5834SOL    HW129135   0.906   1.855   9.888 -2.3281 -0.3167  0.8781
 5834SOL    HW229136   0.779   1.854   9.822  0.2033 -0.3975 -0.6835
 5835SOL     OW29137   0.924   1.626   3.136  0.4187 -0.0393 -0.1138
 5835SOL    HW129138   0.955   1.537   3.148 -1.7230 -0.9741 -1.4804
 5835SOL    HW229139   0.999   1.665   3.092  0.0251  1.1477  0.2731
 5836SOL     OW29140   3.251   4.186   3.222 -0.3860  0.0379  0.4263
 5836SOL    HW129141   3.160   4.208   3.242 -0.5032 -0.2797  0.2452
 5836SOL    HW229142   3.288   4.171   3.309  0.8247  1.1546  0.1114
 5837SOL     OW29143   2.187   1.032  17.456 -0.7056 -0.2593  1.0374
 5837SOL    HW129144   2.249   0.959  17.454 -2.1056 -1.4155 -0.4031
 5837SOL    HW229145   2.189   1.060  17.547  0.2379 -0.9590  1.2429
 5838SOL     OW29146   2.319   2.739   1.409 -0.0748  0.1227  0.2598
 5838SOL    HW129147   2.405   2.714   1.377 -0.2705  0.0431 -0.2114
 5838SOL    HW229148   2.270   2.743   1.326  0.4609  1.1055  0.0030
 5839SOL     OW29149   4.336   3.925  10.563 -0.3461 -0.5947  0.7617
 5839SOL    HW129150   4.418   3.919  10.611 -0.0053 -1.6237  0.0566
 5839SOL    HW229151   4.274   3.872  10.614 -2.0544  0.1566 -0.5258
 5840SOL     OW29152   3.754   0.821   3.000  0.6573 -0.2037  0.4631
 5840SOL    HW129153   3.807   0.845   2.924 -0.2615 -1.7768 -0.6742
 5840SOL    HW229154   3.723   0.905   3.034  0.1808  0.5049 -1.6932
 5841SOL     OW29155   3.944   0.741   7.139  0.0542 -0.5474 -0.2791
 5841SOL    HW129156   4.022   0.796   7.133  0.0384 -0.4350  0.6142
 5841SOL    HW229157   3.877   0.783   7.085  0.2785  0.5103  0.2653
 5842SOL     OW29158   0.834   3.163   6.239 -0.5680  0.1078  0.0349
 5842SOL    HW129159   0.891   3.115   6.298  0.1560 -1.7898 -2.2057
 5842SOL    HW229160   0.770   3.190   6.305  1.6926  0.2591  2.1433
 5843SOL     OW29161   3.734   0.210  14.634 -0.9368 -0.5399  0.1988
 5843SOL    HW129162   3.746   0.230  14.541 -1.0342 -0.2318  0.2532
 5843SOL    HW229163   3.820   0.185  14.668 -1.4997  0.6979  2.4790
 5844SOL     OW29164   0.328   0.101   6.926  0.2781 -0.0597  0.0332
 5844SOL    HW129165   0.352   0.168   6.990 -1.9615  0.0339  0.7473
 5844SOL    HW229166   0.366   0.029   6.977  0.0439 -1.1005 -1.2761
 5845SOL     OW29167   2.528   2.814   8.926  0.1291  0.3593 -0.1725
 5845SOL    HW129168   2.517   2.893   8.979  1.6034  0.1554  0.4436
 5845SOL    HW229169   2.447   2.766   8.944 -0.5304  2.3571  2.0761
 5846SOL     OW29170   2.152   0.447   8.209  0.0863 -0.2495  0.2989
 5846SOL    HW129171   2.123   0.521   8.262 -0.9479 -0.0056 -0.6118
 5846SOL    HW229172   2.151   0.369   8.264  0.2335 -0.9347 -0.6799
 5847SOL     OW29173   3.481   2.543   4.885  0.3520  0.0350 -1.3034
 5847SOL    HW129174   3.416   2.494   4.835 -0.6450  2.0465 -1.9597
 5847SOL    HW229175   3.456   2.544   4.977  0.6148 -1.0158 -1.2227
 5848SOL     OW29176   4.084   1.270  13.431  0.4732  0.3529  0.8153
 5848SOL    HW129177   4.140   1.335  13.388  0.6261 -0.5703 -0.3848
 5848SOL    HW229178   4.001   1.303  13.398 -0.4420 -1.8154  0.9867
 5849SOL     OW29179   4.531   4.304   4.460  0.0561 -0.0066  0.3238
 5849SOL    HW129180   4.527   4.209   4.446  1.3357 -0.0359  0.1944
 5849SOL    HW229181   4.615   4.319   4.417 -0.0528 -1.3887 -0.3837
 5850SOL     OW29182   3.841   0.096   5.109 -0.1996 -0.1600  0.1659
 5850SOL    HW129183   3.851   0.153   5.033  0.1846 -0.0256  0.3165
 5850SOL    HW229184   3.934   0.089   5.132 -0.4216  0.0138  1.0858
 5851SOL     OW29185   2.762   1.749   5.793  0.1143  0.8057 -0.3714
 5851SOL    HW129186   2.741   1.757   5.700 -0.0514  0.6188 -0.3519
 5851SOL    HW229187   2.854   1.725   5.791  0.2139  1.0432  1.0916
 5852SOL     OW29188   3.327   2.906   2.482  0.3817 -0.4796  0.1712
 5852SOL    HW129189   3.421   2.917   2.466  0.4376 -1.8707 -0.4162
 5852SOL    HW229190   3.325   2.942   2.571 -0.1533 -5.5543  2.1589
 5853SOL     OW29191   1.215   1.658   0.222  0.0531  0.2717  0.3167
 5853SOL    HW129192   1.305   1.676   0.196  0.1163  1.4862  1.3586
 5853SOL    HW229193   1.224   1.567   0.252  0.5714 -0.0378 -0.7994
 5854SOL     OW29194   3.381   0.341   9.653  0.3665  0.2284  0.2972
 5854SOL    HW129195   3.471   0.337   9.622  0.3192  0.1915  0.1638
 5854SOL    HW229196   3.405   0.315   9.742  2.7935  0.1378 -0.3894
 5855SOL     OW29197   3.590   0.969  16.389 -0.2928 -0.3311  0.3536
 5855SOL    HW129198   3.558   0.941  16.303  0.3016  3.6081 -1.1852
 5855SOL    HW229199   3.682   0.947  16.376 -0.4061 -0.9876  0.6809
 5856SOL     OW29200   4.020   1.973   2.749  0.4151  0.0577  0.2759
 5856SOL    HW129201   3.960   2.019   2.808  0.7173  0.1972  0.4780
 5856SOL    HW229202   3.958   1.943   2.683 -1.0387  2.0733  0.7231
 5857SOL     OW29203   3.510   3.901  13.294 -0.4531  0.0269 -0.2149
 5857SOL    HW129204   3.571   3.843  13.247 -0.7674 -0.1770 -0.3738
 5857SOL    HW229205   3.500   3.975  13.234  0.6868  0.2908 -0.0694
 5858SOL     OW29206   3.056   4.716   5.119 -0.3918 -0.0675 -0.0230
 5858SOL    HW129207   2.983   4.685   5.067 -2.2962  1.8465  1.4608
 5858SOL    HW229208   3.043   4.658   5.194 -0.9764 -0.6047 -0.5427
 5859SOL     OW29209   1.785   2.659   5.951 -0.1706 -0.0519  0.1177
 5859SOL    HW129210   1.825   2.746   5.952 -0.2657 -0.0351  2.2873
 5859SOL    HW229211   1.698   2.679   5.985  0.0039 -0.7338  0.9487
 5860SOL     OW29212   3.216   3.009   2.791  0.0003 -0.0121  0.2585
 5860SOL    HW129213   3.163   2.930   2.797  1.0093 -0.6949  0.3079
 5860SOL    HW229214   3.306   2.975   2.789 -0.3153 -0.7064 -2.9906
 5861SOL     OW29215   2.064   2.387   0.492  0.5612  0.0879 -0.0005
 5861SOL    HW129216   2.016   2.315   0.452 -1.8202  2.3711 -1.2596
 5861SOL    HW229217   1.989   2.444   0.510  0.4210  0.4759 -1.7931
 5862SOL     OW29218   2.428   2.151  16.953  0.1910 -0.4645  0.2107
 5862SOL    HW129219   2.392   2.081  16.899  0.4251 -0.6946  0.3531
 5862SOL    HW229220   2.451   2.100  17.031  1.2469 -0.0065  0.1908
 5863SOL     OW29221   3.444   0.278   1.007  0.5051 -0.2965 -0.4843
 5863SOL    HW129222   3.359   0.297   1.048 -0.1217 -0.5638 -1.6737
 5863SOL    HW229223   3.422   0.192   0.973 -0.2542  0.2088 -1.2677
 5864SOL     OW29224   2.582   1.935   0.861 -0.5604 -0.9907  0.2646
 5864SOL    HW129225   2.523   2.000   0.899 -0.2492  0.8458 -2.4723
 5864SOL    HW229226   2.559   1.850   0.901 -1.2413 -1.3067 -0.8051
 5865SOL     OW29227   2.184   4.682  17.418  0.6888 -0.5214 -0.1415
 5865SOL    HW129228   2.223   4.650  17.500 -0.4990 -2.5501 -0.3606
 5865SOL    HW229229   2.258   4.663  17.360  1.0152  0.6166 -0.0979
 5866SOL     OW29230   4.706   0.051   9.023 -0.4370  0.4943  0.1303
 5866SOL    HW129231   4.723   4.731   9.098 -1.9709  0.1211  0.1999
 5866SOL    HW229232   4.667   0.123   9.072 -1.6244 -0.7131  0.9348
 5867SOL     OW29233   0.343   2.939   6.872  0.4782 -0.0288  0.2529
 5867SOL    HW129234   0.256   2.977   6.884  0.5838  0.0333  0.8325
 5867SOL    HW229235   0.331   2.873   6.804 -0.3160  0.9066 -0.5102
 5868SOL     OW29236   3.517   3.812   8.715 -0.3906 -0.6961 -0.5683
 5868SOL    HW129237   3.504   3.882   8.779  1.4417 -0.7236 -0.1567
 5868SOL    HW229238   3.511   3.735   8.772  1.3274 -0.0230  0.5052
 5869SOL     OW29239   3.645   0.035  13.849  0.1770 -0.0428  0.0151
 5869SOL    HW129240   3.633   4.683  13.883 -2.6117  0.3758  0.0584
 5869SOL    HW229241   3.554   0.058  13.830  0.0918 -0.9212 -0.6476
 5870SOL     OW29242   3.189   2.377   5.311  0.0492  0.1192 -0.1140
 5870SOL    HW129243   3.192   2.442   5.382 -0.8490  2.5049 -2.2508
 5870SOL    HW229244   3.173   2.294   5.355 -0.3667 -0.6017 -1.6262
 5871SOL     OW29245   0.998   2.020   9.660 -0.1255  0.4494  0.4889
 5871SOL    HW129246   0.931   1.951   9.662 -1.7261  1.9345 -2.1729
 5871SOL    HW229247   1.080   1.979   9.687  0.1413  0.9393  0.4212
 5872SOL     OW29248   0.144   4.552   7.138 -0.2920 -0.1780  0.4636
 5872SOL    HW129249   0.152   4.478   7.078 -1.6541  1.3559 -1.6110
 5872SOL    HW229250   0.051   4.554   7.158 -0.2300  2.1599  0.5308
 5873SOL     OW29251   2.748   3.043   7.443 -0.0602 -0.4451 -0.0439
 5873SOL    HW129252   2.669   3.062   7.495 -1.0602 -0.7488 -1.4602
 5873SOL    HW229253   2.757   3.134   7.414 -0.6319 -0.6008 -0.6870
 5874SOL     OW29254   1.088   0.227   7.197 -0.1634 -0.7884  0.1147
 5874SOL    HW129255   1.112   0.314   7.165 -0.9959 -0.8049 -0.5450
 5874SOL    HW229256   1.165   0.202   7.249  1.3515  2.2579 -0.6618
 5875SOL     OW29257   4.289   3.146   4.937  0.3361 -0.3796 -0.5091
 5875SOL    HW129258   4.300   3.111   4.849 -0.1472  0.4238 -0.8940
 5875SOL    HW229259   4.198   3.175   4.930  1.4198  2.2010 -3.6955
 5876SOL     OW29260   1.906   0.154   3.753  0.3271  0.1712 -0.4025
 5876SOL    HW129261   1.814   0.149   3.729  0.5809  2.4479 -1.8416
 5876SOL    HW229262   1.887   0.193   3.839  0.2896  0.7566 -0.6771
 5877SOL     OW29263   2.713   2.324  16.319 -0.2045 -0.7632 -0.5321
 5877SOL    HW129264   2.634   2.285  16.356 -1.2061  1.2525 -0.6087
 5877SOL    HW229265   2.740   2.398  16.372  0.7626 -2.6069  1.5398
 5878SOL     OW29266   4.077   3.148   8.441 -0.1268 -0.3325  0.8395
 5878SOL    HW129267   4.139   3.216   8.466 -1.3179  1.2095 -0.3438
 5878SOL    HW229268   4.046   3.113   8.524 -2.0010  0.1108  0.3269
 5879SOL     OW29269   2.978   1.312  12.348 -0.2190  0.0006  0.9485
 5879SOL    HW129270   3.005   1.221  12.336  0.9115  0.2562  1.5809
 5879SOL    HW229271   2.902   1.318  12.290 -1.0947  0.8190  2.1764
 5880SOL     OW29272   1.002   0.543  16.734  0.2889 -0.0370 -0.0943
 5880SOL    HW129273   1.045   0.547  16.649 -0.1070  2.2904 -0.1873
 5880SOL    HW229274   1.081   0.540  16.788 -0.5850  1.5293  1.2692
 5881SOL     OW29275   3.741   1.072   4.460 -0.2847 -0.1129 -0.5181
 5881SOL    HW129276   3.744   1.004   4.393 -0.9452 -0.3174 -0.3375
 5881SOL    HW229277   3.711   1.149   4.411 -1.9927  0.7967  1.9841
 5882SOL     OW29278   3.205   1.211  10.889 -0.1969  0.7662  0.5073
 5882SOL    HW129279   3.138   1.164  10.940  1.3099 -2.3439 -0.3367
 5882SOL    HW229280   3.201   1.299  10.927 -1.4869  1.7462 -1.9316
 5883SOL     OW29281   3.600   4.160  13.408 -0.0276  0.2330  0.5459
 5883SOL    HW129282   3.688   4.130  13.386 -0.9129 -0.0712 -2.5917
 5883SOL    HW229283   3.548   4.080  13.397 -0.7911  0.7679  0.2209
 5884SOL     OW29284   1.400   2.461  10.031 -0.3972 -0.8608 -0.0494
 5884SOL    HW129285   1.392   2.486  10.124 -0.7034 -0.0145 -0.3006
 5884SOL    HW229286   1.435   2.538   9.985 -3.5115  1.2285  1.0991
 5885SOL     OW29287   3.335   0.094  16.439 -0.1451 -0.0327  0.0669
 5885SOL    HW129288   3.293   0.174  16.470  1.1059  0.2335  1.0958
 5885SOL    HW229289   3.356   0.056  16.525 -0.3405 -0.9107 -0.2688
 5886SOL     OW29290   2.508   2.693  14.476  0.2316 -0.1327  0.6072
 5886SOL    HW129291   2.573   2.699  14.546  0.9234  1.3595 -0.1461
 5886SOL    HW229292   2.429   2.696  14.530 -0.3498 -0.8167 -0.2099
 5887SOL     OW29293   1.706   1.954   1.047 -0.6585 -0.4346 -0.0466
 5887SOL    HW129294   1.625   1.948   1.097 -0.1513 -0.5090  0.7641
 5887SOL    HW229295   1.779   1.952   1.109 -1.5206 -0.3940  0.9833
 5888SOL     OW29296   3.955   4.234   3.521 -0.6846  0.1386  0.1008
 5888SOL    HW129297   3.975   4.240   3.428  2.3643 -0.5329  0.7136
 5888SOL    HW229298   4.014   4.165   3.550 -0.2023  0.9128  0.9532
 5889SOL     OW29299   0.939   2.100  17.726 -0.3450 -0.2660  0.0565
 5889SOL    HW129300   0.986   2.021  17.700 -2.9211 -0.8261 -2.7741
 5889SOL    HW229301   0.901   2.065   0.064 -0.7132 -3.2443 -1.3966
 5890SOL     OW29302   0.776   0.846   8.098 -0.2685  0.1094 -0.3790
 5890SOL    HW129303   0.807   0.904   8.028  2.6006 -0.2840  0.5465
 5890SOL    HW229304   0.853   0.794   8.120 -0.6237 -0.0665  0.4514
 5891SOL     OW29305   3.566   2.722   0.987  0.2337  0.4206  0.2998
 5891SOL    HW129306   3.644   2.669   0.967  0.1942  0.1016  0.9975
 5891SOL    HW229307   3.495   2.660   0.971 -0.6456  1.4029  0.4385
 5892SOL     OW29308   2.441   2.384   7.242  0.5149 -0.4522 -0.3560
 5892SOL    HW129309   2.407   2.473   7.255 -1.2932 -1.2212  0.1663
 5892SOL    HW229310   2.433   2.376   7.147 -1.8552 -1.0456 -0.1044
 5893SOL     OW29311   4.530   2.593   5.568  0.2630 -0.1786  0.3751
 5893SOL    HW129312   4.443   2.632   5.580  1.2115  1.5492  1.6834
 5893SOL    HW229313   4.558   2.604   5.659  2.0442  1.9769 -0.4282
 5894SOL     OW29314   0.505   1.500   4.638 -0.0677  0.1478 -0.2139
 5894SOL    HW129315   0.541   1.569   4.694  0.5950 -1.5016  1.4054
 5894SOL    HW229316   0.585   1.478   4.590  0.7456  0.3468  1.0481
 5895SOL     OW29317   0.721   4.255   6.375 -0.2906  0.2009  0.2416
 5895SOL    HW129318   0.738   4.200   6.298 -0.7741  0.4032 -0.0088
 5895SOL    HW229319   0.790   4.219   6.431 -1.1129  0.9180  1.7196
 5896SOL     OW29320   1.088   1.965   3.270 -0.2630 -0.3478 -0.0858
 5896SOL    HW129321   1.145   2.032   3.231  1.3739 -1.0906  1.0321
 5896SOL    HW229322   1.160   1.931   3.323 -1.0084 -1.3692  0.2786
 5897SOL     OW29323   1.043   3.136   7.301  0.1987 -0.1669  0.1836
 5897SOL    HW129324   0.971   3.080   7.271 -0.9796  1.1515  0.5450
 5897SOL    HW229325   0.998   3.197   7.359 -0.2304 -0.4166  0.1187
 5898SOL     OW29326   2.631   1.032   5.275 -0.1938 -0.2285 -0.3120
 5898SOL    HW129327   2.579   1.098   5.320  0.3778 -1.4599  2.1334
 5898SOL    HW229328   2.587   0.947   5.283 -1.0557  0.1820 -0.6826
 5899SOL     OW29329   2.437   0.183   6.779  0.5339 -0.6948 -0.0349
 5899SOL    HW129330   2.345   0.162   6.763  0.3474  0.5541 -0.5946
 5899SOL    HW229331   2.442   0.265   6.730 -0.8646 -0.3431  0.4145
 5900SOL     OW29332   2.142   4.733   9.255  0.1747 -0.3610  0.1329
 5900SOL    HW129333   2.237   4.716   9.256  0.0516 -0.9418  2.7962
 5900SOL    HW229334   2.139   0.086   9.289  4.5469 -0.0425 -0.2500
 5901SOL     OW29335   4.348   0.524   6.478  0.3467 -0.0863 -0.8389
 5901SOL    HW129336   4.283   0.578   6.523  3.8324  1.1600  2.7312
 5901SOL    HW229337   4.298   0.478   6.411 -1.4183  1.4620 -0.5918
 5902SOL     OW29338   4.166   1.859   8.855 -0.7255 -0.0833  0.6435
 5902SOL    HW129339   4.162   1.843   8.950  0.4810 -1.3777  0.4640
 5902SOL    HW229340   4.205   1.774   8.837 -2.6586 -0.5805 -1.1164
 5903SOL     OW29341   0.230   3.846  14.894  0.0692 -0.4285  0.5236
 5903SOL    HW129342   0.153   3.902  14.901 -1.1175 -1.9742 -0.0002
 5903SOL    HW229343   0.229   3.831  14.799  1.0305 -0.6108  0.5430
 5904SOL     OW29344   3.293   0.409  15.636 -0.3714 -0.0375 -0.2510
 5904SOL    HW129345   3.200   0.430  15.620 -0.2807 -0.4047 -1.1950
 5904SOL    HW229346   3.312   0.499  15.664 -0.0893 -0.2394  0.2101
 5905SOL     OW29347   0.799   3.825   4.587  0.0970  0.7560  0.6258
 5905SOL    HW129348   0.782   3.913   4.555  0.1912  1.2896  2.0285
 5905SOL    HW229349   0.728   3.783   4.538 -0.0218  0.9807  0.6083
 5906SOL     OW29350   0.307   2.112  16.140  0.1458  0.7598  0.0563
 5906SOL    HW129351   0.347   2.168  16.207 -0.7088  0.5941  0.7135
 5906SOL    HW229352   0.269   2.171  16.075  2.0981  0.8373 -1.0120
 5907SOL     OW29353   0.882   1.469  12.025  0.8714 -0.3851  0.1258
 5907SOL    HW129354   0.941   1.398  12.000 -0.1005 -0.4442 -2.0712
 5907SOL    HW229355   0.892   1.537  11.957 -0.0693  0.2760  0.6496
 5908SOL     OW29356   1.838   1.949   2.615  0.0355 -0.0685 -0.1053
 5908SOL    HW129357   1.826   2.037   2.652  1.0124  0.1874 -0.3783
 5908SOL    HW229358   1.897   1.914   2.682  1.1759 -1.0085 -1.6173
 5909SOL     OW29359   4.694   2.807   7.851 -0.2190 -0.0538 -0.5869
 5909SOL    HW129360   0.021   2.781   7.784 -0.9357  0.4152 -1.4443
 5909SOL    HW229361   4.721   2.746   7.920 -0.0041 -2.0759 -2.4895
 5910SOL     OW29362   1.951   1.904   0.086 -0.0906 -0.3490 -0.0500
 5910SOL    HW129363   1.944   1.808   0.088 -0.0053 -0.3676 -0.8178
 5910SOL    HW229364   1.859   1.928   0.076  0.7028  2.3264 -0.8454
 5911SOL     OW29365   1.671   3.356   2.329 -0.4416 -0.0953  0.0318
 5911SOL    HW129366   1.690   3.439   2.372  1.4290  0.4103 -1.7546
 5911SOL    HW229367   1.576   3.358   2.320 -0.5668  1.7187  1.7525
 5912SOL     OW29368   3.702   0.650   2.799 -0.2639  0.0842 -0.4252
 5912SOL    HW129369   3.782   0.666   2.749 -1.2463 -1.1196 -2.4069
 5912SOL    HW229370   3.711   0.709   2.874 -0.8837  0.3983 -0.5910
 5913SOL     OW29371   2.809   1.555   5.437 -0.4452  0.4081  0.0569
 5913SOL    HW129372   2.796   1.512   5.353 -0.8958  1.5302 -0.4580
 5913SOL    HW229373   2.891   1.520   5.473 -1.7709 -2.4296  0.3172
 5914SOL     OW29374   1.423   1.470   5.614  1.0764 -0.0469  0.1759
 5914SOL    HW129375   1.347   1.437   5.662 -0.8356  2.2050 -1.2840
 5914SOL    HW229376   1.402   1.562   5.600 -2.0615 -0.7767  0.1748
 5915SOL     OW29377   0.188   2.311   4.370 -0.4069 -0.2830 -0.3196
 5915SOL    HW129378   0.100   2.339   4.344 -1.1292 -1.4544  0.8420
 5915SOL    HW229379   0.228   2.355   4.295 -0.6655 -2.3845 -1.6934
 5916SOL     OW29380   0.197   3.752   1.056 -0.2811 -0.1716 -0.3246
 5916SOL    HW129381   0.200   3.789   0.968 -0.3365 -0.2220 -0.3481
 5916SOL    HW229382   0.188   3.822   1.120 -2.5836 -3.4392  2.9760
 5917SOL     OW29383   4.615   0.145   8.779  0.9426 -0.4403  0.2686
 5917SOL    HW129384   4.589   0.057   8.752  0.9961 -0.4066  0.1065
 5917SOL    HW229385   4.656   0.125   8.863 -0.5794 -0.3917  1.0294
 5918SOL     OW29386   0.406   4.088   4.928 -0.0841  0.0316 -0.6589
 5918SOL    HW129387   0.443   4.143   4.996 -2.4572 -1.3858  1.7992
 5918SOL    HW229388   0.476   4.089   4.863 -0.8116 -0.9778 -1.4520
 5919SOL     OW29389   2.000   4.499   2.097 -0.0678 -0.1786  0.1640
 5919SOL    HW129390   2.032   4.456   2.176 -0.3386 -0.9895 -0.1694
 5919SOL    HW229391   2.005   4.593   2.116 -1.3944 -0.0096 -0.3377
 5920SOL     OW29392   4.288   2.847   8.308 -0.9961  0.1757 -0.6099
 5920SOL    HW129393   4.355   2.899   8.352  0.4176 -1.0021 -1.3974
 5920SOL    HW229394   4.220   2.849   8.376 -1.1213  1.9949 -0.7827
 5921SOL     OW29395   1.873   2.760   6.898  0.0057 -0.7399 -0.2628
 5921SOL    HW129396   1.913   2.688   6.947 -1.5364 -1.5904 -0.2450
 5921SOL    HW229397   1.951   2.812   6.880  0.5236 -1.1249  0.9377
 5922SOL     OW29398   0.001   3.009   3.886 -0.4642 -0.8059 -0.1285
 5922SOL    HW129399   4.704   2.942   3.946 -0.3805 -3.6813 -3.2645
 5922SOL    HW229400   4.654   3.041   3.851 -0.9387 -0.6066  1.1928
 5923SOL     OW29401   0.986   2.471   1.078  0.5147  0.3125  0.1004
 5923SOL    HW129402   0.930   2.403   1.113 -0.3918  1.9212  1.7966
 5923SOL    HW229403   0.926   2.546   1.083  2.1393  1.7178 -1.0013
 5924SOL     OW29404   1.512   1.964   7.677 -0.4849 -0.0812 -0.2927
 5924SOL    HW129405   1.515   1.927   7.766  0.6253 -0.3606 -0.4491
 5924SOL    HW229406   1.458   2.040   7.698 -0.0325  0.5359 -1.4003
 5925SOL     OW29407   1.680   0.223   5.370 -0.2789  0.1410 -0.3213
 5925SOL    HW129408   1.601   0.173   5.388  1.6437 -2.7398  0.0304
 5925SOL    HW229409   1.666   0.218   5.275  3.5829  1.5862 -0.9610
 5926SOL     OW29410   3.074   3.643   4.947  0.3186  0.5282  0.0601
 5926SOL    HW129411   3.167   3.664   4.947  0.3049  0.6028  0.7932
 5926SOL    HW229412   3.064   3.635   5.042 -0.6346  0.4212 -0.0488
 5927SOL     OW29413   0.137   4.048   9.202  0.3961  0.7908 -0.2229
 5927SOL    HW129414   0.214   4.012   9.157 -0.1553 -1.0086  0.2656
 5927SOL    HW229415   0.099   4.113   9.142  2.8004  0.6289 -1.9079
 5928SOL     OW29416   4.057   4.563   2.635  0.2786 -0.0563 -0.3739
 5928SOL    HW129417   4.040   4.578   2.543  0.0694  2.8394  0.1467
 5928SOL    HW229418   4.111   4.639   2.657  1.3057 -0.7069 -0.6667
 5929SOL     OW29419   0.012   3.004   5.278 -0.2908 -0.0237 -0.0033
 5929SOL    HW129420   0.095   2.989   5.233 -0.9535 -0.2155 -1.1582
 5929SOL    HW229421   4.722   3.089   5.243 -0.5596 -0.7262 -1.5233
 5930SOL     OW29422   3.599   2.778  10.470  0.0763 -0.5950  0.6791
 5930SOL    HW129423   3.602   2.683  10.461 -0.9958 -0.7500  1.9256
 5930SOL    HW229424   3.536   2.799  10.400 -0.0270  1.1999  1.3015
 5931SOL     OW29425   0.434   2.415  11.125  0.1697 -0.5084  0.5676
 5931SOL    HW129426   0.400   2.387  11.210  0.2620 -0.7125  0.5364
 5931SOL    HW229427   0.401   2.356  11.057 -0.4894  0.5181 -0.0080
 5932SOL     OW29428   1.631   3.408   4.180  0.0942  0.4167 -0.7865
 5932SOL    HW129429   1.656   3.336   4.123  1.1468  0.0716  0.1244
 5932SOL    HW229430   1.713   3.424   4.226 -0.1031  0.8183 -0.5749
 5933SOL     OW29431   1.562   2.968   1.818 -0.0660  0.2941  0.2638
 5933SOL    HW129432   1.648   3.010   1.823 -0.8144  1.9367 -0.8866
 5933SOL    HW229433   1.520   3.005   1.896  0.2895  2.0596 -0.3921
 5934SOL     OW29434   1.691   2.256  14.074  1.0675 -0.3465 -0.2302
 5934SOL    HW129435   1.697   2.293  13.985  1.0506 -3.0290 -1.3579
 5934SOL    HW229436   1.664   2.166  14.054  1.1746 -0.4565  0.1309
 5935SOL     OW29437   2.720   1.680   7.780 -0.1397  0.0302 -0.1860
 5935SOL    HW129438   2.696   1.640   7.863 -0.6857 -0.4312 -0.5653
 5935SOL    HW229439   2.726   1.774   7.795  1.3052 -0.0719 -0.0843
 5936SOL     OW29440   4.544   0.026  12.004  0.4012  0.0446 -0.3315
 5936SOL    HW129441   4.605   4.706  11.956  1.4473  2.1646 -1.4685
 5936SOL    HW229442   4.503   4.690  12.053  1.0429  0.1269  0.3243
 5937SOL     OW29443   3.695   3.971  14.777 -0.2464  0.6499 -0.4193
 5937SOL    HW129444   3.737   3.898  14.823  0.5355  0.5037 -1.3656
 5937SOL    HW229445   3.607   3.934  14.768 -1.3517  3.0743  0.4724
 5938SOL     OW29446   3.473   3.082   8.405  0.2374  0.1125 -0.6445
 5938SOL    HW129447   3.449   3.174   8.417 -0.8692 -0.3044  0.4183
 5938SOL    HW229448   3.567   3.091   8.395  0.7566 -1.2255  2.7544
 5939SOL     OW29449   2.040   2.631   5.615 -0.4219  0.9000 -0.2712
 5939SOL    HW129450   1.945   2.627   5.611 -0.3687  1.3988 -1.8585
 5939SOL    HW229451   2.055   2.724   5.630  0.7409  0.0904  3.7566
 5940SOL     OW29452   3.878   2.423   7.291 -0.8649 -0.1592 -0.0504
 5940SOL    HW129453   3.947   2.398   7.353 -1.5226 -0.1238  0.7089
 5940SOL    HW229454   3.849   2.502   7.337 -1.9499 -1.2233  1.1179
 5941SOL     OW29455   4.636   1.907   8.261  0.0780 -0.0061 -0.0037
 5941SOL    HW129456   4.711   1.967   8.272 -1.1525  1.1097  2.4395
 5941SOL    HW229457   4.631   1.896   8.166  1.1002 -0.7570  0.0328
 5942SOL     OW29458   2.978   0.793   7.698  0.1506 -0.0352 -0.0377
 5942SOL    HW129459   3.047   0.854   7.726  2.4320 -2.3448 -0.7178
 5942SOL    HW229460   3.019   0.708   7.711  0.6419  0.1623 -0.3387
 5943SOL     OW29461   4.223   3.993  16.113 -0.3940  0.4263 -0.0254
 5943SOL    HW129462   4.181   3.985  16.027  1.9399  2.1441 -1.3132
 5943SOL    HW229463   4.200   3.905  16.142 -1.6067 -0.1441 -2.7183
 5944SOL     OW29464   4.151   3.397   5.993  0.4959  0.2165  0.2017
 5944SOL    HW129465   4.193   3.414   6.077  0.4722 -0.2103  0.3019
 5944SOL    HW229466   4.086   3.466   5.997  2.0281  1.6590  0.2336
 5945SOL     OW29467   1.411   4.341   5.715  0.3254  0.1766  0.2920
 5945SOL    HW129468   1.359   4.289   5.654 -3.4816 -0.1669  3.7979
 5945SOL    HW229469   1.490   4.352   5.663 -0.4344  0.3213 -0.8238
 5946SOL     OW29470   1.556   2.415   6.682 -0.3777  0.5000  0.2879
 5946SOL    HW129471   1.530   2.372   6.763  1.3782 -0.4251  0.3491
 5946SOL    HW229472   1.542   2.342   6.622  1.4737  1.4389 -1.2968
 5947SOL     OW29473   1.111   0.127   6.149  0.0696  0.5818  0.2941
 5947SOL    HW129474   1.101   0.076   6.069 -0.2926  0.8995  0.1360
 5947SOL    HW229475   1.173   0.189   6.110  1.7276 -2.2297 -1.5255
 5948SOL     OW29476   4.436   3.013   3.851  0.0299 -0.3485  0.3098
 5948SOL    HW129477   4.372   3.080   3.876  0.1606  0.1983 -0.8302
 5948SOL    HW229478   4.431   3.021   3.755  2.4253  0.0096  0.2245
 5949SOL     OW29479   3.584   2.945   5.134 -0.3717 -0.5830 -0.0315
 5949SOL    HW129480   3.620   2.911   5.052 -2.1908 -2.2962 -0.1325
 5949SOL    HW229481   3.530   3.021   5.115  1.2121  0.8419  1.2960
 5950SOL     OW29482   0.324   2.613  11.356 -0.4256  0.1171 -0.4539
 5950SOL    HW129483   0.280   2.615  11.271 -3.0513  0.0839  0.9098
 5950SOL    HW229484   0.354   2.523  11.368 -0.7124 -0.1681 -1.9360
 5951SOL     OW29485   0.368   3.521  14.603  0.2746 -0.6607  0.4434
 5951SOL    HW129486   0.278   3.506  14.633 -0.1613  3.2419  1.0706
 5951SOL    HW229487   0.404   3.443  14.645 -1.9251 -2.3585 -0.8194
 5952SOL     OW29488   2.682   0.916  10.150 -0.2746 -0.2686  0.0324
 5952SOL    HW129489   2.653   0.829  10.178 -1.0760  0.1896  0.6138
 5952SOL    HW229490   2.623   0.924  10.075  0.4906  0.9680 -0.4385
 5953SOL     OW29491   1.394   3.519   4.163 -0.3897  0.2491 -0.1545
 5953SOL    HW129492   1.378   3.613   4.173  0.5961  0.3216  0.7391
 5953SOL    HW229493   1.486   3.509   4.186 -0.3230  0.4104 -0.3457
 5954SOL     OW29494   3.659   3.947   2.284 -0.3060  0.2173  0.0220
 5954SOL    HW129495   3.681   3.941   2.191 -1.9833 -1.7024 -0.2450
 5954SOL    HW229496   3.571   3.911   2.294 -0.4239 -0.3351 -2.9176
 5955SOL     OW29497   0.494   3.905   3.802  0.3518  0.8090  0.0153
 5955SOL    HW129498   0.551   3.982   3.799  2.3310 -0.6647 -0.0990
 5955SOL    HW229499   0.433   3.922   3.730  0.6505  1.5672 -0.0611
 5956SOL     OW29500   0.481   1.692  14.208  0.6310  0.3089 -0.5193
 5956SOL    HW129501   0.448   1.776  14.177  2.1620  1.5395  1.1494
 5956SOL    HW229502   0.511   1.718  14.296 -0.4222  0.5123 -0.2117
 5957SOL     OW29503   3.275   4.021   4.692 -0.3469  0.7646 -0.1219
 5957SOL    HW129504   3.192   4.008   4.738 -1.0604 -3.5529 -2.5694
 5957SOL    HW229505   3.310   3.932   4.702  1.0360  1.3064 -0.0823
 5958SOL     OW29506   3.459   4.675   6.018  0.6515 -0.1778  0.0957
 5958SOL    HW129507   3.458   4.607   6.085 -2.5240 -1.7341 -1.5229
 5958SOL    HW229508   3.400   0.003   6.057 -0.5369 -0.3650 -1.4143
 5959SOL     OW29509   4.130   2.052   8.665  0.3540  0.6258  0.1972
 5959SOL    HW129510   4.036   2.039   8.651  0.3753  0.9744 -0.2783
 5959SOL    HW229511   4.138   1.995   8.741 -0.8107 -0.0111 -0.1571
 5960SOL     OW29512   0.379   1.875   8.508  0.5203 -0.1984 -0.1075
 5960SOL    HW129513   0.310   1.845   8.567 -0.0247 -0.8062 -1.0536
 5960SOL    HW229514   0.335   1.854   8.426 -0.6777  0.5675  0.3388
 5961SOL     OW29515   1.181   4.442   3.450  0.0434 -0.1168  0.1636
 5961SOL    HW129516   1.158   4.424   3.541 -3.0461  0.5765 -0.4752
 5961SOL    HW229517   1.101   4.404   3.414 -0.6896 -2.5074  4.3178
 5962SOL     OW29518   2.401   3.257   9.013 -0.1371  0.4725 -0.1632
 5962SOL    HW129519   2.488   3.276   9.049  0.0526 -2.3282  0.8942
 5962SOL    HW229520   2.426   3.208   8.934  0.7276 -3.9894  2.8653
 5963SOL     OW29521   2.802   1.888  11.703  0.1967  0.0501  0.0188
 5963SOL    HW129522   2.891   1.914  11.727 -0.2912  0.2061  1.6742
 5963SOL    HW229523   2.797   1.945  11.627 -0.2601  0.7486  0.5745
 5964SOL     OW29524   2.723   0.267  12.508 -0.0918 -0.1439 -0.1888
 5964SOL    HW129525   2.715   0.328  12.581 -0.1873 -1.6843  1.0929
 5964SOL    HW229526   2.629   0.247  12.508  0.1007 -1.0510 -2.6295
 5965SOL     OW29527   0.586   0.160   6.056 -0.2009  0.1952  0.2336
 5965SOL    HW129528   0.604   0.240   6.106  3.5753 -0.6421  0.1968
 5965SOL    HW229529   0.495   0.167   6.025  0.3960  1.2452 -1.2578
 5966SOL     OW29530   1.228   0.466   7.608 -0.1579  0.3025  0.8831
 5966SOL    HW129531   1.177   0.470   7.688  0.6401 -2.7958  1.5234
 5966SOL    HW229532   1.201   0.542   7.556 -0.2622 -0.4933 -0.2353
 5967SOL     OW29533   2.952   4.495   4.144 -1.1027 -0.6738 -0.9236
 5967SOL    HW129534   3.017   4.430   4.172 -0.4960  1.6906  3.2751
 5967SOL    HW229535   3.009   4.570   4.130 -1.2513 -0.4938 -0.5659
 5968SOL     OW29536   3.958   0.007   4.420  0.2052 -0.0325 -0.2275
 5968SOL    HW129537   3.907   0.014   4.501 -0.1230  2.6921 -0.6537
 5968SOL    HW229538   4.049   0.011   4.449  0.3307  1.2483 -0.8005
 5969SOL     OW29539   1.840   0.678   4.487 -0.1037  0.3210  0.0228
 5969SOL    HW129540   1.863   0.770   4.478 -0.0682  0.4418  1.3264
 5969SOL    HW229541   1.904   0.632   4.433 -1.2238 -1.5656  0.2575
 5970SOL     OW29542   2.444   0.878   9.973  0.1645  0.0305  0.5223
 5970SOL    HW129543   2.497   0.810   9.930  0.4145  0.9711 -0.6616
 5970SOL    HW229544   2.374   0.835  10.021  1.0160 -0.0424  1.6810
 5971SOL     OW29545   2.462   0.752   4.748  0.4964  0.0939  0.0543
 5971SOL    HW129546   2.541   0.711   4.784  1.2506 -0.4713 -2.2328
 5971SOL    HW229547   2.413   0.676   4.718  1.6160 -0.3743 -0.5946
 5972SOL     OW29548   0.008   3.606   4.123  0.3104 -0.2365  0.2801
 5972SOL    HW129549   4.696   3.655   4.056  1.9230  0.7415 -0.1546
 5972SOL    HW229550   0.027   3.525   4.077  3.5309  0.8856 -0.3477
 5973SOL     OW29551   0.957   2.826   6.698  0.1859 -0.2756 -0.0494
 5973SOL    HW129552   0.981   2.915   6.673  0.0575  0.1482  1.3821
 5973SOL    HW229553   1.031   2.808   6.756  0.7140 -0.2852 -0.7291
 5974SOL     OW29554   3.430   1.187  10.416 -0.1893  0.5449  0.4686
 5974SOL    HW129555   3.387   1.157  10.496  0.0478  0.1213  0.4368
 5974SOL    HW229556   3.484   1.108  10.407  0.9714  0.9935  3.4994
 5975SOL     OW29557   3.888   2.801   2.763  0.1294  0.1361 -0.6148
 5975SOL    HW129558   3.954   2.733   2.773  0.0164 -0.2116 -2.3255
 5975SOL    HW229559   3.926   2.873   2.814 -1.1904 -0.3741  1.0987
 5976SOL     OW29560   0.415   1.592   1.658 -0.3694  0.2128 -0.1416
 5976SOL    HW129561   0.348   1.614   1.722  1.1643 -0.3976  1.6809
 5976SOL    HW229562   0.484   1.649   1.694  1.0578 -2.0185  0.6224
 5977SOL     OW29563   3.731   4.417   3.758 -0.0704  0.3594  0.0229
 5977SOL    HW129564   3.684   4.486   3.805 -0.8266 -0.7749  0.9526
 5977SOL    HW229565   3.766   4.365   3.830 -0.5209  0.4632  0.3186
 5978SOL     OW29566   1.593   1.190   6.484  0.3581  0.0191 -0.2892
 5978SOL    HW129567   1.562   1.099   6.489  0.5950  0.0108  1.1073
 5978SOL    HW229568   1.511   1.237   6.499  1.0560  1.7212 -1.7891
 5979SOL     OW29569   3.406   0.794   6.608 -0.5331 -0.3134 -0.0201
 5979SOL    HW129570   3.467   0.861   6.577 -0.4374 -1.9927 -3.4205
 5979SOL    HW229571   3.334   0.846   6.645  0.1868  1.0006 -0.4358
 5980SOL     OW29572   2.047   3.706   0.487  0.5859 -0.8733 -0.4730
 5980SOL    HW129573   2.058   3.625   0.536 -1.4852 -0.1951  1.1572
 5980SOL    HW229574   2.121   3.747   0.531 -0.1055 -1.4808  1.2659
 5981SOL     OW29575   2.205   2.579  12.735 -0.1775 -0.1059  0.2435
 5981SOL    HW129576   2.298   2.568  12.717 -0.2892 -2.5961  1.1079
 5981SOL    HW229577   2.186   2.495  12.777  1.1507 -0.6086 -0.1657
 5982SOL     OW29578   0.850   0.043   7.215 -0.2832 -0.5628 -0.6959
 5982SOL    HW129579   0.925   0.094   7.185 -0.6515  1.1352  1.2734
 5982SOL    HW229580   0.889   0.011   7.296 -1.2373 -4.0296 -1.5879
 5983SOL     OW29581   2.667   3.897  15.162  0.4306  0.5640  0.7489
 5983SOL    HW129582   2.751   3.904  15.206  1.3701 -3.4443 -0.4329
 5983SOL    HW229583   2.645   3.809  15.194  0.5899  1.2351  2.7233
 5984SOL     OW29584   4.646   2.297  16.992  0.9202  0.5480 -0.4023
 5984SOL    HW129585   4.616   2.330  17.076  1.6977 -0.1879  0.1735
 5984SOL    HW229586   4.657   2.204  17.011  0.6170  0.2084 -1.8556
 5985SOL     OW29587   3.831   1.316  13.321  0.1387 -0.0277 -0.4216
 5985SOL    HW129588   3.761   1.281  13.377 -0.0453  3.3206  1.4122
 5985SOL    HW229589   3.793   1.403  13.309 -0.4394 -0.4794 -1.7636
 5986SOL     OW29590   2.572   4.491   6.698 -0.1673 -0.1420 -0.4106
 5986SOL    HW129591   2.630   4.514   6.771 -0.3046  0.1496 -0.3954
 5986SOL    HW229592   2.562   4.396   6.701  2.0893 -0.4357 -2.3881
 5987SOL     OW29593   3.919   3.267  13.959 -0.0390  0.5746  0.1861
 5987SOL    HW129594   3.913   3.292  14.051 -0.8833 -1.1014  0.5842
 5987SOL    HW229595   3.939   3.174  13.964  0.9128  0.9433  2.9875
 5988SOL     OW29596   4.225   0.733   9.363  0.0363  0.2706 -0.2461
 5988SOL    HW129597   4.276   0.663   9.404  1.1539  1.1290 -0.1728
 5988SOL    HW229598   4.294   0.776   9.313  0.6271 -1.0462 -0.5397
 5989SOL     OW29599   0.886   0.010   8.257  0.0179  0.2542  0.3071
 5989SOL    HW129600   0.861   4.693   8.334  1.4695 -0.8283  0.0241
 5989SOL    HW229601   0.946   0.067   8.304 -1.9802  2.5000  0.1535
 5990SOL     OW29602   4.495   2.110   2.476  0.1036  0.5127  0.1350
 5990SOL    HW129603   4.562   2.100   2.409 -0.6046  2.8671 -0.9109
 5990SOL    HW229604   4.417   2.067   2.439  1.5308  1.2709 -3.7412
 5991SOL     OW29605   3.908   3.823  12.209  0.4273 -0.2829 -0.1852
 5991SOL    HW129606   3.917   3.737  12.249 -0.9915 -0.5647 -0.4780
 5991SOL    HW229607   3.836   3.806  12.149 -0.0961 -0.2591  0.4439
 5992SOL     OW29608   2.898   3.183   1.814 -0.5892  0.0797  0.3889
 5992SOL    HW129609   2.836   3.115   1.841 -0.0727  0.0580  1.5327
 5992SOL    HW229610   2.976   3.134   1.789 -0.4442  0.5531 -0.0733
 5993SOL     OW29611   0.935   2.187   4.801 -0.5969 -0.0441 -0.3237
 5993SOL    HW129612   0.923   2.282   4.807  0.0804 -0.0267  0.7523
 5993SOL    HW229613   1.030   2.172   4.799 -0.2972  1.7351  0.9614
 5994SOL     OW29614   0.271   1.450   5.030  0.0844 -0.4167 -0.1941
 5994SOL    HW129615   0.265   1.370   4.979 -0.5863 -0.5309  0.0638
 5994SOL    HW229616   0.316   1.418   5.109 -1.2735  0.2678  0.8588
 5995SOL     OW29617   3.852   1.087   7.108 -0.0879 -0.4745 -0.4233
 5995SOL    HW129618   3.810   1.028   7.044 -1.9422  0.4285 -0.0485
 5995SOL    HW229619   3.937   1.045   7.113  0.6822  0.8154 -3.0481
 5996SOL     OW29620   4.727   1.753   8.867 -0.3884  0.1181  0.4768
 5996SOL    HW129621   4.652   1.807   8.842 -0.5778 -1.3108 -2.0673
 5996SOL    HW229622   0.039   1.800   8.935  1.0046  0.3530 -0.6706
 5997SOL     OW29623   3.458   0.816   9.857  0.0181  0.0541 -0.1077
 5997SOL    HW129624   3.414   0.814   9.942 -0.6578 -0.8463 -0.4685
 5997SOL    HW229625   3.469   0.910   9.845  0.4113  0.0228  0.0020
 5998SOL     OW29626   4.331   2.381   2.159  0.0810 -0.3068  0.3462
 5998SOL    HW129627   4.353   2.292   2.185 -1.5462 -1.4345 -2.1223
 5998SOL    HW229628   4.386   2.427   2.223  1.5353 -0.4400 -0.8213
 5999SOL     OW29629   3.233   3.872   7.310 -1.1242  0.4436 -0.1554
 5999SOL    HW129630   3.286   3.849   7.387 -1.1526 -1.3840 -0.6965
 5999SOL    HW229631   3.144   3.871   7.346 -1.1997 -1.7277 -0.4031
 6000SOL     OW29632   1.819   2.458   4.111 -0.3848 -0.5145 -0.0380
 6000SOL    HW129633   1.825   2.547   4.148  2.1393 -0.8543  0.3914
 6000SOL    HW229634   1.762   2.471   4.036 -1.5392  2.6163  1.3683
 6001SOL     OW29635   2.821   0.491  10.332  0.6926 -0.3734  0.0095
 6001SOL    HW129636   2.905   0.446  10.331  0.0540 -1.5397 -1.1718
 6001SOL    HW229637   2.777   0.447  10.259 -0.1154  0.0070  0.2656
 6002SOL     OW29638   4.414   0.407   8.003  0.1680  0.1731 -0.4767
 6002SOL    HW129639   4.456   0.333   8.047  2.0068  1.3274 -0.3305
 6002SOL    HW229640   4.475   0.478   8.021  0.1926 -0.3441  1.4202
 6003SOL     OW29641   3.842   3.903  16.756  0.5168 -0.0930 -0.4133
 6003SOL    HW129642   3.750   3.895  16.731  0.8877 -0.6022 -1.6033
 6003SOL    HW229643   3.834   3.975  16.819  3.9684  1.4905 -1.7744
 6004SOL     OW29644   4.012   3.254   3.965 -0.0668  0.3813  0.1232
 6004SOL    HW129645   3.958   3.300   3.902  0.8822  0.6990 -0.4633
 6004SOL    HW229646   3.983   3.312   4.035 -0.9490  0.3870 -0.2546
 6005SOL     OW29647   1.987   3.135  12.418 -0.3631  0.3865  0.7083
 6005SOL    HW129648   2.004   3.127  12.512  0.7765 -2.1612  0.2802
 6005SOL    HW229649   1.908   3.085  12.401  0.1934  0.1116 -1.0802
 6006SOL     OW29650   2.862   2.311   9.649 -0.1231 -0.6911  0.3012
 6006SOL    HW129651   2.937   2.258   9.621  0.7575  1.4527 -1.3582
 6006SOL    HW229652   2.855   2.384   9.589  0.7764 -0.0746  0.9354
 6007SOL     OW29653   1.466   1.720   6.047 -0.5186 -0.7537 -0.6126
 6007SOL    HW129654   1.430   1.807   6.064 -1.1842 -0.9398 -1.0774
 6007SOL    HW229655   1.395   1.658   6.030 -0.1823 -1.3115 -0.0079
 6008SOL     OW29656   4.481   1.239  17.233  0.3173  0.4845 -0.1708
 6008SOL    HW129657   4.435   1.206  17.310  1.6126  0.1756  0.4789
 6008SOL    HW229658   4.568   1.231  17.272  0.2487  2.4565  0.3940
 6009SOL     OW29659   1.604   1.596  14.160 -0.4485  0.4350  0.0839
 6009SOL    HW129660   1.648   1.607  14.244 -1.8341  0.7349  0.7734
 6009SOL    HW229661   1.545   1.526  14.189 -0.1978 -0.4413 -1.4877
 6010SOL     OW29662   4.388   4.458   0.259  0.0445  0.1467 -0.6810
 6010SOL    HW129663   4.329   4.527   0.228  0.7370 -0.2210 -2.8295
 6010SOL    HW229664   4.457   4.446   0.194 -1.4473 -0.8850 -2.0864
 6011SOL     OW29665   1.894   2.597   8.241 -0.2483 -0.6425  0.6674
 6011SOL    HW129666   1.937   2.591   8.155  1.5533 -1.6087  1.6330
 6011SOL    HW229667   1.944   2.536   8.295 -0.1875  0.5555  1.9521
 6012SOL     OW29668   2.879   3.279   3.909 -0.1171  0.0554  0.9001
 6012SOL    HW129669   2.839   3.236   3.834 -0.6362  2.7092 -0.3485
 6012SOL    HW229670   2.953   3.221   3.928  1.1214  1.4567  0.4486
 6013SOL     OW29671   4.692   3.926   1.110 -0.3532 -0.5952  0.5287
 6013SOL    HW129672   4.713   3.937   1.017  0.6539 -1.0482  0.7036
 6013SOL    HW229673   4.683   4.019   1.132 -1.3327 -0.7781  0.9231
 6014SOL     OW29674   4.376   0.765  17.667  0.3481 -0.1630  0.5572
 6014SOL    HW129675   4.282   0.749  17.659  0.3356 -1.5661  3.5558
 6014SOL    HW229676   4.410   0.677  17.681  1.0464 -0.1308 -0.9235
 6015SOL     OW29677   0.037   1.451   1.170 -0.2445  0.0207  0.1055
 6015SOL    HW129678   0.067   1.541   1.156 -0.7150  0.2213  0.3920
 6015SOL    HW229679   0.084   1.432   1.251 -0.2976 -3.5669 -0.6926
 6016SOL     OW29680   2.114   0.967   2.368  0.0912  0.5568  0.2697
 6016SOL    HW129681   2.159   1.023   2.305  0.7933 -1.3061 -0.8614
 6016SOL    HW229682   2.054   1.024   2.415 -1.0665 -1.7522  1.5927
 6017SOL     OW29683   1.951   4.313   5.955  0.0096  0.0068  0.3917
 6017SOL    HW129684   1.894   4.347   6.024 -0.0939  0.0243  0.2984
 6017SOL    HW229685   1.899   4.240   5.922 -0.1478  0.9244 -1.4298
 6018SOL     OW29686   4.120   1.798  14.105  0.2413  0.5726 -0.4036
 6018SOL    HW129687   4.187   1.731  14.118 -1.5598 -1.0501  0.4136
 6018SOL    HW229688   4.045   1.770  14.158  0.3507 -1.3632 -1.2814
 6019SOL     OW29689   2.358   0.903  14.621  0.2071  0.3732 -0.2327
 6019SOL    HW129690   2.362   0.933  14.530  1.8366  0.8150 -0.0113
 6019SOL    HW229691   2.333   0.982  14.668 -0.4072  0.1003 -0.1091
 6020SOL     OW29692   4.154   0.059   8.888 -0.1767  0.2199 -0.3913
 6020SOL    HW129693   4.228   0.033   8.834 -0.0903 -1.9903  0.8104
 6020SOL    HW229694   4.095   0.106   8.829 -0.7949 -0.9708 -0.7359
 6021SOL     OW29695   3.371   1.917   2.649  0.2333  0.2939  0.5052
 6021SOL    HW129696   3.383   1.866   2.569  0.3904 -0.2661  0.8868
 6021SOL    HW229697   3.454   1.954   2.677  0.2118  0.8197 -0.1179
 6022SOL     OW29698   1.122   3.116   6.158  0.1461  0.1560 -0.5265
 6022SOL    HW129699   1.130   3.186   6.223  2.2239 -0.4919 -0.1111
 6022SOL    HW229700   1.027   3.099   6.161 -0.0117  1.0067 -0.6755
 6023SOL     OW29701   0.884   2.076   1.512 -0.1135  0.0537 -0.2659
 6023SOL    HW129702   0.930   2.159   1.522 -1.5855  0.7130  1.1074
 6023SOL    HW229703   0.813   2.094   1.574  0.2544  1.4709 -0.2638
 6024SOL     OW29704   1.816   0.153   8.335 -0.5110 -0.2466  0.1018
 6024SOL    HW129705   1.781   0.066   8.356 -0.4282 -0.3002  0.0176
 6024SOL    HW229706   1.796   0.199   8.417 -1.2705  0.0497 -0.2443
 6025SOL     OW29707   0.898   1.223  10.747  0.6852  0.2983  0.0559
 6025SOL    HW129708   0.867   1.296  10.801 -1.5148  0.5157 -1.5286
 6025SOL    HW229709   0.970   1.191  10.801  1.5099  1.6591 -0.2278
 6026SOL     OW29710   3.655   3.438   8.470  0.5328  0.6786  0.2071
 6026SOL    HW129711   3.680   3.476   8.386  0.2759 -0.0342 -0.1994
 6026SOL    HW229712   3.567   3.402   8.455  1.5540 -2.3445  1.5138
 6027SOL     OW29713   3.011   4.131   3.607  0.0181 -0.3155 -0.4918
 6027SOL    HW129714   2.942   4.194   3.587 -1.2611 -0.6569  2.8609
 6027SOL    HW229715   2.997   4.075   3.530 -1.0613 -0.1571 -0.4075
 6028SOL     OW29716   2.840   0.966  10.359 -0.4670  0.3204  0.6965
 6028SOL    HW129717   2.835   0.887  10.413  1.4327 -1.4160 -1.6936
 6028SOL    HW229718   2.771   0.950  10.294  0.6257 -0.1095 -0.3531
 6029SOL     OW29719   2.787   4.050   4.695  0.4387 -0.2018  0.5148
 6029SOL    HW129720   2.715   4.092   4.742  0.8074  1.1658 -0.1528
 6029SOL    HW229721   2.859   4.041   4.758 -0.7840  0.9453  2.0609
 6030SOL     OW29722   1.199   3.497  16.267  0.1143 -0.0451 -0.2023
 6030SOL    HW129723   1.188   3.541  16.352 -1.5014 -0.9147  0.0417
 6030SOL    HW229724   1.250   3.563  16.219  1.0931 -1.5346 -1.2286
 6031SOL     OW29725   2.365   0.585   5.363 -0.0469  0.1267  0.5235
 6031SOL    HW129726   2.397   0.672   5.340  0.6100 -0.4454 -0.6884
 6031SOL    HW229727   2.298   0.618   5.424  0.8197  0.9731  1.0202
 6032SOL     OW29728   1.633   3.178  11.169  0.1775  0.2662 -0.0207
 6032SOL    HW129729   1.581   3.258  11.178 -0.2690 -0.1007  0.6777
 6032SOL    HW229730   1.712   3.209  11.213  0.5993  0.1985 -0.7350
 6033SOL     OW29731   0.073   3.421  15.106  0.1178 -0.0112 -0.4661
 6033SOL    HW129732   4.730   3.474  15.120  0.4273  1.1506 -3.2414
 6033SOL    HW229733   0.114   3.472  15.037  1.2218  0.0496  0.2293
 6034SOL     OW29734   0.494   3.162  12.466 -0.1292 -0.1516 -0.0818
 6034SOL    HW129735   0.567   3.132  12.411 -1.4750  1.1322 -2.5898
 6034SOL    HW229736   0.487   3.257  12.460  0.5474 -0.1406 -0.7598
 6035SOL     OW29737   0.240   0.069   3.276 -0.4012  0.3370 -0.2769
 6035SOL    HW129738   0.159   0.107   3.310 -0.6832 -1.1326  0.6803
 6035SOL    HW229739   0.308   0.132   3.300 -1.7395  2.6898 -2.7370
 6036SOL     OW29740   3.322   1.208   7.448  0.0469  0.0458 -0.0528
 6036SOL    HW129741   3.233   1.179   7.429  0.9163 -3.4165  1.2270
 6036SOL    HW229742   3.332   1.275   7.380  1.0894 -0.8241 -0.7444
 6037SOL     OW29743   3.906   2.297  17.414  0.1522  0.2180  0.1931
 6037SOL    HW129744   3.884   2.279  17.323 -0.1298 -1.1108  0.5272
 6037SOL    HW229745   4.001   2.290  17.401 -0.0364  1.2905 -1.7293
 6038SOL     OW29746   3.548   3.141  11.588 -0.2445 -0.5032  0.3041
 6038SOL    HW129747   3.528   3.226  11.627  1.2403 -0.8284  1.7681
 6038SOL    HW229748   3.478   3.136  11.523  0.3604 -1.3096 -0.2696
 6039SOL     OW29749   0.472   0.312  10.945  0.1895 -0.0825  0.4741
 6039SOL    HW129750   0.506   0.347  11.027 -0.9196  0.3894  0.7359
 6039SOL    HW229751   0.392   0.278  10.984 -0.4941  0.5767 -0.3478
 6040SOL     OW29752   0.287   0.852   7.113 -0.0195 -0.0275  0.0639
 6040SOL    HW129753   0.376   0.822   7.128  0.7732  1.9017 -0.8610
 6040SOL    HW229754   0.275   0.942   7.142  0.7220  0.4976 -1.2326
 6041SOL     OW29755   1.621   3.524  13.655 -0.5264  0.0790 -0.5113
 6041SOL    HW129756   1.553   3.548  13.718 -0.0505 -0.7285  0.3174
 6041SOL    HW229757   1.645   3.438  13.690  0.8367  0.6507 -0.0004
 6042SOL     OW29758   4.473   3.536   1.448 -0.2816  0.2570  0.4756
 6042SOL    HW129759   4.531   3.600   1.406 -0.4151  0.0461 -0.0288
 6042SOL    HW229760   4.407   3.509   1.384  1.0893 -0.5733 -0.6187
 6043SOL     OW29761   3.070   4.453   2.588 -0.3052 -0.3439  0.4119
 6043SOL    HW129762   3.070   4.480   2.496  0.7486 -0.2179  0.4398
 6043SOL    HW229763   2.991   4.498   2.618 -0.5811 -0.1606 -0.5768
 6044SOL     OW29764   4.408   3.806   3.396 -0.2626 -0.6518 -0.1400
 6044SOL    HW129765   4.445   3.732   3.347 -0.7028 -1.6228  0.9987
 6044SOL    HW229766   4.429   3.869   3.327 -1.1166 -1.0403 -0.7619
 6045SOL     OW29767   4.037   1.138   4.209  0.4441  0.3773 -0.0044
 6045SOL    HW129768   3.949   1.176   4.208  1.4312  2.6825  0.7673
 6045SOL    HW229769   4.018   1.049   4.236  2.3419 -0.8792 -2.8194
 6046SOL     OW29770   2.459   0.798   7.205  0.0512  0.2231  0.1089
 6046SOL    HW129771   2.375   0.755   7.189 -0.1239  1.6194 -2.7235
 6046SOL    HW229772   2.483   0.837   7.121 -0.3337 -0.2885 -0.2365
 6047SOL     OW29773   3.618   1.853   9.412  0.2051 -0.1316  0.2687
 6047SOL    HW129774   3.566   1.789   9.460 -0.0796 -1.1154 -1.3467
 6047SOL    HW229775   3.628   1.923   9.476 -2.0797 -1.2287  1.8279
 6048SOL     OW29776   3.029   1.986   1.120 -0.0780 -0.2907  0.1999
 6048SOL    HW129777   3.112   2.032   1.137 -1.3879  2.3850 -0.5902
 6048SOL    HW229778   2.962   2.015   1.182  0.9505 -0.4703  1.4029
 6049SOL     OW29779   1.581   2.981   2.477 -0.4614 -0.5862  0.1204
 6049SOL    HW129780   1.556   2.917   2.411 -0.8815 -1.5499  1.2126
 6049SOL    HW229781   1.504   2.984   2.535  0.3844  0.3688  1.2113
 6050SOL     OW29782   1.602   0.846   2.897 -0.1680 -0.4439  0.1503
 6050SOL    HW129783   1.560   0.817   2.817 -2.8878 -1.9309  2.1607
 6050SOL    HW229784   1.691   0.811   2.886  0.4676  0.9700  0.6529
 6051SOL     OW29785   2.016   3.292   7.873  0.0592  0.1352  0.2960
 6051SOL    HW129786   2.096   3.254   7.835 -0.0731  0.2211 -0.0748
 6051SOL    HW229787   1.991   3.223   7.934  2.2216 -0.7438  0.2023
 6052SOL     OW29788   0.628   2.835  12.931 -0.2181  0.0976  0.0097
 6052SOL    HW129789   0.614   2.901  12.863 -2.2165 -1.2661 -0.9240
 6052SOL    HW229790   0.709   2.861  12.974 -0.6455 -1.1677  1.5858
 6053SOL     OW29791   3.738   3.461  13.612  0.0000  0.7477 -0.2892
 6053SOL    HW129792   3.709   3.380  13.655 -0.8510  1.5244  0.6154
 6053SOL    HW229793   3.752   3.424  13.525  1.7695  0.6982  0.0174
 6054SOL     OW29794   2.862   3.963   7.071 -1.0178  0.4502  0.1333
 6054SOL    HW129795   2.781   3.964   7.020 -1.5619  0.7134  1.0032
 6054SOL    HW229796   2.885   3.873   7.094  0.3717  1.1541  1.5235
 6055SOL     OW29797   2.716   1.861   7.041  0.0034  0.1123 -0.6264
 6055SOL    HW129798   2.726   1.956   7.035  2.9553 -0.0370  1.6662
 6055SOL    HW229799   2.691   1.838   6.952  2.0411  1.6299 -1.5937
 6056SOL     OW29800   3.467   3.120   6.250  0.3254  0.0072 -0.4949
 6056SOL    HW129801   3.536   3.155   6.305  0.2570  1.5383 -1.3861
 6056SOL    HW229802   3.505   3.039   6.216  0.4653 -1.5596  3.3809
 6057SOL     OW29803   3.519   1.320   2.737  0.0406 -0.3579 -0.2936
 6057SOL    HW129804   3.428   1.293   2.725  0.4196 -1.8111  0.0891
 6057SOL    HW229805   3.520   1.404   2.690 -0.8941  0.8072  1.7995
 6058SOL     OW29806   2.611   4.387   5.601 -0.0684  0.0489 -0.8375
 6058SOL    HW129807   2.603   4.324   5.672 -3.4069  0.7400 -0.5730
 6058SOL    HW229808   2.697   4.363   5.566 -0.3607 -1.6632 -0.3795
 6059SOL     OW29809   4.701   2.353  14.567  0.0351  0.1488  0.0403
 6059SOL    HW129810   4.710   2.283  14.631  0.4298 -0.0580 -0.2409
 6059SOL    HW229811   4.611   2.337  14.538  0.4855  0.3913 -1.4894
 6060SOL     OW29812   2.284   1.606   8.151  0.1035  0.0659 -0.0783
 6060SOL    HW129813   2.368   1.559   8.153 -0.9361 -1.6861  2.1536
 6060SOL    HW229814   2.308   1.689   8.193 -0.3097 -0.4193  1.1279
 6061SOL     OW29815   1.190   2.399   8.878  0.4854 -0.0101  0.1788
 6061SOL    HW129816   1.220   2.458   8.808 -1.5442 -1.2184 -1.7334
 6061SOL    HW229817   1.175   2.324   8.820  1.5622  0.9134 -1.2854
 6062SOL     OW29818   4.474   1.131  17.503  0.3360  0.2721  0.2437
 6062SOL    HW129819   4.557   1.106  17.545  0.1038 -1.6772 -0.4712
 6062SOL    HW229820   4.428   1.149  17.585  1.4353 -1.1076  1.1821
 6063SOL     OW29821   2.120   1.804   0.538 -0.4054 -0.2193  0.4478
 6063SOL    HW129822   2.046   1.852   0.502 -0.2189 -0.8586 -0.8106
 6063SOL    HW229823   2.182   1.832   0.471 -0.1304 -1.9023 -0.0177
 6064SOL     OW29824   1.438   3.305  15.075  0.3830  0.0203 -1.1048
 6064SOL    HW129825   1.391   3.236  15.027 -2.1626 -0.0341  1.4199
 6064SOL    HW229826   1.494   3.248  15.127  1.8031  0.9575 -1.6163
 6065SOL     OW29827   4.577   1.049   8.852 -0.0783 -0.1043  0.5547
 6065SOL    HW129828   4.515   1.086   8.789  0.3687 -2.1949 -1.0940
 6065SOL    HW229829   4.528   1.077   8.930 -1.0118 -1.7231  0.5362
 6066SOL     OW29830   0.105   4.313   7.588 -0.6326  0.4558  0.1711
 6066SOL    HW129831   0.157   4.233   7.583 -0.4197  0.5036  1.6041
 6066SOL    HW229832   0.162   4.373   7.636 -0.1252  1.0752 -1.1940
 6067SOL     OW29833   3.471   1.754   5.462 -0.1767  0.3762 -0.0421
 6067SOL    HW129834   3.477   1.814   5.388 -0.8323  0.8783  0.3100
 6067SOL    HW229835   3.560   1.779   5.487 -0.3108  0.2175  0.5870
 6068SOL     OW29836   0.385   1.295   8.845  0.0489  0.1776 -0.3472
 6068SOL    HW129837   0.306   1.344   8.867 -0.5559 -1.1641  0.4418
 6068SOL    HW229838   0.353   1.205   8.837 -1.3034  0.6171  0.0827
 6069SOL     OW29839   3.080   3.121  12.761  0.1267 -0.4083 -0.2039
 6069SOL    HW129840   3.071   3.040  12.711 -0.8135 -0.0420 -0.6220
 6069SOL    HW229841   3.070   3.069  12.841  0.7703 -1.0372 -0.5328
 6070SOL     OW29842   2.322   2.067  17.676 -0.2028 -0.0640 -0.2389
 6070SOL    HW129843   2.278   2.014  17.609 -0.0761  0.1047 -0.4576
 6070SOL    HW229844   2.394   2.102  17.623 -0.7237  1.9448  0.3938
 6071SOL     OW29845   3.741   4.106   8.403 -0.1678  0.6940  0.0349
 6071SOL    HW129846   3.694   4.137   8.326 -1.9250  0.4004  0.9992
 6071SOL    HW229847   3.683   4.133   8.474 -0.9241  0.4656 -0.4967
 6072SOL     OW29848   0.369   0.826   2.442 -0.5846  0.3614  0.0612
 6072SOL    HW129849   0.304   0.765   2.406  0.4502 -0.0814 -1.0750
 6072SOL    HW229850   0.363   0.897   2.378 -1.8602 -0.5762 -0.8645
 6073SOL     OW29851   0.604   2.848   4.469  0.0510 -0.0196  0.0202
 6073SOL    HW129852   0.528   2.906   4.471  1.3221  1.7196 -1.6202
 6073SOL    HW229853   0.573   2.780   4.410  1.0257 -0.2276 -0.2579
 6074SOL     OW29854   3.241   3.996  12.344  0.5255 -0.7368 -0.3223
 6074SOL    HW129855   3.334   3.995  12.366 -0.0742  0.1895  2.2872
 6074SOL    HW229856   3.213   4.064  12.405 -1.2910 -3.2984  1.6670
 6075SOL     OW29857   1.958   1.369   8.539 -0.6951 -0.3688 -0.6050
 6075SOL    HW129858   1.882   1.319   8.567  1.6757 -3.3971  0.3189
 6075SOL    HW229859   1.991   1.314   8.468 -1.9779 -0.3925 -1.1912
 6076SOL     OW29860   0.006   1.077   4.184 -0.1122 -0.3896 -0.4541
 6076SOL    HW129861   0.039   1.166   4.194  1.4484 -1.1885  1.4155
 6076SOL    HW229862   0.086   1.027   4.199  0.5155  0.1579 -1.9523
 6077SOL     OW29863   4.532   2.410   4.059 -0.0962 -0.2828 -0.3045
 6077SOL    HW129864   4.461   2.374   4.112 -1.1368  3.6836  1.0063
 6077SOL    HW229865   4.499   2.422   3.970  0.6091  0.8805 -0.4117
 6078SOL     OW29866   0.205   3.514  13.168 -0.2031  0.3806  0.2552
 6078SOL    HW129867   0.138   3.566  13.123 -1.0421 -1.9803 -1.2231
 6078SOL    HW229868   0.170   3.426  13.158 -0.3514  0.7661 -2.7180
 6079SOL     OW29869   1.390   2.138   3.119 -0.1001  0.3631  0.5707
 6079SOL    HW129870   1.440   2.188   3.054 -0.7677 -0.0052 -0.2388
 6079SOL    HW229871   1.322   2.199   3.148 -1.1592 -1.1475  1.2634
 6080SOL     OW29872   0.474   1.006   6.045 -0.0792 -0.4181 -0.7933
 6080SOL    HW129873   0.406   0.944   6.018  0.4229 -0.6940 -1.4128
 6080SOL    HW229874   0.465   1.086   5.993  2.0321 -0.9691 -1.9842
 6081SOL     OW29875   2.694   3.562   2.318 -0.1884 -0.2059 -0.2858
 6081SOL    HW129876   2.704   3.513   2.400 -0.5858  1.6233  0.8416
 6081SOL    HW229877   2.601   3.583   2.307 -0.2705 -0.1027  0.6761
 6082SOL     OW29878   3.057   1.577  11.036  0.3090  0.2608 -0.7321
 6082SOL    HW129879   3.131   1.518  11.050 -0.2091 -0.5212 -1.2827
 6082SOL    HW229880   3.030   1.595  11.127  0.8703 -1.6462 -0.1799
 6083SOL     OW29881   1.215   2.282  11.671 -0.2053  0.2358  0.1000
 6083SOL    HW129882   1.265   2.363  11.676  1.1110 -0.5946  0.2846
 6083SOL    HW229883   1.175   2.274  11.758  3.0087 -2.2642  1.3245
 6084SOL     OW29884   4.573   3.561   8.515 -0.0800 -0.2807 -0.2977
 6084SOL    HW129885   4.518   3.577   8.438  0.6997  1.0387 -0.5883
 6084SOL    HW229886   4.588   3.647   8.553 -0.7521  0.1985 -1.1286
 6085SOL     OW29887   2.167   1.950   4.536 -0.2615  0.3956 -0.6063
 6085SOL    HW129888   2.155   1.944   4.441 -1.8685  1.0645 -0.4512
 6085SOL    HW229889   2.152   2.044   4.546  1.5315  0.5336  0.8856
 6086SOL     OW29890   2.846   1.812   4.741  0.0304  0.2924 -0.2073
 6086SOL    HW129891   2.859   1.720   4.715 -0.1531 -0.2162  1.4769
 6086SOL    HW229892   2.752   1.821   4.733  0.0860 -0.5113 -1.9280
 6087SOL     OW29893   3.625   3.350   4.194 -0.3229 -0.2920 -0.0798
 6087SOL    HW129894   3.574   3.282   4.150  0.9913 -1.6822  0.5200
 6087SOL    HW229895   3.564   3.423   4.192 -1.3207 -1.1432 -0.4976
 6088SOL     OW29896   2.905   3.774  10.114  0.5316 -0.6988  0.2541
 6088SOL    HW129897   2.882   3.791  10.205 -0.2286 -0.0414 -0.0663
 6088SOL    HW229898   2.824   3.799  10.070  0.1429  0.6619  1.7589
 6089SOL     OW29899   0.766   2.608   8.250  0.3181  0.6520 -0.0317
 6089SOL    HW129900   0.757   2.562   8.167  1.8401  0.1962  0.0679
 6089SOL    HW229901   0.856   2.587   8.274  1.1829  1.5342 -2.4554
 6090SOL     OW29902   1.149   1.660   9.780 -0.2224  0.0747  0.3802
 6090SOL    HW129903   1.197   1.743   9.775 -1.9066  1.0396  0.0522
 6090SOL    HW229904   1.202   1.617   9.713  0.4614 -0.5993  1.3543
 6091SOL     OW29905   3.447   0.409   6.587  0.4103  0.0759  0.2757
 6091SOL    HW129906   3.445   0.492   6.540  0.0926  0.0131  0.1782
 6091SOL    HW229907   3.362   0.406   6.631  0.8824  1.1919  1.2568
 6092SOL     OW29908   0.057   2.550   2.974 -0.2239  0.2219 -0.5324
 6092SOL    HW129909   0.121   2.497   2.926 -0.9743 -0.7871 -0.3936
 6092SOL    HW229910   0.028   2.486   3.038  0.1130 -0.5061 -1.1019
 6093SOL     OW29911   2.390   3.569   4.962 -0.2095 -0.1963  0.2227
 6093SOL    HW129912   2.312   3.605   5.007 -0.1364 -2.1176  1.8731
 6093SOL    HW229913   2.369   3.477   4.952 -2.7881  0.6314 -2.0394
 6094SOL     OW29914   3.462   1.735  12.638  0.8324 -0.2449  0.2901
 6094SOL    HW129915   3.371   1.710  12.655  0.7846  0.7275  1.4839
 6094SOL    HW229916   3.441   1.807  12.578 -0.4541  1.0835  2.3136
 6095SOL     OW29917   3.389   1.264   3.929  0.0248 -0.0563 -0.3784
 6095SOL    HW129918   3.483   1.273   3.943 -0.0192  0.8002 -0.6339
 6095SOL    HW229919   3.387   1.168   3.924  0.5260 -0.1206  0.6944
 6096SOL     OW29920   2.697   1.909   0.037  0.3099  0.0882  0.0275
 6096SOL    HW129921   2.724   1.841  17.718  0.0763 -0.7512  0.8349
 6096SOL    HW229922   2.774   1.909   0.095 -0.3107  0.4423  0.8647
 6097SOL     OW29923   0.675   2.450   2.800 -0.0033 -0.7398 -0.2497
 6097SOL    HW129924   0.601   2.425   2.745  0.2111  0.7476 -1.2307
 6097SOL    HW229925   0.708   2.364   2.825  0.9352 -0.5137 -0.6901
 6098SOL     OW29926   1.366   4.550   6.501  0.8951  0.0067 -0.5885
 6098SOL    HW129927   1.315   4.610   6.445 -1.5508 -0.2289  1.3531
 6098SOL    HW229928   1.448   4.540   6.454 -0.2229  0.7993 -2.7477
 6099SOL     OW29929   1.387   0.194  10.917  0.0466  0.0537  0.2485
 6099SOL    HW129930   1.355   0.282  10.896 -1.9780 -0.6498  0.3365
 6099SOL    HW229931   1.330   0.191  10.994 -0.3556 -1.0078 -0.0813
 6100SOL     OW29932   2.223   2.351  12.376 -0.3551  0.0870 -0.2402
 6100SOL    HW129933   2.242   2.322  12.466  1.8000  0.0270 -0.7333
 6100SOL    HW229934   2.173   2.428  12.401  0.9911  0.4772  1.2635
 6101SOL     OW29935   0.001   1.441   6.873 -0.0117  0.5034  0.3613
 6101SOL    HW129936   0.082   1.447   6.823 -0.3577 -1.0374 -0.3676
 6101SOL    HW229937   0.007   1.360   6.923  1.0485  0.5972  0.3896
 6102SOL     OW29938   2.045   0.928   9.381 -0.0205  0.1299 -0.4888
 6102SOL    HW129939   2.046   0.993   9.311  2.1350  2.3994  1.6564
 6102SOL    HW229940   2.118   0.870   9.359 -1.2338 -0.9066 -1.7773
 6103SOL     OW29941   2.678   0.151   1.164 -0.6471 -0.0552 -0.0728
 6103SOL    HW129942   2.736   0.076   1.147 -1.3983 -0.2596 -1.7495
 6103SOL    HW229943   2.672   0.142   1.259 -0.5944 -2.5023 -0.3005
 6104SOL     OW29944   4.045   1.323  11.144  0.0205 -0.1595 -0.3578
 6104SOL    HW129945   4.034   1.229  11.164  0.8702 -0.4192 -1.1280
 6104SOL    HW229946   4.043   1.350  11.236 -0.2023  0.8092 -0.6557
 6105SOL     OW29947   3.901   2.294   9.817  0.5309 -0.5058 -0.1314
 6105SOL    HW129948   3.965   2.357   9.784 -0.1871  0.7063  0.7448
 6105SOL    HW229949   3.839   2.349   9.865  0.7471 -0.3747 -0.0053
 6106SOL     OW29950   2.423   1.913  13.310 -0.4991  0.1087 -0.0498
 6106SOL    HW129951   2.460   1.986  13.260 -0.7391  0.1348 -0.1894
 6106SOL    HW229952   2.464   1.912  13.396 -1.4852 -1.3998  0.4171
 6107SOL     OW29953   3.511   3.798   2.527 -0.4412  0.2096  0.5560
 6107SOL    HW129954   3.571   3.857   2.572 -1.4456  0.7975  1.1229
 6107SOL    HW229955   3.497   3.733   2.596  0.6238 -1.2703 -0.6106
 6108SOL     OW29956   0.160   4.030  11.983  0.3752  0.4374 -0.6070
 6108SOL    HW129957   0.244   4.030  11.938  2.3315 -0.8328  3.0817
 6108SOL    HW229958   0.114   3.969  11.925  1.9477  0.7382 -2.1909
 6109SOL     OW29959   1.603   2.098   3.385  0.4771  0.7942  0.1175
 6109SOL    HW129960   1.617   2.159   3.313  0.2662  1.0322  0.2775
 6109SOL    HW229961   1.508   2.108   3.388  0.3345 -0.1803 -0.9782
 6110SOL     OW29962   1.759   4.480   6.617  0.2235 -0.6796  0.0967
 6110SOL    HW129963   1.675   4.470   6.662 -0.1381 -2.7159 -1.0286
 6110SOL    HW229964   1.758   4.568   6.579 -2.4341 -0.7916 -0.0653
 6111SOL     OW29965   2.151   0.951   7.250  0.5479 -0.1537  0.1051
 6111SOL    HW129966   2.184   1.006   7.178  0.8669 -0.0898  0.3012
 6111SOL    HW229967   2.060   0.954   7.219  0.0416  0.0334  1.5959
 6112SOL     OW29968   1.342   1.480   8.474 -1.0099 -0.2006 -0.5339
 6112SOL    HW129969   1.383   1.411   8.526  0.1607  1.7867  1.2210
 6112SOL    HW229970   1.252   1.466   8.503 -1.3300  0.8189 -1.0550
 6113SOL     OW29971   2.742   1.295  15.169  0.3148 -0.2255 -0.4040
 6113SOL    HW129972   2.777   1.367  15.116 -1.4971  1.6640  0.9643
 6113SOL    HW229973   2.819   1.239  15.176  0.1054 -0.3303  1.0317
 6114SOL     OW29974   1.397   3.648   8.644 -0.2700  0.0832  0.1728
 6114SOL    HW129975   1.362   3.640   8.556 -1.9452 -0.8568  0.9255
 6114SOL    HW229976   1.324   3.622   8.699  0.1287 -2.5984 -0.5756
 6115SOL     OW29977   2.267   4.679   3.403 -0.5478  0.1569  0.1634
 6115SOL    HW129978   2.320   0.022   3.407 -0.2633  0.0104 -0.8406
 6115SOL    HW229979   2.217   4.674   3.485  1.5334 -0.2142  1.3917
 6116SOL     OW29980   2.802   3.140   3.091 -0.4117 -0.1158  0.1053
 6116SOL    HW129981   2.895   3.157   3.103 -0.0162 -1.3371 -1.1657
 6116SOL    HW229982   2.764   3.148   3.178 -0.7261  2.0082 -0.2428
 6117SOL     OW29983   3.081   2.196  11.567 -0.0867  0.2239 -0.4850
 6117SOL    HW129984   3.129   2.122  11.529  0.5995 -0.5698  1.9737
 6117SOL    HW229985   2.988   2.172  11.568  0.4467 -1.8264  0.1138
 6118SOL     OW29986   2.508   3.805   1.719 -0.2271 -0.4531  0.5210
 6118SOL    HW129987   2.530   3.871   1.785 -0.1962  1.2805 -1.2085
 6118SOL    HW229988   2.469   3.867   1.657  1.8110  1.9177  1.5822
 6119SOL     OW29989   0.387   4.688   7.138  0.0066  0.0517 -0.5153
 6119SOL    HW129990   0.296   4.668   7.157 -0.4630  2.4881 -0.2179
 6119SOL    HW229991   0.419   4.623   7.201  0.3946  0.5861 -0.1685
 6120SOL     OW29992   4.440   3.520   1.884 -0.0087  0.5787  0.4161
 6120SOL    HW129993   4.387   3.547   1.959  1.3808 -1.3323  2.0909
 6120SOL    HW229994   4.528   3.536   1.918  0.0299  4.0313 -1.3650
 6121SOL     OW29995   0.156   2.779   3.722 -0.5581 -0.2056 -0.1252
 6121SOL    HW129996   0.122   2.858   3.764  1.0618 -0.0012  0.7814
 6121SOL    HW229997   0.245   2.812   3.711 -0.6384  0.2970  0.7329
 6122SOL     OW29998   2.624   3.447   8.686  0.3425 -0.2565 -0.0875
 6122SOL    HW129999   2.650   3.471   8.775 -0.0455 -1.3909  0.3278
 6122SOL    HW230000   2.530   3.460   8.693  0.4993  0.3263  0.9986
 6123SOL     OW30001   4.651   0.659   4.735  0.4234 -0.5095 -0.0864
 6123SOL    HW130002   0.008   0.669   4.714 -0.1091 -0.3221 -2.3293
 6123SOL    HW230003   4.612   0.732   4.687 -1.9363 -1.2873  0.6852
 6124SOL     OW30004   1.012   0.041  11.481  0.9709 -0.0885 -0.0298
 6124SOL    HW130005   1.060   0.068  11.402 -1.1299 -0.5052 -1.4316
 6124SOL    HW230006   1.066   4.699  11.498 -0.1783 -0.4832  1.7013
 6125SOL     OW30007   1.425   3.369   2.250 -0.1760 -0.0136  0.5277
 6125SOL    HW130008   1.363   3.311   2.294 -1.2673 -1.6198 -3.1230
 6125SOL    HW230009   1.389   3.456   2.267 -3.8016 -1.0498 -1.9737
 6126SOL     OW30010   2.817   2.102   2.198  0.2606  0.1472 -0.4231
 6126SOL    HW130011   2.758   2.172   2.224  1.0756  1.0708 -1.0347
 6126SOL    HW230012   2.903   2.146   2.202 -0.1439  0.7562  1.4674
 6127SOL     OW30013   0.026   4.196   6.091 -0.7632 -0.3557 -0.2319
 6127SOL    HW130014   0.008   4.186   5.997 -2.8530  1.9765 -0.0975
 6127SOL    HW230015   0.050   4.288   6.099  0.2903 -0.3804 -3.1698
 6128SOL     OW30016   2.403   3.744   8.097  0.5996  0.3292 -0.0091
 6128SOL    HW130017   2.428   3.691   8.173 -0.0022  0.5104  0.3078
 6128SOL    HW230018   2.464   3.815   8.119 -1.0248  2.0020 -0.8632
 6129SOL     OW30019   3.348   0.954   1.869  0.3644  0.9474  0.2394
 6129SOL    HW130020   3.283   1.013   1.907 -0.7479  1.3651 -2.3092
 6129SOL    HW230021   3.416   1.019   1.851 -1.8919  2.0217 -4.4018
 6130SOL     OW30022   0.570   0.813   1.909  0.8826  1.2123 -0.4017
 6130SOL    HW130023   0.551   0.732   1.955  0.0225  0.8409 -1.3957
 6130SOL    HW230024   0.530   0.800   1.823 -0.0586  2.9915 -0.2443
 6131SOL     OW30025   0.319   3.040   7.488  0.1773  0.0323  0.5078
 6131SOL    HW130026   0.338   3.109   7.552 -1.1454  1.5735 -0.7634
 6131SOL    HW230027   0.266   2.979   7.539 -1.9822  1.3991 -0.1086
 6132SOL     OW30028   4.619   1.330   3.925  0.2511  0.0111  0.1487
 6132SOL    HW130029   4.713   1.346   3.923  0.2251 -0.1283 -1.8409
 6132SOL    HW230030   4.603   1.372   4.010  0.1764 -3.3981  1.7821
 6133SOL     OW30031   4.257   2.620   6.266 -0.0555  0.1828  0.3088
 6133SOL    HW130032   4.247   2.684   6.195  0.9261 -0.1283 -0.1007
 6133SOL    HW230033   4.187   2.562   6.236 -3.2203  3.2078  1.8069
 6134SOL     OW30034   1.659   4.432   4.975 -0.2051  0.0054  0.0798
 6134SOL    HW130035   1.643   4.339   4.991  1.7270 -0.5044 -0.9808
 6134SOL    HW230036   1.613   4.441   4.892 -1.2494 -0.8963  0.5650
 6135SOL     OW30037   2.840   3.818   1.281  0.2406 -0.2471  0.1119
 6135SOL    HW130038   2.818   3.825   1.374  1.9711 -2.0529  0.6535
 6135SOL    HW230039   2.911   3.755   1.273 -1.4283 -1.9266 -1.4920
 6136SOL     OW30040   2.079   0.581   7.608  0.0731  0.3212  0.4274
 6136SOL    HW130041   2.056   0.660   7.559 -0.5651  0.3313  0.7544
 6136SOL    HW230042   2.170   0.570   7.581  0.3537  0.5227  1.3109
 6137SOL     OW30043   1.526   1.244   5.541  0.1110 -0.3486  0.0990
 6137SOL    HW130044   1.506   1.254   5.448 -0.7369  1.4767  0.4918
 6137SOL    HW230045   1.489   1.326   5.572  1.1466  0.7943 -1.6454
 6138SOL     OW30046   2.903   3.111   9.110  0.4614  0.1628 -0.0634
 6138SOL    HW130047   2.877   3.202   9.124 -0.2269  0.0651 -0.7596
 6138SOL    HW230048   2.895   3.079   9.200 -0.2214  0.6559  0.0469
 6139SOL     OW30049   3.005   1.548  16.437 -0.0952  0.1586 -0.7543
 6139SOL    HW130050   3.042   1.510  16.357 -0.6166 -0.9224 -0.4841
 6139SOL    HW230051   2.916   1.560  16.405 -0.1368 -0.3249 -0.8238
 6140SOL     OW30052   1.157   1.443   5.807 -0.1356  0.1125  0.6298
 6140SOL    HW130053   1.152   1.538   5.816 -0.2045  0.0286  1.5179
 6140SOL    HW230054   1.078   1.421   5.757 -0.5572 -1.0063  1.7995
 6141SOL     OW30055   1.075   0.484   5.463 -0.5778 -0.7648 -0.4201
 6141SOL    HW130056   1.156   0.470   5.512 -1.2336  0.7377  1.1044
 6141SOL    HW230057   1.093   0.482   5.369 -0.1057 -0.2207 -0.3353
 6142SOL     OW30058   1.338   2.205   2.070  0.6475  0.6335  0.4259
 6142SOL    HW130059   1.342   2.187   2.164  1.3710 -1.3394  0.0321
 6142SOL    HW230060   1.301   2.292   2.085 -0.9984  0.0539 -0.3608
 6143SOL     OW30061   0.926   3.024   9.018 -0.4635 -0.1963  0.8007
 6143SOL    HW130062   0.926   3.074   8.937 -2.6683 -0.4767  0.6191
 6143SOL    HW230063   0.989   2.955   8.998  0.3394  0.6579  0.3970
 6144SOL     OW30064   0.708   3.034  12.327  0.1123  0.4700 -0.3939
 6144SOL    HW130065   0.801   3.023  12.309  0.1212 -1.4984  0.8549
 6144SOL    HW230066   0.673   3.009  12.242 -0.3530  1.3535 -0.4650
 6145SOL     OW30067   3.194   1.292   9.210 -0.3904  0.2806  0.2770
 6145SOL    HW130068   3.167   1.362   9.151 -1.4922 -0.9003 -0.6108
 6145SOL    HW230069   3.114   1.239   9.211 -0.0326 -0.2800 -0.4320
 6146SOL     OW30070   0.730   0.363  10.887  0.1504  0.0863  0.1680
 6146SOL    HW130071   0.715   0.325  10.801 -1.2683 -0.3995  0.6353
 6146SOL    HW230072   0.640   0.361  10.919 -0.4007  1.8587 -1.3056
 6147SOL     OW30073   2.602   3.266   5.372  0.1208 -0.4765  0.4108
 6147SOL    HW130074   2.538   3.331   5.345 -2.7738 -2.9135  1.4709
 6147SOL    HW230075   2.662   3.317   5.427  0.3312  0.4526 -0.6858
 6148SOL     OW30076   4.668   0.355   6.820 -0.2778  0.0289 -0.5674
 6148SOL    HW130077   4.585   0.403   6.826 -0.0104  0.2607  1.3379
 6148SOL    HW230078   4.649   0.283   6.760  0.4824 -0.1521 -0.5905
 6149SOL     OW30079   4.675   4.289   5.555 -0.4974 -0.2015 -0.0560
 6149SOL    HW130080   4.623   4.277   5.475 -2.2068 -0.2074  1.0642
 6149SOL    HW230081   0.027   4.297   5.516 -1.2785 -1.5177 -2.1088
 6150SOL     OW30082   0.017   2.647  12.801 -0.2786  0.5450  0.4028
 6150SOL    HW130083   0.090   2.585  12.805 -1.3368 -0.6853  0.3748
 6150SOL    HW230084   4.684   2.590  12.770  0.9262 -1.5908  1.6305
 6151SOL     OW30085   0.033   0.691  13.124 -0.4580 -0.6496 -0.3639
 6151SOL    HW130086   0.106   0.675  13.184  0.2406  2.1741 -0.4645
 6151SOL    HW230087   0.076   0.657  13.046  1.4929  1.5202 -0.2443
 6152SOL     OW30088   0.919   4.067   0.063  0.6969 -0.5638  0.2824
 6152SOL    HW130089   0.974   4.138   0.030 -1.5218  0.8210 -0.4752
 6152SOL    HW230090   0.883   4.110   0.140 -3.6216 -3.9625  0.1611
 6153SOL     OW30091   1.106   2.973  14.814 -0.5002 -0.4127 -0.4185
 6153SOL    HW130092   1.049   3.004  14.744 -1.0222  0.2817  0.3071
 6153SOL    HW230093   1.034   2.939  14.867 -1.5316  2.1964 -0.1363
 6154SOL     OW30094   4.491   1.592  14.463  0.4500  0.4494 -0.0379
 6154SOL    HW130095   4.489   1.649  14.540 -0.7011 -0.1439  0.3649
 6154SOL    HW230096   4.402   1.612  14.433  0.6962  2.3689  0.4786
 6155SOL     OW30097   0.989   3.805  14.067  0.3217  0.4946  0.1274
 6155SOL    HW130098   0.919   3.741  14.061 -0.9606  1.6323  2.8786
 6155SOL    HW230099   0.955   3.881  14.115  3.4903  1.2120  1.3117
 6156SOL     OW30100   1.636   3.814  17.295 -0.0317 -0.4441 -0.0170
 6156SOL    HW130101   1.688   3.740  17.263  0.9483 -0.1056  0.7864
 6156SOL    HW230102   1.553   3.774  17.319 -1.6044  2.4149 -0.7334
 6157SOL     OW30103   4.460   0.361   5.388 -0.0230 -0.3948  0.0861
 6157SOL    HW130104   4.533   0.374   5.448  1.1167  1.1609 -1.6182
 6157SOL    HW230105   4.393   0.411   5.435 -0.1541  1.2183 -1.8200
 6158SOL     OW30106   2.067   4.340   8.898  0.4476  0.1677 -0.6161
 6158SOL    HW130107   2.052   4.277   8.969 -0.1349  0.0019 -0.8856
 6158SOL    HW230108   2.152   4.310   8.867  0.7898  0.8128 -0.3022
 6159SOL     OW30109   3.999   4.689   3.382  0.7839 -0.7035 -0.0777
 6159SOL    HW130110   3.995   0.005   3.462 -0.0422  0.4599 -0.8665
 6159SOL    HW230111   3.956   4.608   3.406 -0.6561 -0.6477 -2.4159
 6160SOL     OW30112   3.645   3.637   5.177  0.7473 -0.6498 -0.4382
 6160SOL    HW130113   3.626   3.704   5.243 -0.0388  0.7610 -2.1129
 6160SOL    HW230114   3.688   3.696   5.115 -1.5423  0.0175 -1.3678
 6161SOL     OW30115   1.093   3.125   9.616 -0.3223 -0.0247  0.8343
 6161SOL    HW130116   1.086   3.221   9.616 -0.1329 -0.0096  0.8137
 6161SOL    HW230117   1.124   3.105   9.528 -3.2728  1.0904 -0.4361
 6162SOL     OW30118   0.186   2.780   2.832 -0.6028 -0.2525 -0.0301
 6162SOL    HW130119   0.124   2.717   2.869 -0.3224  0.4728  1.7191
 6162SOL    HW230120   0.191   2.844   2.904  0.2622 -1.4234  0.9583
 6163SOL     OW30121   2.453   2.537   5.269  0.2216 -0.5029 -0.1714
 6163SOL    HW130122   2.474   2.463   5.211  1.6349 -0.6442  0.5324
 6163SOL    HW230123   2.359   2.526   5.278 -0.0927  0.0631 -2.8144
 6164SOL     OW30124   2.744   3.326   7.391  0.2738  0.0298  0.8598
 6164SOL    HW130125   2.673   3.337   7.327 -0.1046 -0.9947  1.0924
 6164SOL    HW230126   2.718   3.393   7.454 -1.2362 -0.8622  1.1851
 6165SOL     OW30127   1.266   1.523   9.553  0.2465  0.1911  0.5173
 6165SOL    HW130128   1.320   1.444   9.545  2.2335  1.4959  1.2574
 6165SOL    HW230129   1.199   1.493   9.491 -1.2893  0.2194  2.1563
 6166SOL     OW30130   1.262   2.486   5.627  0.3653  0.3375  0.3784
 6166SOL    HW130131   1.179   2.503   5.672 -0.1395  2.8658 -1.5290
 6166SOL    HW230132   1.312   2.508   5.705  0.8377  0.1663  0.1223
 6167SOL     OW30133   1.056   3.250   8.251 -0.2239  0.0639  0.4534
 6167SOL    HW130134   1.094   3.163   8.262  2.5648  1.1631 -0.4159
 6167SOL    HW230135   1.137   3.297   8.233 -1.3508  0.2273 -3.9804
 6168SOL     OW30136   3.520   1.539   7.659  0.5670 -0.4437 -0.7128
 6168SOL    HW130137   3.520   1.573   7.748  2.0395 -2.8269  0.2031
 6168SOL    HW230138   3.614   1.527   7.649  0.3962 -1.8096 -0.7314
 6169SOL     OW30139   2.574   2.982  15.835  0.0162 -0.3906 -0.6140
 6169SOL    HW130140   2.609   3.042  15.769 -0.1501 -0.4631 -0.7695
 6169SOL    HW230141   2.497   3.035  15.852  0.1970  0.2325 -1.7386
 6170SOL     OW30142   4.617   2.006   7.138  0.2264 -0.0422  0.2757
 6170SOL    HW130143   4.670   1.933   7.169 -3.4016 -1.0431  4.1171
 6170SOL    HW230144   4.573   2.043   7.216  2.2620 -0.6420  1.6973
 6171SOL     OW30145   2.066   0.584   4.387  0.7462  0.9770  0.8857
 6171SOL    HW130146   2.090   0.498   4.420 -2.1980 -0.0213  0.4639
 6171SOL    HW230147   2.142   0.639   4.405  0.9260  1.5630 -1.7941
 6172SOL     OW30148   3.491   2.443   5.441 -0.3139 -0.0735 -0.1851
 6172SOL    HW130149   3.468   2.433   5.533  0.0114 -0.1202 -0.1088
 6172SOL    HW230150   3.584   2.432   5.457 -0.4977 -0.3032  0.7487
 6173SOL     OW30151   2.528   2.985   9.431 -0.4000 -0.1940  0.0208
 6173SOL    HW130152   2.560   2.964   9.343  1.8693  0.6634  0.6382
 6173SOL    HW230153   2.434   2.985   9.413 -0.4567  0.4230  0.2856
 6174SOL     OW30154   1.920   0.511   5.811 -0.1024  0.1101  0.1856
 6174SOL    HW130155   1.977   0.560   5.751 -0.5325 -0.5635 -0.7752
 6174SOL    HW230156   1.843   0.499   5.756 -0.2140 -1.1441  0.6199
 6175SOL     OW30157   1.249   2.061  10.365  0.2220 -0.4478 -0.3893
 6175SOL    HW130158   1.322   2.122  10.371 -1.0927  0.9316  1.6449
 6175SOL    HW230159   1.293   1.980  10.389 -0.1865  0.0063  1.8864
 6176SOL     OW30160   2.046   1.557   7.447  0.1850 -0.0550  0.0580
 6176SOL    HW130161   2.128   1.605   7.438  0.6993 -0.3748  2.9346
 6176SOL    HW230162   2.032   1.534   7.539  0.4820  0.2994  0.1912
 6177SOL     OW30163   2.743   2.497   6.855  0.2373  0.1917  0.0676
 6177SOL    HW130164   2.810   2.434   6.826  0.2636 -0.5317  1.6762
 6177SOL    HW230165   2.778   2.575   6.814  4.6868 -0.6885  2.1821
 6178SOL     OW30166   3.797   0.677  16.733  0.3294 -1.2517  0.3739
 6178SOL    HW130167   3.721   0.716  16.690  0.5535  1.0269  2.0414
 6178SOL    HW230168   3.756   0.652  16.816  0.5045 -0.2165  0.7862
 6179SOL     OW30169   2.181   3.895   6.069  0.0764  0.3958  0.0715
 6179SOL    HW130170   2.249   3.943   6.116  0.9103  1.4628 -2.2055
 6179SOL    HW230171   2.113   3.954   6.037  1.0292  0.6396 -1.5292
 6180SOL     OW30172   1.129   1.178   8.285  0.0047  0.4270  0.4466
 6180SOL    HW130173   1.052   1.122   8.282 -0.2784  0.8083  0.5194
 6180SOL    HW230174   1.120   1.208   8.375  0.3058  1.0829  0.2626
 6181SOL     OW30175   2.976   3.949   3.379 -0.4527 -0.0608 -0.4737
 6181SOL    HW130176   2.928   3.998   3.312 -4.1052  0.1738  2.3148
 6181SOL    HW230177   2.945   3.861   3.355 -1.0501 -0.2156  0.8977
 6182SOL     OW30178   3.567   1.538   3.226 -0.2588 -0.2806 -1.1850
 6182SOL    HW130179   3.633   1.470   3.232  1.2805  1.2303 -0.9521
 6182SOL    HW230180   3.534   1.542   3.316 -0.1662  4.0005 -1.2984
 6183SOL     OW30181   2.508   1.890   6.123 -0.4926  1.0009 -0.7074
 6183SOL    HW130182   2.451   1.819   6.153 -0.9355  1.4498 -0.4850
 6183SOL    HW230183   2.450   1.966   6.116  0.1467  1.6119  0.6227
 6184SOL     OW30184   2.997   1.539   4.071  0.1207  0.0732 -0.0693
 6184SOL    HW130185   2.958   1.504   3.990 -1.9328  1.4046  0.3492
 6184SOL    HW230186   3.083   1.496   4.072 -0.0660 -0.2688  1.1003
 6185SOL     OW30187   2.633   3.460  10.563 -0.0261 -0.0683 -0.0584
 6185SOL    HW130188   2.667   3.536  10.611  2.0691  0.4510 -2.3557
 6185SOL    HW230189   2.667   3.378  10.598  0.4467 -0.2671 -0.9909
 6186SOL     OW30190   0.754   1.968   4.827  0.2099  0.2719 -0.5134
 6186SOL    HW130191   0.813   1.910   4.875 -0.9070  0.4702  1.0744
 6186SOL    HW230192   0.819   2.027   4.789  1.4911 -0.0583  1.2007
 6187SOL     OW30193   0.768   3.371   0.165 -0.3309 -0.1345 -0.0967
 6187SOL    HW130194   0.830   3.351   0.095 -1.6055  1.9297 -1.8003
 6187SOL    HW230195   0.831   3.384   0.236 -0.5194  1.6321 -0.2745
 6188SOL     OW30196   1.377   1.410   6.158  0.3720 -0.6901  0.2575
 6188SOL    HW130197   1.462   1.443   6.127 -0.4942  0.0688 -1.2743
 6188SOL    HW230198   1.351   1.360   6.081  1.2787  0.4875 -0.8240
 6189SOL     OW30199   2.485   2.429   3.018  0.2589  0.0885 -0.4592
 6189SOL    HW130200   2.511   2.482   2.943  3.4467 -0.0125  0.5452
 6189SOL    HW230201   2.434   2.501   3.057 -0.4398 -0.0672 -1.0922
 6190SOL     OW30202   1.165   3.192  12.355 -0.4813 -0.4683  0.4764
 6190SOL    HW130203   1.126   3.197  12.443  0.3758 -0.7583  0.8727
 6190SOL    HW230204   1.143   3.274  12.312 -1.0580 -1.5472 -1.2943
 6191SOL     OW30205   4.221   2.483   5.444 -0.0234  0.3711 -0.4491
 6191SOL    HW130206   4.192   2.438   5.523  1.1438  1.8875  0.8426
 6191SOL    HW230207   4.230   2.410   5.382 -2.7044 -0.7645  0.4764
 6192SOL     OW30208   0.189   2.423   1.659  0.4014 -0.4973  0.0960
 6192SOL    HW130209   0.119   2.361   1.680 -2.0118  2.2600  0.1784
 6192SOL    HW230210   0.164   2.494   1.719  3.9055  0.1551  0.7813
 6193SOL     OW30211   3.766   0.573   4.494  0.3781 -0.4022  0.2340
 6193SOL    HW130212   3.831   0.504   4.509 -0.3678 -1.1914 -0.1478
 6193SOL    HW230213   3.686   0.531   4.525  0.8353 -1.1663  0.3927
 6194SOL     OW30214   3.377   0.912  13.943  0.1171 -0.2183  0.1078
 6194SOL    HW130215   3.378   1.006  13.963  1.2863 -0.3817  0.8678
 6194SOL    HW230216   3.333   0.891  14.025  1.7753 -3.5030  0.1413
 6195SOL     OW30217   3.545   3.813   4.310  0.1439  0.6598  0.5730
 6195SOL    HW130218   3.548   3.857   4.394  0.2787  0.2652  0.7743
 6195SOL    HW230219   3.478   3.868   4.269  0.4583  0.8295  0.2869
 6196SOL     OW30220   2.827   0.952  12.866  0.0987  0.1416 -0.2227
 6196SOL    HW130221   2.862   1.000  12.942 -0.0881  2.6420 -1.7120
 6196SOL    HW230222   2.894   0.969  12.801  0.4829 -0.8103 -0.0795
 6197SOL     OW30223   0.498   0.009  13.323 -0.1771  0.3064 -0.4141
 6197SOL    HW130224   0.495   4.689  13.400  0.9118  0.3385 -0.3423
 6197SOL    HW230225   0.405   0.030  13.314  0.0574  0.8881 -1.4658
 6198SOL     OW30226   4.303   3.449   9.647  0.2642 -0.1121  0.1217
 6198SOL    HW130227   4.267   3.433   9.735 -0.1548 -0.5662 -0.1341
 6198SOL    HW230228   4.273   3.368   9.606 -1.7413  0.6324  0.1204
 6199SOL     OW30229   1.476   4.264   7.046  0.3637  0.3371 -0.5524
 6199SOL    HW130230   1.476   4.347   7.094 -0.8084 -1.3744  2.3707
 6199SOL    HW230231   1.564   4.242   7.015  1.3276  0.2851  2.2342
 6200SOL     OW30232   3.106   2.212  12.946 -0.0767 -0.3463  0.1744
 6200SOL    HW130233   3.094   2.214  12.852 -1.7132  0.2601  0.3933
 6200SOL    HW230234   3.170   2.282  12.954 -0.4430  0.1213 -1.0364
 6201SOL     OW30235   0.570   3.502   2.730  0.4284  0.0117 -0.2290
 6201SOL    HW130236   0.486   3.511   2.775  0.3865 -2.5435  0.2029
 6201SOL    HW230237   0.574   3.592   2.697 -2.3188 -0.5166 -1.9331
 6202SOL     OW30238   4.041   2.374   4.096  0.1553 -0.3029  0.0150
 6202SOL    HW130239   3.947   2.360   4.093 -0.1486  1.8807 -0.2653
 6202SOL    HW230240   4.048   2.398   4.003 -1.1331  0.9182  0.2413
 6203SOL     OW30241   4.402   3.620   6.877  0.8137  0.4343 -0.1360
 6203SOL    HW130242   4.361   3.538   6.902  1.7659  0.2888  0.9336
 6203SOL    HW230243   4.335   3.685   6.897 -0.0422 -0.1150 -1.1946
 6204SOL     OW30244   1.199   0.886   5.088 -0.4656 -0.1297  0.3687
 6204SOL    HW130245   1.283   0.898   5.131  1.3558  0.8726 -3.4462
 6204SOL    HW230246   1.165   0.975   5.096 -2.5510 -1.0037  1.2238
 6205SOL     OW30247   2.335   2.940   6.307  0.2577  0.2010 -0.4400
 6205SOL    HW130248   2.342   2.922   6.401 -1.3890 -0.1006 -0.3748
 6205SOL    HW230249   2.401   3.002   6.275  0.0478 -0.1429 -1.5292
 6206SOL     OW30250   4.617   3.953   4.898  0.1799  0.0533 -0.5161
 6206SOL    HW130251   4.616   3.870   4.851 -2.0831  0.0092 -0.3634
 6206SOL    HW230252   4.712   3.959   4.907  0.1282  0.5295 -0.2620
 6207SOL     OW30253   1.785   4.364  13.955  0.1806 -0.0195  0.0968
 6207SOL    HW130254   1.696   4.350  13.921  0.4619  0.0251 -0.6530
 6207SOL    HW230255   1.837   4.334  13.881 -1.0243  0.4830 -0.9541
 6208SOL     OW30256   2.279   4.585   2.414  0.3456  0.4566 -0.0218
 6208SOL    HW130257   2.331   4.656   2.377  3.0534 -0.7934  1.3748
 6208SOL    HW230258   2.300   4.586   2.507 -0.4031 -1.5094  0.1635
 6209SOL     OW30259   3.669   3.878   6.381  0.7714 -0.3248  0.2183
 6209SOL    HW130260   3.680   3.787   6.407 -0.8905  0.1634  2.6966
 6209SOL    HW230261   3.735   3.890   6.313 -0.9267 -3.2028 -1.9304
 6210SOL     OW30262   1.155   1.449  15.244 -0.3262 -0.0319  0.4856
 6210SOL    HW130263   1.183   1.538  15.267 -2.8273  1.5693 -2.6362
 6210SOL    HW230264   1.158   1.449  15.148  0.8041  4.7453  0.5108
 6211SOL     OW30265   2.119   1.866   2.488  0.3868 -0.7443  0.0149
 6211SOL    HW130266   2.049   1.837   2.429 -0.8251  0.5507  0.8016
 6211SOL    HW230267   2.106   1.961   2.480  0.5654 -0.7760 -0.6646
 6212SOL     OW30268   0.391   2.845   2.466  0.2521  0.0269 -0.5990
 6212SOL    HW130269   0.357   2.890   2.389  1.2266 -0.5566 -1.3717
 6212SOL    HW230270   0.464   2.805   2.420  1.1676 -1.2031  1.8986
 6213SOL     OW30271   1.262   3.142   2.992 -0.0484 -0.0204 -0.3317
 6213SOL    HW130272   1.277   3.174   2.903  0.4021 -0.2904 -0.3511
 6213SOL    HW230273   1.216   3.212   3.039 -0.9853 -1.4747  0.9179
 6214SOL     OW30274   0.341   2.863   3.963  0.3652  0.2957  0.0688
 6214SOL    HW130275   0.388   2.917   4.027  0.4700  0.9402 -0.5526
 6214SOL    HW230276   0.397   2.786   3.972 -0.2630 -0.0171  1.3802
 6215SOL     OW30277   0.385   3.394  16.904  0.6593  0.0641  0.2811
 6215SOL    HW130278   0.333   3.327  16.949  1.3366 -1.0120 -0.5360
 6215SOL    HW230279   0.348   3.402  16.816 -1.4857  0.4361  1.2337
 6216SOL     OW30280   0.936   2.153   9.447 -0.1003 -0.1105  0.0193
 6216SOL    HW130281   0.956   2.109   9.529 -2.6780  0.4665  0.9630
 6216SOL    HW230282   0.867   2.097   9.412 -1.2222  0.8000  0.7606
 6217SOL     OW30283   1.384   3.200   7.447  0.1600  0.0621  0.3466
 6217SOL    HW130284   1.434   3.237   7.520 -1.8461 -1.1892  2.3755
 6217SOL    HW230285   1.431   3.123   7.416 -0.7371 -0.5796  0.5857
 6218SOL     OW30286   0.069   2.234   8.798 -0.0598  0.3416  0.2851
 6218SOL    HW130287   0.141   2.293   8.818 -0.3675  0.8771 -0.1866
 6218SOL    HW230288   0.042   2.258   8.709  1.4299  0.1491 -0.2207
 6219SOL     OW30289   3.375   0.970   8.238 -0.3671 -0.0566 -0.1365
 6219SOL    HW130290   3.337   0.919   8.167  2.6162 -1.9503 -0.3703
 6219SOL    HW230291   3.461   0.927   8.243 -1.1549 -1.7067 -0.5601
 6220SOL     OW30292   3.170   3.555   2.790  0.0401  0.0658 -0.0873
 6220SOL    HW130293   3.123   3.619   2.843 -0.2504 -2.1909  2.3845
 6220SOL    HW230294   3.115   3.477   2.786 -0.4013  0.5482 -3.4606
 6221SOL     OW30295   2.928   4.271   5.689  0.3607  0.3075 -0.9002
 6221SOL    HW130296   3.017   4.241   5.673  0.8641  0.8879  0.8213
 6221SOL    HW230297   2.887   4.184   5.692  3.2291 -1.0224  0.4415
 6222SOL     OW30298   0.978   3.016  16.762 -0.2950 -0.1687  0.1620
 6222SOL    HW130299   0.904   3.028  16.703  0.5915 -0.3630 -0.9993
 6222SOL    HW230300   0.960   3.099  16.806  0.0203 -0.2861  0.5107
 6223SOL     OW30301   2.867   2.398   3.477  0.0797  0.4822 -0.2871
 6223SOL    HW130302   2.851   2.397   3.571 -2.2109  1.2198 -0.6629
 6223SOL    HW230303   2.886   2.491   3.466  2.4521  0.0086 -0.1660
 6224SOL     OW30304   1.245   4.203   9.917 -0.1505  0.9265 -0.3507
 6224SOL    HW130305   1.195   4.278   9.948  0.1913  1.1370 -0.3170
 6224SOL    HW230306   1.258   4.225   9.825 -0.9300 -3.0510 -1.4361
 6225SOL     OW30307   2.050   1.924   2.807  0.2739  0.3192 -0.0386
 6225SOL    HW130308   2.132   1.971   2.818  1.1891 -1.0395 -1.0885
 6225SOL    HW230309   2.027   1.916   2.899  0.7200 -0.7344 -0.0266
 6226SOL     OW30310   1.424   4.456  10.750 -0.2771 -0.3568  0.0998
 6226SOL    HW130311   1.443   4.387  10.687  1.9478  0.4165 -0.0894
 6226SOL    HW230312   1.408   4.406  10.830  2.1851 -0.6806  0.3851
 6227SOL     OW30313   2.819   2.370   7.558 -0.4598  0.3053  0.0830
 6227SOL    HW130314   2.782   2.436   7.500 -2.2773 -2.1500 -1.5824
 6227SOL    HW230315   2.804   2.402   7.647 -0.8604 -5.2701  2.0589
 6228SOL     OW30316   1.089   4.587   4.363  0.4246 -0.1888 -0.2407
 6228SOL    HW130317   1.132   4.602   4.279 -0.2580 -1.0928 -0.7548
 6228SOL    HW230318   1.145   4.638   4.422  2.2611  1.2200 -3.2154
 6229SOL     OW30319   1.231   0.779   3.168 -0.1009 -0.0180 -0.1469
 6229SOL    HW130320   1.180   0.860   3.173  0.8978  0.6102  0.0371
 6229SOL    HW230321   1.230   0.768   3.073  0.8840  0.4746 -0.2244
 6230SOL     OW30322   1.718   0.555  14.796 -0.0157 -0.2352 -0.4124
 6230SOL    HW130323   1.732   0.584  14.706  0.1743  3.0482  0.6742
 6230SOL    HW230324   1.654   0.619  14.827  0.6175  0.3107 -0.2215
 6231SOL     OW30325   1.898   1.507   5.905 -0.6457  0.2254  0.8778
 6231SOL    HW130326   1.885   1.586   5.959 -0.2270  0.3885  0.7422
 6231SOL    HW230327   1.933   1.548   5.826 -0.7166 -0.1061  0.6742
 6232SOL     OW30328   2.781   4.253   8.272 -0.1015  0.3121 -0.0968
 6232SOL    HW130329   2.695   4.213   8.283  0.8105 -1.2225  1.4178
 6232SOL    HW230330   2.754   4.339   8.305 -0.3862  0.8898 -1.8200
 6233SOL     OW30331   0.611   3.323  17.002  0.2097 -0.7415  0.8214
 6233SOL    HW130332   0.575   3.247  17.049 -3.4257  1.0142  0.8696
 6233SOL    HW230333   0.536   3.373  16.969 -0.1373 -1.2985  0.7597
 6234SOL     OW30334   0.655   3.398   7.988 -0.2363  0.1472 -0.3467
 6234SOL    HW130335   0.701   3.467   8.036  1.4332  0.0858 -1.8726
 6234SOL    HW230336   0.704   3.322   8.021  0.1701 -0.0020 -1.2766
 6235SOL     OW30337   3.614   2.937   9.328 -0.3325 -0.1547 -0.4710
 6235SOL    HW130338   3.535   2.883   9.328 -1.1409  1.0111 -1.1445
 6235SOL    HW230339   3.688   2.877   9.321  1.3818  1.7729  0.9493
 6236SOL     OW30340   0.894   0.234   5.870  0.5538 -0.2297 -0.6172
 6236SOL    HW130341   0.808   0.252   5.832 -0.3222 -1.6946  0.6635
 6236SOL    HW230342   0.941   0.232   5.787  1.3012  0.0540 -0.1990
 6237SOL     OW30343   2.609   1.229   3.757 -0.5055  0.2345  0.1261
 6237SOL    HW130344   2.528   1.188   3.785 -0.6768  0.6179  0.1908
 6237SOL    HW230345   2.595   1.237   3.663 -1.1612 -1.5426  0.0701
 6238SOL     OW30346   4.233   2.548   7.946 -0.3636 -0.1788 -0.0703
 6238SOL    HW130347   4.239   2.630   7.996 -2.6713 -0.7378  1.1325
 6238SOL    HW230348   4.261   2.482   8.009  0.3028 -0.3477 -0.5487
 6239SOL     OW30349   2.692   0.512   9.121  0.2810  0.3678  0.2574
 6239SOL    HW130350   2.614   0.563   9.100 -0.5981 -1.7007 -1.4674
 6239SOL    HW230351   2.748   0.577   9.079  1.0039 -0.9191 -0.7779
 6240SOL     OW30352   4.363   2.326   3.539 -0.5392  0.1918  0.3781
 6240SOL    HW130353   4.369   2.404   3.484 -3.1764  0.0541 -0.1027
 6240SOL    HW230354   4.439   2.280   3.504  0.5973  0.9737  1.8223
 6241SOL     OW30355   3.760   2.430   5.485  0.2014 -0.5202 -0.3308
 6241SOL    HW130356   3.750   2.481   5.566  2.9598 -0.5227  0.0042
 6241SOL    HW230357   3.850   2.396   5.484 -0.6536 -2.8198  1.2321
 6242SOL     OW30358   2.612   3.376   3.880  0.1896 -0.5816 -0.7021
 6242SOL    HW130359   2.606   3.400   3.973  2.1103  1.9164 -1.2300
 6242SOL    HW230360   2.702   3.348   3.900 -0.2085 -0.0703  1.8129
 6243SOL     OW30361   1.084   0.699  14.850 -0.7112 -0.0890 -0.0694
 6243SOL    HW130362   1.066   0.731  14.938 -2.2705 -1.7886  0.2093
 6243SOL    HW230363   1.039   0.615  14.850  0.8107 -0.9130 -3.7839
 6244SOL     OW30364   0.985   1.481   8.306  0.3002 -0.4858  0.3961
 6244SOL    HW130365   0.917   1.423   8.271  0.7623 -0.0861 -1.2033
 6244SOL    HW230366   1.036   1.424   8.363  1.2515 -1.9346 -1.8707
 6245SOL     OW30367   3.537   2.549  16.178 -0.3763 -0.0974  0.5042
 6245SOL    HW130368   3.492   2.474  16.138 -3.8406  2.6343 -0.6969
 6245SOL    HW230369   3.603   2.556  16.109  0.4879 -2.0168  1.1384
 6246SOL     OW30370   0.628   1.236   7.642  0.0563 -0.1663  0.1619
 6246SOL    HW130371   0.699   1.262   7.584  0.2210 -0.8095  0.0844
 6246SOL    HW230372   0.575   1.316   7.639 -1.6127 -1.3070 -0.3602
 6247SOL     OW30373   3.946   3.940   6.536 -0.2033  0.3889 -0.2723
 6247SOL    HW130374   3.919   3.955   6.627 -2.7686 -0.4791 -0.9172
 6247SOL    HW230375   3.972   3.848   6.544 -0.2900  0.3239 -0.7897
 6248SOL     OW30376   4.430   1.771   9.188 -0.3828  0.0675 -0.8041
 6248SOL    HW130377   4.521   1.768   9.158 -0.0718  1.9762 -0.0717
 6248SOL    HW230378   4.437   1.754   9.282 -1.3576  1.9844 -0.3994
 6249SOL     OW30379   1.611   4.412   8.552  0.3405 -0.2054 -0.5626
 6249SOL    HW130380   1.633   4.319   8.549  1.5223  0.0129  1.1774
 6249SOL    HW230381   1.650   4.442   8.634  1.8611 -1.1263 -0.9516
 6250SOL     OW30382   3.282   3.126   7.978 -0.3951 -0.4544  0.6225
 6250SOL    HW130383   3.299   3.170   8.061 -1.0936 -0.9408  1.0272
 6250SOL    HW230384   3.280   3.033   8.000  1.2838 -0.2406  1.6055
 6251SOL     OW30385   4.546   0.275   8.204 -0.0640 -0.6909 -0.1802
 6251SOL    HW130386   4.549   0.182   8.228 -0.7706 -0.2436  1.6098
 6251SOL    HW230387   4.554   0.320   8.288  1.4223  0.9054 -1.1783
 6252SOL     OW30388   2.955   2.913   0.482  0.5162  0.3123 -0.2961
 6252SOL    HW130389   3.038   2.866   0.494 -0.1143 -1.0493 -1.2505
 6252SOL    HW230390   2.954   2.955   0.568 -0.2183  1.2934 -0.7842
 6253SOL     OW30391   2.088   4.224  10.909  0.0767 -0.2487  0.6167
 6253SOL    HW130392   2.072   4.131  10.894  0.9015 -0.3799  0.5443
 6253SOL    HW230393   2.003   4.263  10.890  1.3439  0.8667 -2.9410
 6254SOL     OW30394   2.121   2.491   2.888  0.0208 -0.5620 -0.2796
 6254SOL    HW130395   2.121   2.512   2.795  2.3707  1.6291  0.2287
 6254SOL    HW230396   2.184   2.552   2.927 -0.1717  0.5904 -1.7785
 6255SOL     OW30397   4.431   0.632   1.583  0.5616  0.2496 -0.1512
 6255SOL    HW130398   4.392   0.703   1.633 -2.6694 -0.4556 -1.6430
 6255SOL    HW230399   4.498   0.678   1.534  0.4572  0.7638  0.1915
 6256SOL     OW30400   0.440   4.398   6.177 -0.5888 -0.3833 -0.3906
 6256SOL    HW130401   0.511   4.399   6.242 -1.1764  0.3932  0.2448
 6256SOL    HW230402   0.374   4.344   6.222 -1.8442  0.3380 -1.3684
 6257SOL     OW30403   3.653   2.134   4.717 -0.1584  0.1067  0.1077
 6257SOL    HW130404   3.672   2.175   4.632 -2.3607 -1.2407 -1.0209
 6257SOL    HW230405   3.688   2.047   4.700  2.1701  1.7911 -3.7931
 6258SOL     OW30406   3.152   4.523   5.981 -0.6693 -0.1585  0.1366
 6258SOL    HW130407   3.205   4.469   5.922 -1.1032 -0.9457  0.4650
 6258SOL    HW230408   3.117   4.580   5.913  1.8214 -0.4429 -1.3625
 6259SOL     OW30409   4.639   1.409   8.660  0.4075 -0.7039 -0.1341
 6259SOL    HW130410   4.733   1.418   8.643 -0.0350 -0.0871 -2.1452
 6259SOL    HW230411   4.634   1.314   8.677  0.3091 -1.1096 -2.4367
 6260SOL     OW30412   0.207   3.711   3.495  0.2822  0.3057  0.2037
 6260SOL    HW130413   0.147   3.636   3.488  0.3592  0.5035 -2.6727
 6260SOL    HW230414   0.241   3.713   3.584 -0.4820  0.1346  0.5037
 6261SOL     OW30415   2.358   3.190   4.002 -0.4071  0.2673 -0.0993
 6261SOL    HW130416   2.373   3.206   3.909  1.4603  0.4454  0.2162
 6261SOL    HW230417   2.435   3.141   4.032  0.1636  0.6863 -0.8790
 6262SOL     OW30418   4.300   2.487   5.868 -0.6888 -0.1426  0.4502
 6262SOL    HW130419   4.219   2.505   5.821  0.6800  0.0798 -1.8205
 6262SOL    HW230420   4.341   2.573   5.863 -0.1061 -0.4344  0.2168
 6263SOL     OW30421   0.113   2.050   8.322  0.2804 -0.4325 -0.5271
 6263SOL    HW130422   0.041   2.113   8.324 -1.0341 -1.9895  1.4605
 6263SOL    HW230423   0.184   2.096   8.366 -0.8554  0.5975  0.2158
 6264SOL     OW30424   1.132   3.249   5.401  0.1633 -0.2771 -0.5550
 6264SOL    HW130425   1.074   3.174   5.389  0.8913 -0.9172 -0.0398
 6264SOL    HW230426   1.208   3.229   5.348  0.3657  1.7414 -1.0280
 6265SOL     OW30427   3.401   4.446   3.249  0.0991 -0.4872 -0.0359
 6265SOL    HW130428   3.338   4.417   3.183  1.1814  1.4759 -1.9268
 6265SOL    HW230429   3.346   4.494   3.310 -0.2086 -0.4611 -0.3341
 6266SOL     OW30430   0.371   3.927  12.649 -0.7479  0.5082  0.1189
 6266SOL    HW130431   0.396   3.861  12.585 -2.0577  0.2573 -0.1392
 6266SOL    HW230432   0.433   3.894  12.714 -1.7206 -1.4468  0.0621
 6267SOL     OW30433   3.118   1.527  12.291 -0.3566  0.2809 -0.1891
 6267SOL    HW130434   3.177   1.499  12.221  1.7052 -1.0908  2.0538
 6267SOL    HW230435   3.064   1.451  12.308 -1.0655  0.2646 -2.5903
 6268SOL     OW30436   4.074   3.804   6.226 -0.1962  0.7467 -0.4039
 6268SOL    HW130437   4.166   3.802   6.199 -0.2155 -2.6526 -0.2772
 6268SOL    HW230438   4.084   3.767   6.314  0.4591  3.7873  0.7911
 6269SOL     OW30439   1.926   1.759   8.553  0.2438  0.1816  0.2703
 6269SOL    HW130440   1.882   1.744   8.469 -0.3282  0.8771  0.4522
 6269SOL    HW230441   1.887   1.845   8.564  0.0765 -0.1934  2.5173
 6270SOL     OW30442   3.732   3.411  11.196 -0.5350  0.4317  0.3808
 6270SOL    HW130443   3.778   3.471  11.137 -0.5796  0.6572  0.5722
 6270SOL    HW230444   3.659   3.467  11.223 -0.6050 -0.6002  2.3184
 6271SOL     OW30445   3.090   0.179   3.699 -0.1753 -0.0729 -0.0143
 6271SOL    HW130446   3.139   0.216   3.625 -1.2120  0.4676 -0.4246
 6271SOL    HW230447   3.106   0.085   3.693 -0.9472 -0.3359  2.1719
 6272SOL     OW30448   1.065   0.166   3.924  0.2229  0.0854 -0.6285
 6272SOL    HW130449   0.999   0.141   3.860 -0.4627  0.7880 -0.1894
 6272SOL    HW230450   1.020   0.176   4.008  0.8161 -0.1868 -0.2765
 6273SOL     OW30451   1.912   4.486   3.854 -0.9536 -0.5415  0.4552
 6273SOL    HW130452   1.833   4.515   3.899 -1.1738 -1.6182  0.7648
 6273SOL    HW230453   1.978   4.548   3.885  0.4550 -0.6694 -2.3153
 6274SOL     OW30454   0.091   0.438   0.369  0.7799  0.5580  1.0388
 6274SOL    HW130455   0.044   0.355   0.378  1.6072 -0.1579 -1.2053
 6274SOL    HW230456   0.021   0.491   0.332  0.9631  1.2825  1.7354
 6275SOL     OW30457   3.604   4.393   9.012  0.0452  0.2480 -0.1639
 6275SOL    HW130458   3.546   4.469   9.006  1.2994  1.1064 -1.2591
 6275SOL    HW230459   3.545   4.320   8.994  2.8890 -1.6520 -1.8116
 6276SOL     OW30460   1.650   0.031   4.470  0.2461  0.3695 -0.3996
 6276SOL    HW130461   1.693   0.092   4.529  2.3676  1.6897 -3.3431
 6276SOL    HW230462   1.589   0.089   4.424  1.2057 -0.4951 -2.7989
 6277SOL     OW30463   4.699   0.067  15.887 -0.2885  0.4914 -0.8619
 6277SOL    HW130464   4.689   0.162  15.889  2.8792  0.7623  1.9427
 6277SOL    HW230465   4.622   0.042  15.939  0.2652 -1.4378 -0.9644
 6278SOL     OW30466   2.936   2.922   4.188 -0.3464 -0.2314 -0.0229
 6278SOL    HW130467   2.992   2.855   4.227  0.6926  1.8204  2.0539
 6278SOL    HW230468   2.991   3.000   4.192  0.5408 -0.7892 -1.3616
 6279SOL     OW30469   1.986   0.647   7.837 -0.4319 -0.0538  0.8386
 6279SOL    HW130470   2.047   0.614   7.771 -1.6125 -2.0313  0.7295
 6279SOL    HW230471   1.948   0.565   7.867 -1.2926 -0.3362 -0.9963
 6280SOL     OW30472   1.173   1.022   8.596 -0.2801 -0.3454 -0.8538
 6280SOL    HW130473   1.151   1.003   8.687  2.5711 -1.8805 -0.4999
 6280SOL    HW230474   1.242   1.087   8.609 -1.6288  0.9088  0.0140
 6281SOL     OW30475   4.557   4.452   8.507 -0.1976 -0.2108  0.6766
 6281SOL    HW130476   4.589   4.386   8.445  0.7991  1.2944 -0.4282
 6281SOL    HW230477   4.474   4.481   8.468  1.1643  0.0722 -2.0579
 6282SOL     OW30478   4.722   4.218   8.912  0.3349 -0.7187 -0.4013
 6282SOL    HW130479   4.632   4.190   8.901 -0.1095  1.3775 -2.0514
 6282SOL    HW230480   4.735   4.253   8.824  1.5965 -1.7586 -0.6175
 6283SOL     OW30481   0.765   1.770   1.724  0.4701 -0.2897  0.4926
 6283SOL    HW130482   0.780   1.774   1.818 -0.8431 -1.0165  0.7241
 6283SOL    HW230483   0.849   1.805   1.692 -1.0653  0.7776 -2.3574
 6284SOL     OW30484   1.001   2.595   8.590 -0.6547 -0.4108 -0.4305
 6284SOL    HW130485   0.999   2.595   8.494 -0.7021 -1.4681 -0.4264
 6284SOL    HW230486   1.093   2.572   8.603 -1.2325 -1.8782  1.0332
 6285SOL     OW30487   3.397   1.990   6.908  0.4295 -0.4580  0.2739
 6285SOL    HW130488   3.492   2.002   6.914  0.2972 -0.3975  2.3759
 6285SOL    HW230489   3.365   2.057   6.847 -2.6138 -0.8051  1.5305
 6286SOL     OW30490   4.268   1.566  14.081 -0.1918 -0.7590 -0.2220
 6286SOL    HW130491   4.226   1.491  14.040 -0.3405 -0.3219 -0.8752
 6286SOL    HW230492   4.361   1.545  14.094 -0.0844 -0.2860 -0.1899
 6287SOL     OW30493   2.091   3.292  10.801 -0.0844  0.0491 -0.7182
 6287SOL    HW130494   2.088   3.387  10.812  0.4478  0.2356 -2.1817
 6287SOL    HW230495   2.129   3.266  10.885 -0.7258  0.8595 -0.1797
 6288SOL     OW30496   4.593   0.918   2.635 -0.5645 -0.2731 -0.3685
 6288SOL    HW130497   4.523   0.975   2.605 -1.8383 -0.8166  1.5610
 6288SOL    HW230498   4.599   0.862   2.558 -2.0443 -1.2493  0.2245
 6289SOL     OW30499   0.216   4.566   5.210  0.2368 -0.2361 -0.0580
 6289SOL    HW130500   0.129   4.589   5.178 -0.8451  0.3964  3.3194
 6289SOL    HW230501   0.225   4.481   5.165 -0.5900 -0.0399 -0.5814
 6290SOL     OW30502   3.802   3.772   2.926 -0.7683  0.1966 -0.9044
 6290SOL    HW130503   3.839   3.860   2.938  0.7112 -0.5448 -0.0644
 6290SOL    HW230504   3.732   3.765   2.991 -0.1604  0.2999 -0.2374
 6291SOL     OW30505   0.771   0.889   4.170 -0.4157 -0.4142 -0.3053
 6291SOL    HW130506   0.760   0.824   4.101 -1.3574  0.3593 -0.9054
 6291SOL    HW230507   0.846   0.923   4.121 -1.2080 -0.5870 -1.6619
 6292SOL     OW30508   3.536   1.114   1.670  0.0006 -0.5866 -0.0246
 6292SOL    HW130509   3.595   1.102   1.745 -0.7174 -0.6431  0.5347
 6292SOL    HW230510   3.521   1.208   1.672  1.3174 -0.3159 -3.0640
 6293SOL     OW30511   3.708   3.824   7.394 -0.2435  0.3615  0.7111
 6293SOL    HW130512   3.713   3.902   7.339  0.4382  1.7455  2.7540
 6293SOL    HW230513   3.701   3.764   7.320 -1.6799  1.5329 -0.0962
 6294SOL     OW30514   3.223   4.711   7.201 -0.5220 -0.4886  0.4960
 6294SOL    HW130515   3.259   4.710   7.290  0.0434  0.0034  0.2785
 6294SOL    HW230516   3.130   4.706   7.221 -0.6548  0.3930  0.1019
 6295SOL     OW30517   4.110   2.603   5.717  0.5314  0.0240  0.3410
 6295SOL    HW130518   4.039   2.618   5.655  0.3222 -1.7709  0.1508
 6295SOL    HW230519   4.172   2.668   5.682 -1.2469 -0.0757 -2.9707
 6296SOL     OW30520   4.295   1.321   5.492 -0.3680 -0.3914 -0.2658
 6296SOL    HW130521   4.368   1.309   5.430 -1.6029 -1.4913 -1.5043
 6296SOL    HW230522   4.229   1.271   5.445  0.0262 -1.8771  0.7787
 6297SOL     OW30523   4.073   0.404   8.608  0.0582  0.2489  0.0307
 6297SOL    HW130524   4.027   0.321   8.608 -0.0387  0.3081 -1.2913
 6297SOL    HW230525   4.007   0.459   8.567 -0.0022  0.9653  1.0874
 6298SOL     OW30526   3.276   2.360  14.431  0.1512 -0.2443  0.5033
 6298SOL    HW130527   3.369   2.378  14.434  0.2394 -0.7950  1.1546
 6298SOL    HW230528   3.272   2.344  14.337 -1.2013  2.9186  0.0158
 6299SOL     OW30529   4.689   2.676   1.142 -0.1070 -0.0881 -0.5540
 6299SOL    HW130530   0.032   2.624   1.156 -0.9905 -0.7706  1.9517
 6299SOL    HW230531   4.700   2.731   1.219 -2.5058  1.3157 -1.2033
 6300SOL     OW30532   3.965   4.025   2.929 -0.0718 -0.0245 -0.4553
 6300SOL    HW130533   3.917   4.102   2.900  0.4085  0.7613  0.8304
 6300SOL    HW230534   4.026   4.063   2.991 -1.4871  0.0675  0.8849
 6301SOL     OW30535   4.471   3.368   0.814 -0.0518  0.5195  0.3268
 6301SOL    HW130536   4.502   3.430   0.880  0.6915 -0.7444  1.1598
 6301SOL    HW230537   4.518   3.399   0.737  1.3162 -0.8938  0.5985
 6302SOL     OW30538   0.143   4.586   7.898  0.3037  0.3945  0.3154
 6302SOL    HW130539   0.220   4.639   7.915  1.4055 -0.5612 -1.7107
 6302SOL    HW230540   0.119   4.607   7.808  0.6911 -4.0710 -0.8443
 6303SOL     OW30541   0.613   0.839   3.409  0.1067 -0.2217  0.5212
 6303SOL    HW130542   0.602   0.934   3.414 -0.4629 -0.2312 -0.5793
 6303SOL    HW230543   0.526   0.811   3.437 -1.4529  2.7634 -1.3323
 6304SOL     OW30544   2.745   1.135   4.575 -0.7770 -0.8178  0.2451
 6304SOL    HW130545   2.666   1.139   4.522  0.5122 -3.9559 -1.9339
 6304SOL    HW230546   2.799   1.211   4.554  0.6885 -1.7717  0.5330
 6305SOL     OW30547   1.611   1.427   9.495 -0.0887 -0.0566 -0.0458
 6305SOL    HW130548   1.670   1.434   9.570  1.5735  2.4690 -1.6009
 6305SOL    HW230549   1.625   1.508   9.447 -2.3989  0.9111  0.8900
 6306SOL     OW30550   1.349   1.026   3.268  0.1135 -0.0007  0.0952
 6306SOL    HW130551   1.340   1.059   3.179 -0.4922  0.3063  0.2736
 6306SOL    HW230552   1.364   0.932   3.255 -0.9560 -0.1492 -0.0026
 6307SOL     OW30553   1.932   4.304   8.413  0.3228 -0.0630 -0.2065
 6307SOL    HW130554   1.853   4.268   8.454 -1.0701  1.6003 -1.4374
 6307SOL    HW230555   1.979   4.349   8.483  1.0339 -1.1196 -0.0026
 6308SOL     OW30556   1.941   4.647   7.975 -0.1976  0.7224 -0.4659
 6308SOL    HW130557   1.981   4.582   7.918  0.6978  0.5052  0.4115
 6308SOL    HW230558   1.917   4.583   8.043 -1.0181  1.4090 -0.1015
 6309SOL     OW30559   3.923   1.835  14.537  0.4655  0.5863  0.1138
 6309SOL    HW130560   3.859   1.891  14.494  1.1961  2.0071  0.8636
 6309SOL    HW230561   3.917   1.858  14.630  0.3878  0.1619  0.2128
 6310SOL     OW30562   4.006   3.087   7.240 -0.3842 -0.3653 -0.1782
 6310SOL    HW130563   4.067   3.144   7.193  0.2514 -0.4645  0.5165
 6310SOL    HW230564   3.968   3.034   7.170 -1.5472  1.1506 -0.6842
 6311SOL     OW30565   0.099   1.725   4.182 -0.6404  0.4179  0.2357
 6311SOL    HW130566   0.120   1.818   4.168  0.2383  0.4125  1.4752
 6311SOL    HW230567   0.056   1.700   4.101 -0.5976 -0.0950  0.3749
 6312SOL     OW30568   0.461   3.423   2.994 -0.1051  0.0033  0.0642
 6312SOL    HW130569   0.461   3.348   2.935  1.1194  0.9455 -1.1115
 6312SOL    HW230570   0.404   3.400   3.068  0.0480 -0.1349  0.1383
 6313SOL     OW30571   1.175   4.036  10.370 -0.1854  0.0801  0.4479
 6313SOL    HW130572   1.138   4.118  10.402 -0.8133 -0.5622  1.3539
 6313SOL    HW230573   1.099   4.010  10.317  0.5525  0.1305 -0.6419
 6314SOL     OW30574   2.027   4.528   6.868  0.0567  0.2429 -0.0445
 6314SOL    HW130575   1.993   4.474   6.797  0.3624  0.1336 -0.1095
 6314SOL    HW230576   1.942   4.556   6.902 -1.6340 -0.6722 -3.5414
 6315SOL     OW30577   1.563   1.109  15.292  0.7210  0.1979  0.4781
 6315SOL    HW130578   1.602   1.137  15.375 -0.4063  1.6550  0.5156
 6315SOL    HW230579   1.614   1.031  15.272  0.8755  0.2848  0.5388
 6316SOL     OW30580   4.046   2.061  15.826 -0.0268 -0.2501 -0.1856
 6316SOL    HW130581   3.967   2.012  15.850 -0.8028  1.1370  0.1241
 6316SOL    HW230582   4.062   2.121  15.899 -0.9704 -0.2619  0.0272
 6317SOL     OW30583   1.007   2.526   9.937 -0.0656  0.0655  1.0065
 6317SOL    HW130584   1.058   2.468   9.880  0.1657 -0.1176  1.3972
 6317SOL    HW230585   0.920   2.507   9.903  0.1231 -0.6334  0.8976
 6318SOL     OW30586   0.721   1.013   1.800 -0.5334  0.4603 -0.1540
 6318SOL    HW130587   0.628   0.999   1.784 -0.5119 -0.7288  0.7908
 6318SOL    HW230588   0.731   0.973   1.886 -1.0570 -0.4926 -0.5424
 6319SOL     OW30589   2.260   0.767   4.418  0.3177 -0.3427  0.4170
 6319SOL    HW130590   2.234   0.829   4.351  1.6371  1.2398  1.3749
 6319SOL    HW230591   2.353   0.788   4.418  0.3199 -0.3886 -1.1474
 6320SOL     OW30592   1.881   1.269   5.105 -0.2692 -0.2314 -0.0679
 6320SOL    HW130593   1.948   1.227   5.159  0.6920  1.6793  0.2174
 6320SOL    HW230594   1.925   1.347   5.071  0.6495 -1.2724 -1.2718
 6321SOL     OW30595   0.639   2.575   6.333  0.1876  0.5241  0.3562
 6321SOL    HW130596   0.683   2.594   6.251 -0.6022  0.1136 -0.1663
 6321SOL    HW230597   0.701   2.609   6.397  0.6825  1.6342 -0.7333
 6322SOL     OW30598   0.727   2.048   1.210  0.8456 -0.2353  0.3949
 6322SOL    HW130599   0.768   2.055   1.296  0.3068 -0.1456  0.6444
 6322SOL    HW230600   0.754   1.958   1.191 -1.8960 -0.5207 -2.1189
 6323SOL     OW30601   0.856   1.997   0.886 -0.1996  0.1328 -0.0643
 6323SOL    HW130602   0.764   2.014   0.865 -0.1781 -0.3917 -0.5693
 6323SOL    HW230603   0.892   2.085   0.876  0.3931 -0.2819 -1.5087
 6324SOL     OW30604   4.196   3.503  10.610  0.6338 -0.1699  0.5824
 6324SOL    HW130605   4.232   3.467  10.529 -0.9486  0.7857 -0.5343
 6324SOL    HW230606   4.275   3.513  10.663  0.3857 -0.7088  1.0515
 6325SOL     OW30607   1.706   2.964   6.178 -0.4545 -0.8795 -0.2316
 6325SOL    HW130608   1.743   2.884   6.214  2.0139 -1.1241 -3.3427
 6325SOL    HW230609   1.764   2.984   6.105 -0.7362  0.1337 -0.1805
 6326SOL     OW30610   2.054   3.340  12.726  0.5682  0.2355 -0.7614
 6326SOL    HW130611   2.150   3.344  12.723  0.6225 -0.6076  0.1535
 6326SOL    HW230612   2.041   3.293  12.808 -0.4251 -0.1665 -1.1463
 6327SOL     OW30613   2.992   2.406   6.669 -0.2164 -0.5356  0.2819
 6327SOL    HW130614   3.070   2.405   6.614  0.4924  1.0686  1.2475
 6327SOL    HW230615   2.930   2.409   6.596 -2.4403 -1.7205  2.1506
 6328SOL     OW30616   2.151   2.527  16.604  0.3762 -0.1415  0.0529
 6328SOL    HW130617   2.117   2.524  16.515 -0.3240  1.8671  0.2485
 6328SOL    HW230618   2.092   2.587  16.650  0.1888 -0.9438  0.8841
 6329SOL     OW30619   0.813   0.280  17.332  0.2123  0.2081  0.6408
 6329SOL    HW130620   0.771   0.245  17.411  1.3159 -1.0669  0.6615
 6329SOL    HW230621   0.858   0.199  17.310  0.4905  0.4555  0.3023
 6330SOL     OW30622   2.992   2.443  11.538  0.5252 -0.4145  0.6664
 6330SOL    HW130623   3.025   2.354  11.553 -0.3034 -0.7464  0.4867
 6330SOL    HW230624   3.062   2.487  11.587  1.2708 -1.1641  0.2820
 6331SOL     OW30625   0.984   4.146   9.909  0.5205  0.5653 -0.3983
 6331SOL    HW130626   0.971   4.066   9.960  0.6079  0.6559 -0.2309
 6331SOL    HW230627   1.080   4.146   9.914  0.3910  1.7826  2.2386
 6332SOL     OW30628   1.727   4.677  17.250  0.1049 -0.5849 -0.6371
 6332SOL    HW130629   1.785   4.601  17.240  1.4761  0.2418  0.9706
 6332SOL    HW230630   1.695   4.686  17.160 -0.7298  0.3128 -0.2459
 6333SOL     OW30631   0.368   3.364   7.977 -0.5240 -0.3062 -0.1824
 6333SOL    HW130632   0.458   3.385   7.953 -0.3481 -1.0364 -0.1559
 6333SOL    HW230633   0.339   3.440   8.028  0.3641 -0.6347  0.8192
 6334SOL     OW30634   2.400   1.133   5.858  0.4246 -0.0230  0.4179
 6334SOL    HW130635   2.343   1.106   5.930 -0.3260  1.1241  0.2382
 6334SOL    HW230636   2.472   1.165   5.912 -0.0526 -1.3614  1.8318
 6335SOL     OW30637   4.542   3.701   3.645  0.3528  0.1461 -0.0916
 6335SOL    HW130638   4.483   3.751   3.588  1.2292  1.1418 -0.1253
 6335SOL    HW230639   4.603   3.665   3.580  0.9150 -2.0913  1.6758
 6336SOL     OW30640   0.388   3.954  11.388  0.3715  0.2243 -0.3291
 6336SOL    HW130641   0.373   3.973  11.480 -2.0067 -0.2220 -0.6194
 6336SOL    HW230642   0.467   4.005  11.367 -0.8932  2.0867 -0.5329
 6337SOL     OW30643   4.205   1.475   6.698  0.5225  0.0310  1.0033
 6337SOL    HW130644   4.225   1.421   6.622 -0.4360 -0.8664  1.3828
 6337SOL    HW230645   4.114   1.497   6.680  1.2441  0.2491 -2.2594
 6338SOL     OW30646   2.569   2.347  12.812 -0.5612  0.6320 -0.1871
 6338SOL    HW130647   2.508   2.348  12.738  0.7059 -0.1290 -1.2458
 6338SOL    HW230648   2.547   2.421  12.869  0.6124 -0.8114  2.1069
 6339SOL     OW30649   0.499   1.304   9.142 -0.4749  0.1357  0.0127
 6339SOL    HW130650   0.502   1.316   9.047  0.8351 -1.0839 -0.1053
 6339SOL    HW230651   0.409   1.313   9.172 -0.0286 -0.2720  1.4901
 6340SOL     OW30652   2.024   1.438  13.610  0.3359 -0.5674 -0.4593
 6340SOL    HW130653   1.940   1.480  13.590  1.2574  1.8985  0.8591
 6340SOL    HW230654   1.993   1.352  13.637 -0.6435  0.5536  2.0357
 6341SOL     OW30655   4.735   0.470   7.552 -0.3506  0.2958  0.5885
 6341SOL    HW130656   4.735   0.390   7.604 -1.6619  1.0790  1.8122
 6341SOL    HW230657   4.640   0.483   7.549 -0.2956  0.5800  0.0456
 6342SOL     OW30658   1.893   1.153   0.433 -0.3426  0.7790  0.6868
 6342SOL    HW130659   1.834   1.176   0.505 -1.4117  2.5924 -0.8006
 6342SOL    HW230660   1.939   1.236   0.419 -0.2396  0.6449  0.2282
 6343SOL     OW30661   2.582   4.724   8.542  0.3191 -0.2079 -0.4232
 6343SOL    HW130662   2.537   0.073   8.538  0.6753  0.0012  0.0441
 6343SOL    HW230663   2.509   4.671   8.575 -1.4951  2.7230  0.3081
 6344SOL     OW30664   0.054   2.439   1.907  0.1285  0.1392 -0.0668
 6344SOL    HW130665   0.028   2.531   1.903  1.9746  0.6799  0.3814
 6344SOL    HW230666   0.041   2.417   1.999 -0.0901  1.2189  0.1574
 6345SOL     OW30667   1.479   1.675   1.480 -0.3617  1.0669 -0.0277
 6345SOL    HW130668   1.384   1.671   1.466 -0.1553 -0.2917 -1.0628
 6345SOL    HW230669   1.509   1.632   1.400 -1.0117  1.8733 -0.7028
 6346SOL     OW30670   3.185   0.392   6.692 -0.2972 -0.0651  0.0602
 6346SOL    HW130671   3.134   0.331   6.638  2.2571 -0.0666 -2.3248
 6346SOL    HW230672   3.166   0.341   6.771  1.0424  2.1375  1.7710
 6347SOL     OW30673   1.716   4.096  12.297 -0.0050  0.1646 -0.3381
 6347SOL    HW130674   1.632   4.081  12.340  1.0797 -1.8153  1.0916
 6347SOL    HW230675   1.700   4.053  12.213  0.8698  3.0660 -1.9874
 6348SOL     OW30676   3.394   0.593   6.397  0.7367 -0.1470  0.0519
 6348SOL    HW130677   3.383   0.647   6.476  0.4395  0.2635 -0.2729
 6348SOL    HW230678   3.358   0.651   6.330  0.6307  2.1358  2.0404
 6349SOL     OW30679   2.822   1.107   2.569 -0.0815 -0.1217 -0.1082
 6349SOL    HW130680   2.824   1.132   2.477 -0.0721 -2.4993 -0.7416
 6349SOL    HW230681   2.740   1.152   2.589 -0.4163 -0.5296 -0.5693
 6350SOL     OW30682   4.431   3.155   9.551 -0.6191  0.7891 -0.2413
 6350SOL    HW130683   4.493   3.091   9.515 -0.3299  0.8560  0.1422
 6350SOL    HW230684   4.422   3.094   9.624  1.9685  0.1324 -0.4769
 6351SOL     OW30685   4.566   1.251  10.869 -0.3131  0.0163  0.1381
 6351SOL    HW130686   4.473   1.240  10.849 -0.1380 -0.7922 -0.2673
 6351SOL    HW230687   4.559   1.246  10.964 -2.0997 -2.7650 -0.1337
 6352SOL     OW30688   2.129   4.042   0.494 -0.0321 -0.5664  0.0256
 6352SOL    HW130689   2.166   4.073   0.577 -0.9820 -0.7538  0.5265
 6352SOL    HW230690   2.209   4.029   0.444 -0.3350  0.5774 -0.7652
 6353SOL     OW30691   3.870   3.999   5.628  0.2014  0.2711 -0.4221
 6353SOL    HW130692   3.810   4.052   5.575  1.1275  0.9664 -0.7745
 6353SOL    HW230693   3.916   3.950   5.560  0.3007 -0.0283 -0.1434
 6354SOL     OW30694   3.957   2.276   3.620  0.0173  0.3277 -0.5423
 6354SOL    HW130695   3.966   2.194   3.570  2.1881 -0.1778  0.6961
 6354SOL    HW230696   3.933   2.341   3.554  0.5456  0.9012 -0.1694
 6355SOL     OW30697   2.164   2.073  15.204  0.0724 -0.3785 -0.4242
 6355SOL    HW130698   2.208   2.042  15.283 -2.3324 -1.3740  0.5397
 6355SOL    HW230699   2.233   2.133  15.175  0.0862 -1.8113 -3.3329
 6356SOL     OW30700   1.957   4.393  12.100 -0.2150  0.1716 -0.3281
 6356SOL    HW130701   1.878   4.341  12.108 -0.3331  0.1756 -1.4250
 6356SOL    HW230702   1.981   4.385  12.192 -0.9448 -1.8890 -0.3263
 6357SOL     OW30703   2.593   3.095   4.101  0.0128  0.3364 -0.3396
 6357SOL    HW130704   2.685   3.086   4.126  0.3132 -0.0881 -1.6144
 6357SOL    HW230705   2.590   3.045   4.019  3.1540 -1.1207  0.4353
 6358SOL     OW30706   2.756   1.316   0.964  0.5100 -0.0237 -0.0972
 6358SOL    HW130707   2.742   1.379   1.034  0.4476 -0.3668  0.1951
 6358SOL    HW230708   2.666   1.285   0.959  0.4027  0.3094 -0.2314
 6359SOL     OW30709   0.661   0.117  10.275  0.6045  0.0555 -0.9207
 6359SOL    HW130710   0.634   0.064  10.201 -1.4956 -0.3787  0.1508
 6359SOL    HW230711   0.592   0.134  10.340  1.7110  3.2949 -0.5961
 6360SOL     OW30712   4.169   1.005  11.765  0.2123  0.7457 -0.2502
 6360SOL    HW130713   4.155   0.941  11.695  0.9321  0.4326 -0.1066
 6360SOL    HW230714   4.107   1.075  11.745 -0.9079 -1.5622 -4.8505
 6361SOL     OW30715   3.440   3.701   2.232 -0.0846  0.0194  0.3690
 6361SOL    HW130716   3.526   3.663   2.250 -0.3555 -1.6934 -1.9462
 6361SOL    HW230717   3.391   3.676   2.310 -3.2077  0.2194 -1.5017
 6362SOL     OW30718   0.740   3.969   4.296  0.0398  0.6782 -0.1635
 6362SOL    HW130719   0.681   4.002   4.229 -3.4206 -3.0378  1.0383
 6362SOL    HW230720   0.714   3.877   4.306  0.2047  0.2574 -3.5861
 6363SOL     OW30721   2.715   3.633  12.423 -0.1699 -0.0384 -0.2704
 6363SOL    HW130722   2.627   3.627  12.384 -1.0314 -0.0257  1.6694
 6363SOL    HW230723   2.701   3.590  12.507 -0.0426 -0.8505 -0.6654
 6364SOL     OW30724   3.808   1.578  11.143  0.2306 -0.0005  0.3805
 6364SOL    HW130725   3.879   1.624  11.188  2.6558 -0.2272 -3.1826
 6364SOL    HW230726   3.824   1.490  11.178  0.5159 -0.0910  0.0254
 6365SOL     OW30727   1.954   3.375   9.119  0.0777 -0.0618  0.6765
 6365SOL    HW130728   1.911   3.385   9.204 -1.0896  1.5396 -0.1190
 6365SOL    HW230729   1.927   3.441   9.056 -0.1947  0.4266  1.3082
 6366SOL     OW30730   2.746   3.412  17.731 -0.2165 -0.5503 -0.0412
 6366SOL    HW130731   2.737   3.325   0.026 -0.0435 -0.0479  1.1748
 6366SOL    HW230732   2.661   3.413  17.688  0.3522  0.5013 -1.1547
 6367SOL     OW30733   1.606   4.042   3.231 -0.3416  0.2519  0.1982
 6367SOL    HW130734   1.672   3.972   3.229 -1.6214 -1.0283  2.4653
 6367SOL    HW230735   1.561   4.033   3.315  3.0744  0.1989  2.0509
 6368SOL     OW30736   2.593   3.217   5.070  0.3274  0.5186 -0.6851
 6368SOL    HW130737   2.601   3.222   5.165 -0.8586  1.3713 -0.6194
 6368SOL    HW230738   2.679   3.253   5.050  1.2905 -1.0867  0.5484
 6369SOL     OW30739   1.010   1.558   4.664 -0.4756 -0.3159  0.2650
 6369SOL    HW130740   0.939   1.621   4.659 -0.7980 -0.6507  0.5591
 6369SOL    HW230741   0.959   1.477   4.655  2.1273 -2.0823  1.5374
 6370SOL     OW30742   0.262   1.134   0.616  0.2143 -0.0237  0.1470
 6370SOL    HW130743   0.294   1.211   0.663  1.2569 -0.8486  0.7920
 6370SOL    HW230744   0.327   1.065   0.623  0.4676  0.0179 -1.7610
 6371SOL     OW30745   4.607   2.768   0.771  0.3493 -0.2213 -0.1209
 6371SOL    HW130746   4.666   2.789   0.844  0.7499  0.3139 -0.5983
 6371SOL    HW230747   4.532   2.823   0.792  1.4861  0.7420  1.4660
 6372SOL     OW30748   2.642   2.216  13.576  0.6455 -0.3473  0.1153
 6372SOL    HW130749   2.737   2.201  13.576  0.7647  0.3664 -1.3957
 6372SOL    HW230750   2.631   2.301  13.533 -0.4934 -0.4426  0.2412
 6373SOL     OW30751   2.748   1.203  16.533 -0.2659  0.2631 -0.2497
 6373SOL    HW130752   2.793   1.136  16.481  1.4535 -0.1208  1.6972
 6373SOL    HW230753   2.676   1.218  16.472 -0.0252  0.7049 -0.4251
 6374SOL     OW30754   2.121   0.297  12.526  0.3870  0.0973 -0.1909
 6374SOL    HW130755   2.114   0.204  12.502  0.0332  0.3297 -1.0022
 6374SOL    HW230756   2.052   0.335  12.471  0.8137  1.8568  0.5158
 6375SOL     OW30757   1.614   3.461   3.083  0.1852  0.2935 -0.0548
 6375SOL    HW130758   1.663   3.389   3.045  0.0503 -0.0022  0.3268
 6375SOL    HW230759   1.628   3.450   3.177  1.4645 -0.5947 -0.3513
 6376SOL     OW30760   0.763   4.351   7.161  0.0760  0.1968 -0.4528
 6376SOL    HW130761   0.690   4.288   7.164  0.6090 -0.3033  2.1270
 6376SOL    HW230762   0.796   4.335   7.250 -0.0928  0.3904 -0.3553
 6377SOL     OW30763   3.432   2.738   6.341 -0.2600  0.6827 -0.1719
 6377SOL    HW130764   3.497   2.732   6.411  1.6056 -1.4500 -2.0806
 6377SOL    HW230765   3.492   2.773   6.275  1.7844 -0.3387  1.1407
 6378SOL     OW30766   3.683   3.904   2.714  0.2043 -0.0684  0.2746
 6378SOL    HW130767   3.758   3.867   2.761  0.2419 -0.7569 -0.3268
 6378SOL    HW230768   3.666   3.978   2.772 -1.5191  0.2826 -0.6526
 6379SOL     OW30769   3.862   0.817   6.709 -1.2730 -0.1419  0.2296
 6379SOL    HW130770   3.918   0.882   6.668 -0.7278  0.6727  2.2634
 6379SOL    HW230771   3.923   0.757   6.751  1.2613  0.6826 -2.2674
 6380SOL     OW30772   4.602   3.399   2.452 -0.6921 -0.5466 -0.0334
 6380SOL    HW130773   4.514   3.369   2.474 -1.1644 -0.1071 -1.3348
 6380SOL    HW230774   4.578   3.490   2.435  1.1820 -0.1822 -0.7214
 6381SOL     OW30775   4.467   4.656   5.057 -0.3041  0.5725  0.4633
 6381SOL    HW130776   4.385   4.609   5.071 -1.1447  1.7850 -0.4393
 6381SOL    HW230777   4.442   0.002   5.100 -2.2471  1.1210 -1.7416
 6382SOL     OW30778   1.722   1.478   0.451  0.0139  0.0584  1.1027
 6382SOL    HW130779   1.686   1.440   0.371 -2.0926  2.9478  0.7025
 6382SOL    HW230780   1.654   1.540   0.477  2.3621  2.1828  2.1890
 6383SOL     OW30781   2.611   3.790   2.723 -0.0629  0.1083  0.1473
 6383SOL    HW130782   2.530   3.747   2.750 -1.7146  2.6079 -0.7673
 6383SOL    HW230783   2.601   3.776   2.629  0.2694 -1.7721  0.3931
 6384SOL     OW30784   0.809   3.330   5.375 -0.1857 -0.2316 -0.1029
 6384SOL    HW130785   0.738   3.267   5.369  0.6575 -1.1368 -0.6722
 6384SOL    HW230786   0.839   3.296   5.459  1.6730 -1.4270 -1.2547
 6385SOL     OW30787   4.136   3.557   2.821 -0.1843 -0.1671  0.7042
 6385SOL    HW130788   4.082   3.527   2.894  1.1789 -0.0571  1.7608
 6385SOL    HW230789   4.221   3.516   2.839  0.0637 -0.7954 -1.8920
 6386SOL     OW30790   0.742   2.095   5.953  0.8525 -0.4678 -0.3109
 6386SOL    HW130791   0.775   2.068   5.867 -0.8563  0.8714 -1.3935
 6386SOL    HW230792   0.662   2.044   5.945  0.2916  0.4703 -0.6250
 6387SOL     OW30793   3.969   4.496   8.469  0.2552 -0.3708  0.1311
 6387SOL    HW130794   3.917   4.473   8.546  0.3098 -0.4329  0.1492
 6387SOL    HW230795   3.901   4.532   8.412 -1.0313 -1.9469  0.6786
 6388SOL     OW30796   0.155   2.867   8.612  0.0555 -0.2659 -0.6476
 6388SOL    HW130797   0.179   2.879   8.520 -1.4738 -0.2883 -1.0516
 6388SOL    HW230798   0.189   2.947   8.651 -0.8409 -0.1769 -0.0567
 6389SOL     OW30799   3.089   0.126  13.569 -0.4851  0.0202 -0.6491
 6389SOL    HW130800   3.001   0.101  13.541 -0.6480 -0.8996  0.6863
 6389SOL    HW230801   3.082   0.161  13.658 -0.6938 -0.3435 -0.5243
 6390SOL     OW30802   1.845   2.295  13.810  0.2099 -0.7144 -0.1435
 6390SOL    HW130803   1.750   2.295  13.804  0.1183  1.7299  1.2684
 6390SOL    HW230804   1.880   2.292  13.721  0.4772  0.3971 -0.0818
 6391SOL     OW30805   4.312   3.991  10.281  0.1804 -0.2146 -0.4220
 6391SOL    HW130806   4.353   4.077  10.291 -1.4805  0.5817 -0.4265
 6391SOL    HW230807   4.274   3.976  10.368  0.0430  1.4161 -0.2140
 6392SOL     OW30808   4.460   1.422   2.758  0.7489 -0.2620 -0.3423
 6392SOL    HW130809   4.371   1.438   2.727  1.4772 -1.1386 -2.8901
 6392SOL    HW230810   4.465   1.331   2.786  2.7024 -0.3190 -0.8920
 6393SOL     OW30811   0.850   1.877   4.488 -0.1178  0.1187 -0.4682
 6393SOL    HW130812   0.943   1.869   4.508 -0.4937  0.1755  1.2778
 6393SOL    HW230813   0.837   1.963   4.527  0.1115  0.6087 -1.4875
 6394SOL     OW30814   1.478   2.599   2.638  0.0048 -0.3748  0.1873
 6394SOL    HW130815   1.516   2.660   2.702  0.8405  1.1627 -1.7819
 6394SOL    HW230816   1.385   2.611   2.657  0.4547  2.2275  0.6586
 6395SOL     OW30817   1.476   3.582   1.731 -0.1470 -0.3484  0.2109
 6395SOL    HW130818   1.454   3.519   1.662 -1.2549  0.2617 -0.0013
 6395SOL    HW230819   1.434   3.548   1.810 -0.8580  1.6605  0.7199
 6396SOL     OW30820   0.528   1.748   9.374 -0.5273 -0.1188 -0.0462
 6396SOL    HW130821   0.620   1.721   9.373 -0.6244 -0.4907  1.1346
 6396SOL    HW230822   0.501   1.748   9.282  1.0434 -0.0925 -0.5133
 6397SOL     OW30823   4.392   3.911   5.750 -0.0762 -0.2604 -0.2603
 6397SOL    HW130824   4.343   3.873   5.823 -0.2339  0.5971  0.0772
 6397SOL    HW230825   4.342   3.869   5.680  0.9726 -0.4538 -0.9006
 6398SOL     OW30826   1.007   4.036  12.931 -0.0333 -0.7041 -0.0797
 6398SOL    HW130827   1.101   4.054  12.938 -0.5404  2.1746 -0.7915
 6398SOL    HW230828   1.019   3.942  12.944  2.1894 -0.4630 -0.3829
 6399SOL     OW30829   0.870   3.961   5.210 -0.7811 -0.0619 -0.1785
 6399SOL    HW130830   0.947   4.004   5.174  0.4607 -1.5165  0.7217
 6399SOL    HW230831   0.893   3.910   5.287  0.3780 -0.9976 -1.1383
 6400SOL     OW30832   2.338   3.683   5.950 -0.2939 -0.2113  0.1594
 6400SOL    HW130833   2.311   3.760   6.001 -0.9562 -0.4635  0.1934
 6400SOL    HW230834   2.433   3.695   5.954  0.0194 -3.0341  1.1547
 6401SOL     OW30835   1.136   1.684   6.025  0.1208 -0.0472 -0.5017
 6401SOL    HW130836   1.065   1.620   6.026  2.2415 -2.3808  1.4082
 6401SOL    HW230837   1.144   1.706   6.118  0.4908  0.8462 -0.7456
 6402SOL     OW30838   1.224   4.704   6.332 -0.0041  0.2936 -0.2640
 6402SOL    HW130839   1.271   0.051   6.344 -1.9164  1.1504  1.3443
 6402SOL    HW230840   1.168   4.735   6.260  0.3606  0.1182 -0.6166
 6403SOL     OW30841   4.041   3.422  15.785  0.4050  0.1208 -0.3775
 6403SOL    HW130842   4.044   3.429  15.690 -2.2029 -0.5551 -0.5194
 6403SOL    HW230843   4.111   3.481  15.813 -0.4888  0.6159  0.8451
 6404SOL     OW30844   1.747   4.153   0.473  0.4083  0.5363  0.2022
 6404SOL    HW130845   1.670   4.194   0.434  0.0224  2.3750  2.9469
 6404SOL    HW230846   1.723   4.061   0.479  1.0701  0.3209 -0.3882
 6405SOL     OW30847   2.379   3.112   2.990 -0.0915 -0.4112  0.0631
 6405SOL    HW130848   2.412   3.133   2.903 -0.8001 -1.9730 -0.5683
 6405SOL    HW230849   2.303   3.067   2.954 -0.5225  1.0856 -0.9084
 6406SOL     OW30850   2.992   3.525   6.787  0.2333  0.3932  0.3060
 6406SOL    HW130851   3.051   3.456   6.816  1.1671  1.4265  0.8680
 6406SOL    HW230852   3.059   3.589   6.766  0.3658  0.4975  1.0369
 6407SOL     OW30853   2.988   1.654   1.041  0.0944 -0.0072 -0.3570
 6407SOL    HW130854   2.897   1.634   1.065  0.2951  0.9848  1.2083
 6407SOL    HW230855   2.993   1.749   1.046  2.8614 -0.2192  0.5710
 6408SOL     OW30856   0.257   0.602  11.030 -0.3659  0.1735  0.8505
 6408SOL    HW130857   0.272   0.510  11.053 -1.3892 -0.1418  0.2697
 6408SOL    HW230858   0.182   0.604  10.971  1.5656  0.3427 -1.5795
 6409SOL     OW30859   1.535   0.180   6.579  0.6021  0.3071  0.2846
 6409SOL    HW130860   1.568   0.255   6.628 -1.0609  1.1318  0.1257
 6409SOL    HW230861   1.610   0.120   6.578  0.6727  0.3978 -0.8295
 6410SOL     OW30862   1.576   0.920   6.521 -0.1505  0.0136  0.3314
 6410SOL    HW130863   1.669   0.908   6.505 -0.7076 -2.5361 -0.9058
 6410SOL    HW230864   1.576   0.928   6.617  0.1948 -2.8487  0.5494
 6411SOL     OW30865   1.519   1.543   2.874  0.2887  0.5395  0.1064
 6411SOL    HW130866   1.599   1.596   2.874  0.6007  0.0288 -3.1405
 6411SOL    HW230867   1.467   1.606   2.824  2.2662  1.0550 -1.2870
 6412SOL     OW30868   1.754   2.325   4.351 -0.5178  0.3176  0.3882
 6412SOL    HW130869   1.679   2.267   4.365 -0.0626  0.0926  1.8878
 6412SOL    HW230870   1.753   2.326   4.256 -0.6432 -0.8088  0.3788
 6413SOL     OW30871   1.243   0.163   4.245  0.1458  0.5111 -0.3185
 6413SOL    HW130872   1.151   0.140   4.228  0.2129 -0.6768  0.9307
 6413SOL    HW230873   1.241   0.242   4.192  1.2771  0.2425 -0.7522
 6414SOL     OW30874   0.372   2.173   0.597  0.1754 -0.2625  0.2607
 6414SOL    HW130875   0.408   2.255   0.562 -1.4668 -0.0613 -0.9423
 6414SOL    HW230876   0.369   2.209   0.686  2.3145  3.2244 -1.0547
 6415SOL     OW30877   0.190   3.901   7.315  0.0750 -0.0156 -0.2386
 6415SOL    HW130878   0.276   3.884   7.278  0.4049  2.3793 -0.5964
 6415SOL    HW230879   0.160   3.813   7.337  2.0137 -0.5008  0.3818
 6416SOL     OW30880   2.339   2.052   8.920 -0.3714 -0.3656  0.4432
 6416SOL    HW130881   2.325   2.003   8.839 -0.6373  0.0205  0.2572
 6416SOL    HW230882   2.430   2.028   8.937  0.1716  0.7339 -1.0197
 6417SOL     OW30883   2.336   1.483   7.608  0.3454 -0.1504  0.6924
 6417SOL    HW130884   2.352   1.574   7.583  1.1188 -0.0129  1.7083
 6417SOL    HW230885   2.264   1.496   7.670  1.2019  0.0842  1.6338
 6418SOL     OW30886   2.391   3.125   4.858  0.4190 -0.3077  0.0438
 6418SOL    HW130887   2.311   3.145   4.908 -0.0112  0.0840 -0.8006
 6418SOL    HW230888   2.447   3.156   4.929 -0.8534 -1.2157  1.4418
 6419SOL     OW30889   3.950   4.023   8.565 -0.9913  0.1870  0.8778
 6419SOL    HW130890   4.028   4.026   8.510 -1.1262  0.7195  0.7228
 6419SOL    HW230891   3.880   4.048   8.506 -2.4586  0.7088  2.8221
 6420SOL     OW30892   1.557   1.659   1.734 -0.1819  0.1295 -0.0430
 6420SOL    HW130893   1.603   1.657   1.650 -0.4071 -2.4039 -0.1209
 6420SOL    HW230894   1.473   1.629   1.699  0.3100  0.1239 -1.2119
 6421SOL     OW30895   1.552   1.838   3.405 -0.2946  0.1514 -0.4717
 6421SOL    HW130896   1.620   1.783   3.366  0.0318  1.3435 -1.5721
 6421SOL    HW230897   1.576   1.924   3.373  2.5704 -0.1529  0.8620
 6422SOL     OW30898   2.786   4.420   4.379 -0.3283  0.4759 -0.0383
 6422SOL    HW130899   2.798   4.468   4.296 -0.9906  2.3229  0.9207
 6422SOL    HW230900   2.875   4.428   4.413 -0.5451  0.9871  0.4107
 6423SOL     OW30901   3.679   3.587   5.691  0.3792  0.2529  1.0532
 6423SOL    HW130902   3.679   3.668   5.744  1.2490  1.5441 -0.9298
 6423SOL    HW230903   3.742   3.609   5.623  0.9197 -2.9028  0.5714
 6424SOL     OW30904   2.858   4.196   1.904 -0.1136 -0.1872 -0.7187
 6424SOL    HW130905   2.945   4.226   1.880  0.4239  0.1382  1.6705
 6424SOL    HW230906   2.880   4.110   1.941  3.3989  0.3734 -1.5743
 6425SOL     OW30907   4.382   1.019   5.290 -0.0821 -0.6269  0.0280
 6425SOL    HW130908   4.302   1.061   5.324  0.0582 -0.1749 -0.2014
 6425SOL    HW230909   4.344   0.991   5.207 -0.3215  3.0502 -1.1005
 6426SOL     OW30910   0.499   2.865   8.124  0.1757 -0.6106 -0.4973
 6426SOL    HW130911   0.403   2.871   8.125  0.1899 -0.7379  1.9814
 6426SOL    HW230912   0.510   2.782   8.079  1.9499 -0.1058 -0.9865
 6427SOL     OW30913   0.718   4.498   1.377 -0.0217 -0.7556 -0.0336
 6427SOL    HW130914   0.774   4.504   1.454 -0.8834 -0.6845  0.5811
 6427SOL    HW230915   0.633   4.509   1.419  0.0278  1.7505 -0.6036
 6428SOL     OW30916   2.133   3.277   2.686 -0.0159 -0.7234  0.2582
 6428SOL    HW130917   2.170   3.253   2.601 -1.5821 -0.2844 -0.5335
 6428SOL    HW230918   2.184   3.358   2.699 -0.3966 -0.6892  1.5116
 6429SOL     OW30919   2.870   2.433   4.454 -0.1514  0.0732 -0.1799
 6429SOL    HW130920   2.895   2.381   4.378  1.0584 -1.3752  1.2366
 6429SOL    HW230921   2.933   2.402   4.519  2.2321  0.5616 -2.2518
 6430SOL     OW30922   2.130   3.837   8.052  0.1974  0.3310 -0.0166
 6430SOL    HW130923   2.210   3.846   8.104  0.1234  1.4938 -0.0955
 6430SOL    HW230924   2.072   3.891   8.106  0.5421 -0.6960  1.3930
 6431SOL     OW30925   2.011   1.888   3.805  0.4366  0.1496 -0.0909
 6431SOL    HW130926   1.984   1.796   3.795  1.5811 -0.3127  1.1845
 6431SOL    HW230927   2.011   1.918   3.714  1.5112 -0.5375 -0.3194
 6432SOL     OW30928   2.443   0.713   0.541  0.7029  0.2109  0.4177
 6432SOL    HW130929   2.419   0.784   0.601 -0.3431  1.3403 -1.3277
 6432SOL    HW230930   2.380   0.715   0.468 -1.2445  2.2592  2.1491
 6433SOL     OW30931   3.784   3.030   3.617  0.1589 -0.2214  0.1077
 6433SOL    HW130932   3.870   3.069   3.601 -1.0760  2.8166  0.7761
 6433SOL    HW230933   3.757   3.004   3.529 -1.1122 -1.2634  0.7938
 6434SOL     OW30934   0.290   3.869  15.146  0.0292 -0.3119  0.2252
 6434SOL    HW130935   0.225   3.922  15.192  1.2705  0.4423  1.1039
 6434SOL    HW230936   0.260   3.863  15.055 -0.0851 -0.2119  0.2560
 6435SOL     OW30937   1.067   3.649  16.658 -0.7232  0.4397 -0.1072
 6435SOL    HW130938   1.070   3.720  16.594 -1.4687 -0.9677 -1.7078
 6435SOL    HW230939   1.158   3.625  16.675 -1.1098 -1.4686 -0.6508
 6436SOL     OW30940   3.772   4.188   2.624  0.2275  0.2154  0.1134
 6436SOL    HW130941   3.692   4.183   2.572 -1.1929  0.5174  2.2507
 6436SOL    HW230942   3.819   4.121   2.575 -2.8373 -0.5665 -1.7733
 6437SOL     OW30943   3.969   0.383   4.517  0.4177 -0.1489 -0.3367
 6437SOL    HW130944   4.001   0.414   4.601  0.0851 -0.8343  0.0374
 6437SOL    HW230945   4.050   0.344   4.483  0.6457  0.0833 -0.0587
 6438SOL     OW30946   1.904   3.654   8.701 -0.0343  0.0762 -0.0914
 6438SOL    HW130947   1.881   3.734   8.655 -1.6759 -0.3321  0.0288
 6438SOL    HW230948   1.956   3.614   8.631 -2.7484  1.6472 -2.9865
 6439SOL     OW30949   3.743   3.102   8.410 -0.0411 -0.2495  0.4385
 6439SOL    HW130950   3.815   3.059   8.365  1.0127  1.2355  0.6879
 6439SOL    HW230951   3.790   3.141   8.484 -0.3061  1.1010 -0.1084
 6440SOL     OW30952   2.473   0.437   3.500 -0.3175  0.7551  0.4373
 6440SOL    HW130953   2.477   0.514   3.445  0.5528 -0.6413 -1.4510
 6440SOL    HW230954   2.541   0.458   3.565 -0.2332  1.9070 -0.0320
 6441SOL     OW30955   4.539   2.774  12.292 -0.7104 -0.5573 -0.0901
 6441SOL    HW130956   4.561   2.684  12.316 -1.1579 -0.6781 -0.1265
 6441SOL    HW230957   4.625   2.805  12.319 -1.7113  0.2143  2.2479
 6442SOL     OW30958   0.922   0.042  10.217 -0.3405  0.7154 -0.8896
 6442SOL    HW130959   0.833   0.077  10.210 -0.9210 -0.2463  1.4065
 6442SOL    HW230960   0.932   0.033  10.312 -0.2681  0.1332 -0.9531
 6443SOL     OW30961   0.366   1.940  13.416 -0.5079 -0.0819 -0.0120
 6443SOL    HW130962   0.305   2.010  13.390 -0.1122 -0.6138 -2.3310
 6443SOL    HW230963   0.406   1.979  13.494 -3.1681 -0.9432  1.8174
 6444SOL     OW30964   1.679   2.066   3.658  0.5271  0.1151 -0.3131
 6444SOL    HW130965   1.756   2.115   3.687  0.8891 -0.3543 -0.4712
 6444SOL    HW230966   1.681   2.086   3.564  3.1924  0.0540 -0.2744
 6445SOL     OW30967   1.026   2.586   8.322  0.1203  0.0983  0.1866
 6445SOL    HW130968   1.092   2.527   8.286  0.0749  1.4909 -2.1230
 6445SOL    HW230969   1.074   2.666   8.302 -0.3349  0.1500 -0.6810
 6446SOL     OW30970   0.589   1.962  17.034  0.1019  0.6829  0.2358
 6446SOL    HW130971   0.510   1.980  16.983  0.3530 -0.9316 -0.7275
 6446SOL    HW230972   0.617   1.880  16.994 -2.9434 -0.1593 -0.2049
 6447SOL     OW30973   2.124   2.585   9.186  0.3823 -0.4987  0.1519
 6447SOL    HW130974   2.056   2.527   9.221  0.6109 -1.4533 -1.0123
 6447SOL    HW230975   2.112   2.663   9.241 -0.6286  0.4371 -1.3792
 6448SOL     OW30976   3.587   2.214   7.570 -0.4156 -0.0068  0.0466
 6448SOL    HW130977   3.639   2.209   7.650  0.7526  0.0094 -0.7094
 6448SOL    HW230978   3.650   2.187   7.504  0.1843  1.6293 -0.0581
 6449SOL     OW30979   0.400   1.436   1.294 -0.4501 -0.0313 -0.2438
 6449SOL    HW130980   0.405   1.519   1.247  0.7454 -0.3220 -0.6403
 6449SOL    HW230981   0.342   1.458   1.366  0.3908 -1.4210  0.8446
 6450SOL     OW30982   4.553   3.683   0.283  0.3966  0.3202 -0.2114
 6450SOL    HW130983   4.608   3.606   0.295 -1.2845 -0.8058  0.2454
 6450SOL    HW230984   4.533   3.710   0.373 -1.4102  0.3104 -0.6175
 6451SOL     OW30985   4.187   1.586   0.456 -0.2352 -0.0112 -0.8810
 6451SOL    HW130986   4.101   1.559   0.487  0.2197  0.0074  0.4000
 6451SOL    HW230987   4.200   1.537   0.375 -3.0065 -2.4463  0.1533
 6452SOL     OW30988   3.090   1.653   4.861  0.2188 -0.1519 -0.0110
 6452SOL    HW130989   3.033   1.577   4.850  0.0053 -0.2026  1.5133
 6452SOL    HW230990   3.172   1.606   4.845 -0.0116 -1.2251  1.9750
 6453SOL     OW30991   4.433   4.193   0.455  0.4885  0.3398  0.1338
 6453SOL    HW130992   4.501   4.173   0.391  0.3043 -0.0796  0.0701
 6453SOL    HW230993   4.391   4.263   0.405 -1.0819  0.4546  1.6227
 6454SOL     OW30994   0.961   2.626  15.038  0.3606 -0.2719 -0.2529
 6454SOL    HW130995   0.979   2.541  14.997 -0.8088  0.4554 -2.2868
 6454SOL    HW230996   1.011   2.608  15.117  3.3956 -0.1634 -2.1447
 6455SOL     OW30997   3.464   4.459   5.221  0.1402 -0.1263 -0.1975
 6455SOL    HW130998   3.542   4.513   5.232 -0.1586  0.3758 -0.5734
 6455SOL    HW230999   3.397   4.508   5.269  2.0129  2.5285 -0.3359
 6456SOL     OW31000   3.495   4.329   0.713  0.1069 -0.1393 -0.2566
 6456SOL    HW131001   3.507   4.405   0.656  1.7624  0.7535  1.2798
 6456SOL    HW231002   3.559   4.351   0.780 -0.3502 -0.4751  0.2938
 6457SOL     OW31003   4.643   3.689  14.569  0.4345 -0.0506  0.1398
 6457SOL    HW131004   4.639   3.598  14.539 -0.7121 -0.8472  2.6558
 6457SOL    HW231005   4.588   3.677  14.647 -0.4470 -0.2048 -0.5168
 6458SOL     OW31006   3.193   0.962   7.783  0.3261 -0.1168 -0.3914
 6458SOL    HW131007   3.137   1.038   7.769  0.0621 -0.5475 -1.7185
 6458SOL    HW231008   3.275   0.982   7.739  0.7253 -3.0924 -1.0138
 6459SOL     OW31009   1.147   3.985   3.935 -0.5126  0.0313 -0.3283
 6459SOL    HW131010   1.185   3.968   3.849 -2.4627 -1.2024 -0.9587
 6459SOL    HW231011   1.205   3.942   3.998 -0.9088 -2.2996 -1.5406
 6460SOL     OW31012   0.998   2.807  17.697 -0.3718  0.0659  0.4995
 6460SOL    HW131013   1.090   2.807  17.723  0.0665  2.1897 -1.0977
 6460SOL    HW231014   1.001   2.825  17.603  0.1674  1.6018  0.8270
 6461SOL     OW31015   2.839   0.106   0.153 -0.2709 -0.5280  0.1389
 6461SOL    HW131016   2.872   0.016   0.161 -0.2490 -0.4733  0.6440
 6461SOL    HW231017   2.819   0.124   0.245  1.3527 -0.7637  0.5459
 6462SOL     OW31018   1.555   3.741   5.552  0.4274  0.0918 -0.0517
 6462SOL    HW131019   1.468   3.725   5.587 -0.2352 -1.1144 -2.2441
 6462SOL    HW231020   1.541   3.815   5.492  2.7131 -0.0696 -0.7839
 6463SOL     OW31021   4.676   0.146   7.035  0.9015 -0.3991  0.3285
 6463SOL    HW131022   4.729   0.197   6.974  1.6770 -1.5368  0.0457
 6463SOL    HW231023   4.680   0.059   6.995 -2.5389 -1.5782  2.5619
 6464SOL     OW31024   2.500   2.470   8.012 -0.1385 -0.2969  0.3865
 6464SOL    HW131025   2.515   2.472   7.918 -0.2001 -0.7720  0.3652
 6464SOL    HW231026   2.551   2.394   8.039 -1.1659 -0.5874  1.5395
 6465SOL     OW31027   2.177   1.133  13.056  0.1435  0.0806  0.4237
 6465SOL    HW131028   2.235   1.102  12.987 -1.8244  1.1666 -1.7327
 6465SOL    HW231029   2.131   1.052  13.076 -1.0189  0.5870 -0.1489
 6466SOL     OW31030   2.009   2.124   0.668  0.8188 -0.1456 -0.0532
 6466SOL    HW131031   1.923   2.160   0.643  0.2246  0.3757  2.8262
 6466SOL    HW231032   2.028   2.070   0.591 -1.0852  1.9879 -2.0704
 6467SOL     OW31033   2.734   4.681  15.015  0.4240 -0.2248 -0.0108
 6467SOL    HW131034   2.815   4.700  15.062  1.3615  2.0282 -2.4769
 6467SOL    HW231035   2.704   4.600  15.055 -0.6017  2.1430  4.0181
 6468SOL     OW31036   3.454   3.829  14.685  0.3953  0.3099  0.0297
 6468SOL    HW131037   3.495   3.804  14.602  2.7854  1.2368  0.9202
 6468SOL    HW231038   3.400   3.902  14.657  1.5551  1.2890  0.3662
 6469SOL     OW31039   2.825   4.521   7.132 -0.3006  0.0954  0.0331
 6469SOL    HW131040   2.771   4.504   7.210 -0.7939 -2.7488 -0.9493
 6469SOL    HW231041   2.903   4.562   7.171 -1.5843  2.4411  0.1258
 6470SOL     OW31042   2.518   2.583   2.541  0.6946  0.3914 -0.3702
 6470SOL    HW131043   2.602   2.630   2.548  2.6359 -3.1292  0.1596
 6470SOL    HW231044   2.503   2.580   2.636 -1.8967  2.1527 -0.7133
 6471SOL     OW31045   1.310   3.580   7.405  0.4460 -0.0526 -0.3855
 6471SOL    HW131046   1.393   3.537   7.389  1.0000  0.7739  0.2593
 6471SOL    HW231047   1.248   3.509   7.387 -0.0366 -0.3394  2.4949
 6472SOL     OW31048   2.970   2.564  16.186  1.1290 -0.1762 -0.5977
 6472SOL    HW131049   2.984   2.587  16.094 -0.9605  2.0577 -0.3658
 6472SOL    HW231050   2.874   2.567  16.185  1.0201 -3.1794 -1.4024
 6473SOL     OW31051   4.516   1.937   6.453 -0.2241  0.0417  0.4844
 6473SOL    HW131052   4.487   2.009   6.398  1.6428  1.3933  1.2443
 6473SOL    HW231053   4.597   1.980   6.482 -0.8373  1.1315  0.5766
 6474SOL     OW31054   1.987   0.839   6.925 -0.1954  0.4803  0.2690
 6474SOL    HW131055   1.967   0.841   7.018 -1.6227 -0.6539 -0.0062
 6474SOL    HW231056   1.933   0.913   6.895  0.6052  1.6322  1.6981
 6475SOL     OW31057   0.117   0.483   3.476 -0.0115  0.5688  0.3745
 6475SOL    HW131058   0.192   0.425   3.462  0.4307  0.7778  1.8877
 6475SOL    HW231059   0.076   0.433   3.547  1.8404 -1.2918  0.1320
 6476SOL     OW31060   2.961   0.338   2.983 -0.0508  0.5072  0.3385
 6476SOL    HW131061   3.033   0.280   3.010 -0.5711 -0.6376 -0.7369
 6476SOL    HW231062   2.984   0.346   2.891 -1.9113  0.0569 -0.1712
 6477SOL     OW31063   2.019   2.539  14.551  0.3143 -0.3899  0.1672
 6477SOL    HW131064   2.014   2.542  14.647  1.1098 -0.9333  0.2278
 6477SOL    HW231065   1.941   2.490  14.524 -0.2602  0.7411 -0.2208
 6478SOL     OW31066   1.265   1.688   7.756  0.0369  0.6378 -0.4912
 6478SOL    HW131067   1.359   1.682   7.771  0.1546  1.5904 -0.8568
 6478SOL    HW231068   1.243   1.734   7.837  1.0311  1.2391 -0.5687
 6479SOL     OW31069   2.558   3.936   5.220 -0.0210 -0.4399 -0.1677
 6479SOL    HW131070   2.516   4.021   5.236  1.9191  0.4711  0.1482
 6479SOL    HW231071   2.585   3.947   5.129 -2.6817 -0.7164 -0.9890
 6480SOL     OW31072   2.357   4.178   2.596 -0.6168  0.8228  0.5794
 6480SOL    HW131073   2.436   4.127   2.579 -0.2805  1.1594  1.1230
 6480SOL    HW231074   2.356   4.233   2.518  1.6492  0.7112  0.4638
 6481SOL     OW31075   1.404   1.968   8.633  0.1517 -0.2651  0.7301
 6481SOL    HW131076   1.358   1.933   8.710  0.5754  0.2228  1.2058
 6481SOL    HW231077   1.454   1.896   8.594 -1.2217  0.8911 -3.1549
 6482SOL     OW31078   0.495   3.719   6.147 -0.5484  0.6811 -0.1911
 6482SOL    HW131079   0.406   3.722   6.114 -1.0175  1.8263  1.2464
 6482SOL    HW231080   0.494   3.784   6.217 -1.0857 -0.1350  0.5612
 6483SOL     OW31081   1.391   2.970   3.981 -0.7118 -0.3671  0.9731
 6483SOL    HW131082   1.422   3.013   3.901 -2.3308 -0.2058  0.4397
 6483SOL    HW231083   1.307   3.016   3.981  0.0442  1.0468 -1.2387
 6484SOL     OW31084   2.366   4.145   3.108  0.1615 -0.0963  0.1875
 6484SOL    HW131085   2.351   4.198   3.030  1.4328  0.5286  0.3623
 6484SOL    HW231086   2.458   4.125   3.090 -1.3140 -2.8348 -4.2059
 6485SOL     OW31087   4.111   0.496   8.168 -0.2905 -0.1036 -0.0111
 6485SOL    HW131088   4.123   0.489   8.074  0.3391 -0.4610  0.0955
 6485SOL    HW231089   4.021   0.462   8.173 -0.0346 -0.5570  1.6948
 6486SOL     OW31090   1.156   2.238  15.075 -0.2214 -0.0248  0.6778
 6486SOL    HW131091   1.158   2.274  15.163  1.6767  0.7777  0.2957
 6486SOL    HW231092   1.130   2.314  15.023  1.4022 -0.0039 -0.0943
 6487SOL     OW31093   3.389   2.486   8.678 -0.8731  0.8487 -0.5208
 6487SOL    HW131094   3.346   2.456   8.598  0.1959 -0.0318 -0.7671
 6487SOL    HW231095   3.354   2.421   8.740  0.4112  0.1291 -0.5535
 6488SOL     OW31096   2.920   4.583  10.197 -0.5941  0.3457 -0.1619
 6488SOL    HW131097   2.934   4.518  10.266  1.1519  1.1291  0.2150
 6488SOL    HW231098   2.846   4.552  10.145 -1.2196 -1.2366  1.6780
 6489SOL     OW31099   1.747   1.753  10.870  0.1789 -0.3709  0.0261
 6489SOL    HW131100   1.787   1.683  10.819  0.0142  1.0468 -2.0235
 6489SOL    HW231101   1.771   1.731  10.960  1.2643  0.3423 -0.0917
 6490SOL     OW31102   0.478   2.801   2.995  0.4103 -0.1446  0.0248
 6490SOL    HW131103   0.440   2.715   3.014  0.5919 -0.5560 -1.5016
 6490SOL    HW231104   0.423   2.821   2.919  0.2117 -0.4715  0.0823
 6491SOL     OW31105   4.625   0.810   1.777  0.3161 -0.4726 -0.3842
 6491SOL    HW131106   4.562   0.880   1.761  0.2533 -0.5431 -0.4437
 6491SOL    HW231107   4.632   0.770   1.690  0.1031 -0.8806 -0.2161
 6492SOL     OW31108   0.464   3.095   0.752 -0.6019  0.2734 -0.7930
 6492SOL    HW131109   0.463   3.190   0.765 -1.5659  0.2691 -0.7869
 6492SOL    HW231110   0.375   3.074   0.782 -0.9608 -0.0508 -2.0896
 6493SOL     OW31111   1.881   2.092   6.238 -0.3071 -0.4888 -0.7198
 6493SOL    HW131112   1.821   2.021   6.263 -1.8598  1.1588  0.1984
 6493SOL    HW231113   1.849   2.107   6.149  1.2226 -2.1929 -1.5664
 6494SOL     OW31114   3.974   2.885   3.136 -0.3037  0.1198 -0.2657
 6494SOL    HW131115   3.955   2.914   3.047  1.6039  2.2392  0.0148
 6494SOL    HW231116   4.038   2.948   3.167 -1.0462  0.3571  0.7706
 6495SOL     OW31117   0.411   3.092   1.057  0.0939  0.4345 -0.3287
 6495SOL    HW131118   0.376   3.175   1.089  1.7458  0.9999 -0.0094
 6495SOL    HW231119   0.497   3.124   1.031 -1.1608  2.6048 -1.7140
 6496SOL     OW31120   1.711   2.547   3.570 -0.8252  0.0228  0.0924
 6496SOL    HW131121   1.668   2.607   3.631  3.2332  2.4704  0.5554
 6496SOL    HW231122   1.766   2.609   3.521 -2.9903  2.6419  0.9478
 6497SOL     OW31123   3.760   0.968   7.345  0.6129  0.1276  0.0833
 6497SOL    HW131124   3.787   1.018   7.268  1.0483 -1.7355 -0.9663
 6497SOL    HW231125   3.829   0.995   7.407  1.3946  1.8722 -1.5598
 6498SOL     OW31126   2.916   0.086   9.666 -0.0408  0.2854  0.2885
 6498SOL    HW131127   2.847   0.123   9.609  0.1073 -1.3891 -0.9962
 6498SOL    HW231128   2.975   0.161   9.678 -0.2340  0.7297 -1.4511
 6499SOL     OW31129   0.391   1.140  13.181 -0.2263 -0.8008 -0.1442
 6499SOL    HW131130   0.382   1.164  13.273  0.2051  0.5815 -0.4624
 6499SOL    HW231131   0.477   1.174  13.157  0.3655 -0.5355  2.4115
 6500SOL     OW31132   0.032   2.511   7.691 -0.8698  0.5837  0.6767
 6500SOL    HW131133   0.034   2.474   7.780  1.1655 -2.2295 -0.5378
 6500SOL    HW231134   4.695   2.458   7.659  0.6923  0.8063 -3.1679
 6501SOL     OW31135   2.824   2.289   1.352  0.0475  0.0242 -0.0623
 6501SOL    HW131136   2.753   2.353   1.351 -0.0434 -0.0726  0.4423
 6501SOL    HW231137   2.851   2.286   1.260  2.0140  0.4416  0.4939
 6502SOL     OW31138   3.239   2.302  11.089 -0.1297 -0.0198 -0.1639
 6502SOL    HW131139   3.197   2.327  11.171  0.9661 -0.9464  0.6982
 6502SOL    HW231140   3.326   2.274  11.117  0.6110  2.2951 -0.1505
 6503SOL     OW31141   4.704   1.219   2.314  0.0880  0.0259  0.5763
 6503SOL    HW131142   4.695   1.269   2.233  0.7607 -0.0055  0.4839
 6503SOL    HW231143   4.699   1.293   2.375  0.7952  1.3770 -1.0082
 6504SOL     OW31144   2.129   2.913  15.777  0.4314 -0.3325 -0.0961
 6504SOL    HW131145   2.188   2.980  15.812  0.2481 -0.7086  0.9592
 6504SOL    HW231146   2.110   2.861  15.855  1.1025  0.1794  0.4091
 6505SOL     OW31147   1.274   4.249   3.852 -0.2198  0.0218  0.4167
 6505SOL    HW131148   1.259   4.232   3.945 -0.1567 -0.9658  0.2515
 6505SOL    HW231149   1.364   4.282   3.847  0.5386 -1.7105  2.2783
 6506SOL     OW31150   1.616   2.814   0.585  0.9150 -0.3983 -0.2814
 6506SOL    HW131151   1.667   2.827   0.665  2.1615  0.4368 -1.2353
 6506SOL    HW231152   1.672   2.847   0.516  2.0282 -0.8651  0.3942
 6507SOL     OW31153   3.510   3.926   8.176 -0.1363  0.0883  0.2198
 6507SOL    HW131154   3.442   3.991   8.156  1.2029  0.5947 -2.6126
 6507SOL    HW231155   3.475   3.904   8.263  1.1290  0.4147  0.8039
 6508SOL     OW31156   0.683   2.690   0.673 -0.0765  0.1727  0.0948
 6508SOL    HW131157   0.663   2.770   0.722 -2.0130 -1.2611  1.6145
 6508SOL    HW231158   0.609   2.674   0.615  0.4062  1.3836 -0.8525
 6509SOL     OW31159   1.068   1.546   6.596 -0.1149 -0.3705  0.5078
 6509SOL    HW131160   1.144   1.521   6.543  0.0635  0.7437  0.2189
 6509SOL    HW231161   1.011   1.575   6.524 -0.1035 -0.2907  0.5305
 6510SOL     OW31162   1.022   3.645  13.546 -0.0460 -0.6473 -0.5302
 6510SOL    HW131163   1.043   3.689  13.628  0.4616  0.9130 -1.5017
 6510SOL    HW231164   1.096   3.583  13.542  0.6896  0.2309 -0.5794
 6511SOL     OW31165   1.248   0.029   8.185  0.1636  0.3211  0.8066
 6511SOL    HW131166   1.217   4.690   8.235  0.8289 -0.1880  0.4541
 6511SOL    HW231167   1.282   4.715   8.111 -0.1814  0.2044  0.7267
 6512SOL     OW31168   1.980   4.613   4.488  0.6668 -0.3457 -0.4475
 6512SOL    HW131169   1.953   4.589   4.577 -0.9738  3.5009  0.0474
 6512SOL    HW231170   2.073   4.591   4.489  0.7690  0.1052  0.1955
 6513SOL     OW31171   3.546   1.332  10.221 -0.0368 -0.0879 -0.1512
 6513SOL    HW131172   3.483   1.303  10.288  0.8332 -1.0280  0.2455
 6513SOL    HW231173   3.589   1.252  10.193  0.0343 -0.2347  0.3662
 6514SOL     OW31174   4.650   3.731   6.801  0.7840 -0.2860 -0.3632
 6514SOL    HW131175   4.702   3.749   6.880  2.0986  1.6053 -1.6538
 6514SOL    HW231176   4.574   3.679   6.829 -0.4679  1.7737  0.0557
 6515SOL     OW31177   1.603   0.469  13.410  0.1261  0.0852  0.2086
 6515SOL    HW131178   1.613   0.398  13.346  1.6904  1.2891 -0.8602
 6515SOL    HW231179   1.523   0.507  13.373 -0.9205  0.3054  2.6959
 6516SOL     OW31180   0.181   0.490   2.791  0.3578  0.1256  0.0520
 6516SOL    HW131181   0.091   0.461   2.773  0.1255  0.3161  0.8921
 6516SOL    HW231182   0.188   0.467   2.883  0.5326  1.5908  0.4063
 6517SOL     OW31183   3.710   4.145   4.731  0.4379  0.0718 -0.2309
 6517SOL    HW131184   3.778   4.209   4.752  0.2269  0.5481 -0.9955
 6517SOL    HW231185   3.644   4.143   4.801  0.1898 -0.0103 -0.4677
 6518SOL     OW31186   2.701   2.009   5.260 -0.0362  0.1596 -0.1043
 6518SOL    HW131187   2.756   1.935   5.287 -0.4342  0.0947  0.5201
 6518SOL    HW231188   2.657   1.989   5.177  1.5873  0.1741 -0.9890
 6519SOL     OW31189   0.145   3.642   9.049 -0.1830 -0.1099  0.0802
 6519SOL    HW131190   0.151   3.710   8.981  0.7578  0.7522  1.0143
 6519SOL    HW231191   0.088   3.686   9.112 -1.9830 -0.7111 -1.1513
 6520SOL     OW31192   1.067   3.231  15.896  0.3897 -0.5142  0.2697
 6520SOL    HW131193   1.045   3.281  15.818  2.1594 -0.3255 -0.1059
 6520SOL    HW231194   0.982   3.224  15.940 -0.4143  1.8366 -0.9395
 6521SOL     OW31195   0.825   1.393   7.394  0.1679 -0.3004 -0.1923
 6521SOL    HW131196   0.866   1.307   7.405  0.7151  0.0075  0.1726
 6521SOL    HW231197   0.899   1.452   7.410  1.9731 -2.3914 -0.8107
 6522SOL     OW31198   0.073   3.734   4.768  0.4047 -0.4019 -0.5566
 6522SOL    HW131199   0.072   3.671   4.696  0.6460 -0.8565 -0.1659
 6522SOL    HW231200   0.132   3.681   4.822 -0.7430 -1.4259 -0.3008
 6523SOL     OW31201   3.343   0.675  12.336  0.4386  0.3538  0.9985
 6523SOL    HW131202   3.423   0.725  12.352  1.4078 -1.0037  0.3976
 6523SOL    HW231203   3.379   0.616  12.269 -0.0743  1.3544 -0.1499
 6524SOL     OW31204   0.805   2.579   6.910 -0.3044 -0.0874 -0.6631
 6524SOL    HW131205   0.723   2.564   6.863 -1.4857 -0.3097  1.5120
 6524SOL    HW231206   0.774   2.619   6.991 -1.1557  0.9189 -1.4915
 6525SOL     OW31207   4.539   0.639   8.058 -0.4867 -0.4550 -0.8271
 6525SOL    HW131208   4.630   0.668   8.051 -0.8694  1.3559  1.5805
 6525SOL    HW231209   4.506   0.689   8.133 -1.7622 -0.6165 -1.2939
 6526SOL     OW31210   2.308   1.047   9.221  0.9209 -0.1370  0.3769
 6526SOL    HW131211   2.364   1.057   9.297  2.9925 -1.5145 -0.9827
 6526SOL    HW231212   2.276   0.959   9.245  3.1000 -1.4110 -1.4565
 6527SOL     OW31213   3.182   0.526  13.954 -0.2797 -0.2939 -0.6611
 6527SOL    HW131214   3.213   0.435  13.949 -0.7983 -0.5163  0.2992
 6527SOL    HW231215   3.265   0.563  13.984  0.1676 -0.5955 -1.5185
 6528SOL     OW31216   2.618   3.880   4.957  0.1644  0.0659  0.1403
 6528SOL    HW131217   2.585   3.832   4.881  0.2957  1.7215 -0.9669
 6528SOL    HW231218   2.568   3.960   4.941 -0.0574 -0.3562 -1.2539
 6529SOL     OW31219   4.419   0.696   7.740  0.2080  0.5232 -0.0298
 6529SOL    HW131220   4.505   0.690   7.696  0.2702 -3.5155  0.6362
 6529SOL    HW231221   4.408   0.606   7.770 -2.3546  0.6322 -0.6550
 6530SOL     OW31222   1.620   3.764   9.232 -0.5858 -0.0019  0.0991
 6530SOL    HW131223   1.578   3.806   9.307 -1.3764 -0.4999 -0.0605
 6530SOL    HW231224   1.552   3.704   9.199  0.8641 -1.0967 -0.9292
 6531SOL     OW31225   1.699   3.264   9.779  0.4604 -0.3535 -0.5796
 6531SOL    HW131226   1.755   3.313   9.718  0.6745 -0.0002 -0.0992
 6531SOL    HW231227   1.736   3.270   9.867  2.4807 -0.2930 -1.4370
 6532SOL     OW31228   0.023   2.891   0.975  0.3867 -0.9965 -0.2321
 6532SOL    HW131229   0.049   2.823   1.037  1.2486 -1.9197 -1.5838
 6532SOL    HW231230   4.718   2.961   1.025 -0.0674 -1.1710 -0.3589
 6533SOL     OW31231   3.980   4.113  17.163 -0.4126  0.0798  0.3637
 6533SOL    HW131232   4.049   4.057  17.125 -1.2447 -0.5666 -0.1914
 6533SOL    HW231233   4.022   4.199  17.165  0.3444 -0.2773  0.1106
 6534SOL     OW31234   3.018   1.403  16.929 -0.4384  0.1883  0.0317
 6534SOL    HW131235   3.062   1.463  16.869 -1.5476 -0.5977 -1.5687
 6534SOL    HW231236   2.987   1.332  16.873  1.1293 -0.8819  0.5071
 6535SOL     OW31237   3.562   0.822  12.341  0.4240  0.4062  0.2035
 6535SOL    HW131238   3.594   0.905  12.307 -0.9093  0.7006 -0.3389
 6535SOL    HW231239   3.628   0.817  12.410  1.8636 -0.3301 -1.2286
 6536SOL     OW31240   2.933   3.465   7.264  0.2261 -0.7972  0.5799
 6536SOL    HW131241   3.005   3.402   7.264  0.0055 -1.0470  0.7022
 6536SOL    HW231242   2.864   3.434   7.324 -1.3914  1.7754  0.0638
 6537SOL     OW31243   0.750   1.728  16.974  0.1974 -0.3385 -0.6608
 6537SOL    HW131244   0.754   1.671  16.898  0.0694 -0.2445 -0.7364
 6537SOL    HW231245   0.748   1.667  17.048  0.6852 -0.6413 -0.9004
 6538SOL     OW31246   4.623   0.561   0.241 -0.4092  0.0085 -0.4556
 6538SOL    HW131247   4.658   0.518   0.163 -1.8490 -1.6083 -0.2047
 6538SOL    HW231248   4.646   0.650   0.214  1.3952 -0.3164  0.0147
 6539SOL     OW31249   3.402   3.404   2.194  0.3898 -0.2473 -0.0456
 6539SOL    HW131250   3.313   3.411   2.229 -0.0786 -1.6597 -0.9442
 6539SOL    HW231251   3.395   3.446   2.109 -1.7794 -0.0246  0.2541
 6540SOL     OW31252   4.131   1.350  13.986  0.1255 -0.0037 -0.2718
 6540SOL    HW131253   4.039   1.342  13.960  0.2012 -0.3128 -0.4443
 6540SOL    HW231254   4.173   1.365  13.901 -1.5496 -4.1366 -1.7994
 6541SOL     OW31255   1.957   1.284   0.087 -0.1644 -0.1767  0.0447
 6541SOL    HW131256   1.997   1.368   0.061  0.2331 -0.8797 -1.6055
 6541SOL    HW231257   1.912   1.309   0.167 -1.7380 -1.4998 -0.4433
 6542SOL     OW31258   0.119   1.134   8.823  0.9771 -0.4754 -0.3717
 6542SOL    HW131259   0.033   1.099   8.802 -0.2046  1.4502  1.2208
 6542SOL    HW231260   0.088   1.182   8.900  0.6062 -1.1669 -0.0988
 6543SOL     OW31261   2.221   1.976  13.623  0.0291 -0.0838  0.1446
 6543SOL    HW131262   2.151   2.016  13.673  1.5560  2.7462  0.0140
 6543SOL    HW231263   2.290   1.973  13.690 -1.1573  0.6952  1.3994
 6544SOL     OW31264   0.000   1.143  12.573  0.0405  0.4929 -0.8535
 6544SOL    HW131265   0.057   1.129  12.497  1.8809  1.5571  0.3342
 6544SOL    HW231266   0.055   1.107  12.642 -2.0117 -1.3458 -0.1743
 6545SOL     OW31267   3.804   3.542  15.342  0.1485 -0.4358 -0.1394
 6545SOL    HW131268   3.864   3.615  15.358  1.0567 -0.6137 -2.7687
 6545SOL    HW231269   3.783   3.563  15.251  1.6350  1.9099  0.0603
 6546SOL     OW31270   3.296   3.732  10.828  0.3107  0.2430 -0.3018
 6546SOL    HW131271   3.345   3.753  10.749 -1.8075  0.0388 -1.6589
 6546SOL    HW231272   3.369   3.724  10.890 -1.4742 -0.2882  1.7198
 6547SOL     OW31273   0.757   2.442   1.789  0.4508  0.4618  0.0437
 6547SOL    HW131274   0.830   2.431   1.728  0.4011 -0.9634  0.2338
 6547SOL    HW231275   0.773   2.373   1.852  0.8718 -0.3983 -1.0060
 6548SOL     OW31276   2.627   3.565  13.621 -0.4464  0.4459 -0.8167
 6548SOL    HW131277   2.694   3.607  13.566  0.1232  0.7339  0.1029
 6548SOL    HW231278   2.683   3.504  13.669 -2.3974 -0.2700  0.5097
 6549SOL     OW31279   2.528   2.004   7.206  0.2244 -0.4280 -0.1468
 6549SOL    HW131280   2.575   1.928   7.172  1.1084  0.6157 -1.2670
 6549SOL    HW231281   2.601   2.060   7.233  0.0567  0.4226 -1.4372
 6550SOL     OW31282   1.190   1.479   7.153 -0.4499 -0.6646  0.0707
 6550SOL    HW131283   1.164   1.390   7.129  1.2392 -1.4329  1.0908
 6550SOL    HW231284   1.285   1.480   7.137 -0.1143 -0.9068  2.0631
 6551SOL     OW31285   4.156   4.305   7.000 -0.0486 -0.1307  0.2528
 6551SOL    HW131286   4.248   4.307   7.027 -0.3842  0.0355  1.4126
 6551SOL    HW231287   4.140   4.392   6.966  1.1559 -0.5079 -1.2429
 6552SOL     OW31288   3.303   2.111  16.209 -0.2103 -0.1463  0.0126
 6552SOL    HW131289   3.296   2.188  16.153 -0.1434 -0.3367 -0.2543
 6552SOL    HW231290   3.258   2.152  16.283 -1.7141  1.8580 -1.9942
 6553SOL     OW31291   1.643   1.340   4.471 -0.9015 -0.4190 -0.1208
 6553SOL    HW131292   1.731   1.363   4.442 -1.1720 -0.3008 -0.8512
 6553SOL    HW231293   1.627   1.406   4.539 -0.2086  1.8140 -2.1076
 6554SOL     OW31294   0.620   3.636  14.614 -0.3061  0.4211 -0.1744
 6554SOL    HW131295   0.569   3.714  14.592 -1.2015 -0.5643 -1.5715
 6554SOL    HW231296   0.564   3.570  14.573  1.5234  0.0379 -2.0486
 6555SOL     OW31297   3.656   3.411   7.081 -0.2223 -0.2036 -0.0014
 6555SOL    HW131298   3.661   3.501   7.115 -1.7894 -0.5161  1.0384
 6555SOL    HW231299   3.746   3.381   7.096 -0.2841  0.0014  0.8084
 6556SOL     OW31300   1.848   0.180   2.491  0.0405 -0.7586 -0.4766
 6556SOL    HW131301   1.912   0.114   2.462  1.0869 -0.7593  1.9016
 6556SOL    HW231302   1.819   0.202   2.402  0.5665 -2.2850 -1.0339
 6557SOL     OW31303   2.611   4.502   4.758 -0.1929 -0.4778  0.4726
 6557SOL    HW131304   2.622   4.566   4.828 -0.8343  1.2009 -0.9712
 6557SOL    HW231305   2.603   4.565   4.686  0.4323  0.1343  0.9499
 6558SOL     OW31306   3.788   0.974  13.799  0.6134  0.4512 -0.3767
 6558SOL    HW131307   3.800   0.881  13.779  1.1785  0.1633  1.3491
 6558SOL    HW231308   3.712   0.980  13.741 -2.5609  1.2432  3.8420
 6559SOL     OW31309   4.202   2.928  15.178 -0.5399  0.0572 -0.2441
 6559SOL    HW131310   4.167   2.915  15.090 -0.8387 -3.3497  0.3551
 6559SOL    HW231311   4.291   2.907  15.149  0.0992  1.1389  0.9520
 6560SOL     OW31312   1.398   2.646   9.033  0.2516  0.1371  0.5883
 6560SOL    HW131313   1.392   2.558   9.072 -2.1634  0.1610  0.2593
 6560SOL    HW231314   1.384   2.696   9.113  0.7839  0.4915  0.4544
 6561SOL     OW31315   3.137   0.402   8.410 -0.1174 -0.1189 -0.6219
 6561SOL    HW131316   3.043   0.415   8.398 -0.5680 -1.5316  1.3427
 6561SOL    HW231317   3.132   0.306   8.410 -0.5838 -0.0819  1.5831
 6562SOL     OW31318   3.840   1.522   4.633 -0.2829 -0.2372  0.3196
 6562SOL    HW131319   3.804   1.463   4.699 -0.4270 -1.6801 -1.0570
 6562SOL    HW231320   3.887   1.469   4.569  0.3430 -1.5495  1.8916
 6563SOL     OW31321   2.222   0.552  10.568  0.6119 -0.3407  0.5572
 6563SOL    HW131322   2.128   0.546  10.580  0.6188 -0.9032  0.3415
 6563SOL    HW231323   2.241   0.510  10.651 -1.0055 -2.2281 -0.0505
 6564SOL     OW31324   2.132   3.642   6.750 -0.3071 -0.3319  0.0872
 6564SOL    HW131325   2.040   3.634   6.721 -0.4849  1.9825  0.0336
 6564SOL    HW231326   2.147   3.549   6.766  2.1409  0.1381  0.4951
 6565SOL     OW31327   0.627   1.021   5.609  0.4193  0.0211 -0.1809
 6565SOL    HW131328   0.649   0.949   5.669 -0.5980 -1.2252 -1.3021
 6565SOL    HW231329   0.561   0.977   5.556 -0.6539  0.5852  0.7067
 6566SOL     OW31330   0.505   1.219   7.190  0.0501  0.0767  0.4092
 6566SOL    HW131331   0.580   1.177   7.147  1.1165  0.9336  1.4437
 6566SOL    HW231332   0.531   1.245   7.278  0.3263 -0.6553  0.5434
 6567SOL     OW31333   2.435   0.295  16.919  0.1501 -0.2814 -0.2655
 6567SOL    HW131334   2.470   0.208  16.905  1.6845 -0.0497  2.1051
 6567SOL    HW231335   2.503   0.340  16.971 -0.1947  2.4695 -2.1480
 6568SOL     OW31336   0.318   1.745   1.208  0.6467 -0.3892  0.1508
 6568SOL    HW131337   0.244   1.768   1.153  1.1342  3.6337  1.1727
 6568SOL    HW231338   0.391   1.798   1.175 -1.8134  2.3979 -0.7972
 6569SOL     OW31339   4.290   1.227   9.308 -0.6458  0.4221 -0.0523
 6569SOL    HW131340   4.289   1.308   9.257  6.1802  2.2634  2.6205
 6569SOL    HW231341   4.264   1.253   9.396 -1.5395 -0.8703  0.0544
 6570SOL     OW31342   1.495   0.781   5.627 -0.6377 -0.3546  0.3875
 6570SOL    HW131343   1.466   0.772   5.718 -0.2556  1.8208  0.7098
 6570SOL    HW231344   1.412   0.775   5.580 -0.0428 -1.4279 -0.5306
 6571SOL     OW31345   2.421   1.746   7.780  0.2615 -0.3564 -0.1163
 6571SOL    HW131346   2.501   1.694   7.768 -0.1665 -1.3235  1.1517
 6571SOL    HW231347   2.360   1.673   7.787 -1.1548  0.6806 -1.6535
 6572SOL     OW31348   3.099   3.165   8.560 -0.2680 -0.1703 -0.1626
 6572SOL    HW131349   3.028   3.152   8.624 -0.9342  1.0539 -0.6455
 6572SOL    HW231350   3.167   3.181   8.625 -0.0320 -0.2070 -0.4001
 6573SOL     OW31351   1.893   0.151   9.390  0.0605 -0.0206  0.0365
 6573SOL    HW131352   1.957   0.218   9.413  0.2269  0.0334 -0.5878
 6573SOL    HW231353   1.810   0.182   9.428  0.5521  0.6462  0.5748
 6574SOL     OW31354   2.580   3.061   5.992  0.3737 -0.1664  0.2874
 6574SOL    HW131355   2.573   3.106   5.908  2.5744 -0.2765  0.0465
 6574SOL    HW231356   2.610   2.977   5.959  1.7294  0.3792  0.1014
 6575SOL     OW31357   2.554   1.554   6.316  0.3452 -0.2829  0.1685
 6575SOL    HW131358   2.517   1.502   6.387  0.5722 -0.0409  0.4671
 6575SOL    HW231359   2.642   1.561   6.353  0.6170  0.1538 -0.5606
 6576SOL     OW31360   3.349   4.387  13.100  0.1662  0.7119  0.3802
 6576SOL    HW131361   3.341   4.445  13.024  4.0836  0.3607 -0.3012
 6576SOL    HW231362   3.406   4.315  13.075  0.4365  1.3834 -0.9330
 6577SOL     OW31363   2.283   2.663   2.187 -0.0228 -0.2758 -0.6405
 6577SOL    HW131364   2.241   2.736   2.233  0.1927  1.9144 -3.8534
 6577SOL    HW231365   2.374   2.686   2.208 -0.7685  0.9496  1.2140
 6578SOL     OW31366   4.627   3.675   5.839  0.0627 -0.2448  1.1243
 6578SOL    HW131367   4.597   3.761   5.812 -1.5707 -1.6705 -1.6153
 6578SOL    HW231368   4.565   3.623   5.787  1.0316  0.1059 -0.3748
 6579SOL     OW31369   1.025   3.846   7.098  0.1628  0.3655  0.0647
 6579SOL    HW131370   1.091   3.825   7.164 -0.6923  1.2487  1.1960
 6579SOL    HW231371   1.079   3.830   7.020  0.2581 -3.2974  0.8413
 6580SOL     OW31372   2.830   0.707   9.348 -0.1806  0.1898  0.3970
 6580SOL    HW131373   2.917   0.746   9.360  0.1731 -0.7769  0.9756
 6580SOL    HW231374   2.784   0.778   9.304 -0.9095 -0.4840  0.0836
 6581SOL     OW31375   0.845   2.707  14.113 -0.4554 -0.2231  0.5116
 6581SOL    HW131376   0.786   2.634  14.129  1.9033 -2.5982 -1.7564
 6581SOL    HW231377   0.931   2.666  14.118  0.3472  1.5462  1.2087
 6582SOL     OW31378   4.017   1.782   3.840  0.5037 -0.5003 -0.2930
 6582SOL    HW131379   4.037   1.875   3.854  1.3744 -0.2795 -3.0986
 6582SOL    HW231380   4.067   1.766   3.760  0.0918 -0.9494 -0.4531
 6583SOL     OW31381   0.994   1.181   7.405  0.2679 -0.5157 -0.3702
 6583SOL    HW131382   1.069   1.173   7.464 -0.7623  3.3585  1.5097
 6583SOL    HW231383   1.035   1.144   7.327  0.9106  2.3713 -1.4131
 6584SOL     OW31384   2.145   1.800   2.007  0.5515 -0.1075  0.1767
 6584SOL    HW131385   2.199   1.723   2.026  1.6059  0.2738 -1.2637
 6584SOL    HW231386   2.215   1.862   1.988  0.1071  0.8954  1.8498
 6585SOL     OW31387   3.061   4.597   9.768  0.1367  0.0268 -0.3284
 6585SOL    HW131388   2.999   4.666   9.789 -0.4640  0.0192 -2.1483
 6585SOL    HW231389   3.026   4.582   9.681  3.1565  0.4385 -1.6175
 6586SOL     OW31390   1.243   1.999   1.020 -0.3351  0.4260 -0.8668
 6586SOL    HW131391   1.150   1.977   1.026  0.0381 -1.4479 -1.8398
 6586SOL    HW231392   1.239   2.094   1.032 -2.1070  0.5000 -2.1112
 6587SOL     OW31393   1.759   4.315  16.882  0.9212  0.1642  0.4035
 6587SOL    HW131394   1.793   4.227  16.896  1.6396  0.2419 -0.8230
 6587SOL    HW231395   1.761   4.359  16.967  2.7566 -0.9289  0.9146
 6588SOL     OW31396   4.585   2.094   1.540 -0.3098  0.1937 -0.6396
 6588SOL    HW131397   4.660   2.138   1.500 -2.4383  1.5679 -3.1408
 6588SOL    HW231398   4.583   2.000   1.524 -0.5114  0.5947 -3.0103
 6589SOL     OW31399   3.919   1.733  12.791  0.2255  0.0023  0.0751
 6589SOL    HW131400   3.942   1.728  12.884  0.8838  2.7669  0.0596
 6589SOL    HW231401   3.835   1.686  12.789  0.9965 -1.3510 -0.2094
 6590SOL     OW31402   4.045   0.898  10.241  0.0104 -0.4211  0.0785
 6590SOL    HW131403   4.107   0.853  10.184  4.0498  0.8908  3.4418
 6590SOL    HW231404   4.082   0.876  10.326 -3.3075  0.1119  1.6833
 6591SOL     OW31405   2.495   2.676  14.204  0.0946  0.3347 -0.5324
 6591SOL    HW131406   2.590   2.682  14.213  0.0201  0.8542 -0.0727
 6591SOL    HW231407   2.475   2.694  14.296 -3.1333 -1.0043 -1.0049
 6592SOL     OW31408   1.351   2.705  13.660  0.0337 -0.3382  0.0128
 6592SOL    HW131409   1.299   2.742  13.588  2.2722 -1.1020 -2.0127
 6592SOL    HW231410   1.355   2.779  13.721  1.7207  1.0200 -1.7415
 6593SOL     OW31411   4.278   3.176   2.085 -0.2155 -0.3477 -0.0357
 6593SOL    HW131412   4.353   3.223   2.121  0.3154  0.9747 -2.8046
 6593SOL    HW231413   4.286   3.089   2.122 -1.6043 -0.3841  0.1926
 6594SOL     OW31414   2.549   0.596  16.912 -0.1711  0.2379  0.4390
 6594SOL    HW131415   2.545   0.691  16.905  1.7420  0.2608 -0.3093
 6594SOL    HW231416   2.586   0.571  16.828 -3.7985  0.1253 -1.1055
 6595SOL     OW31417   0.726   3.370   3.851 -0.2956  0.5098  0.4242
 6595SOL    HW131418   0.757   3.440   3.793  3.2464 -2.5280 -1.3414
 6595SOL    HW231419   0.648   3.335   3.807  0.2396 -0.6924  0.4488
 6596SOL     OW31420   1.186   3.194   1.171 -0.0925 -0.0454 -0.4898
 6596SOL    HW131421   1.211   3.129   1.236 -0.6616 -0.0548 -0.2768
 6596SOL    HW231422   1.272   3.233   1.155 -0.7780  1.2977 -0.9003
 6597SOL     OW31423   2.731   4.566   9.747 -0.4908 -0.4816 -1.1064
 6597SOL    HW131424   2.740   4.473   9.729 -0.8189 -0.6442 -0.4038
 6597SOL    HW231425   2.785   4.609   9.680  1.5498 -0.9170  0.2574
 6598SOL     OW31426   1.830   0.653  13.981 -0.2585  0.4866  0.2419
 6598SOL    HW131427   1.919   0.682  13.996 -0.8344  1.9622  0.8002
 6598SOL    HW231428   1.843   0.609  13.897 -0.8521  0.4017  0.1882
 6599SOL     OW31429   2.690   4.523  10.020  1.1527  0.1258  0.2640
 6599SOL    HW131430   2.600   4.506   9.993  1.0061  1.8440 -0.3095
 6599SOL    HW231431   2.727   4.540   9.934  0.4275  1.8984  0.3095
 6600SOL     OW31432   1.934   1.424   3.463  0.8040 -0.7580 -0.0649
 6600SOL    HW131433   1.843   1.411   3.491  0.1876 -1.0772 -2.1991
 6600SOL    HW231434   1.925   1.464   3.377 -1.9385 -0.4936  0.3523
 6601SOL     OW31435   3.323   3.186   8.716  0.2484  0.0314  0.5944
 6601SOL    HW131436   3.351   3.185   8.807 -0.9346 -1.6404  0.9544
 6601SOL    HW231437   3.341   3.278   8.700 -0.6005  0.3493  1.5025
 6602SOL     OW31438   0.379   4.488   3.701 -0.0473  0.0199  0.3544
 6602SOL    HW131439   0.329   4.570   3.700  0.1831  0.1734  0.9650
 6602SOL    HW231440   0.462   4.517   3.738 -0.0518 -1.4307  1.5029
 6603SOL     OW31441   2.503   0.865  16.831 -0.1942  0.6615 -0.5475
 6603SOL    HW131442   2.492   0.888  16.739 -2.0819 -0.2837 -0.5525
 6603SOL    HW231443   2.501   0.951  16.873  0.6555  0.7940 -0.7724
 6604SOL     OW31444   0.813   1.514   3.409 -0.6356  0.6503 -0.1823
 6604SOL    HW131445   0.768   1.564   3.478  1.3651  0.2433  1.4213
 6604SOL    HW231446   0.874   1.584   3.386  0.7795  0.7877  3.9523
 6605SOL     OW31447   1.073   2.732   3.683 -0.2554  0.4682 -0.0790
 6605SOL    HW131448   1.048   2.691   3.766 -0.8940  2.4726  0.7333
 6605SOL    HW231449   1.167   2.714   3.684 -0.4140 -0.3293  0.5171
 6606SOL     OW31450   2.535   2.723  10.950 -0.2570  0.4229  0.5260
 6606SOL    HW131451   2.482   2.801  10.962 -1.9986 -1.2799  3.8191
 6606SOL    HW231452   2.472   2.666  10.907  0.6716  0.1214 -0.4427
 6607SOL     OW31453   0.662   1.595   7.470 -0.2360  0.0779 -0.2483
 6607SOL    HW131454   0.725   1.532   7.433 -0.4035 -0.0931 -0.2436
 6607SOL    HW231455   0.718   1.668   7.497 -1.2185  0.3131  1.1326
 6608SOL     OW31456   2.742   4.734   3.778  0.4917  0.1383  0.0236
 6608SOL    HW131457   2.716   4.647   3.807 -1.7275  0.5905 -0.6026
 6608SOL    HW231458   2.780   4.714   3.692 -0.1263 -0.9329 -0.0062
 6609SOL     OW31459   1.852   2.754   6.263  0.4329  0.9213 -0.7791
 6609SOL    HW131460   1.858   2.660   6.281  0.9583  1.6212  2.7277
 6609SOL    HW231461   1.944   2.766   6.237  0.0713  1.3184 -1.8535
 6610SOL     OW31462   1.968   0.148   4.908  0.2498 -0.4666 -0.4786
 6610SOL    HW131463   2.025   0.168   4.982 -2.7443 -1.0913  1.9694
 6610SOL    HW231464   1.998   0.210   4.842 -2.1975  1.2680  0.0148
 6611SOL     OW31465   1.286   1.411   8.861  0.0785 -0.0337  0.9198
 6611SOL    HW131466   1.266   1.398   8.953 -1.5567  1.8372  0.8324
 6611SOL    HW231467   1.199   1.448   8.846  0.1185 -0.2346  0.1421
 6612SOL     OW31468   3.627   2.866   6.186  0.4262  0.3740 -0.0567
 6612SOL    HW131469   3.716   2.891   6.215  1.3340 -2.3541 -0.5405
 6612SOL    HW231470   3.636   2.875   6.091 -2.9643  0.8292 -0.3077
 6613SOL     OW31471   2.188   0.750  16.629 -0.1668 -0.0792 -0.2073
 6613SOL    HW131472   2.179   0.801  16.710  1.3089 -0.9373  0.4988
 6613SOL    HW231473   2.238   0.674  16.661 -1.9855 -0.6493  1.2750
 6614SOL     OW31474   0.999   2.049   8.643 -0.1325 -0.5302  0.5045
 6614SOL    HW131475   1.058   2.070   8.715  0.6779 -1.3437  0.0696
 6614SOL    HW231476   1.006   2.129   8.591  0.4005  0.0916  1.5155
 6615SOL     OW31477   4.544   0.927   6.683 -0.3648  0.8960  0.0276
 6615SOL    HW131478   4.521   0.916   6.776 -1.6130  2.1970 -0.1157
 6615SOL    HW231479   4.606   0.854   6.682 -0.8377  0.5549 -2.4681
 6616SOL     OW31480   4.613   1.563   4.433 -0.4442 -0.3203 -0.2191
 6616SOL    HW131481   4.557   1.640   4.420  1.2717  0.4211 -3.1682
 6616SOL    HW231482   4.641   1.583   4.522 -1.0590  3.5574 -0.8825
 6617SOL     OW31483   0.317   4.148   7.411  0.8684 -0.4907 -0.5981
 6617SOL    HW131484   0.286   4.076   7.355 -0.6298 -1.6139  1.6790
 6617SOL    HW231485   0.409   4.122   7.420  0.9128  0.1898  0.8498
 6618SOL     OW31486   0.776   3.725  12.236 -0.8480  0.3477  0.0996
 6618SOL    HW131487   0.779   3.793  12.169  2.8646  0.5760  0.5215
 6618SOL    HW231488   0.695   3.680  12.212 -1.0210 -0.7452  2.7425
 6619SOL     OW31489   1.105   4.328   2.424 -0.1877  0.1084  0.1673
 6619SOL    HW131490   1.057   4.253   2.457 -1.6778 -0.1592 -2.6629
 6619SOL    HW231491   1.049   4.341   2.348  2.1917  2.3043 -1.2296
 6620SOL     OW31492   1.475   1.892  17.729 -0.2472 -0.1183 -0.4375
 6620SOL    HW131493   1.538   1.882   0.058  1.2278 -1.8153 -1.9787
 6620SOL    HW231494   1.410   1.934   0.042 -0.2210 -0.6518  0.0010
 6621SOL     OW31495   0.767   3.751   5.052 -0.3532 -0.1117 -0.1171
 6621SOL    HW131496   0.812   3.827   5.090  0.9429 -0.8693 -0.1285
 6621SOL    HW231497   0.840   3.693   5.034  0.0657  0.7500 -1.1986
 6622SOL     OW31498   3.999   0.291   2.738 -0.2364 -0.3082  0.5681
 6622SOL    HW131499   4.080   0.341   2.743 -0.1768 -0.4141  0.6759
 6622SOL    HW231500   4.009   0.225   2.807  1.2071  0.7045  1.3135
 6623SOL     OW31501   4.472   2.700   8.107 -0.0556 -0.1890  0.7305
 6623SOL    HW131502   4.521   2.628   8.148  0.0536 -0.0494  0.8446
 6623SOL    HW231503   4.412   2.728   8.176  0.3645 -0.3227  1.1545
 6624SOL     OW31504   4.442   0.438   9.279 -0.4350  0.2917 -0.8589
 6624SOL    HW131505   4.372   0.381   9.311 -0.1699 -0.2906 -1.3142
 6624SOL    HW231506   4.478   0.474   9.359  2.2238 -0.7709 -1.5734
 6625SOL     OW31507   0.930   3.199   0.432  0.7865  0.5695  0.5148
 6625SOL    HW131508   0.972   3.183   0.517 -1.5656  0.1377  1.6102
 6625SOL    HW231509   0.978   3.269   0.388  2.3756  0.4664  2.0714
 6626SOL     OW31510   3.067   3.350   8.320  0.1231  1.0495  0.2338
 6626SOL    HW131511   2.995   3.361   8.258  1.1524  1.8146 -0.8174
 6626SOL    HW231512   3.056   3.262   8.357  0.9659  0.2041 -1.5108
 6627SOL     OW31513   1.123   3.070   0.683  0.4376 -0.0819  0.4668
 6627SOL    HW131514   1.162   3.157   0.684 -1.0618  0.5980  1.3540
 6627SOL    HW231515   1.148   3.030   0.766  0.8652 -1.1912 -0.2039
 6628SOL     OW31516   1.305   0.135   7.396  0.1659  0.1712 -0.5196
 6628SOL    HW131517   1.344   0.051   7.419  1.5737  0.3960 -2.0550
 6628SOL    HW231518   1.381   0.192   7.383  1.0296 -0.3111  2.5262
 6629SOL     OW31519   1.280   3.057  12.912  0.0112  0.1149 -0.0135
 6629SOL    HW131520   1.357   3.106  12.939  0.9033  0.2431 -2.7368
 6629SOL    HW231521   1.282   2.989  12.979 -1.8457 -2.5450 -2.6523
 6630SOL     OW31522   1.918   2.940   5.481  0.3153  0.4954  0.2441
 6630SOL    HW131523   1.977   2.915   5.552  0.1335 -1.6989 -0.3789
 6630SOL    HW231524   1.831   2.931   5.521  0.6044 -0.5558  0.6501
 6631SOL     OW31525   4.531   0.156   3.773  0.3894 -0.2190  0.6817
 6631SOL    HW131526   4.453   0.117   3.731  0.7336 -0.9735  0.7381
 6631SOL    HW231527   4.516   0.123   3.862  0.2366 -0.2757  0.6350
 6632SOL     OW31528   2.678   2.576   2.794  0.3097  0.5455  0.4561
 6632SOL    HW131529   2.744   2.521   2.751  1.0640  1.9393 -0.1717
 6632SOL    HW231530   2.740   2.624   2.849  0.4505  3.4617 -2.2417
 6633SOL     OW31531   3.680   2.215   4.969 -0.3324  0.0556 -0.2800
 6633SOL    HW131532   3.665   2.205   4.875 -2.0511  1.3641 -0.1417
 6633SOL    HW231533   3.718   2.302   4.959 -1.4914  0.7277  1.1469
 6634SOL     OW31534   3.845   2.847  11.272 -0.2523 -0.1735  0.1832
 6634SOL    HW131535   3.889   2.776  11.318 -0.8575 -0.4641  0.3100
 6634SOL    HW231536   3.850   2.911  11.343 -3.0592  0.4997 -0.2063
 6635SOL     OW31537   1.625   3.310  13.250  0.3477 -0.4287  0.0278
 6635SOL    HW131538   1.715   3.342  13.250 -0.0550  0.6774  0.4754
 6635SOL    HW231539   1.573   3.387  13.272  1.3535  0.3365 -0.2556
 6636SOL     OW31540   0.080   4.473   2.634 -0.4611  0.5600 -0.2060
 6636SOL    HW131541   0.141   4.546   2.639  2.7369 -1.8827 -3.7208
 6636SOL    HW231542   0.018   4.501   2.701 -0.9716  1.6471 -1.1337
 6637SOL     OW31543   2.813   2.679   6.679 -0.5799 -0.2797 -0.2303
 6637SOL    HW131544   2.891   2.680   6.624 -0.2336 -2.0207  0.2265
 6637SOL    HW231545   2.737   2.652   6.627 -0.1061 -0.2317 -0.9365
 6638SOL     OW31546   0.990   0.323   2.361  0.2196 -0.4944 -0.2040
 6638SOL    HW131547   0.993   0.415   2.335  1.0325 -0.5012 -0.1307
 6638SOL    HW231548   0.896   0.322   2.384 -0.3181  0.8374 -2.3244
 6639SOL     OW31549   1.745   2.909   2.080 -0.6026 -0.0323 -0.2413
 6639SOL    HW131550   1.769   2.964   2.005  0.1661 -2.0371 -1.4665
 6639SOL    HW231551   1.838   2.887   2.093  0.3319  3.0430 -1.7063
 6640SOL     OW31552   4.591   0.872   5.026  0.1779  0.4367  0.7240
 6640SOL    HW131553   4.547   0.810   4.968  1.2777  0.2734  0.0602
 6640SOL    HW231554   4.598   0.951   4.972 -0.4449 -0.1523 -0.2136
 6641SOL     OW31555   2.667   0.239   3.512 -0.5336 -0.0108 -0.5739
 6641SOL    HW131556   2.699   0.302   3.577  0.7322 -0.1590 -1.0436
 6641SOL    HW231557   2.603   0.293   3.465 -0.6298  1.2178  0.9789
 6642SOL     OW31558   3.510   0.126  14.305 -0.0936 -0.0235  0.2965
 6642SOL    HW131559   3.588   0.181  14.315 -0.0439 -0.4939  2.5285
 6642SOL    HW231560   3.536   0.051  14.359  1.1117 -1.0186 -1.6475
 6643SOL     OW31561   2.252   1.075  12.241 -0.1331 -0.2529  0.3007
 6643SOL    HW131562   2.265   0.981  12.248  0.2742 -0.2984 -1.1309
 6643SOL    HW231563   2.228   1.094  12.150 -0.3215  1.3258  0.6690
 6644SOL     OW31564   0.920   3.193   1.324 -0.2029  0.3098 -0.1874
 6644SOL    HW131565   0.895   3.275   1.281  0.9899  1.9453  2.2534
 6644SOL    HW231566   0.992   3.174   1.263 -1.7068 -2.0607 -1.2343
 6645SOL     OW31567   4.734   3.532  11.913  0.2507  0.1068 -0.0803
 6645SOL    HW131568   4.642   3.543  11.938  0.0408 -0.8973 -0.3987
 6645SOL    HW231569   4.716   3.503  11.824  2.4098 -2.7227  0.3690
 6646SOL     OW31570   0.984   1.670   7.802  0.1030  0.0681  0.2058
 6646SOL    HW131571   1.066   1.699   7.763 -0.3944 -0.8947 -1.5403
 6646SOL    HW231572   1.024   1.620   7.873  0.1409  0.3251  0.3662
 6647SOL     OW31573   1.507   1.427   9.885 -0.3947 -0.1474  0.4189
 6647SOL    HW131574   1.551   1.346   9.908  2.4423  1.5898  1.1160
 6647SOL    HW231575   1.457   1.438   9.966 -1.2796 -0.6543 -0.0504
 6648SOL     OW31576   4.369   2.037   2.175  0.2915  0.7942  0.3614
 6648SOL    HW131577   4.314   2.021   2.098  1.5663  0.4102 -0.4589
 6648SOL    HW231578   4.390   1.947   2.197 -3.4564 -0.1674 -0.0235
 6649SOL     OW31579   3.767   2.230   0.764  0.2457 -0.6135 -0.2303
 6649SOL    HW131580   3.807   2.314   0.784 -0.5787 -0.2872  0.0156
 6649SOL    HW231581   3.787   2.233   0.671 -1.7497 -1.4413 -0.6787
 6650SOL     OW31582   3.813   1.339   5.729 -0.0715  1.0817 -0.7492
 6650SOL    HW131583   3.828   1.430   5.756  0.3887  0.3905  1.3340
 6650SOL    HW231584   3.904   1.310   5.722 -0.1579  0.1715  1.8570
 6651SOL     OW31585   4.376   3.068   3.561  0.5598  0.2319 -0.0591
 6651SOL    HW131586   4.357   3.140   3.500 -2.7978 -0.3009  0.3725
 6651SOL    HW231587   4.387   2.996   3.499 -2.0244  0.7972 -1.1552
 6652SOL     OW31588   2.720   1.442   3.146  0.2871 -0.0845  0.3602
 6652SOL    HW131589   2.794   1.383   3.134 -0.7484 -1.3159  0.0334
 6652SOL    HW231590   2.655   1.379   3.176 -1.0693  1.9354  1.6762
 6653SOL     OW31591   0.299   3.019   5.216  0.4419 -0.0594 -0.0329
 6653SOL    HW131592   0.331   3.096   5.170  1.8985 -0.2868  0.5659
 6653SOL    HW231593   0.368   2.962   5.182  0.2427 -1.9700  2.7928
 6654SOL     OW31594   0.072   3.543  16.348 -0.2009  0.4607  0.5348
 6654SOL    HW131595   0.154   3.536  16.298  0.0529 -1.5298  1.2439
 6654SOL    HW231596   0.081   3.627  16.393  1.3072  1.5459 -1.7974
 6655SOL     OW31597   0.566   1.581   5.895 -0.3380  0.0303 -0.3451
 6655SOL    HW131598   0.646   1.622   5.863  0.8078 -0.7286  1.5187
 6655SOL    HW231599   0.583   1.489   5.875  0.8016  0.2866 -0.5494
 6656SOL     OW31600   1.841   3.834   5.451  0.0659 -0.3478  0.0045
 6656SOL    HW131601   1.927   3.859   5.485 -0.1151 -0.0610  0.2497
 6656SOL    HW231602   1.864   3.745   5.424  0.0373 -0.0874 -0.8880
 6657SOL     OW31603   3.311   1.862   5.226 -0.0114  0.5247  0.3160
 6657SOL    HW131604   3.229   1.900   5.192  0.6035 -0.0399 -1.7945
 6657SOL    HW231605   3.381   1.921   5.200  0.6510  1.0780  3.4319
 6658SOL     OW31606   0.567   2.986  17.569  0.1133  0.0781  0.6547
 6658SOL    HW131607   0.657   3.017  17.554  0.6959 -1.7204  0.4601
 6658SOL    HW231608   0.580   2.924  17.640 -0.0282 -0.3008  0.3465
 6659SOL     OW31609   0.359   3.862   1.678 -0.3231 -0.1238 -0.9467
 6659SOL    HW131610   0.413   3.794   1.638 -0.6604 -1.7190  1.2644
 6659SOL    HW231611   0.275   3.840   1.638 -0.8453  1.3688 -0.6626
 6660SOL     OW31612   1.820   4.190   2.300  0.3574 -0.8780 -0.6590
 6660SOL    HW131613   1.837   4.284   2.298 -1.8509 -0.4991 -0.8503
 6660SOL    HW231614   1.774   4.177   2.218  0.9832 -0.1580 -1.1238
 6661SOL     OW31615   0.101   0.479  16.895  0.4320 -0.4688  0.1105
 6661SOL    HW131616   0.117   0.426  16.973 -4.3804  1.1758  2.1871
 6661SOL    HW231617   0.013   0.509  16.915  0.4964 -0.4378  0.3469
 6662SOL     OW31618   3.711   0.108   2.517 -0.2527 -0.2198  0.2155
 6662SOL    HW131619   3.745   0.026   2.552 -0.6255 -0.9596 -1.1611
 6662SOL    HW231620   3.786   0.165   2.500  0.4000 -0.8259  1.1088
 6663SOL     OW31621   0.423   4.481   0.436  0.2659  0.3303  0.0115
 6663SOL    HW131622   0.423   4.555   0.497 -1.6880 -0.1175  0.5577
 6663SOL    HW231623   0.341   4.491   0.387  0.6041  1.0961 -0.3924
 6664SOL     OW31624   2.538   3.593   4.323  0.5102 -0.3962 -0.7445
 6664SOL    HW131625   2.501   3.521   4.375 -0.0253  1.5716  1.5716
 6664SOL    HW231626   2.459   3.647   4.325  0.2340 -0.8182 -0.3882
 6665SOL     OW31627   1.539   0.192   0.700 -0.4516 -0.2814  0.4578
 6665SOL    HW131628   1.483   0.173   0.625 -0.5226  0.6196  0.2759
 6665SOL    HW231629   1.618   0.144   0.675  0.9145  1.9643  0.4723
 6666SOL     OW31630   0.079   3.705  17.511 -0.3041  0.1085  0.1620
 6666SOL    HW131631   4.721   3.697  17.530 -0.5717  4.0964  0.5895
 6666SOL    HW231632   0.110   3.723  17.600  2.1816 -1.3063 -0.4369
 6667SOL     OW31633   4.464   3.402  13.147 -0.0640  0.0289  0.2733
 6667SOL    HW131634   4.475   3.396  13.052  0.2796  0.8381  0.2566
 6667SOL    HW231635   4.430   3.488  13.172  0.5295  0.6772 -1.1360
 6668SOL     OW31636   4.389   4.054   1.387  0.8346  0.8078 -0.0588
 6668SOL    HW131637   4.316   4.039   1.327 -1.3036 -1.6559  3.1599
 6668SOL    HW231638   4.438   4.129   1.353 -0.2370  1.7066  0.3789
 6669SOL     OW31639   1.812   0.091   6.634 -0.2571 -0.1070  0.3819
 6669SOL    HW131640   1.899   0.056   6.656 -0.5259 -2.1007 -1.6836
 6669SOL    HW231641   1.789   0.145   6.709  0.3643  0.8393 -0.1084
 6670SOL     OW31642   0.484   1.148   5.099 -0.1861  0.5157  0.7098
 6670SOL    HW131643   0.461   1.057   5.121 -0.9533  0.5879  0.2305
 6670SOL    HW231644   0.527   1.170   5.182  2.1707  2.5711 -1.0817
 6671SOL     OW31645   1.481   3.566   0.216 -0.9021  0.2041 -0.1975
 6671SOL    HW131646   1.462   3.650   0.175 -4.0484 -0.1144  0.5673
 6671SOL    HW231647   1.518   3.521   0.140 -0.1434 -1.0001  0.8790
 6672SOL     OW31648   2.131   4.174   5.730  0.5602  0.2398  0.0826
 6672SOL    HW131649   2.063   4.124   5.773  0.8685 -1.6031 -1.5521
 6672SOL    HW231650   2.183   4.217   5.798  0.2374 -1.1269  1.1970
 6673SOL     OW31651   0.017   3.386   3.800 -0.0406  0.5600 -0.5862
 6673SOL    HW131652   0.013   3.333   3.879 -1.9272 -0.2026 -1.2065
 6673SOL    HW231653   4.658   3.385   3.793 -0.1106 -0.8706  0.5088
 6674SOL     OW31654   3.504   4.251   3.858  0.0232 -0.1454  0.3372
 6674SOL    HW131655   3.537   4.340   3.871  1.0353 -0.7365  1.8437
 6674SOL    HW231656   3.500   4.240   3.763  0.1457  0.1860  0.2965
 6675SOL     OW31657   0.339   1.620   5.517 -0.3263 -0.2239  0.1767
 6675SOL    HW131658   0.407   1.557   5.494 -2.0799 -1.5843 -1.3247
 6675SOL    HW231659   0.287   1.628   5.437  0.4063 -0.2106 -0.2878
 6676SOL     OW31660   1.308   2.399   5.934  0.3419 -0.0409  0.1503
 6676SOL    HW131661   1.344   2.487   5.924  1.7153 -0.6968 -0.6428
 6676SOL    HW231662   1.221   2.424   5.965  0.7632 -0.9263  2.0753
 6677SOL     OW31663   0.001   3.320  16.226  0.0674 -0.1493  0.5250
 6677SOL    HW131664   0.063   3.344  16.156 -0.6473 -1.3035 -0.4972
 6677SOL    HW231665   0.012   3.394  16.286  2.8230  0.0193 -0.2013
 6678SOL     OW31666   4.302   2.016   2.711 -0.1424  0.3847 -0.4559
 6678SOL    HW131667   4.257   1.982   2.788 -0.6566  1.3798 -0.3159
 6678SOL    HW231668   4.228   2.007   2.651 -0.8190  1.8837  0.1470
 6679SOL     OW31669   3.519   1.672   7.904 -0.2993 -0.6371 -0.2903
 6679SOL    HW131670   3.471   1.591   7.917 -0.4191 -0.5617 -0.2677
 6679SOL    HW231671   3.582   1.665   7.976 -1.0134 -0.3215  0.3653
 6680SOL     OW31672   2.736   0.369   3.106  0.1639 -0.2698 -0.0881
 6680SOL    HW131673   2.822   0.348   3.071  0.2638 -0.1312  0.0725
 6680SOL    HW231674   2.747   0.464   3.106  2.6188 -0.5562  0.3355
 6681SOL     OW31675   1.779   0.452   3.589  0.0096  0.1225  0.4992
 6681SOL    HW131676   1.737   0.370   3.614 -2.7254  1.2782 -0.2473
 6681SOL    HW231677   1.716   0.476   3.521  1.8608  0.9743 -0.9193
 6682SOL     OW31678   1.447   1.532  13.931  0.4859 -0.6736  0.4733
 6682SOL    HW131679   1.481   1.534  14.021  0.5557 -1.2539  0.4602
 6682SOL    HW231680   1.514   1.484  13.881  2.6869  0.7401  2.0287
 6683SOL     OW31681   4.346   3.296   6.753  0.5430 -0.8643  0.0520
 6683SOL    HW131682   4.289   3.333   6.821  0.0259  1.1280 -1.4521
 6683SOL    HW231683   4.299   3.218   6.723 -0.6258  1.1816 -3.5754
 6684SOL     OW31684   2.816   1.012  16.931 -0.2561 -0.3316 -0.2043
 6684SOL    HW131685   2.805   1.063  16.851 -2.5558  0.7004  0.7710
 6684SOL    HW231686   2.845   1.085  16.985  0.9357 -1.5907  0.8507
 6685SOL     OW31687   2.994   0.510   1.986  0.0596  0.6748 -0.9057
 6685SOL    HW131688   2.921   0.449   1.992  0.8941 -0.3179 -0.8425
 6685SOL    HW231689   3.043   0.479   1.909  3.5148  0.1238  1.4840
 6686SOL     OW31690   2.456   2.768  11.236 -0.7178  0.1621  0.1657
 6686SOL    HW131691   2.434   2.676  11.223 -0.2995  0.1938 -0.7920
 6686SOL    HW231692   2.432   2.818  11.158 -4.6047 -1.0292  0.5853
 6687SOL     OW31693   2.177   3.561   5.534  0.1101 -0.3070  0.5958
 6687SOL    HW131694   2.203   3.471   5.552 -1.0305 -0.9647 -0.9628
 6687SOL    HW231695   2.119   3.541   5.460 -0.9308  1.4768  0.9086
 6688SOL     OW31696   3.284   2.319   3.575 -0.2912  0.3049 -0.0639
 6688SOL    HW131697   3.348   2.265   3.526 -0.2189  1.5136 -1.3038
 6688SOL    HW231698   3.216   2.254   3.591  2.5617 -2.5940  0.4913
 6689SOL     OW31699   3.870   3.689   2.329  0.0637 -0.0161 -0.2861
 6689SOL    HW131700   3.914   3.604   2.323 -0.9632 -0.6350  0.9220
 6689SOL    HW231701   3.792   3.676   2.275  2.5218 -0.8187 -3.6553
 6690SOL     OW31702   0.329   3.731  11.904 -0.1888 -0.2481 -0.4071
 6690SOL    HW131703   0.249   3.763  11.862 -0.3456 -1.6460 -1.1566
 6690SOL    HW231704   0.310   3.649  11.950 -1.2838  1.6210  2.4865
 6691SOL     OW31705   1.846   4.163  10.790  0.5483 -0.3538  0.2311
 6691SOL    HW131706   1.901   4.137  10.716  0.7921 -1.8361  0.9568
 6691SOL    HW231707   1.826   4.252  10.760 -0.6032 -0.4638  0.6660
 6692SOL     OW31708   0.524   1.658   6.795  0.4127  0.0251 -0.0330
 6692SOL    HW131709   0.606   1.608   6.790 -0.8098 -1.9758 -0.1546
 6692SOL    HW231710   0.548   1.744   6.830  0.4788  0.5718 -1.3886
 6693SOL     OW31711   4.144   2.556   0.560  0.4211 -0.0194  0.1914
 6693SOL    HW131712   4.158   2.484   0.499  1.9073 -0.8146  1.4572
 6693SOL    HW231713   4.152   2.506   0.641 -1.2807 -0.1728  0.2724
 6694SOL     OW31714   3.788   3.634  11.763 -0.3545  0.0321  0.3099
 6694SOL    HW131715   3.785   3.725  11.793  0.6887 -0.0981  0.7841
 6694SOL    HW231716   3.799   3.593  11.849  1.4880  0.0782  0.0859
 6695SOL     OW31717   0.924   0.392  16.982 -0.3145 -0.2534  0.4857
 6695SOL    HW131718   0.879   0.330  17.040 -1.2437 -1.1703 -1.2072
 6695SOL    HW231719   1.010   0.351  16.975 -0.9857 -1.9176  1.8332
 6696SOL     OW31720   1.926   3.438   3.935 -0.2502 -0.2280  0.1267
 6696SOL    HW131721   1.982   3.515   3.919 -0.1043 -0.2853  0.3650
 6696SOL    HW231722   1.931   3.421   4.029  0.6013 -1.0218 -0.0590
 6697SOL     OW31723   0.508   2.648   7.974  0.4102  0.7107 -0.1901
 6697SOL    HW131724   0.562   2.656   7.895  1.8644  3.4617  1.0939
 6697SOL    HW231725   0.426   2.678   7.937  1.0642  1.0907 -1.3352
 6698SOL     OW31726   1.805   1.176   9.522  0.1941 -0.2385  0.4588
 6698SOL    HW131727   1.799   1.243   9.454 -1.7116 -2.2722 -1.3352
 6698SOL    HW231728   1.853   1.226   9.589  1.6109 -1.7427  0.5672
 6699SOL     OW31729   4.266   1.577   8.785  0.8987  0.4701 -0.2113
 6699SOL    HW131730   4.253   1.489   8.819 -1.8371  2.2541  3.3842
 6699SOL    HW231731   4.359   1.595   8.804  0.3155  0.7003  2.4726
 6700SOL     OW31732   3.761   2.260   5.944  0.0543 -0.3745  0.8520
 6700SOL    HW131733   3.673   2.224   5.949 -1.3212  2.8024 -0.0698
 6700SOL    HW231734   3.746   2.342   5.992  0.8396  0.8303 -0.9426
 6701SOL     OW31735   4.593   3.367   7.877  0.2084 -0.1171  0.2237
 6701SOL    HW131736   4.585   3.345   7.784  2.9668 -0.6173  0.1002
 6701SOL    HW231737   4.627   3.285   7.911 -1.3350  0.1585  2.4001
 6702SOL     OW31738   3.022   2.725   6.494  0.0049 -0.4095 -0.1383
 6702SOL    HW131739   3.008   2.684   6.408  3.4893  0.4663 -1.1028
 6702SOL    HW231740   3.099   2.682   6.531  0.8141  1.8634  0.7962
 6703SOL     OW31741   4.170   3.379   3.100  0.0853  0.1243 -0.2108
 6703SOL    HW131742   4.176   3.379   3.195  3.8714 -0.7517 -0.4622
 6703SOL    HW231743   4.095   3.438   3.090 -1.8380 -1.8396  2.9416
 6704SOL     OW31744   3.977   4.156   1.914 -0.0534  0.0232  0.6646
 6704SOL    HW131745   3.891   4.193   1.934 -2.1270 -3.3276 -1.9554
 6704SOL    HW231746   3.961   4.063   1.929  2.5302 -0.1638  2.0879
 6705SOL     OW31747   0.821   1.674   5.888 -0.2805  0.0279  0.4049
 6705SOL    HW131748   0.816   1.740   5.957 -0.4422  1.0872 -0.6198
 6705SOL    HW231749   0.909   1.699   5.860 -0.6165  2.9631  1.9526
 6706SOL     OW31750   1.342   1.116   3.928 -0.2699 -0.3610  0.5900
 6706SOL    HW131751   1.431   1.111   3.963  1.4044  2.5854 -3.2083
 6706SOL    HW231752   1.335   1.029   3.888  0.2192  1.0080 -2.5475
 6707SOL     OW31753   4.595   0.492   4.447  0.1034 -0.8176  0.5855
 6707SOL    HW131754   4.575   0.482   4.354  1.8258 -3.4300  0.4949
 6707SOL    HW231755   4.617   0.585   4.441 -0.1878 -0.6977  1.4490
 6708SOL     OW31756   0.957   1.960   5.201 -0.6080 -0.0345 -0.0165
 6708SOL    HW131757   0.873   1.974   5.158 -1.1577 -3.5179 -0.1271
 6708SOL    HW231758   0.941   1.884   5.258  0.7678 -1.3566 -1.3850
 6709SOL     OW31759   0.520   2.259   1.358 -0.0139 -0.2137  0.4936
 6709SOL    HW131760   0.507   2.179   1.307  2.4211 -1.2152  1.4600
 6709SOL    HW231761   0.521   2.227   1.448 -2.4293  0.7589  0.8843
 6710SOL     OW31762   1.638   4.190   0.739 -0.6126  0.4174  0.2814
 6710SOL    HW131763   1.725   4.173   0.703 -1.5193 -1.0817 -1.1768
 6710SOL    HW231764   1.647   4.213   0.832  2.5268  0.0608  0.0620
 6711SOL     OW31765   3.936   3.256   1.407  0.3785 -0.2615 -0.7120
 6711SOL    HW131766   4.000   3.245   1.337  1.4094 -0.8572  0.3222
 6711SOL    HW231767   3.879   3.320   1.364  0.3089  0.8743  1.0514
 6712SOL     OW31768   2.656   1.961   8.018 -0.0303  0.1384 -0.1641
 6712SOL    HW131769   2.733   1.978   7.963 -1.7129  1.0399 -2.2658
 6712SOL    HW231770   2.701   1.912   8.087  1.0150 -0.0888 -1.0119
 6713SOL     OW31771   2.281   4.442   2.022 -0.0465  0.1954  0.2746
 6713SOL    HW131772   2.200   4.491   2.016  0.3188  1.1563  3.4486
 6713SOL    HW231773   2.307   4.449   1.930 -0.2059  0.8276  0.2799
 6714SOL     OW31774   2.230   2.335   0.726  0.2363  0.7239  0.2202
 6714SOL    HW131775   2.159   2.275   0.752  0.4886  0.1116 -0.5228
 6714SOL    HW231776   2.219   2.339   0.631 -0.1797  2.1826  0.3232
 6715SOL     OW31777   1.285   1.888   8.893 -0.1677 -0.5031 -0.2866
 6715SOL    HW131778   1.198   1.860   8.920 -0.0921 -0.9156 -0.4796
 6715SOL    HW231779   1.343   1.815   8.915  0.3629  0.3371  1.1369
 6716SOL     OW31780   1.803   1.583   2.804  0.8240  0.6996 -0.2374
 6716SOL    HW131781   1.857   1.624   2.872  1.0492 -1.4222  0.8934
 6716SOL    HW231782   1.869   1.521   2.772  1.0060  1.5649 -1.5066
 6717SOL     OW31783   3.489   0.285   3.439  0.0427  0.0579 -0.0376
 6717SOL    HW131784   3.496   0.376   3.468  0.2213 -0.1837  0.6668
 6717SOL    HW231785   3.562   0.248   3.489  1.2948 -0.3999 -2.2184
 6718SOL     OW31786   3.599   2.187   9.373  0.2207 -0.3761 -0.2692
 6718SOL    HW131787   3.584   2.112   9.316 -0.5981 -1.2718  1.1399
 6718SOL    HW231788   3.688   2.210   9.344  1.1117 -1.9657  1.2498
 6719SOL     OW31789   2.831   4.610   3.477  0.1659 -0.7299  0.2887
 6719SOL    HW131790   2.750   4.598   3.428 -0.2361  1.7536  0.3343
 6719SOL    HW231791   2.868   4.683   3.427 -0.1678 -1.2364 -0.6997
 6720SOL     OW31792   4.494   3.803  12.668 -0.2638  0.4199 -0.3844
 6720SOL    HW131793   4.412   3.826  12.713  0.5411  0.3202  1.1242
 6720SOL    HW231794   4.459   3.740  12.605 -0.0091 -1.1492  1.0690
 6721SOL     OW31795   0.907   2.361  12.119  0.4347  0.1530  0.1607
 6721SOL    HW131796   0.910   2.363  12.215  2.3416  0.6330  0.0818
 6721SOL    HW231797   0.990   2.401  12.095  2.4411 -2.1854  3.3143
 6722SOL     OW31798   2.785   2.399   3.761  0.4025  0.3032 -0.3071
 6722SOL    HW131799   2.764   2.398   3.855  0.6470  1.0164 -0.2437
 6722SOL    HW231800   2.726   2.463   3.720 -0.1389  0.7935  1.2352
 6723SOL     OW31801   2.314   3.259   1.431  0.5139  0.0816 -0.7926
 6723SOL    HW131802   2.381   3.229   1.492  2.3533 -1.4884 -3.6012
 6723SOL    HW231803   2.358   3.231   1.351 -0.1228 -2.0920 -0.3801
 6724SOL     OW31804   1.977   1.113   6.493 -0.0060  0.6591 -0.1921
 6724SOL    HW131805   1.910   1.094   6.428  1.9191 -0.4955 -1.8727
 6724SOL    HW231806   1.945   1.065   6.569 -0.2193  1.5051  0.2524
 6725SOL     OW31807   2.523   0.860   5.824 -0.0858  0.1464  0.1987
 6725SOL    HW131808   2.496   0.951   5.832 -2.4500 -0.6571  1.3987
 6725SOL    HW231809   2.535   0.831   5.915 -0.9144 -2.0905 -0.3846
 6726SOL     OW31810   0.948   4.674   8.520  0.1919 -0.1303  0.4066
 6726SOL    HW131811   0.982   4.702   8.606  1.0412  1.8239 -0.5757
 6726SOL    HW231812   0.992   0.001   8.464 -1.4035  1.6930  1.1957
 6727SOL     OW31813   2.323   4.272   2.869 -0.2731 -0.2050  0.0491
 6727SOL    HW131814   2.296   4.226   2.789 -1.8414 -0.2642  0.6169
 6727SOL    HW231815   2.253   4.336   2.870 -0.8952 -0.8273 -2.2933
 6728SOL     OW31816   0.509   3.516   7.672  0.3880  0.9492 -0.1113
 6728SOL    HW131817   0.508   3.612   7.675  1.0206  0.9218  1.4690
 6728SOL    HW231818   0.418   3.497   7.650  0.8514 -1.7297  0.2287
 6729SOL     OW31819   0.962   0.656   2.648  0.0078  0.2531 -0.2043
 6729SOL    HW131820   0.966   0.563   2.626  1.1355 -0.0833  1.4165
 6729SOL    HW231821   0.917   0.652   2.733  1.6510  3.2934  0.8230
 6730SOL     OW31822   1.614   3.248   7.126 -0.3209  0.1489  0.0326
 6730SOL    HW131823   1.559   3.175   7.099  1.3049 -1.1366  0.1301
 6730SOL    HW231824   1.616   3.300   7.046  0.6008  0.0268 -0.0321
 6731SOL     OW31825   4.079   3.688   8.482  0.3668  0.3650  0.1044
 6731SOL    HW131826   4.039   3.706   8.567 -0.9674  1.4538 -0.7616
 6731SOL    HW231827   4.035   3.752   8.426  1.5547  1.1830  0.0934
 6732SOL     OW31828   2.774   1.321   3.499  0.2122  0.3963  0.5281
 6732SOL    HW131829   2.697   1.366   3.534 -1.9252 -1.4788 -1.7175
 6732SOL    HW231830   2.728   1.259   3.443  0.8161  0.7472 -0.3566
 6733SOL     OW31831   1.796   0.564   6.718  0.0949 -0.1706  0.1941
 6733SOL    HW131832   1.773   0.644   6.671 -2.1046 -0.9816 -0.1331
 6733SOL    HW231833   1.887   0.574   6.746  0.5431 -1.1266 -0.8856
 6734SOL     OW31834   0.907   1.765   4.929  0.0045  0.3193  0.1084
 6734SOL    HW131835   0.925   1.673   4.950 -1.0770 -0.1565 -1.0483
 6734SOL    HW231836   0.978   1.806   4.978 -0.8266  0.2177  1.4215
 6735SOL     OW31837   3.369   1.322   3.437  0.1654 -0.0037  0.6891
 6735SOL    HW131838   3.376   1.416   3.456  0.0556  0.1454 -0.0044
 6735SOL    HW231839   3.444   1.283   3.482  0.1522 -0.0952  0.6314
 6736SOL     OW31840   1.982   2.343  11.786 -0.7762 -0.6685 -0.4387
 6736SOL    HW131841   1.924   2.365  11.859 -0.3818 -0.9411 -0.0426
 6736SOL    HW231842   2.014   2.255  11.808  0.7321 -0.5448 -2.1341
 6737SOL     OW31843   1.745   0.709  15.102 -0.0903 -0.6753  0.2485
 6737SOL    HW131844   1.693   0.698  15.022  2.4506 -0.1819 -1.4664
 6737SOL    HW231845   1.811   0.641  15.099 -0.8482 -1.4333  0.8166
 6738SOL     OW31846   4.037   1.105   7.361 -0.3758 -0.2784 -0.0789
 6738SOL    HW131847   4.097   1.170   7.397  0.1774 -0.3940 -0.7851
 6738SOL    HW231848   4.070   1.030   7.409  2.3685  1.5274  0.8615
 6739SOL     OW31849   3.172   2.103   2.990 -0.4565  0.0246  0.0317
 6739SOL    HW131850   3.160   2.193   3.019  0.6664  0.3990 -0.6606
 6739SOL    HW231851   3.267   2.096   2.988 -0.4370  1.2769 -4.0429
 6740SOL     OW31852   3.804   3.142   4.305 -0.4044 -0.7353 -0.1515
 6740SOL    HW131853   3.743   3.073   4.276 -1.8832 -0.0699  1.3198
 6740SOL    HW231854   3.743   3.214   4.288 -1.1260 -1.1526  0.6129
 6741SOL     OW31855   0.448   1.452   4.334  0.1017 -0.1317  0.0117
 6741SOL    HW131856   0.461   1.473   4.426 -0.8976 -0.6587  0.2621
 6741SOL    HW231857   0.375   1.510   4.316  1.6339  1.6985 -0.3423
 6742SOL     OW31858   1.304   2.050   0.137 -0.0331  0.4770  0.1545
 6742SOL    HW131859   1.263   2.121   0.086  2.0999  3.8623  3.1626
 6742SOL    HW231860   1.229   2.002   0.172  2.3472 -2.8307  0.7145
 6743SOL     OW31861   0.357   4.317   7.011 -0.3644 -0.4176  0.2018
 6743SOL    HW131862   0.409   4.253   6.963 -1.9151 -2.0103  0.6616
 6743SOL    HW231863   0.313   4.364   6.940 -0.4750 -0.0052  0.5385
 6744SOL     OW31864   0.050   4.255   1.290  0.0724  0.1474  0.2433
 6744SOL    HW131865   4.708   4.240   1.237  0.2600  1.2672 -0.3524
 6744SOL    HW231866   0.047   4.348   1.313  0.9449  0.3133 -0.3073
 6745SOL     OW31867   3.297   3.572   3.917 -0.7675 -0.1263 -0.3175
 6745SOL    HW131868   3.212   3.536   3.945 -1.1584  1.3253  0.3573
 6745SOL    HW231869   3.290   3.666   3.932  2.7815  0.1716 -0.5480
 6746SOL     OW31870   1.541   2.263   6.912 -0.1054 -0.8578 -0.0191
 6746SOL    HW131871   1.561   2.226   6.998 -0.3698 -1.6399 -0.2902
 6746SOL    HW231872   1.446   2.265   6.920 -0.1272  0.9179 -0.8027
 6747SOL     OW31873   2.637   4.363  11.486  0.7557  0.0386  0.2219
 6747SOL    HW131874   2.581   4.417  11.431  1.2070 -0.1637 -0.4317
 6747SOL    HW231875   2.644   4.423  11.560 -0.2478  1.4507 -0.8288
 6748SOL     OW31876   4.670   0.696   5.538 -0.2758 -0.2128  0.4910
 6748SOL    HW131877   4.634   0.722   5.454 -1.8872 -1.7287  0.7211
 6748SOL    HW231878   4.586   0.679   5.582 -0.2105  0.4838  0.8853
 6749SOL     OW31879   4.110   0.602   6.574 -0.3688 -0.3844 -0.7016
 6749SOL    HW131880   4.044   0.597   6.505 -0.0821  2.7614 -1.2078
 6749SOL    HW231881   4.058   0.570   6.648 -1.1673  2.7331  0.1064
 6750SOL     OW31882   1.133   2.197  12.356  0.5446 -0.2093  0.0837
 6750SOL    HW131883   1.222   2.174  12.382  0.3743 -2.0376 -0.9185
 6750SOL    HW231884   1.101   2.241  12.435  1.7984  0.2539  0.3350
 6751SOL     OW31885   2.319   3.766   7.740 -0.0986  0.2166 -0.1094
 6751SOL    HW131886   2.241   3.713   7.726 -0.3291 -0.0439  2.1477
 6751SOL    HW231887   2.362   3.727   7.816  2.4400  1.2678 -0.9840
 6752SOL     OW31888   4.077   2.799   5.334  0.2279  0.3794 -0.0916
 6752SOL    HW131889   4.040   2.841   5.256 -2.7118 -2.0554 -0.0257
 6752SOL    HW231890   4.094   2.875   5.390  2.9682 -1.4977  1.5982
 6753SOL     OW31891   3.361   2.219   4.772 -0.4716 -0.2119  0.4586
 6753SOL    HW131892   3.407   2.137   4.752  2.0872  1.9644 -2.6359
 6753SOL    HW231893   3.406   2.277   4.710  0.0463 -0.0125  1.0228
 6754SOL     OW31894   4.703   1.992   3.253 -0.2537  0.0558 -0.6043
 6754SOL    HW131895   0.054   2.023   3.228 -0.3182  1.0257  0.3454
 6754SOL    HW231896   4.694   1.912   3.201  0.0574 -0.4385  0.1060
 6755SOL     OW31897   1.574   3.097  12.498  0.0279 -0.1571  0.2804
 6755SOL    HW131898   1.642   3.115  12.563  0.1840 -1.3957  0.4715
 6755SOL    HW231899   1.537   3.181  12.472  0.7726  0.2812  0.6261
 6756SOL     OW31900   2.835   0.007  15.830  0.3012 -0.1664 -0.2802
 6756SOL    HW131901   2.761   0.063  15.806  0.6882  1.1949  1.7802
 6756SOL    HW231902   2.911   0.064  15.834 -2.1396  2.9541  1.5264
 6757SOL     OW31903   1.472   3.063   5.154 -0.3981 -0.0367  0.1058
 6757SOL    HW131904   1.388   3.103   5.131 -0.3452 -0.1319 -0.2475
 6757SOL    HW231905   1.518   3.066   5.070 -0.1650 -0.7044  0.2110
 6758SOL     OW31906   4.632   3.790   8.826 -0.0674 -0.5437 -0.0844
 6758SOL    HW131907   4.723   3.809   8.847 -0.3665 -0.1016  0.8068
 6758SOL    HW231908   4.630   3.832   8.740 -0.0322  0.5570  0.4540
 6759SOL     OW31909   0.028   2.995   1.861 -0.8631 -0.6465  0.0303
 6759SOL    HW131910   0.057   3.083   1.841  0.0110 -0.7811  0.7140
 6759SOL    HW231911   4.670   3.011   1.873 -1.0689 -1.6382 -0.1851
 6760SOL     OW31912   3.447   1.005   3.865 -0.6452 -0.1240  0.6463
 6760SOL    HW131913   3.404   0.982   3.782 -0.7697  1.3423  0.2996
 6760SOL    HW231914   3.415   0.934   3.920 -3.2668  0.4196 -0.1756
 6761SOL     OW31915   2.738   0.371  11.961 -0.6068 -0.3550 -0.5683
 6761SOL    HW131916   2.830   0.346  11.951 -0.6398 -0.1759 -1.2959
 6761SOL    HW231917   2.748   0.449  11.906  0.6421 -0.6781 -0.8057
 6762SOL     OW31918   2.038   4.478   9.240 -0.4601  0.6122  0.5612
 6762SOL    HW131919   2.114   4.426   9.265  0.0791  1.4330  0.6117
 6762SOL    HW231920   2.074   4.566   9.235 -1.3026  0.7883 -2.4625
 6763SOL     OW31921   4.513   1.907  10.452 -0.1844  0.2269  0.6793
 6763SOL    HW131922   4.567   1.983  10.433 -2.9882  2.0149 -0.0178
 6763SOL    HW231923   4.545   1.865  10.533 -0.8024 -0.3926  0.6043
 6764SOL     OW31924   3.969   1.478   2.756  0.2937 -0.8337 -0.4198
 6764SOL    HW131925   3.901   1.424   2.717 -0.5967  1.2553 -1.7607
 6764SOL    HW231926   3.915   1.541   2.804 -0.5131 -2.8209  1.2310
 6765SOL     OW31927   4.347   3.771   8.468 -0.1549  0.2056  0.6443
 6765SOL    HW131928   4.372   3.738   8.382  2.0165  2.2726  0.4745
 6765SOL    HW231929   4.262   3.732   8.486 -0.3794  1.2505  1.8021
 6766SOL     OW31930   1.249   3.730   7.812  0.5452  0.2451 -0.8333
 6766SOL    HW131931   1.248   3.820   7.844 -1.4539 -0.2748  0.5504
 6766SOL    HW231932   1.339   3.714   7.782 -0.1258 -1.6375 -1.8944
 6767SOL     OW31933   4.218   0.454   5.066  0.1010 -0.3017  0.0813
 6767SOL    HW131934   4.233   0.408   4.984  0.5956 -0.4369  0.2481
 6767SOL    HW231935   4.218   0.391   5.138  0.1606  0.2935  0.6050
 6768SOL     OW31936   1.215   4.517  17.367  0.0221  0.3936 -0.2264
 6768SOL    HW131937   1.143   4.517  17.430  0.1287  0.5938 -0.1064
 6768SOL    HW231938   1.212   4.612  17.364  2.2680  0.4278 -1.4196
 6769SOL     OW31939   3.608   1.000   4.118  0.0588  0.2448  0.2866
 6769SOL    HW131940   3.522   0.974   4.085  0.2762  0.2979 -0.3064
 6769SOL    HW231941   3.596   0.983   4.212 -0.8052  0.4969  0.2245
 6770SOL     OW31942   3.358   4.723  17.540  0.7650 -0.3596  0.0831
 6770SOL    HW131943   3.292   4.690  17.599  0.7715 -1.9068 -0.7873
 6770SOL    HW231944   3.419   0.035  17.597 -0.9730  0.9901  0.7819
 6771SOL     OW31945   2.430   1.683  17.459 -0.0251 -0.4462 -0.2190
 6771SOL    HW131946   2.361   1.658  17.521 -1.5647  1.8964 -0.9903
 6771SOL    HW231947   2.423   1.779  17.459 -1.4092 -0.5378  1.8139
 6772SOL     OW31948   4.589   2.310   7.008 -0.7014 -0.3604  0.1459
 6772SOL    HW131949   4.518   2.321   7.071  0.0983  2.2218  0.6100
 6772SOL    HW231950   4.563   2.228   6.966  3.4557 -0.8952 -1.4792
 6773SOL     OW31951   2.903   4.098   1.215 -0.1078 -0.2383  0.5220
 6773SOL    HW131952   2.902   4.125   1.307 -0.9258  0.7209  0.2318
 6773SOL    HW231953   2.862   4.011   1.218 -1.6030  0.4430  0.0077
 6774SOL     OW31954   4.296   1.257  11.666 -0.0003 -0.0273 -0.2360
 6774SOL    HW131955   4.386   1.286  11.650  0.3350 -0.2596  1.2514
 6774SOL    HW231956   4.307   1.169  11.702 -1.6550  0.1436  0.6736
 6775SOL     OW31957   2.775   0.293   5.643  0.1909  0.1806 -0.5542
 6775SOL    HW131958   2.764   0.230   5.571 -1.6214 -1.2420  0.9869
 6775SOL    HW231959   2.852   0.343   5.614  0.1828 -0.2235 -1.2749
 6776SOL     OW31960   2.889   0.424   7.592 -0.3614 -0.1848 -0.3149
 6776SOL    HW131961   2.971   0.416   7.543  0.0038 -2.5726  0.6419
 6776SOL    HW231962   2.851   0.494   7.540  1.9728  1.9447  0.8903
 6777SOL     OW31963   1.181   0.296   3.135  0.6277 -0.0688  0.4294
 6777SOL    HW131964   1.214   0.380   3.167 -1.9482  0.3211  1.9955
 6777SOL    HW231965   1.109   0.315   3.077  1.5193  0.6110 -0.4460
 6778SOL     OW31966   1.793   1.502   3.718  0.1834 -0.1403  0.1790
 6778SOL    HW131967   1.888   1.505   3.722  0.0557  0.9544  2.1243
 6778SOL    HW231968   1.774   1.595   3.727  0.8741 -0.3953  3.9176
 6779SOL     OW31969   2.113   1.539   5.239 -0.2875 -0.3385  0.1489
 6779SOL    HW131970   2.199   1.555   5.200 -1.3530 -1.1427 -2.5119
 6779SOL    HW231971   2.075   1.510   5.157  0.9466 -2.8698  0.4703
 6780SOL     OW31972   1.620   1.528  10.615 -0.1481  0.3134 -0.0039
 6780SOL    HW131973   1.565   1.574  10.679  0.8754  0.3712  0.8366
 6780SOL    HW231974   1.684   1.485  10.672 -3.6009 -2.8257  1.4608
 6781SOL     OW31975   1.097   2.167   7.012 -0.3211 -0.7444  0.2213
 6781SOL    HW131976   1.035   2.201   6.947 -0.6481 -1.4166  0.1856
 6781SOL    HW231977   1.089   2.072   7.010  1.9364 -0.9106 -0.7405
 6782SOL     OW31978   3.045   0.975  14.970 -0.2783  0.1679 -0.1384
 6782SOL    HW131979   2.960   0.937  14.949 -0.7174  0.6514  0.7707
 6782SOL    HW231980   3.023   1.053  15.020  1.1707 -0.1425  0.9646
 6783SOL     OW31981   0.223   0.985   4.831  1.0866  0.1596 -0.0254
 6783SOL    HW131982   0.201   1.041   4.756 -0.0054 -0.3732 -0.1147
 6783SOL    HW231983   0.314   0.960   4.814  0.6611 -1.2308 -0.3513
 6784SOL     OW31984   3.005   0.051   2.849 -0.8928 -0.2478  0.0790
 6784SOL    HW131985   3.098   0.030   2.854 -1.1834 -1.4718  0.2229
 6784SOL    HW231986   2.993   0.051   2.754 -0.6556 -2.4203  0.0514
 6785SOL     OW31987   2.781   3.153   0.601 -0.2033 -0.3661 -0.8177
 6785SOL    HW131988   2.750   3.063   0.601  0.0140 -0.4387 -1.0723
 6785SOL    HW231989   2.871   3.131   0.623 -0.7848 -0.6368  1.3074
 6786SOL     OW31990   4.418   2.400   3.228 -0.1790  0.0165 -0.1834
 6786SOL    HW131991   4.327   2.401   3.199  0.1263  0.9437 -1.1107
 6786SOL    HW231992   4.450   2.339   3.162  0.3780  1.5804 -1.3773
 6787SOL     OW31993   3.595   4.400  12.643  0.5831  0.4321 -0.3992
 6787SOL    HW131994   3.612   4.494  12.652 -2.0875  0.7723  1.1610
 6787SOL    HW231995   3.562   4.410  12.554  3.4615 -1.3169 -1.6531
 6788SOL     OW31996   2.738   1.275  10.013  0.2256 -0.4382  0.1182
 6788SOL    HW131997   2.772   1.208   9.953  0.9490  0.7103 -0.7525
 6788SOL    HW231998   2.818   1.293  10.062  0.4262 -0.1267 -0.3318
 6789SOL     OW31999   2.924   1.508  15.412  0.1363  0.0248  0.1601
 6789SOL    HW132000   3.013   1.526  15.442  0.8369  0.0856 -1.9555
 6789SOL    HW232001   2.924   1.425  15.460  0.9112  0.9939  1.8049
 6790SOL     OW32002   1.717   0.413  15.704 -0.3790 -0.7936 -0.0409
 6790SOL    HW132003   1.692   0.502  15.681  0.5613 -0.5674 -0.1995
 6790SOL    HW232004   1.797   0.389  15.657 -0.2684 -0.2602 -0.1187
 6791SOL     OW32005   4.563   2.162  11.395  0.2709 -0.1168  0.0082
 6791SOL    HW132006   4.477   2.202  11.384  1.5048  2.7705  0.6733
 6791SOL    HW232007   4.553   2.103  11.470 -0.8272 -0.6398 -0.5478
 6792SOL     OW32008   0.820   1.839   1.989 -0.2093  0.2437 -0.5738
 6792SOL    HW132009   0.826   1.766   2.051  0.4617 -0.8996 -1.9689
 6792SOL    HW232010   0.882   1.899   2.029 -1.2176  0.9088 -0.0116
 6793SOL     OW32011   3.232   4.098   6.593  0.1402  0.1827  1.0016
 6793SOL    HW132012   3.186   4.149   6.660 -1.7534 -1.3649  0.8783
 6793SOL    HW232013   3.165   4.055   6.540  2.6957 -2.9354  0.3520
 6794SOL     OW32014   3.637   1.370   3.605  0.0078  0.1038 -0.2289
 6794SOL    HW132015   3.667   1.362   3.515  1.6948  0.3277  0.3087
 6794SOL    HW232016   3.630   1.277   3.628 -1.3439  0.1811 -0.3529
 6795SOL     OW32017   0.702   2.840  15.397 -0.2926 -0.1468  0.1368
 6795SOL    HW132018   0.617   2.879  15.378 -0.6953 -0.9375  0.3681
 6795SOL    HW232019   0.717   2.775  15.328  0.7485  0.5257 -0.2783
 6796SOL     OW32020   3.562   3.712   3.053 -0.1253  0.4757 -0.3646
 6796SOL    HW132021   3.509   3.636   3.078 -0.2443  0.0691 -1.8565
 6796SOL    HW232022   3.597   3.742   3.137 -1.1826  0.6238  0.0315
 6797SOL     OW32023   3.248   1.578   4.570 -0.2167 -0.3839 -0.1122
 6797SOL    HW132024   3.201   1.661   4.580  1.3327  0.2127  2.1986
 6797SOL    HW232025   3.280   1.557   4.658 -2.7326  0.8217  1.1193
 6798SOL     OW32026   1.890   1.771   2.338 -0.6785 -0.0055  0.2329
 6798SOL    HW132027   1.796   1.783   2.345 -0.7652 -0.8073  0.4050
 6798SOL    HW232028   1.899   1.735   2.249 -1.7809 -1.2811  0.6347
 6799SOL     OW32029   1.842   4.328   3.595 -0.4964  0.0212 -0.0848
 6799SOL    HW132030   1.836   4.414   3.636 -0.2841  0.7415 -1.5625
 6799SOL    HW232031   1.856   4.269   3.669 -0.6131  0.3891  0.2296
 6800SOL     OW32032   3.023   3.724   1.859 -0.8656 -0.4068 -0.1092
 6800SOL    HW132033   2.996   3.632   1.862 -1.7318 -0.0661  2.0606
 6800SOL    HW232034   3.117   3.723   1.877 -0.8041 -0.0235 -0.4134
 6801SOL     OW32035   0.219   4.347   7.994  0.1590  0.3946 -0.0240
 6801SOL    HW132036   0.168   4.280   7.949  3.9379 -0.0903 -3.5743
 6801SOL    HW232037   0.191   4.431   7.957 -1.1463 -0.5349 -1.1258
 6802SOL     OW32038   1.631   0.014   4.066  0.2569 -0.1179 -0.2934
 6802SOL    HW132039   1.655   4.733   3.975  0.5615  1.3111 -0.4725
 6802SOL    HW232040   1.705   4.720   4.118  0.0458  0.3999  0.2951
 6803SOL     OW32041   4.249   0.001   6.165  0.3366 -0.6280 -0.2128
 6803SOL    HW132042   4.245   4.700   6.077 -0.6880  0.3349 -0.5655
 6803SOL    HW232043   4.343   0.008   6.186  0.0386  2.6518 -0.0186
 6804SOL     OW32044   2.958   2.898  12.649  0.5553 -0.1212  0.2854
 6804SOL    HW132045   3.042   2.858  12.624  1.9726  1.6562  2.2695
 6804SOL    HW232046   2.909   2.895  12.567 -1.7226 -1.2687  1.6721
 6805SOL     OW32047   3.732   0.646   7.862 -0.1909  0.0085  0.1859
 6805SOL    HW132048   3.823   0.637   7.835 -0.7876 -0.0021 -1.8761
 6805SOL    HW232049   3.691   0.589   7.797 -1.4562 -2.3810  3.0789
 6806SOL     OW32050   1.905   3.517  13.551 -0.1288 -0.9465 -0.1666
 6806SOL    HW132051   1.811   3.528  13.563 -0.0722 -0.2877 -0.3476
 6806SOL    HW232052   1.928   3.549  13.639 -1.4935  1.2755 -0.6323
 6807SOL     OW32053   4.057   1.498   1.564 -0.5323  0.1999  0.4497
 6807SOL    HW132054   3.977   1.450   1.540  0.2605 -0.6314 -0.5589
 6807SOL    HW232055   4.085   1.513   1.474  1.4695  0.2139  1.0799
 6808SOL     OW32056   4.053   3.007   4.515 -0.0762  0.4752 -0.8808
 6808SOL    HW132057   3.983   2.968   4.463 -1.1033  0.0920  0.7870
 6808SOL    HW232058   4.037   3.092   4.474  0.9815  0.0354 -2.2350
 6809SOL     OW32059   0.222   2.069   5.921  0.0782 -0.3730  0.4767
 6809SOL    HW132060   0.189   2.118   5.995  1.2558  0.6347  0.3330
 6809SOL    HW232061   0.149   2.008   5.906 -1.1028  1.7843 -2.5791
 6810SOL     OW32062   1.257   4.266   8.338  0.1084  0.5542  0.2832
 6810SOL    HW132063   1.204   4.268   8.417 -2.1711  0.6357 -1.2327
 6810SOL    HW232064   1.227   4.348   8.299  0.3897  0.9712  0.9442
 6811SOL     OW32065   1.107   2.646  13.955 -0.9381 -0.2885  0.5334
 6811SOL    HW132066   1.186   2.600  13.925 -0.8415  1.4417 -1.8553
 6811SOL    HW232067   1.091   2.604  14.040 -0.0672  2.3470  2.0103
 6812SOL     OW32068   2.053   4.294  16.085 -0.7650 -0.4023 -0.5583
 6812SOL    HW132069   2.127   4.289  16.024 -0.9433 -0.2775 -0.7874
 6812SOL    HW232070   2.012   4.376  16.057 -1.2016 -0.0944  1.0191
 6813SOL     OW32071   3.798   1.593  14.190  0.6545 -0.0162 -0.4239
 6813SOL    HW132072   3.799   1.530  14.118 -0.2944 -1.1944  0.5842
 6813SOL    HW232073   3.724   1.643  14.156 -0.6991 -0.3540  1.9856
 6814SOL     OW32074   3.007   1.592   5.813  0.3638 -0.3025  0.2595
 6814SOL    HW132075   2.965   1.526   5.759 -1.3673  1.3540 -0.3956
 6814SOL    HW232076   3.083   1.609   5.757 -1.3908  1.1190 -1.6490
 6815SOL     OW32077   1.470   0.383   2.805  0.0244 -0.1748  0.7751
 6815SOL    HW132078   1.399   0.427   2.757 -0.6513 -3.2216 -1.0326
 6815SOL    HW232079   1.491   0.316   2.740 -0.4268 -0.0189  0.4682
 6816SOL     OW32080   1.712   2.594   4.495 -0.2744  0.3420  0.0342
 6816SOL    HW132081   1.711   2.626   4.405 -1.5105  0.7370  0.1874
 6816SOL    HW232082   1.714   2.501   4.470 -1.6452  0.9488 -2.3192
 6817SOL     OW32083   2.123   0.453  14.720  0.4136 -0.1933 -0.2755
 6817SOL    HW132084   2.094   0.543  14.729  3.0866  0.5571  1.0510
 6817SOL    HW232085   2.205   0.462  14.670  1.5454 -1.7658  1.2775
 6818SOL     OW32086   0.906   4.373   5.793 -0.1263  0.6964 -0.1346
 6818SOL    HW132087   0.853   4.368   5.873 -0.4628 -0.3213 -0.4204
 6818SOL    HW232088   0.991   4.332   5.811 -0.0346  2.2431  2.9951
 6819SOL     OW32089   3.133   2.106   1.371 -0.5558 -0.6432 -0.6167
 6819SOL    HW132090   3.062   2.043   1.379 -0.8524 -0.1539  0.7682
 6819SOL    HW232091   3.140   2.138   1.462 -0.4226  1.1337 -1.2492
 6820SOL     OW32092   3.349   4.102   6.208  0.0284 -0.3636  0.3288
 6820SOL    HW132093   3.443   4.091   6.222 -0.2998 -0.2741  2.5677
 6820SOL    HW232094   3.321   4.182   6.253 -0.9571 -1.1609  1.1420
 6821SOL     OW32095   4.279   1.435  11.902  0.0343 -0.4837  0.1959
 6821SOL    HW132096   4.269   1.513  11.847  0.9422 -0.5612 -0.0905
 6821SOL    HW232097   4.367   1.398  11.891  0.0003 -1.0338  1.7573
 6822SOL     OW32098   0.949   2.069   2.673 -0.0627 -0.8102  0.1604
 6822SOL    HW132099   0.960   2.100   2.583 -0.8875 -2.4725 -0.5052
 6822SOL    HW232100   0.911   1.982   2.665 -0.2147 -0.5306 -2.1148
 6823SOL     OW32101   1.191   2.073  10.056  0.2756  0.3737  0.4565
 6823SOL    HW132102   1.223   2.060  10.145 -2.2901 -1.4705  1.0934
 6823SOL    HW232103   1.157   2.162  10.066 -0.5273  0.2272 -0.8877
 6824SOL     OW32104   4.652   1.710   6.372  0.0925 -0.2813 -0.2197
 6824SOL    HW132105   4.601   1.790   6.388  1.6207  0.3167  1.6847
 6824SOL    HW232106   4.701   1.681   6.449 -0.4991  2.1540  1.0803
 6825SOL     OW32107   3.064   0.139  15.892 -0.2364 -0.1056  0.6757
 6825SOL    HW132108   3.074   0.060  15.944  0.4014 -0.0680  0.6035
 6825SOL    HW232109   3.135   0.119  15.832  0.3695  2.0657  0.6455
 6826SOL     OW32110   3.536   0.343   7.316  0.1136  0.2245 -0.0229
 6826SOL    HW132111   3.556   0.428   7.277  0.6724 -0.1922 -0.6537
 6826SOL    HW232112   3.620   0.303   7.292  0.7287  0.6366  1.4627
 6827SOL     OW32113   0.365   1.965   7.583  0.2230 -0.4589 -0.4491
 6827SOL    HW132114   0.270   1.967   7.569 -0.2019  0.4640  2.5223
 6827SOL    HW232115   0.383   1.880   7.544  1.8964 -0.6430  0.7346
 6828SOL     OW32116   2.774   3.199   2.282  0.0339  0.8139 -0.0871
 6828SOL    HW132117   2.802   3.151   2.360 -3.0659 -0.1103  0.4776
 6828SOL    HW232118   2.687   3.231   2.307 -0.2419 -0.6806  0.8893
 6829SOL     OW32119   0.047   2.703   7.328 -0.3946 -0.0381 -0.3945
 6829SOL    HW132120   0.008   2.620   7.299 -1.6907  0.4525 -0.0441
 6829SOL    HW232121   0.138   2.681   7.348 -0.7467 -0.3634  0.7887
 6830SOL     OW32122   1.223   2.964   3.585  0.0197  0.0693 -0.3200
 6830SOL    HW132123   1.163   2.893   3.607 -1.5439  1.5079  0.0386
 6830SOL    HW232124   1.170   3.037   3.617 -0.0840  0.1158 -0.6031
 6831SOL     OW32125   2.264   1.529   6.629 -0.0628  0.0261 -0.4471
 6831SOL    HW132126   2.210   1.460   6.668  0.4130  0.6684  1.3045
 6831SOL    HW232127   2.196   1.596   6.621 -0.3022 -0.0155  1.4707
 6832SOL     OW32128   2.850   3.735  13.538 -0.4032 -0.0112 -1.2597
 6832SOL    HW132129   2.918   3.755  13.602 -0.6737 -2.1265 -0.3006
 6832SOL    HW232130   2.890   3.671  13.479  2.8139  0.8335  0.0089
 6833SOL     OW32131   3.491   0.962  12.779 -0.3590  0.2567 -0.0500
 6833SOL    HW132132   3.543   0.912  12.716 -0.1231  1.2823 -0.6520
 6833SOL    HW232133   3.495   0.896  12.849  1.6340  0.7243  0.2983
 6834SOL     OW32134   0.730   3.210   1.916 -0.5523 -0.2277 -0.1482
 6834SOL    HW132135   0.742   3.133   1.860  1.1488 -0.0485 -0.0481
 6834SOL    HW232136   0.737   3.172   2.003 -2.3350 -0.6875 -0.2057
 6835SOL     OW32137   0.003   3.436   3.041  0.0797  0.2080  0.5304
 6835SOL    HW132138   4.662   3.488   3.018 -1.2926 -1.4680  1.2974
 6835SOL    HW232139   0.056   3.500   3.089 -0.0056  0.1155  0.7488
 6836SOL     OW32140   3.513   4.383   2.148 -0.3505 -0.2673 -0.5583
 6836SOL    HW132141   3.429   4.366   2.190  0.3252 -0.9498  0.5545
 6836SOL    HW232142   3.573   4.398   2.221  1.7796 -0.1129 -2.3362
 6837SOL     OW32143   3.528   1.826   9.162  0.1797 -0.2508  0.1326
 6837SOL    HW132144   3.501   1.736   9.147 -0.6209  0.4159 -2.5583
 6837SOL    HW232145   3.556   1.823   9.253  0.5471 -4.0457 -0.1056
 6838SOL     OW32146   0.849   4.440  10.581 -0.3545  0.1914 -0.6943
 6838SOL    HW132147   0.906   4.364  10.596 -0.8532  0.0644  0.5094
 6838SOL    HW232148   0.897   4.513  10.618 -1.6799  0.7311 -0.0716
 6839SOL     OW32149   3.176   2.004   6.208 -0.0260 -0.0754  0.1779
 6839SOL    HW132150   3.263   1.974   6.181  0.0656 -1.5549  2.0782
 6839SOL    HW232151   3.196   2.070   6.275 -1.5893 -0.7959  1.3701
 6840SOL     OW32152   3.009   4.429   0.474 -0.1281 -0.0451  1.0048
 6840SOL    HW132153   3.008   4.443   0.568  2.2741 -3.7996  1.6033
 6840SOL    HW232154   3.099   4.397   0.468  0.0772  0.8674 -0.9713
 6841SOL     OW32155   1.395   4.629   3.654  0.3626 -0.4605 -0.3304
 6841SOL    HW132156   1.379   4.721   3.633  0.1120 -0.1595  1.1848
 6841SOL    HW232157   1.317   4.624   3.710  0.4694  2.0608  0.0526
 6842SOL     OW32158   2.863   2.665   3.487 -0.3092 -0.7137 -0.2378
 6842SOL    HW132159   2.880   2.746   3.440  0.3823 -0.5814  0.2280
 6842SOL    HW232160   2.796   2.694   3.548  1.0344 -1.4500  1.6013
 6843SOL     OW32161   3.658   0.600   8.983 -0.4401 -0.0357 -0.2867
 6843SOL    HW132162   3.639   0.625   9.073  1.3860  1.3056 -0.2791
 6843SOL    HW232163   3.571   0.567   8.958  0.3093 -1.7812 -0.5796
 6844SOL     OW32164   1.447   2.240   1.317  0.1859  0.1178 -0.6438
 6844SOL    HW132165   1.524   2.270   1.268 -0.1075  2.0190  0.0597
 6844SOL    HW232166   1.471   2.154   1.351  2.7339  2.4558  3.3955
 6845SOL     OW32167   4.664   0.159   1.841 -0.2662  0.2388  0.0179
 6845SOL    HW132168   0.015   0.163   1.802  0.4362  1.4456  1.6948
 6845SOL    HW232169   4.689   0.107   1.917  1.5253 -1.2881 -1.6156
 6846SOL     OW32170   1.421   2.404   7.463 -0.1680 -0.2889  0.5054
 6846SOL    HW132171   1.459   2.325   7.501  0.5269  0.6207  1.6920
 6846SOL    HW232172   1.354   2.366   7.406 -0.3754  1.6024 -0.5223
 6847SOL     OW32173   4.657   0.737   1.518  0.2469  0.3723 -0.2127
 6847SOL    HW132174   4.669   0.681   1.441  1.8493 -2.0273  1.7960
 6847SOL    HW232175   4.726   0.802   1.503 -1.1983  2.5046  2.4733
 6848SOL     OW32176   1.696   4.617  15.057  0.0034  0.2421  0.3621
 6848SOL    HW132177   1.639   4.662  14.994 -1.1230  0.2900  1.4109
 6848SOL    HW232178   1.681   4.527  15.029 -2.3416  0.3114  1.3352
 6849SOL     OW32179   2.590   0.517  10.980  0.8887  0.1663  0.0605
 6849SOL    HW132180   2.569   0.431  11.018  0.2374 -0.4274 -1.6576
 6849SOL    HW232181   2.537   0.516  10.901  2.7506 -1.5214 -1.1768
 6850SOL     OW32182   3.166   2.647  11.269  0.1594  0.2659 -0.1133
 6850SOL    HW132183   3.229   2.651  11.198 -0.8065  2.6052 -0.8333
 6850SOL    HW232184   3.093   2.604  11.225 -0.1754  0.7923 -0.0642
 6851SOL     OW32185   1.864   0.345   8.540 -0.2560  0.5652 -0.2682
 6851SOL    HW132186   1.859   0.429   8.494 -0.0253  0.0139 -1.3201
 6851SOL    HW232187   1.908   0.362   8.623  3.3219  1.5783 -2.3449
 6852SOL     OW32188   0.782   1.835   2.286  0.5144  0.1606  1.0027
 6852SOL    HW132189   0.789   1.762   2.348 -3.1599 -0.0540  1.1689
 6852SOL    HW232190   0.816   1.911   2.333  0.4878  1.0461 -0.4021
 6853SOL     OW32191   1.634   2.899   4.090 -0.0625 -0.6321  0.0700
 6853SOL    HW132192   1.651   2.968   4.155 -1.6767  0.3794 -0.5951
 6853SOL    HW232193   1.555   2.931   4.047 -0.2250 -2.3250 -0.9007
 6854SOL     OW32194   3.628   4.300  16.204  0.4821  0.1189  0.1675
 6854SOL    HW132195   3.644   4.392  16.183  0.7878 -0.5548 -2.5894
 6854SOL    HW232196   3.650   4.269  16.116 -0.4983  2.1547 -0.7933
 6855SOL     OW32197   1.369   4.550   4.736 -0.4796  0.2766  0.0711
 6855SOL    HW132198   1.457   4.515   4.723 -0.4663  1.3149 -2.7920
 6855SOL    HW232199   1.354   4.608   4.661 -2.0826 -1.0867 -0.6723
 6856SOL     OW32200   0.817   3.921   0.484 -0.8969  0.0079  0.4608
 6856SOL    HW132201   0.743   3.980   0.471 -0.1960  0.7845  0.0079
 6856SOL    HW232202   0.884   3.988   0.499 -0.9674 -0.3956  2.5452
 6857SOL     OW32203   2.171   3.808  12.144 -0.3006  0.2119 -0.2348
 6857SOL    HW132204   2.162   3.727  12.195  0.3645 -0.8621 -1.8380
 6857SOL    HW232205   2.111   3.871  12.185 -1.3780 -1.1645  0.2972
 6858SOL     OW32206   4.057   1.396   7.318 -0.3935 -0.0958  0.5839
 6858SOL    HW132207   4.129   1.339   7.347  0.3759  0.2152 -0.7254
 6858SOL    HW232208   4.001   1.336   7.269  1.1363 -0.5172 -0.6580
 6859SOL     OW32209   3.090   1.137   8.856  0.2627 -0.4399 -0.1440
 6859SOL    HW132210   3.148   1.099   8.922 -0.0374 -1.1698 -0.3027
 6859SOL    HW232211   3.004   1.146   8.896 -0.8845 -1.7518 -2.3364
 6860SOL     OW32212   1.106   3.714   6.830 -0.2215 -0.0490  0.3836
 6860SOL    HW132213   1.071   3.626   6.844  1.5755 -0.5897  1.3586
 6860SOL    HW232214   1.044   3.734   6.760  0.2951  0.7193  0.1372
 6861SOL     OW32215   4.403   4.561  11.236 -0.0136 -0.4527 -0.2099
 6861SOL    HW132216   4.407   4.653  11.264  1.6775  0.3571 -3.1202
 6861SOL    HW232217   4.458   4.520  11.303  1.1573 -0.2960 -1.0864
 6862SOL     OW32218   0.722   1.692  15.750 -0.6919  0.1673 -0.1953
 6862SOL    HW132219   0.806   1.679  15.706 -0.2684  0.2551  0.5824
 6862SOL    HW232220   0.673   1.715  15.672 -0.7865  0.6557  0.0092
 6863SOL     OW32221   3.151   0.828   4.497  0.3999 -0.0938 -0.4030
 6863SOL    HW132222   3.182   0.917   4.481 -1.1355  0.1627 -1.9365
 6863SOL    HW232223   3.061   0.836   4.468  0.5481  0.9441 -0.5724
 6864SOL     OW32224   0.840   2.949   4.560 -0.0800 -0.2309 -0.1231
 6864SOL    HW132225   0.758   2.947   4.511 -0.6274  1.3421  0.7291
 6864SOL    HW232226   0.808   2.913   4.643 -0.7315  1.3004  0.2872
 6865SOL     OW32227   4.334   0.618   7.065 -0.2573 -0.4506 -0.8354
 6865SOL    HW132228   4.303   0.681   7.130 -0.0594  1.1584 -2.2661
 6865SOL    HW232229   4.247   0.584   7.043 -0.3295 -0.3541 -0.6942
 6866SOL     OW32230   2.266   2.743   4.972  0.1892  0.2264  0.6867
 6866SOL    HW132231   2.307   2.700   5.047  1.7882  2.0340  0.8376
 6866SOL    HW232232   2.293   2.677   4.908  1.5694  0.1966  1.3113
 6867SOL     OW32233   3.666   2.764   8.083 -0.3618 -0.1284  0.4318
 6867SOL    HW132234   3.721   2.842   8.081 -0.5235 -0.0465 -1.5980
 6867SOL    HW232235   3.604   2.783   8.013 -1.9062 -0.5329  1.7101
 6868SOL     OW32236   3.077   1.650   6.575 -0.1560 -0.5463  0.1775
 6868SOL    HW132237   3.065   1.731   6.524  0.5119  0.3642  1.4451
 6868SOL    HW232238   3.116   1.676   6.658 -0.5229  2.3405 -0.5319
 6869SOL     OW32239   0.677   0.796   6.648  0.1053  0.4198 -0.1219
 6869SOL    HW132240   0.698   0.825   6.560  0.6929  1.2411  0.2924
 6869SOL    HW232241   0.734   0.720   6.658 -1.9256 -0.6819  3.1831
 6870SOL     OW32242   2.106   3.392   5.309  0.0932  0.2868 -0.1195
 6870SOL    HW132243   2.064   3.307   5.312 -0.1532  0.3731 -1.3109
 6870SOL    HW232244   2.035   3.449   5.338  0.8785  0.0097  2.3894
 6871SOL     OW32245   2.344   1.717   0.266  0.2544 -0.0546  0.2067
 6871SOL    HW132246   2.367   1.789   0.325 -0.2772  1.5236 -1.5075
 6871SOL    HW232247   2.385   1.756   0.189 -0.4277 -1.5908 -0.9440
 6872SOL     OW32248   1.262   3.908  15.488 -0.2621  0.6189 -0.1375
 6872SOL    HW132249   1.253   3.818  15.520  0.1358  1.2727  1.8433
 6872SOL    HW232250   1.344   3.937  15.529 -0.0249 -0.6000  0.2358
 6873SOL     OW32251   4.628   3.395   6.741 -0.4885  0.6167  0.2982
 6873SOL    HW132252   4.544   3.355   6.763 -1.3457  0.0408 -3.9771
 6873SOL    HW232253   4.647   3.428   6.829  2.7897  0.4224 -0.3217
 6874SOL     OW32254   1.195   1.769   4.706 -0.2912  0.9449  0.1907
 6874SOL    HW132255   1.173   1.761   4.614  1.9233 -1.3207 -0.1540
 6874SOL    HW232256   1.133   1.704   4.739 -1.2421  0.2091 -3.1422
 6875SOL     OW32257   2.636   1.510   2.046 -0.2585 -0.3105  0.3438
 6875SOL    HW132258   2.674   1.581   1.994 -0.4571 -0.6183 -0.2277
 6875SOL    HW232259   2.562   1.550   2.093 -1.2482  0.8530 -2.2009
 6876SOL     OW32260   0.994   1.003   4.011  0.0413  0.2037 -0.1287
 6876SOL    HW132261   1.058   0.999   3.940  2.3045 -0.3612  1.9105
 6876SOL    HW232262   1.053   0.987   4.085  1.7438  0.5886 -1.3951
 6877SOL     OW32263   1.397   3.173   1.968  0.2575  0.0899  0.1380
 6877SOL    HW132264   1.382   3.102   2.030  2.8074  0.6290  1.3710
 6877SOL    HW232265   1.380   3.249   2.024 -1.7119 -0.0464 -0.2580
 6878SOL     OW32266   2.649   2.145   0.163  0.6917 -0.2147  0.5521
 6878SOL    HW132267   2.644   2.082   0.235 -4.3533  0.2637  0.6431
 6878SOL    HW232268   2.672   2.082   0.094 -0.1217 -3.9642  3.7113
 6879SOL     OW32269   4.545   2.256  13.543 -0.9715  0.1289  0.0922
 6879SOL    HW132270   4.625   2.275  13.594 -0.2344  0.8336 -1.3309
 6879SOL    HW232271   4.575   2.209  13.465  0.9786 -0.9355  1.4708
 6880SOL     OW32272   2.690   4.074   7.953 -0.1800  0.3351 -0.6849
 6880SOL    HW132273   2.771   4.123   7.964  0.8287 -1.0232 -2.0262
 6880SOL    HW232274   2.634   4.149   7.932  0.4003  0.5490 -1.4535
 6881SOL     OW32275   2.143   0.528   1.183 -0.2335 -0.1856 -0.8875
 6881SOL    HW132276   2.202   0.562   1.116  1.1781 -0.2248  0.3245
 6881SOL    HW232277   2.078   0.492   1.122  0.4468 -0.1025 -1.6543
 6882SOL     OW32278   2.234   4.278   8.320  0.0984 -0.5389 -0.2148
 6882SOL    HW132279   2.186   4.195   8.311 -0.1505 -0.4894  0.6356
 6882SOL    HW232280   2.200   4.308   8.405  0.6685 -1.5570  0.3748
 6883SOL     OW32281   0.708   0.866   0.603  0.3424 -0.4715  0.2904
 6883SOL    HW132282   0.776   0.851   0.668  1.7152 -1.3546 -1.3672
 6883SOL    HW232283   0.690   0.959   0.617  1.9356 -0.4742  2.2413
 6884SOL     OW32284   4.634   4.644   4.365 -0.2206  0.4023  0.0464
 6884SOL    HW132285   4.709   4.662   4.422 -2.1235 -0.0839  2.7157
 6884SOL    HW232286   4.595   4.731   4.358 -0.8798  0.2069  1.2622
 6885SOL     OW32287   4.503   3.983   3.187  0.4411  0.2918  0.2886
 6885SOL    HW132288   4.595   3.992   3.208  0.1143  2.7168  0.6596
 6885SOL    HW232289   4.516   3.956   3.096  0.6370  1.2563  0.0268
 6886SOL     OW32290   2.875   4.336   7.642 -0.3660  0.2366  0.6890
 6886SOL    HW132291   2.940   4.275   7.606 -2.2407 -0.5523 -1.2991
 6886SOL    HW232292   2.877   4.316   7.735 -0.0355  0.7236  0.7928
 6887SOL     OW32293   0.128   4.665  12.789  0.1709  0.0191 -0.4266
 6887SOL    HW132294   0.169   4.650  12.873 -0.4970  0.1219 -0.0791
 6887SOL    HW232295   0.187   4.632  12.721  1.3217  1.4131 -0.0826
 6888SOL     OW32296   0.249   3.179  17.018  0.7286  0.5427  0.1379
 6888SOL    HW132297   0.250   3.086  16.996  0.1276  0.9952 -1.8076
 6888SOL    HW232298   0.272   3.174  17.111  1.3327  0.3243 -0.0267
 6889SOL     OW32299   2.983   1.146  15.179  0.0337 -0.0170 -0.2757
 6889SOL    HW132300   2.980   1.114  15.269  2.3779 -1.9311 -0.9068
 6889SOL    HW232301   3.072   1.180  15.179  0.3440 -0.8799  1.6340
 6890SOL     OW32302   4.034   1.265  11.700 -0.1262 -0.0765 -0.5353
 6890SOL    HW132303   4.128   1.285  11.696 -0.3286  0.9033 -0.3684
 6890SOL    HW232304   4.001   1.339  11.750  1.4234 -0.9151  1.7478
 6891SOL     OW32305   3.197   0.210  12.702  0.0924 -0.3404 -0.4556
 6891SOL    HW132306   3.136   0.278  12.730  3.0132  2.0866  0.0520
 6891SOL    HW232307   3.167   0.193  12.613 -3.7857 -0.9955  0.9670
 6892SOL     OW32308   1.797   1.498   7.979  0.6385 -0.8655 -0.0041
 6892SOL    HW132309   1.793   1.586   7.941 -3.0125 -1.7192 -1.6324
 6892SOL    HW232310   1.871   1.515   8.037 -0.2770  1.3121  0.5578
 6893SOL     OW32311   0.117   3.374   8.150 -0.6316 -0.3571  0.7663
 6893SOL    HW132312   0.114   3.414   8.237  0.3683 -0.8194  1.0155
 6893SOL    HW232313   0.075   3.288   8.162  0.6154 -1.4435 -2.5130
 6894SOL     OW32314   2.207   2.414   7.806 -0.0178 -0.7437 -1.0891
 6894SOL    HW132315   2.203   2.336   7.751  0.7579 -3.6402  2.9792
 6894SOL    HW232316   2.280   2.471   7.782  0.4932 -0.8666  0.1712
 6895SOL     OW32317   3.555   4.542  13.975  0.2793 -0.2247  0.5106
 6895SOL    HW132318   3.462   4.547  13.996  0.8098  0.5596  2.6353
 6895SOL    HW232319   3.562   4.458  13.928 -1.2994 -1.5662  2.6873
 6896SOL     OW32320   4.210   2.061   7.903  0.5868 -0.4540 -0.3579
 6896SOL    HW132321   4.284   2.008   7.933  1.1467  1.1239  1.0363
 6896SOL    HW232322   4.179   2.086   7.990 -0.4040  1.8321 -1.3758
 6897SOL     OW32323   0.561   0.742   6.259  0.1298  0.2809 -0.1548
 6897SOL    HW132324   0.587   0.832   6.277  4.0240 -0.7400 -0.5946
 6897SOL    HW232325   0.640   0.709   6.215 -0.0711  0.0715 -0.3627
 6898SOL     OW32326   2.064   1.571   5.677 -0.6070  0.2731 -0.1343
 6898SOL    HW132327   2.122   1.495   5.681  0.3578  1.0049 -0.1987
 6898SOL    HW232328   2.113   1.619   5.610 -0.0007  0.8151  0.7075
 6899SOL     OW32329   4.484   1.391   3.689  0.0259  0.2918 -0.2257
 6899SOL    HW132330   4.564   1.405   3.640  0.1760  0.7802  0.1660
 6899SOL    HW232331   4.516   1.374   3.777  1.5879  0.8695 -0.6886
 6900SOL     OW32332   4.383   3.347   5.105 -0.5230 -0.2345 -0.0364
 6900SOL    HW132333   4.351   3.349   5.195 -0.0108  0.2790  0.1365
 6900SOL    HW232334   4.361   3.259   5.076 -0.6944 -0.8926  2.1149
 6901SOL     OW32335   1.206   2.113   9.359 -0.2203 -0.1156 -0.1441
 6901SOL    HW132336   1.118   2.100   9.394  0.4774 -0.2887  1.5196
 6901SOL    HW232337   1.197   2.059   9.280 -2.1083  0.8043 -0.5669
 6902SOL     OW32338   1.009   0.734   8.043 -0.2625  0.3819  0.1766
 6902SOL    HW132339   1.099   0.700   8.047 -1.5136 -2.9215  0.7364
 6902SOL    HW232340   0.976   0.692   7.963  0.8449  1.7378 -0.9835
 6903SOL     OW32341   0.531   2.347  12.460  0.3700  0.3167 -0.1633
 6903SOL    HW132342   0.580   2.272  12.495 -2.2754 -1.1551  0.3385
 6903SOL    HW232343   0.531   2.411  12.531  0.4034 -2.1296  2.0937
 6904SOL     OW32344   4.269   3.838   5.508 -0.2780  0.5509 -0.0435
 6904SOL    HW132345   4.181   3.837   5.545  0.2264  0.0087  1.1467
 6904SOL    HW232346   4.256   3.807   5.419 -0.3652  0.2761  0.0655
 6905SOL     OW32347   0.459   0.751   3.802  0.0407  0.2439  0.2540
 6905SOL    HW132348   0.541   0.760   3.753  0.4147  0.3128  0.8953
 6905SOL    HW232349   0.466   0.818   3.869  1.0588 -1.0893  1.4923
 6906SOL     OW32350   3.546   2.162  14.280 -0.7101 -0.0952 -0.2272
 6906SOL    HW132351   3.520   2.074  14.254  0.5638 -0.5954  0.1657
 6906SOL    HW232352   3.458   2.200  14.287 -0.3299  0.8246 -0.3394
 6907SOL     OW32353   1.914   0.401   5.241 -0.1136  0.1790  0.1102
 6907SOL    HW132354   1.820   0.396   5.224  0.2348  0.0665 -1.7983
 6907SOL    HW232355   1.914   0.493   5.267 -1.1899  0.7324 -1.8250
 6908SOL     OW32356   2.061   1.470  17.649 -0.1134 -0.2437 -0.1010
 6908SOL    HW132357   1.983   1.445  17.599 -0.3027 -1.0168  0.5974
 6908SOL    HW232358   2.136   1.417  17.622  0.1118  0.6852 -1.3438
 6909SOL     OW32359   1.708   2.189   5.372  0.3725 -0.0534  0.0866
 6909SOL    HW132360   1.684   2.239   5.294  0.7682 -0.8393 -0.5329
 6909SOL    HW232361   1.804   2.185   5.371  0.5139  2.4661  2.7443
 6910SOL     OW32362   3.776   1.694   3.898  0.0901  0.3075  0.4861
 6910SOL    HW132363   3.862   1.732   3.881  0.7611 -0.6040  1.7828
 6910SOL    HW232364   3.760   1.654   3.812 -1.5575  1.6519  0.1859
 6911SOL     OW32365   2.193   0.171  16.972 -0.4261  0.5231  0.7361
 6911SOL    HW132366   2.274   0.221  16.959 -0.7534  0.8916  0.1081
 6911SOL    HW232367   2.191   0.112  16.897 -0.5832 -1.0539  2.0068
 6912SOL     OW32368   1.272   2.320  15.518 -0.3080  0.2865  0.1018
 6912SOL    HW132369   1.245   2.371  15.594  0.3499 -0.0391  0.5540
 6912SOL    HW232370   1.294   2.234  15.553 -0.1988 -0.0080 -0.6787
 6913SOL     OW32371   3.253   3.839   2.492  0.1759 -0.1463  0.1768
 6913SOL    HW132372   3.342   3.841   2.526  0.0304 -2.1412  0.6840
 6913SOL    HW232373   3.264   3.852   2.398  0.2261  0.2254  0.2345
 6914SOL     OW32374   4.357   1.922   0.260 -0.0342 -0.6360  0.1916
 6914SOL    HW132375   4.333   1.990   0.196  0.5557 -0.5273  0.0917
 6914SOL    HW232376   4.449   1.944   0.271 -0.5264  1.4465  0.2527
 6915SOL     OW32377   2.875   3.508   5.946 -0.4238 -0.3712 -0.5188
 6915SOL    HW132378   2.781   3.489   5.944  0.2852 -3.6228 -1.9830
 6915SOL    HW232379   2.909   3.446   6.009 -1.8187 -1.5470 -0.9146
 6916SOL     OW32380   2.841   4.196   4.985  0.0429 -0.2378 -0.1520
 6916SOL    HW132381   2.751   4.226   4.981 -0.0005 -0.4829 -0.9537
 6916SOL    HW232382   2.842   4.143   5.065 -1.8328  0.3339  0.2303
 6917SOL     OW32383   0.314   3.847  14.610 -0.2574 -0.4317  0.1633
 6917SOL    HW132384   0.292   3.776  14.550  2.1587  0.1145 -1.3374
 6917SOL    HW232385   0.374   3.901  14.559 -0.6234  1.1367  1.3803
 6918SOL     OW32386   2.638   0.126   3.270 -0.2396 -0.0696 -0.0445
 6918SOL    HW132387   2.733   0.140   3.272 -0.4734  1.5130  0.8017
 6918SOL    HW232388   2.631   0.145   3.364 -0.3915  1.0812 -0.2823
 6919SOL     OW32389   1.360   4.003   4.601  0.3962  0.2250 -0.3202
 6919SOL    HW132390   1.447   3.968   4.621  0.9565  1.0814 -1.2480
 6919SOL    HW232391   1.319   4.003   4.687  2.2031 -0.4868  0.5574
 6920SOL     OW32392   3.165   4.285   4.631  0.2065  0.3026  0.1218
 6920SOL    HW132393   3.183   4.322   4.718 -1.7819  0.8223  0.3135
 6920SOL    HW232394   3.213   4.204   4.644 -0.2297  0.0318  0.0362
 6921SOL     OW32395   0.235   1.222  16.455 -0.1411  0.1005 -0.0749
 6921SOL    HW132396   0.230   1.287  16.385 -2.3566  1.3882  1.2865
 6921SOL    HW232397   0.174   1.153  16.428 -0.0020  0.1081 -0.4094
 6922SOL     OW32398   3.126   2.886  14.006 -0.2885 -0.5317 -0.0195
 6922SOL    HW132399   3.205   2.868  14.058  0.0751 -0.4449 -0.5330
 6922SOL    HW232400   3.115   2.976  14.036 -0.1171 -0.6971  0.5409
 6923SOL     OW32401   0.235   2.432   8.911 -0.2302  0.0445  0.0725
 6923SOL    HW132402   0.233   2.527   8.895 -1.6416  0.3578  2.0439
 6923SOL    HW232403   0.318   2.430   8.958 -0.0229 -2.7660 -0.4097
 6924SOL     OW32404   4.465   0.865   6.112  0.0154  0.4456 -0.1697
 6924SOL    HW132405   4.463   0.781   6.066 -0.3114  0.8282 -0.8398
 6924SOL    HW232406   4.471   0.829   6.201 -1.2803  1.9503  0.5265
 6925SOL     OW32407   1.663   4.720   8.500 -0.3270 -0.3068  0.2438
 6925SOL    HW132408   1.717   4.721   8.579 -0.4224  0.9851  0.2906
 6925SOL    HW232409   1.614   4.639   8.516  0.0076 -0.2961  1.2865
 6926SOL     OW32410   3.701   0.486   3.935 -0.3115  0.2570  0.3036
 6926SOL    HW132411   3.682   0.544   3.861 -2.7383 -2.4246 -1.1706
 6926SOL    HW232412   3.796   0.481   3.941 -0.1594  1.0717 -1.4257
 6927SOL     OW32413   4.376   1.661   0.167 -0.4812  0.3231  0.0082
 6927SOL    HW132414   4.456   1.691   0.124  1.3493 -2.8666  1.2366
 6927SOL    HW232415   4.359   1.738   0.222 -1.1327  0.1045  0.1215
 6928SOL     OW32416   2.741   3.631   8.880  0.2840 -0.0386 -0.0974
 6928SOL    HW132417   2.663   3.678   8.909 -1.3759 -1.5445 -2.0517
 6928SOL    HW232418   2.801   3.705   8.871  0.8727 -0.3238  1.5136
 6929SOL     OW32419   1.850   0.853   9.569  0.4029  0.1146 -0.1728
 6929SOL    HW132420   1.920   0.897   9.520  1.1335 -1.7796 -0.8242
 6929SOL    HW232421   1.781   0.869   9.505  0.8656  0.3122 -0.6253
 6930SOL     OW32422   3.499   2.522   8.198 -0.2275 -0.6014 -0.2648
 6930SOL    HW132423   3.556   2.591   8.164 -1.8447  1.4117  1.1390
 6930SOL    HW232424   3.417   2.571   8.197  0.6431  0.8938  0.5447
 6931SOL     OW32425   2.869   2.430   5.291 -0.3652 -0.1407  0.1019
 6931SOL    HW132426   2.868   2.368   5.363 -1.4892 -0.3989 -0.1418
 6931SOL    HW232427   2.963   2.441   5.278 -0.4710 -0.3503 -0.8423
 6932SOL     OW32428   0.101   1.391   1.419  0.5510 -0.1356 -0.0602
 6932SOL    HW132429   0.145   1.475   1.435 -0.4088  0.2829  0.3838
 6932SOL    HW232430   0.067   1.365   1.505 -0.5194  2.3044  0.2638
 6933SOL     OW32431   1.651   1.682   1.115 -0.3129 -0.8950 -0.1337
 6933SOL    HW132432   1.588   1.753   1.125  1.3514  0.4072  1.0918
 6933SOL    HW232433   1.668   1.686   1.021 -0.7941 -1.1319 -0.2323
 6934SOL     OW32434   1.790   2.771   7.690  0.0948 -0.0156  0.3193
 6934SOL    HW132435   1.827   2.859   7.681 -2.0427  0.7455 -0.9672
 6934SOL    HW232436   1.704   2.795   7.724 -0.4152 -2.2365  0.5513
 6935SOL     OW32437   2.092   0.197   9.876 -0.3748  0.1241  0.3953
 6935SOL    HW132438   2.175   0.244   9.883 -0.7647  0.7262  0.9526
 6935SOL    HW232439   2.116   0.117   9.829 -1.5163  0.2375 -0.3764
 6936SOL     OW32440   2.296   3.919   3.279  0.7607  0.1428 -0.0708
 6936SOL    HW132441   2.326   3.995   3.230  0.3643  0.0960 -0.3807
 6936SOL    HW232442   2.221   3.896   3.225 -0.5312  3.8017  0.1908
 6937SOL     OW32443   1.490   4.638  15.311  0.1935 -0.3137 -0.4942
 6937SOL    HW132444   1.540   4.695  15.252  0.2666  1.7409  1.5239
 6937SOL    HW232445   1.517   4.552  15.279 -0.4008  0.6644 -3.6290
 6938SOL     OW32446   0.355   0.524   7.227  0.3792 -0.4882  0.5323
 6938SOL    HW132447   0.260   0.532   7.225  0.4729  0.5168  0.3362
 6938SOL    HW232448   0.371   0.533   7.133  0.6805 -1.2798  0.5065
 6939SOL     OW32449   1.918   4.522   5.041 -0.1586  0.0406 -0.2118
 6939SOL    HW132450   1.825   4.511   5.020 -0.3662 -3.0781  2.3565
 6939SOL    HW232451   1.914   4.599   5.096  0.9273  1.1433 -1.6713
 6940SOL     OW32452   2.568   3.429   3.109 -0.3275 -0.4741  0.4009
 6940SOL    HW132453   2.482   3.469   3.092  0.8399  1.3045 -1.3617
 6940SOL    HW232454   2.573   3.416   3.203 -0.8406  1.8465  0.7478
 6941SOL     OW32455   0.853   0.221   7.769 -0.5207 -0.3496  0.1011
 6941SOL    HW132456   0.911   0.146   7.759 -1.4317 -1.2591  1.6833
 6941SOL    HW232457   0.857   0.241   7.863  3.8787  0.8688 -0.3608
 6942SOL     OW32458   2.436   1.989  13.806 -0.2498 -0.3395  0.0527
 6942SOL    HW132459   2.521   1.954  13.833 -0.2871  0.6430  1.4742
 6942SOL    HW232460   2.441   2.066  13.863 -1.1578 -0.0801 -0.2146
 6943SOL     OW32461   0.146   4.601   6.331  0.5270  0.0953  0.7334
 6943SOL    HW132462   0.121   4.535   6.267  1.1530  1.1618 -0.6083
 6943SOL    HW232463   0.204   4.654   6.276 -1.0037 -1.1552 -2.0898
 6944SOL     OW32464   2.519   1.411   3.520  0.0408 -0.2196 -0.3986
 6944SOL    HW132465   2.537   1.487   3.464 -0.1165 -0.7448 -1.1596
 6944SOL    HW232466   2.430   1.394   3.489  0.5967  0.2048 -2.2436
 6945SOL     OW32467   1.813   0.027   6.934  0.4751  0.1815  0.8051
 6945SOL    HW132468   1.752   0.026   7.008  0.6868 -1.4320  0.9540
 6945SOL    HW232469   1.771   4.685   6.898  0.2459  0.3694  0.6613
 6946SOL     OW32470   1.076   1.050   7.169  0.3542 -0.6876 -0.3302
 6946SOL    HW132471   1.097   1.124   7.112 -2.7426 -0.6163 -1.3793
 6946SOL    HW232472   1.048   0.991   7.099 -0.6595  0.9368 -1.3055
 6947SOL     OW32473   3.435   2.717  17.114 -0.6541 -0.4583 -0.1098
 6947SOL    HW132474   3.498   2.769  17.163 -0.3345 -0.3799 -0.6086
 6947SOL    HW232475   3.368   2.696  17.179 -0.0953 -0.0878  0.5809
 6948SOL     OW32476   1.309   2.496  13.884 -0.0486 -0.5244 -0.1237
 6948SOL    HW132477   1.351   2.548  13.816 -0.9703 -0.1590 -0.4156
 6948SOL    HW232478   1.360   2.416  13.901  1.1962 -0.1403 -2.1381
 6949SOL     OW32479   1.663   1.754   2.649 -0.6059  0.0200 -0.3996
 6949SOL    HW132480   1.736   1.815   2.634 -0.9853 -0.0016 -2.3732
 6949SOL    HW232481   1.708   1.688   2.702 -0.2902 -0.6121 -1.4610
 6950SOL     OW32482   1.795   3.633   2.832  0.1710  0.1899 -0.1281
 6950SOL    HW132483   1.833   3.584   2.904 -0.7701 -1.2364 -0.6010
 6950SOL    HW232484   1.757   3.564   2.778 -2.2441  1.2506  0.2222
 6951SOL     OW32485   3.855   1.264   2.630 -0.2735 -0.5913 -0.4492
 6951SOL    HW132486   3.806   1.195   2.585  1.3815 -0.4623 -2.4136
 6951SOL    HW232487   3.930   1.212   2.659 -0.6641 -1.0853 -0.3170
 6952SOL     OW32488   0.681   0.567  17.535 -0.2410  0.0946  0.4346
 6952SOL    HW132489   0.603   0.622  17.534 -0.2336  0.1173  1.3812
 6952SOL    HW232490   0.746   0.624  17.576 -0.6601  0.0731  1.1169
 6953SOL     OW32491   0.334   2.105  10.842 -0.0875  0.2165 -0.2273
 6953SOL    HW132492   0.274   2.084  10.913 -1.0836 -1.9965 -1.7275
 6953SOL    HW232493   0.315   2.027  10.790 -0.7220  0.5797 -0.5389
 6954SOL     OW32494   2.084   4.128   9.089  0.6351 -0.1853 -0.4083
 6954SOL    HW132495   2.042   4.042   9.086 -0.3724  0.2820  0.1899
 6954SOL    HW232496   2.048   4.167   9.168 -1.4207 -1.9718 -0.4429
 6955SOL     OW32497   4.505   1.148   3.110  0.2236  0.3535  0.6167
 6955SOL    HW132498   4.596   1.127   3.132  0.7696 -0.0627 -2.0111
 6955SOL    HW232499   4.507   1.243   3.099  1.7264  0.3743  1.0001
 6956SOL     OW32500   4.213   2.593  14.404  0.2848  0.0258 -0.0508
 6956SOL    HW132501   4.278   2.609  14.335  1.2705 -1.9480  0.4258
 6956SOL    HW232502   4.214   2.679  14.445 -0.9538  0.4128 -0.8334
 6957SOL     OW32503   2.282   3.296   5.837  0.5732  0.1962 -0.2051
 6957SOL    HW132504   2.236   3.292   5.754  1.2657 -2.4642 -0.4655
 6957SOL    HW232505   2.211   3.320   5.897  0.5854  1.0876 -0.5532
 6958SOL     OW32506   1.687   0.534   2.484 -0.5416  0.3383  0.4067
 6958SOL    HW132507   1.662   0.473   2.414  0.3603  0.9412 -0.4341
 6958SOL    HW232508   1.737   0.474   2.538  0.6221  1.0426  0.1023
 6959SOL     OW32509   3.826   1.886   2.553  0.4423 -0.2274  0.2992
 6959SOL    HW132510   3.788   1.936   2.481 -0.0841 -1.6509 -0.4184
 6959SOL    HW232511   3.755   1.828   2.580 -0.1902  1.2448  1.7496
 6960SOL     OW32512   4.170   3.057   3.208 -0.1155 -0.2160 -0.1298
 6960SOL    HW132513   4.132   3.124   3.265 -1.0389 -2.1486  1.5244
 6960SOL    HW232514   4.261   3.081   3.228 -0.4433  0.5661  0.4105
 6961SOL     OW32515   1.567   2.216   8.258 -0.5598 -0.1949  0.2775
 6961SOL    HW132516   1.474   2.194   8.262 -1.1999  2.2702 -1.0798
 6961SOL    HW232517   1.608   2.129   8.254  0.5499  0.2871  1.2197
 6962SOL     OW32518   3.196   2.784  16.464 -0.3323  0.5614 -0.2091
 6962SOL    HW132519   3.277   2.771  16.414 -0.6218  2.4794 -1.1859
 6962SOL    HW232520   3.242   2.820  16.541 -2.1580  0.6594  0.8322
 6963SOL     OW32521   3.371   0.031   9.587 -0.4614  0.0228  0.2408
 6963SOL    HW132522   3.339   0.032   9.677  1.4188  3.0087  0.8950
 6963SOL    HW232523   3.310   0.093   9.547 -0.9957 -0.4863  0.2776
 6964SOL     OW32524   0.079   3.059   6.591 -0.5059  0.4445  0.4273
 6964SOL    HW132525   0.066   2.987   6.653 -0.3797 -0.0504 -0.1244
 6964SOL    HW232526   0.150   3.028   6.534  0.7981  0.8164  1.8537
 6965SOL     OW32527   1.182   2.845   1.151 -0.4452  0.1219 -0.1352
 6965SOL    HW132528   1.091   2.873   1.142 -0.4630  0.3851  0.9412
 6965SOL    HW232529   1.204   2.914   1.213 -0.6981  0.5894 -0.5608
 6966SOL     OW32530   4.151   2.139   6.008  0.1554  0.2202 -0.3647
 6966SOL    HW132531   4.074   2.132   6.065  1.5266 -0.8902  1.3677
 6966SOL    HW232532   4.204   2.079   6.061  0.8824 -1.4249 -2.9357
 6967SOL     OW32533   0.303   1.360  17.460 -0.0225 -0.0886 -0.3659
 6967SOL    HW132534   0.252   1.378  17.380  1.3056 -0.4666 -1.2920
 6967SOL    HW232535   0.277   1.437  17.511 -0.8073  0.2006 -1.1958
 6968SOL     OW32536   2.837   4.370  17.212  0.2128  0.1170 -0.1645
 6968SOL    HW132537   2.794   4.358  17.296  0.1127 -1.7489 -0.4759
 6968SOL    HW232538   2.796   4.301  17.159  0.5382 -1.0921  1.1591
 6969SOL     OW32539   3.060   2.620  13.318 -0.0714 -0.1266 -1.0726
 6969SOL    HW132540   3.104   2.553  13.266 -0.5646  0.8099 -2.6820
 6969SOL    HW232541   3.133   2.678  13.340 -0.7260  0.7677 -1.2290
 6970SOL     OW32542   0.217   2.736   4.383 -0.2542  0.1001  0.5275
 6970SOL    HW132543   0.126   2.712   4.365  0.3033 -0.9093 -0.9330
 6970SOL    HW232544   0.249   2.652   4.417 -0.2008 -0.0269  0.1587
 6971SOL     OW32545   2.254   2.013   7.080 -1.0226  0.2090 -0.4966
 6971SOL    HW132546   2.253   2.104   7.051 -3.1106  0.3860  0.1651
 6971SOL    HW232547   2.349   2.012   7.091 -0.9621  1.5875 -0.8838
 6972SOL     OW32548   3.168   1.863   7.559 -0.9433 -0.0384 -0.5595
 6972SOL    HW132549   3.221   1.942   7.559  0.8290 -1.2047 -2.7239
 6972SOL    HW232550   3.087   1.898   7.522 -1.1744  1.4005  1.3447
 6973SOL     OW32551   2.399   3.849   8.704  0.1200 -0.8823  0.0889
 6973SOL    HW132552   2.357   3.867   8.789 -0.9304  2.2866 -1.0816
 6973SOL    HW232553   2.483   3.883   8.735  0.6005 -3.0832  1.1736
 6974SOL     OW32554   4.173   0.070  15.591  0.0255  0.0908  0.3061
 6974SOL    HW132555   4.140   0.160  15.599 -0.6088 -0.0368 -0.8394
 6974SOL    HW232556   4.267   0.075  15.610  0.3248 -1.2291 -0.8924
 6975SOL     OW32557   1.381   0.746   5.873  0.3649 -0.4679  0.3763
 6975SOL    HW132558   1.346   0.722   5.958 -2.0610 -1.5836 -0.9379
 6975SOL    HW232559   1.319   0.815   5.850 -0.0505 -0.4004  1.7332
 6976SOL     OW32560   3.874   0.845   9.825 -0.4616 -0.6679 -0.0072
 6976SOL    HW132561   3.823   0.889   9.893  1.2691  2.0741 -0.5140
 6976SOL    HW232562   3.892   0.766   9.877  1.6406 -0.0854  0.1442
 6977SOL     OW32563   1.619   3.438   3.358  0.1117 -0.0372  0.3945
 6977SOL    HW132564   1.655   3.422   3.445 -1.2825 -2.4163  0.5170
 6977SOL    HW232565   1.602   3.532   3.356 -1.2798 -0.3776 -4.0563
 6978SOL     OW32566   0.768   0.010  16.506  0.0042 -0.3038  0.3345
 6978SOL    HW132567   0.862   4.736  16.521  0.1768 -1.8160 -1.7534
 6978SOL    HW232568   0.760   0.008  16.411  0.0622 -4.3634  0.4021
 6979SOL     OW32569   2.967   2.461   7.865  0.0605  0.4514 -0.1330
 6979SOL    HW132570   2.964   2.540   7.919 -0.6801  1.1508 -1.1885
 6979SOL    HW232571   3.036   2.411   7.909 -0.2877  0.2839  0.2206
 6980SOL     OW32572   3.768   1.149   8.129  0.1906 -0.1767 -0.2323
 6980SOL    HW132573   3.803   1.162   8.041  2.0672  0.0061  0.5487
 6980SOL    HW232574   3.723   1.067   8.106  2.0652 -1.2216 -0.2235
 6981SOL     OW32575   2.434   1.203  11.864 -0.3333 -0.2798  0.1963
 6981SOL    HW132576   2.430   1.170  11.774 -2.0816  1.5736 -0.3885
 6981SOL    HW232577   2.495   1.276  11.853  0.1716 -0.8942 -1.0830
 6982SOL     OW32578   0.351   0.144  12.863  0.1714  0.4019  0.5246
 6982SOL    HW132579   0.353   0.118  12.771 -0.8364 -0.2568  0.6986
 6982SOL    HW232580   0.435   0.190  12.872  1.1434 -1.0593 -1.0449
 6983SOL     OW32581   3.010   3.141  17.531 -0.5909  0.2536 -0.4105
 6983SOL    HW132582   3.011   3.224  17.579  2.1014  0.3244 -0.6108
 6983SOL    HW232583   3.072   3.158  17.460  1.2596 -1.3368  0.8001
 6984SOL     OW32584   0.065   0.724   4.405 -0.1587 -0.5634  0.2085
 6984SOL    HW132585   0.107   0.652   4.358  1.0858  0.1827  0.1833
 6984SOL    HW232586   0.133   0.753   4.466  2.0746 -1.7401 -1.7352
 6985SOL     OW32587   0.430   2.439   5.705  0.0475 -0.1646  0.1411
 6985SOL    HW132588   0.361   2.484   5.753  0.0201 -1.7666  1.6126
 6985SOL    HW232589   0.496   2.507   5.712 -0.7021  0.4186  1.5306
 6986SOL     OW32590   3.388   2.729   8.824 -0.1879 -0.5840 -0.1003
 6986SOL    HW132591   3.387   2.779   8.742  0.9451  0.6353  0.6186
 6986SOL    HW232592   3.380   2.641   8.788  1.3399 -0.7929  0.0606
 6987SOL     OW32593   0.527   2.462   8.185  0.4263 -1.0470  0.3416
 6987SOL    HW132594   0.535   2.513   8.104 -0.9036 -1.5561 -0.1169
 6987SOL    HW232595   0.509   2.535   8.245  3.0445 -1.1652  1.2701
 6988SOL     OW32596   1.571   3.126   4.577 -0.1183 -0.2791 -0.2230
 6988SOL    HW132597   1.507   3.186   4.538 -0.4853 -0.3737  0.2368
 6988SOL    HW232598   1.528   3.043   4.553 -1.5566 -0.3040  2.4554
 6989SOL     OW32599   3.979   0.045   2.890 -0.0049 -0.2926 -0.6245
 6989SOL    HW132600   3.892   0.025   2.854  0.7224 -2.7066 -0.9975
 6989SOL    HW232601   3.988   4.691   2.919  1.7680  0.1083  0.0579
 6990SOL     OW32602   4.508   2.065   7.401 -0.0201  0.6695  0.3662
 6990SOL    HW132603   4.447   1.991   7.403  1.2479 -0.3894 -0.5903
 6990SOL    HW232604   4.573   2.028   7.460 -0.5910 -1.6859 -0.4919
 6991SOL     OW32605   0.738   2.016   8.706 -0.3433 -0.7235 -0.5164
 6991SOL    HW132606   0.695   2.046   8.626 -0.8564  1.4783  0.5864
 6991SOL    HW232607   0.826   2.053   8.692 -0.9508  0.8771 -0.1544
 6992SOL     OW32608   4.016   4.711   9.496  0.4121  0.0479  0.0299
 6992SOL    HW132609   3.970   4.634   9.529 -0.7765  1.6830  2.1420
 6992SOL    HW232610   3.963   0.048   9.527 -2.8438 -2.0773 -0.5432
 6993SOL     OW32611   1.721   3.587  16.324  0.7550  0.0050  0.3953
 6993SOL    HW132612   1.666   3.578  16.402  0.8442  2.4214  0.7269
 6993SOL    HW232613   1.686   3.668  16.287 -1.6609 -0.0294  2.6169
 6994SOL     OW32614   0.708   0.330   2.401 -0.2891 -0.3869  0.2909
 6994SOL    HW132615   0.701   0.253   2.457 -1.1748 -0.2909  0.3117
 6994SOL    HW232616   0.674   0.394   2.463 -0.8959 -0.8810  0.4622
 6995SOL     OW32617   0.527   2.871   0.109  0.5546 -0.5819  0.5227
 6995SOL    HW132618   0.483   2.953   0.131 -0.5061 -0.3651 -2.4357
 6995SOL    HW232619   0.608   2.874   0.160  0.2920 -0.8307  0.9519
 6996SOL     OW32620   2.018   0.346   5.504  0.7228 -0.3434 -0.4703
 6996SOL    HW132621   1.995   0.357   5.412 -1.7598  0.5356  0.2572
 6996SOL    HW232622   1.996   0.430   5.544  0.8612  0.2074 -1.5643
 6997SOL     OW32623   1.987   0.371   8.760 -0.2883 -0.0052 -0.1396
 6997SOL    HW132624   1.956   0.330   8.841 -1.3012  0.2590 -0.3885
 6997SOL    HW232625   2.058   0.426   8.794 -0.7320  2.5470 -3.3246
 6998SOL     OW32626   3.222   2.881   4.075  0.3228 -0.2555 -0.5092
 6998SOL    HW132627   3.314   2.881   4.050  0.7727 -1.7136  1.1617
 6998SOL    HW232628   3.207   2.789   4.096 -0.6847  0.3186  1.2867
 6999SOL     OW32629   3.454   4.497   7.417  0.1924  0.2846 -0.4699
 6999SOL    HW132630   3.541   4.511   7.454  1.1019 -0.4248 -2.3116
 6999SOL    HW232631   3.421   4.586   7.425 -0.2579  0.3229 -2.7227
 7000SOL     OW32632   1.312   2.380  11.053  0.1704 -0.0001  0.2891
 7000SOL    HW132633   1.252   2.364  11.126 -0.3961  0.6124 -0.0448
 7000SOL    HW232634   1.330   2.288  11.034 -1.4834 -0.5471  1.3840
 7001SOL     OW32635   3.897   3.406   7.731 -0.1056  0.1486 -0.1755
 7001SOL    HW132636   3.817   3.458   7.738 -0.2933  0.3055 -3.2598
 7001SOL    HW232637   3.948   3.462   7.672 -0.9436  3.2501  2.0779
 7002SOL     OW32638   4.675   0.819   5.278 -0.4504  0.7081  0.4839
 7002SOL    HW132639   4.629   0.856   5.203  1.6543 -1.7010 -1.9945
 7002SOL    HW232640   4.663   0.729   5.246 -1.7564  0.7188  0.9071
 7003SOL     OW32641   2.175   1.135   6.295  0.3950 -0.3134  0.4345
 7003SOL    HW132642   2.133   1.110   6.377 -0.0882 -1.5334 -0.2005
 7003SOL    HW232643   2.158   1.230   6.295 -0.7119 -0.5184 -2.0164
 7004SOL     OW32644   3.305   3.077   4.497  0.2006  0.1412 -0.2465
 7004SOL    HW132645   3.284   3.162   4.459 -2.6027 -1.7140 -2.8713
 7004SOL    HW232646   3.365   3.098   4.568  1.0218  0.0432 -0.9177
 7005SOL     OW32647   4.023   1.641  14.336 -0.0088  0.0110 -0.2654
 7005SOL    HW132648   3.994   1.714  14.391  1.9668  1.3187 -0.9216
 7005SOL    HW232649   3.943   1.609  14.295 -0.7436 -0.3532  1.4799
 7006SOL     OW32650   2.520   2.759   7.747 -0.1168  0.2249  0.3273
 7006SOL    HW132651   2.601   2.771   7.796  1.0912 -0.6121 -1.4481
 7006SOL    HW232652   2.504   2.851   7.729  1.5023  0.1808 -1.3360
 7007SOL     OW32653   4.167   1.039   5.817 -0.6040  0.1457  0.5599
 7007SOL    HW132654   4.226   1.037   5.742 -2.2451  1.9362 -0.8040
 7007SOL    HW232655   4.219   0.977   5.868  1.5881  0.8416 -0.8121
 7008SOL     OW32656   0.572   1.303  17.409  0.3592  0.1114 -0.3316
 7008SOL    HW132657   0.480   1.328  17.394  0.7351  1.6089 -0.1548
 7008SOL    HW232658   0.595   1.271  17.322  2.0310  1.7583 -0.4812
 7009SOL     OW32659   3.936   3.588   6.576  0.0176 -0.0233  0.5773
 7009SOL    HW132660   3.844   3.590   6.547  0.2040 -1.6649 -0.0957
 7009SOL    HW232661   3.927   3.548   6.662 -0.5440  1.0314  1.0169
 7010SOL     OW32662   3.557   2.116  10.789 -0.3459 -0.6337  0.0478
 7010SOL    HW132663   3.521   2.096  10.702  0.0924 -1.2567  0.0117
 7010SOL    HW232664   3.478   2.151  10.831  1.4623 -2.1202  4.6826
 7011SOL     OW32665   4.149   0.781   7.791  0.2868 -0.0300  0.1450
 7011SOL    HW132666   4.163   0.836   7.868 -2.1294  0.6970  0.0610
 7011SOL    HW232667   4.239   0.749   7.782  0.8628  1.1595  1.8247
 7012SOL     OW32668   1.152   1.264   6.990 -0.0749 -0.2817  0.3553
 7012SOL    HW132669   1.095   1.325   6.943  1.1646 -0.5865 -1.5515
 7012SOL    HW232670   1.231   1.252   6.937 -0.5274 -1.1922 -0.1106
 7013SOL     OW32671   1.598   2.303   7.941  0.1714 -0.0423 -0.7842
 7013SOL    HW132672   1.664   2.250   7.985 -0.1246  0.2826  0.0498
 7013SOL    HW232673   1.656   2.366   7.898  2.5356 -0.2859  2.0104
 7014SOL     OW32674   0.483   4.148   7.699  0.2050  0.8841 -0.1383
 7014SOL    HW132675   0.519   4.149   7.611  0.8297  2.0988  0.1350
 7014SOL    HW232676   0.423   4.223   7.691 -1.9855 -0.9080 -0.5603
 7015SOL     OW32677   4.663   3.239   8.922  0.0021  0.3861 -0.1986
 7015SOL    HW132678   4.595   3.201   8.977  0.7490 -0.7235 -0.0442
 7015SOL    HW232679   0.006   3.236   8.977  0.4854 -0.1889 -0.9161
 7016SOL     OW32680   0.053   1.941   1.309  0.0272 -0.5275 -0.4869
 7016SOL    HW132681   0.030   2.030   1.335  2.0831  0.4135 -1.9039
 7016SOL    HW232682   4.721   1.926   1.244  0.0538  0.7632 -0.8025
 7017SOL     OW32683   4.073   3.428  12.939 -0.1486 -0.2505 -0.2116
 7017SOL    HW132684   4.060   3.425  13.034 -0.4062 -1.6745 -0.2855
 7017SOL    HW232685   4.167   3.443  12.938  0.0208 -1.3488 -0.4035
 7018SOL     OW32686   0.451   4.178   4.294 -0.1303  0.3549 -0.3414
 7018SOL    HW132687   0.382   4.131   4.341  0.4258 -0.1004  0.0236
 7018SOL    HW232688   0.460   4.125   4.216 -0.9119  1.2410 -1.0344
 7019SOL     OW32689   3.889   2.597  14.998 -0.1919  0.3077 -0.5685
 7019SOL    HW132690   3.914   2.666  14.936 -0.3508  2.6525  1.9444
 7019SOL    HW232691   3.858   2.533  14.934 -1.1776  2.1000 -1.9091
 7020SOL     OW32692   0.894   0.078   3.700  0.2026 -0.5198 -0.2637
 7020SOL    HW132693   0.811   0.084   3.749  0.2332  0.2768 -0.3131
 7020SOL    HW232694   0.869   0.035   3.619 -0.2059  1.0307 -0.9606
 7021SOL     OW32695   1.625   3.585  13.372 -0.0525 -0.4108  0.3161
 7021SOL    HW132696   1.617   3.578  13.467  0.2708 -0.5457  0.3349
 7021SOL    HW232697   1.544   3.632  13.355 -0.5440 -2.1300 -2.1456
 7022SOL     OW32698   0.547   2.695  10.814 -0.4652 -0.0280 -0.0045
 7022SOL    HW132699   0.578   2.778  10.778 -1.6767 -1.1853 -3.7787
 7022SOL    HW232700   0.631   2.665  10.848 -1.1426 -1.1460  0.6855
 7023SOL     OW32701   3.207   4.005   8.107  0.0637 -0.2498 -0.1831
 7023SOL    HW132702   3.163   3.924   8.133  1.8642 -1.2670 -0.3041
 7023SOL    HW232703   3.181   4.004   8.015  1.7101 -1.0410 -0.6343
 7024SOL     OW32704   4.042   3.651   5.057 -0.0685 -0.5965  0.0607
 7024SOL    HW132705   3.946   3.660   5.059 -0.1229 -1.3834  1.0086
 7024SOL    HW232706   4.048   3.556   5.058 -0.2789 -0.6123 -0.1937
 7025SOL     OW32707   2.103   4.402  16.905  0.1238 -0.3363 -0.1180
 7025SOL    HW132708   2.190   4.379  16.874 -0.6490  0.3827 -2.8889
 7025SOL    HW232709   2.054   4.371  16.828  2.7678 -0.4402 -1.7555
 7026SOL     OW32710   3.903   3.206  16.618 -0.4443 -0.4965 -0.0086
 7026SOL    HW132711   3.967   3.145  16.582  1.0425  0.7175  0.5557
 7026SOL    HW232712   3.910   3.182  16.711  3.4597 -1.5134 -0.5570
 7027SOL     OW32713   1.516   3.363   8.025  0.2105 -0.1549  0.0701
 7027SOL    HW132714   1.584   3.360   8.092  0.3674  0.1573 -0.0758
 7027SOL    HW232715   1.564   3.341   7.946 -1.2809  2.5176 -1.6064
 7028SOL     OW32716   3.868   2.736   3.400  0.1352 -0.4978  0.1863
 7028SOL    HW132717   3.927   2.771   3.333  0.3908  0.3261  0.8392
 7028SOL    HW232718   3.786   2.784   3.393  0.2610 -0.1291  1.2117
 7029SOL     OW32719   2.395   2.133  11.137  0.4970 -0.1333  0.1433
 7029SOL    HW132720   2.458   2.194  11.100 -0.1010 -0.7880 -1.9735
 7029SOL    HW232721   2.316   2.138  11.082  0.4679 -0.3069  0.1688
 7030SOL     OW32722   4.177   2.876   1.997 -0.4221 -0.8437  0.4563
 7030SOL    HW132723   4.211   2.912   2.079  1.0551  1.1815 -1.0633
 7030SOL    HW232724   4.175   2.784   2.024  1.9431 -1.5004 -1.6607
 7031SOL     OW32725   3.043   4.476  14.029 -0.3533  0.1786 -0.0759
 7031SOL    HW132726   2.992   4.403  13.996  0.5873 -1.1618  1.4460
 7031SOL    HW232727   3.017   4.534  13.958 -0.6864  1.6074  1.1951
 7032SOL     OW32728   2.360   2.015   7.522 -0.5619  0.1763  0.5865
 7032SOL    HW132729   2.310   2.025   7.604  2.3364  1.4982  2.1948
 7032SOL    HW232730   2.332   2.088   7.467  0.8438  0.2029 -0.0921
 7033SOL     OW32731   2.857   1.725   2.718  0.7983 -0.0893 -0.2149
 7033SOL    HW132732   2.940   1.746   2.761  0.5267 -0.9725  0.7594
 7033SOL    HW232733   2.799   1.800   2.735  2.7413  1.7704 -1.8988
 7034SOL     OW32734   0.619   1.391   0.676 -0.1756 -0.1240  0.0290
 7034SOL    HW132735   0.700   1.437   0.695  1.0845 -0.3870 -4.5905
 7034SOL    HW232736   0.575   1.451   0.615 -1.4199 -0.6726  0.3858
 7035SOL     OW32737   3.313   3.304  13.132 -0.3059  0.1014 -0.0771
 7035SOL    HW132738   3.371   3.338  13.200  1.6660 -2.4189 -0.4753
 7035SOL    HW232739   3.315   3.383  13.079 -0.5076 -0.6522 -1.2105
 7036SOL     OW32740   4.677   1.509  10.504 -0.3864  0.0401 -0.0708
 7036SOL    HW132741   0.009   1.475  10.561  0.5660  2.0152 -0.0316
 7036SOL    HW232742   4.623   1.548  10.573  1.3877  0.2681  1.1986
 7037SOL     OW32743   3.841   0.795   8.236  0.4215 -0.4363  0.3597
 7037SOL    HW132744   3.826   0.803   8.142 -1.7147 -0.7916  0.6606
 7037SOL    HW232745   3.936   0.782   8.232  0.2538 -1.5726  0.1130
 7038SOL     OW32746   3.843   1.613   9.057  0.5265  0.0949 -0.6333
 7038SOL    HW132747   3.880   1.559   9.126 -2.1765 -0.7760  0.1499
 7038SOL    HW232748   3.749   1.607   9.073  0.5360 -0.8353 -0.9240
 7039SOL     OW32749   2.937   0.976   2.158  0.2004 -0.0825  0.6076
 7039SOL    HW132750   2.971   0.938   2.239 -1.3165 -0.2565  1.1586
 7039SOL    HW232751   2.853   0.938   2.135 -0.2566  1.3683 -0.1246
 7040SOL     OW32752   1.577   3.465   8.479  0.1255  0.1588  0.5160
 7040SOL    HW132753   1.614   3.383   8.448 -0.6974  0.0967 -0.3033
 7040SOL    HW232754   1.635   3.518   8.424 -2.1009  1.7269 -0.3513
 7041SOL     OW32755   4.574   1.487   2.281  0.0318  0.0823 -0.0318
 7041SOL    HW132756   4.552   1.550   2.350 -2.0108 -0.0834 -0.5080
 7041SOL    HW232757   4.487   1.460   2.250  0.0689  0.1651 -0.2087
 7042SOL     OW32758   2.848   3.753   4.663 -0.6210  0.3859 -0.0748
 7042SOL    HW132759   2.836   3.842   4.696  0.3330 -0.5478  2.7797
 7042SOL    HW232760   2.790   3.774   4.591  1.1267  0.3032 -1.5082
 7043SOL     OW32761   4.690   3.669   5.086  0.0226 -0.2930  0.0561
 7043SOL    HW132762   4.650   3.625   5.011  0.1672  0.9172 -0.7320
 7043SOL    HW232763   0.021   3.720   5.041  1.0297 -2.2130 -0.6191
 7044SOL     OW32764   4.592   1.105   8.024  0.0795 -0.0918  0.2551
 7044SOL    HW132765   4.570   1.198   8.022 -0.2736 -0.1766  0.1521
 7044SOL    HW232766   4.607   1.090   8.117  2.5614 -2.8383 -0.5656
 7045SOL     OW32767   4.663   1.413   4.220  0.7107 -0.0286  0.2559
 7045SOL    HW132768   0.009   1.445   4.181  1.6816 -1.4122  1.1547
 7045SOL    HW232769   4.656   1.465   4.301 -0.1942 -1.4176  1.0739
 7046SOL     OW32770   0.740   2.921   3.472 -0.0828 -0.2712 -0.6397
 7046SOL    HW132771   0.782   3.003   3.449 -0.2078 -0.2972 -0.9602
 7046SOL    HW232772   0.805   2.859   3.438  1.1032  1.1888 -0.9788
 7047SOL     OW32773   1.753   3.669   7.930  0.1973 -0.6302  0.2656
 7047SOL    HW132774   1.671   3.645   7.887  0.8913  3.1730 -3.1904
 7047SOL    HW232775   1.803   3.710   7.860 -0.0663  0.2542  0.5946
 7048SOL     OW32776   2.257   0.411   7.778  0.0059 -0.3200 -0.5873
 7048SOL    HW132777   2.169   0.399   7.814  0.9022 -3.8293  0.4032
 7048SOL    HW232778   2.301   0.446   7.856 -1.9752 -0.4558  0.6010
 7049SOL     OW32779   0.184   3.318   9.076 -0.4891  0.4080 -0.3568
 7049SOL    HW132780   0.232   3.369   9.011  0.9182 -0.1506  0.2400
 7049SOL    HW232781   0.152   3.371   9.149  2.5939 -0.6006  1.7249
 7050SOL     OW32782   0.289   3.094   8.716 -0.0800  0.2017 -0.0211
 7050SOL    HW132783   0.337   3.165   8.673 -0.2484  0.3437  0.0201
 7050SOL    HW232784   0.358   3.063   8.774  0.8860 -1.3741 -2.0139
 7051SOL     OW32785   0.106   0.643   0.771  0.5638  0.8628  0.3801
 7051SOL    HW132786   0.111   0.724   0.719 -0.1523  0.2297 -0.6672
 7051SOL    HW232787   0.141   0.583   0.705  0.6273 -1.1291  2.2237
 7052SOL     OW32788   2.382   4.052   4.963  0.7248 -0.0525  0.0422
 7052SOL    HW132789   2.331   3.995   4.907  0.2388  0.8935 -0.4820
 7052SOL    HW232790   2.323   4.056   5.038  3.0703  0.9324  1.8565
 7053SOL     OW32791   4.453   2.239   2.710  0.0491  0.1088 -0.6009
 7053SOL    HW132792   4.469   2.215   2.618  1.3846 -1.7689  0.1140
 7053SOL    HW232793   4.392   2.169   2.730 -1.3780  1.2806 -0.8683
 7054SOL     OW32794   1.662   1.411   8.309  0.5465 -0.0695 -0.4531
 7054SOL    HW132795   1.649   1.321   8.277 -2.6267  0.5779 -1.0412
 7054SOL    HW232796   1.608   1.408   8.388  1.3581 -0.6656  0.0794
 7055SOL     OW32797   2.061   3.160   4.129 -0.3297  0.5498 -0.3420
 7055SOL    HW132798   2.118   3.134   4.056  1.7423 -1.9680  2.1845
 7055SOL    HW232799   2.132   3.203   4.177 -0.9852  0.1292  0.9858
 7056SOL     OW32800   0.479   3.248   5.177 -0.4163  0.1411 -0.2803
 7056SOL    HW132801   0.536   3.201   5.116 -0.7119  1.6261 -1.6875
 7056SOL    HW232802   0.526   3.234   5.259  1.6585 -1.3220 -1.7167
 7057SOL     OW32803   0.572   0.752   7.069  0.5886 -0.3161  0.0293
 7057SOL    HW132804   0.506   0.700   7.023  1.0050 -1.1723  0.3978
 7057SOL    HW232805   0.581   0.712   7.156  1.3480  0.4991  0.3264
 7058SOL     OW32806   0.837   0.405   6.919  0.4434  0.3652  0.4146
 7058SOL    HW132807   0.921   0.365   6.900  0.8165  0.6396  1.4935
 7058SOL    HW232808   0.854   0.455   6.999 -1.0021  1.2751  0.1630
 7059SOL     OW32809   3.244   1.170   8.058 -0.1426 -0.1511  0.3756
 7059SOL    HW132810   3.300   1.182   8.134  0.9721 -1.9896 -0.1524
 7059SOL    HW232811   3.194   1.095   8.090  1.7288 -1.7229 -0.4035
 7060SOL     OW32812   1.008   4.495   5.023 -0.1430 -0.5908 -0.1322
 7060SOL    HW132813   1.081   4.432   5.024 -0.1677 -0.5958  0.7071
 7060SOL    HW232814   0.941   4.430   5.044  0.6620 -1.2775  0.3213
 7061SOL     OW32815   2.561   2.992   8.464 -0.1509 -0.1056  0.1703
 7061SOL    HW132816   2.559   3.081   8.429  0.5385 -0.6745 -1.3366
 7061SOL    HW232817   2.647   2.995   8.504 -0.3943  0.2258  0.6643
 7062SOL     OW32818   3.562   4.616  12.033  0.2635 -0.2841  0.6904
 7062SOL    HW132819   3.479   4.579  12.002  0.8236  1.6996 -3.1709
 7062SOL    HW232820   3.524   4.685  12.088  0.1532 -0.6666  1.0943
 7063SOL     OW32821   1.668   3.369   6.911 -0.3342  0.3899 -0.1000
 7063SOL    HW132822   1.623   3.413   6.839  2.4139  1.8659 -0.8907
 7063SOL    HW232823   1.736   3.318   6.868 -0.9842  1.4585 -2.3630
 7064SOL     OW32824   2.465   0.220   9.379  0.0025  0.4797  0.3578
 7064SOL    HW132825   2.473   0.314   9.365  2.2106  0.1223 -0.7694
 7064SOL    HW232826   2.496   0.185   9.295 -0.3336  3.6525 -1.0783
 7065SOL     OW32827   4.290   2.885   7.320 -0.2880  0.5644 -0.2873
 7065SOL    HW132828   4.228   2.812   7.318 -0.2487  0.4377  2.9409
 7065SOL    HW232829   4.254   2.953   7.263 -1.5222  0.1847  0.0181
 7066SOL     OW32830   3.640   1.926   3.917 -0.0655  0.8088  0.0761
 7066SOL    HW132831   3.689   1.846   3.900 -0.0274  0.8707 -0.1016
 7066SOL    HW232832   3.670   1.993   3.855 -1.0267  0.3101 -0.9273
 7067SOL     OW32833   0.487   2.423   1.161  0.5544 -0.0356  0.3477
 7067SOL    HW132834   0.568   2.411   1.111 -2.4598 -0.9044 -4.3683
 7067SOL    HW232835   0.500   2.371   1.240 -2.9427  1.5361  1.9699
 7068SOL     OW32836   0.443   2.033   4.408  0.0565 -0.1333 -0.2361
 7068SOL    HW132837   0.440   2.033   4.313 -2.0205  0.4409 -0.1706
 7068SOL    HW232838   0.526   1.985   4.403  0.0804 -0.0534 -0.5823
 7069SOL     OW32839   0.906   2.816   7.418  0.2049 -0.0004 -0.1984
 7069SOL    HW132840   0.877   2.731   7.452 -2.1595 -0.2553 -2.8803
 7069SOL    HW232841   0.986   2.826   7.470 -2.4414  1.4758  3.6285
 7070SOL     OW32842   3.297   1.956   9.146 -0.5886  0.1353  0.1165
 7070SOL    HW132843   3.377   1.904   9.145 -0.8282 -0.1755 -1.8290
 7070SOL    HW232844   3.278   1.960   9.240 -1.2126 -1.4570  0.0463
 7071SOL     OW32845   2.559   1.928  13.542 -0.6021  0.1961  0.8360
 7071SOL    HW132846   2.518   1.920  13.628  1.0549 -1.2568  1.5046
 7071SOL    HW232847   2.604   2.012  13.550  0.8347 -0.6609  1.8137
 7072SOL     OW32848   2.040   3.160   6.400  0.3640  0.4538 -0.1375
 7072SOL    HW132849   2.049   3.201   6.485 -1.2511  0.6613 -0.0672
 7072SOL    HW232850   2.005   3.223   6.337  0.9606  0.9176 -0.0074
 7073SOL     OW32851   3.059   4.045   6.918  0.0162  0.3872  0.3859
 7073SOL    HW132852   2.992   4.019   6.981 -2.0898  3.0883 -0.7498
 7073SOL    HW232853   3.045   4.139   6.912 -0.2610  0.2493 -1.3251
 7074SOL     OW32854   2.778   4.054   3.993 -0.0468  0.5158 -0.9873
 7074SOL    HW132855   2.689   4.085   3.974 -0.4105 -0.4762 -0.8678
 7074SOL    HW232856   2.783   3.977   3.936 -1.7484  1.2407 -2.1324
 7075SOL     OW32857   4.205   1.557   4.304 -0.1939 -0.5147  0.5337
 7075SOL    HW132858   4.109   1.562   4.299 -0.3210 -1.6899  1.6768
 7075SOL    HW232859   4.218   1.475   4.256 -1.1023 -0.4304  0.1388
 7076SOL     OW32860   3.027   0.358   5.582  0.3247 -0.2930  0.5547
 7076SOL    HW132861   3.081   0.307   5.521 -1.4886 -3.2703  1.4537
 7076SOL    HW232862   3.059   0.327   5.667  0.0736  0.8238  1.0524
 7077SOL     OW32863   1.237   1.452   3.090  0.3181 -0.2578 -0.9873
 7077SOL    HW132864   1.167   1.412   3.142 -0.8493  2.2428 -0.6250
 7077SOL    HW232865   1.206   1.421   3.005 -2.1410  1.7934 -0.8311
 7078SOL     OW32866   4.735   4.113   4.262  0.5241 -0.3598 -0.1362
 7078SOL    HW132867   0.014   4.207   4.249 -0.2169 -0.1165  0.7568
 7078SOL    HW232868   0.084   4.074   4.281  1.1657  1.4404  0.6484
 7079SOL     OW32869   4.154   0.126   7.770  0.2539  0.1291  0.1001
 7079SOL    HW132870   4.180   0.042   7.809 -0.3201  0.8583  2.0491
 7079SOL    HW232871   4.112   0.101   7.688 -0.0326 -0.7665  0.5162
 7080SOL     OW32872   0.159   3.677   2.057  0.0584  0.2371  0.3580
 7080SOL    HW132873   0.226   3.656   2.123  1.4491 -0.6874 -1.3485
 7080SOL    HW232874   0.206   3.667   1.974 -0.9544 -0.0083 -0.1861
 7081SOL     OW32875   0.608   1.519  17.566 -0.2697 -0.2176 -0.5248
 7081SOL    HW132876   0.660   1.543  17.489 -0.4717  0.2234 -0.5281
 7081SOL    HW232877   0.571   1.436  17.537  2.6622 -0.4271 -3.6728
 7082SOL     OW32878   0.971   1.207  14.166 -0.3199 -0.1878 -0.0336
 7082SOL    HW132879   0.903   1.247  14.113 -0.9367 -3.0143 -1.3446
 7082SOL    HW232880   1.006   1.279  14.219  0.5731 -0.2452 -0.5473
 7083SOL     OW32881   1.322   3.156   8.560 -0.1499 -0.1716  0.2545
 7083SOL    HW132882   1.275   3.224   8.513 -2.8680 -2.9259 -0.9831
 7083SOL    HW232883   1.312   3.081   8.502 -0.9134 -0.5789  0.9105
 7084SOL     OW32884   0.905   3.509   2.109  0.1088  0.3348 -0.2223
 7084SOL    HW132885   0.845   3.549   2.046  1.5089  1.9049 -0.5450
 7084SOL    HW232886   0.844   3.480   2.177 -0.7905  2.3306 -0.1894
 7085SOL     OW32887   3.823   0.981  10.053  0.4423  0.0203  0.0090
 7085SOL    HW132888   3.864   1.068  10.047 -1.8602  1.0478 -1.0084
 7085SOL    HW232889   3.857   0.961  10.140  1.2546  1.1814 -0.0352
 7086SOL     OW32890   1.765   3.184   2.531  0.0226 -0.1628 -0.6061
 7086SOL    HW132891   1.736   3.121   2.597  0.0055  2.5156  1.9824
 7086SOL    HW232892   1.694   3.189   2.467 -0.8499 -1.2730  0.2778
 7087SOL     OW32893   4.498   0.604   4.939 -0.7141 -1.0353  0.3674
 7087SOL    HW132894   4.556   0.635   4.869 -1.6293 -1.2578 -0.4928
 7087SOL    HW232895   4.541   0.522   4.961  1.4621  0.0003 -0.0648
 7088SOL     OW32896   0.524   0.573   2.489 -1.0262  0.1608  0.0038
 7088SOL    HW132897   0.512   0.652   2.542  0.0825  0.3997 -0.0927
 7088SOL    HW232898   0.567   0.600   2.407  0.0183  0.9494  0.8154
 7089SOL     OW32899   2.280   1.350  17.586  0.2488  0.3027  0.7110
 7089SOL    HW132900   2.292   1.334  17.492 -0.5056 -1.2049  0.8692
 7089SOL    HW232901   2.326   1.430  17.609  1.7389 -0.2585 -0.3280
 7090SOL     OW32902   3.173   1.738   6.808  0.1912 -0.1806  0.0602
 7090SOL    HW132903   3.107   1.807   6.819  0.4131  0.4082 -2.2759
 7090SOL    HW232904   3.178   1.717   6.901  1.0424 -0.0773  0.0349
 7091SOL     OW32905   3.373   2.016   3.915 -0.2370 -0.5303 -0.1640
 7091SOL    HW132906   3.460   1.986   3.891 -0.5350 -2.2064  0.8083
 7091SOL    HW232907   3.399   2.066   3.992  0.4601 -1.0176 -0.0827
 7092SOL     OW32908   2.372   2.210   3.104  0.4852 -0.1802 -0.0008
 7092SOL    HW132909   2.415   2.291   3.077  1.7957 -1.8476 -2.8891
 7092SOL    HW232910   2.291   2.206   3.053  2.5835 -0.8853 -3.2219
 7093SOL     OW32911   0.404   3.258   5.801 -0.4527  0.3218 -0.3879
 7093SOL    HW132912   0.498   3.279   5.803 -0.5575  0.7222  0.3436
 7093SOL    HW232913   0.391   3.264   5.895 -0.1722  0.6139 -0.3651
 7094SOL     OW32914   0.587   4.095   7.166  0.1124  0.2482  0.3120
 7094SOL    HW132915   0.648   4.039   7.118 -0.1559  0.0806  0.1644
 7094SOL    HW232916   0.512   4.089   7.107 -0.0480  2.1431  0.3222
 7095SOL     OW32917   0.621   3.248   7.139 -0.0701 -0.2162 -0.2243
 7095SOL    HW132918   0.536   3.277   7.104 -0.6778  2.1545  3.1651
 7095SOL    HW232919   0.636   3.336   7.175  0.5852  0.0926 -1.2663
 7096SOL     OW32920   1.683   0.067   7.237  0.2762 -0.0510  0.1430
 7096SOL    HW132921   1.749   0.060   7.306  0.4630 -0.9039 -0.1282
 7096SOL    HW232922   1.638   0.150   7.256 -1.3126 -0.6708 -0.9524
 7097SOL     OW32923   3.300   0.766   1.661  0.0517  0.3355  0.2725
 7097SOL    HW132924   3.314   0.839   1.721  0.0138  1.4471 -1.0660
 7097SOL    HW232925   3.273   0.694   1.718  0.4785 -1.6946 -2.0843
 7098SOL     OW32926   1.068   4.007   5.784  0.3710 -0.0633 -1.1309
 7098SOL    HW132927   1.133   3.939   5.766  1.4742  0.5296  0.6122
 7098SOL    HW232928   0.988   3.955   5.778  0.8632 -1.0044  0.3759
 7099SOL     OW32929   1.763   1.876   0.563 -0.7344 -0.0392 -0.1140
 7099SOL    HW132930   1.772   1.965   0.597 -0.2673 -0.1803  0.1412
 7099SOL    HW232931   1.821   1.891   0.489 -1.4888 -1.1836 -0.9215
 7100SOL     OW32932   4.292   3.494   7.734 -0.2072 -0.0980 -0.2980
 7100SOL    HW132933   4.252   3.468   7.651 -2.4384  2.6163 -0.0765
 7100SOL    HW232934   4.370   3.439   7.730 -0.0423  0.2360 -1.7750
 7101SOL     OW32935   3.791   2.707   5.905  0.4877  0.3647  0.1449
 7101SOL    HW132936   3.794   2.799   5.879  0.7816  0.4890  0.6009
 7101SOL    HW232937   3.853   2.722   5.977  1.3563  1.1157 -0.7587
 7102SOL     OW32938   0.958   3.786  13.326 -0.7211  0.0195  0.0566
 7102SOL    HW132939   0.984   3.731  13.400  1.8810 -0.0732 -0.9579
 7102SOL    HW232940   0.969   3.870  13.370 -2.4671 -0.4296  1.3518
 7103SOL     OW32941   4.161   1.056  12.096 -0.5161  0.1008  0.0783
 7103SOL    HW132942   4.225   1.127  12.093  0.9343 -1.2192 -0.1815
 7103SOL    HW232943   4.097   1.102  12.041 -0.0396 -1.2028 -1.5526
 7104SOL     OW32944   3.384   3.790   5.936  0.7930 -0.4981  0.1563
 7104SOL    HW132945   3.445   3.784   5.862  2.0971 -1.6508  1.3047
 7104SOL    HW232946   3.421   3.845   6.005  2.9201 -0.1228 -1.2692
 7105SOL     OW32947   3.045   4.644   3.708  0.0777  0.2117  0.6632
 7105SOL    HW132948   2.989   4.602   3.773  1.2471 -0.1266  1.4520
 7105SOL    HW232949   3.053   4.579   3.638 -0.2004 -1.1042  1.8433
 7106SOL     OW32950   3.943   0.584   4.992  0.3948  0.6566 -0.7563
 7106SOL    HW132951   3.895   0.631   5.060 -0.3370  0.0755 -0.8779
 7106SOL    HW232952   4.027   0.564   5.032  1.2614  2.1505 -1.8197
 7107SOL     OW32953   1.655   1.961   8.328 -0.0898  0.4637  0.3945
 7107SOL    HW132954   1.598   1.902   8.377  2.0590 -2.1721 -0.2237
 7107SOL    HW232955   1.713   1.980   8.401  0.8569  1.7763 -0.7163
 7108SOL     OW32956   3.505   4.513   6.439  0.5045 -0.1852  0.0554
 7108SOL    HW132957   3.540   4.602   6.443  1.8619 -0.8528  3.3427
 7108SOL    HW232958   3.520   4.487   6.530 -1.1180  0.4752  0.5131
 7109SOL     OW32959   0.960   1.941  15.786 -0.1177  0.1764 -0.0038
 7109SOL    HW132960   0.953   2.035  15.768 -0.9372  0.0545 -0.3110
 7109SOL    HW232961   0.893   1.931  15.853  0.7120  2.4418  1.1775
 7110SOL     OW32962   1.533   2.263   2.893 -0.0188  0.7971 -0.7417
 7110SOL    HW132963   1.448   2.291   2.859 -1.6521 -3.0933  0.0974
 7110SOL    HW232964   1.582   2.309   2.825 -0.9562  1.4714 -0.9703
 7111SOL     OW32965   1.982   2.266   1.958 -0.6511 -0.0258 -0.1978
 7111SOL    HW132966   2.065   2.229   1.927  0.6878  0.9140  2.2365
 7111SOL    HW232967   1.922   2.197   1.928 -1.8522  1.6936 -1.7450
 7112SOL     OW32968   1.402   3.454   9.005 -0.2882  0.2180  0.3101
 7112SOL    HW132969   1.389   3.549   9.015 -0.8379  0.2345 -0.5285
 7112SOL    HW232970   1.426   3.448   8.913 -3.0396  0.1902 -0.3935
 7113SOL     OW32971   4.410   1.159   2.527  0.1345 -0.3147 -0.1767
 7113SOL    HW132972   4.326   1.201   2.540 -0.4616 -1.4577 -0.3103
 7113SOL    HW232973   4.410   1.170   2.432  0.5428  2.6119  0.1791
 7114SOL     OW32974   0.271   0.143  16.886 -0.2935 -0.6325 -0.9610
 7114SOL    HW132975   0.267   0.206  16.958  3.1422 -0.3405 -1.0327
 7114SOL    HW232976   0.365   0.124  16.878 -0.4466 -1.4563 -0.7676
 7115SOL     OW32977   2.577   0.293   2.347  0.7557  0.0563 -0.7280
 7115SOL    HW132978   2.672   0.299   2.351  0.5839  1.0746  1.5076
 7115SOL    HW232979   2.563   0.364   2.410  0.2452  0.6976 -1.5494
 7116SOL     OW32980   3.897   1.468   6.347  0.3500 -0.8146  0.3620
 7116SOL    HW132981   3.974   1.417   6.372 -0.7130 -0.9441  3.3954
 7116SOL    HW232982   3.864   1.418   6.273  1.0351  2.5358 -2.1853
 7117SOL     OW32983   2.702   4.591   2.493 -0.0429 -0.4776  0.2620
 7117SOL    HW132984   2.690   4.500   2.467 -0.9613 -0.2823 -0.0327
 7117SOL    HW232985   2.615   4.631   2.484 -0.5233 -1.8372 -1.2375
 7118SOL     OW32986   3.959   3.698  13.014  0.3989  0.4384 -0.8487
 7118SOL    HW132987   3.994   3.627  12.960  1.4886 -1.0054  1.7576
 7118SOL    HW232988   3.865   3.693  12.997  0.2517 -0.3256  0.1725
 7119SOL     OW32989   2.232   1.121   6.814  0.0790 -0.1266  0.4820
 7119SOL    HW132990   2.275   1.119   6.899 -1.5753  0.7925  1.3447
 7119SOL    HW232991   2.141   1.109   6.841 -0.1139  1.3880  0.4674
 7120SOL     OW32992   3.769   0.201   5.905 -0.3642 -0.2815 -0.5561
 7120SOL    HW132993   3.809   0.242   5.982 -0.1195 -2.4556  0.4498
 7120SOL    HW232994   3.682   0.240   5.918 -1.4074 -2.9893  0.4562
 7121SOL     OW32995   1.307   1.148  14.102 -0.5045  0.1991 -0.1764
 7121SOL    HW132996   1.389   1.122  14.060 -0.7919  0.1199 -0.6900
 7121SOL    HW232997   1.305   1.080  14.169  1.8237  2.2985  2.0520
 7122SOL     OW32998   3.553   1.214  15.041  0.0674 -0.1537  0.3501
 7122SOL    HW132999   3.545   1.140  14.982  0.2493  1.0735 -1.2329
 7122SOL    HW233000   3.619   1.180  15.101 -1.0138  0.0942  1.6743
 7123SOL     OW33001   3.025   2.384  14.562  0.3875 -0.1174  0.7367
 7123SOL    HW133002   3.109   2.356  14.524  0.2539 -0.2847  0.5616
 7123SOL    HW233003   3.021   2.477  14.541  0.2827 -0.0675  0.9855
 7124SOL     OW33004   2.975   1.028   2.889  0.3559 -0.4427  0.2265
 7124SOL    HW133005   2.967   0.980   2.806  1.5696  0.1008 -0.2101
 7124SOL    HW233006   2.885   1.056   2.901  0.7095  0.4446  0.8107
 7125SOL     OW33007   3.975   0.280   7.440  0.2521 -0.2487  0.2032
 7125SOL    HW133008   3.993   0.336   7.365 -0.9437 -0.4340 -0.2255
 7125SOL    HW233009   3.956   0.349   7.504 -1.1749 -0.8514  0.4250
 7126SOL     OW33010   3.294   2.758   1.748  0.2502 -0.1857  0.2539
 7126SOL    HW133011   3.325   2.744   1.838  2.4590 -1.2142 -0.6527
 7126SOL    HW233012   3.352   2.691   1.711  0.5723  1.4104 -2.0812
 7127SOL     OW33013   1.374   3.218   6.571 -0.6360  0.1413 -0.1168
 7127SOL    HW133014   1.448   3.157   6.564  0.5334  1.7483 -1.8027
 7127SOL    HW233015   1.317   3.154   6.614 -0.1005  0.2524  0.7600
 7128SOL     OW33016   2.343   1.610  17.717 -0.1948  0.4670  0.0047
 7128SOL    HW133017   2.385   1.686   0.016  0.2001 -1.0397  2.3733
 7128SOL    HW233018   2.259   1.655  17.709 -0.5111 -0.3537 -1.3058
 7129SOL     OW33019   0.435   3.979  11.925  0.4271  0.3105 -0.4409
 7129SOL    HW133020   0.507   3.978  11.989 -0.0307  1.6071  0.0932
 7129SOL    HW233021   0.409   3.889  11.940 -0.2286  0.6278  0.3477
 7130SOL     OW33022   3.812   0.725   3.725 -0.3957  1.0717 -0.2856
 7130SOL    HW133023   3.854   0.682   3.799  0.0812  1.0463 -0.5690
 7130SOL    HW233024   3.728   0.744   3.767  0.9518 -1.5950  3.5845
 7131SOL     OW33025   2.716   2.662   8.392 -0.2958  0.3937  0.8293
 7131SOL    HW133026   2.782   2.628   8.452  1.6969  1.9315 -0.4820
 7131SOL    HW233027   2.641   2.658   8.452 -0.5411  1.9751  0.6241
 7132SOL     OW33028   4.045   4.150   1.451 -0.1478  0.5071 -0.3135
 7132SOL    HW133029   4.069   4.176   1.540  3.5235 -2.2003 -0.5226
 7132SOL    HW233030   3.994   4.072   1.472  0.6371 -0.4904 -2.0528
 7133SOL     OW33031   2.942   0.023   9.022 -0.6493 -0.6590 -0.2097
 7133SOL    HW133032   2.984   0.032   9.108  0.2584  0.3966 -0.7670
 7133SOL    HW233033   2.976   0.095   8.969  2.0390 -1.0068  1.0610
 7134SOL     OW33034   4.517   2.174   6.309 -0.4154 -0.3390  0.6119
 7134SOL    HW133035   4.475   2.248   6.265  0.2821 -0.6436 -0.5621
 7134SOL    HW233036   4.544   2.122   6.233 -1.9215  0.9023 -0.7814
 7135SOL     OW33037   0.142   4.381   9.047 -0.0759 -0.1580  0.4886
 7135SOL    HW133038   0.091   4.384   9.128  1.6809 -1.1161  1.6309
 7135SOL    HW233039   0.069   4.344   8.996  0.3024  0.1778 -0.2961
 7136SOL     OW33040   0.555   2.377   8.999  0.8198 -0.5065 -0.0392
 7136SOL    HW133041   0.539   2.358   9.091  1.3565 -0.9021 -0.0266
 7136SOL    HW233042   0.648   2.401   9.005  0.8440 -0.7187  0.3734
 7137SOL     OW33043   4.171   3.421   7.460  0.6908 -0.5568  0.0571
 7137SOL    HW133044   4.181   3.516   7.449  2.1385 -0.7693 -0.4726
 7137SOL    HW233045   4.254   3.386   7.427 -0.6737 -1.7395 -2.1205
 7138SOL     OW33046   1.518   0.279   7.201 -0.0979  0.2002 -0.5729
 7138SOL    HW133047   1.478   0.250   7.119 -0.2845  0.2968 -0.5153
 7138SOL    HW233048   1.466   0.357   7.221  2.1140  1.4390  0.3534
 7139SOL     OW33049   1.939   1.643   2.084  0.2489 -0.2566  0.0062
 7139SOL    HW133050   1.889   1.656   2.004  1.6707 -0.2237 -0.8786
 7139SOL    HW233051   2.008   1.710   2.078 -1.7404  1.6959 -1.1673
 7140SOL     OW33052   0.423   1.107   3.209 -0.3749  0.1077 -0.6184
 7140SOL    HW133053   0.382   1.066   3.133  0.2078  0.9084 -1.3588
 7140SOL    HW233054   0.349   1.146   3.255 -0.7709 -2.2377  0.7687
 7141SOL     OW33055   2.371   2.090   4.951 -0.0649 -0.1731  0.0837
 7141SOL    HW133056   2.372   2.117   4.860  1.7887  3.5016  1.2062
 7141SOL    HW233057   2.312   2.155   4.991  2.2926  2.1665 -0.2534
 7142SOL     OW33058   4.033   3.315   0.117  0.1808 -0.1066  0.1045
 7142SOL    HW133059   3.966   3.376   0.150 -0.5874 -0.3938 -0.9172
 7142SOL    HW233060   4.110   3.349   0.163  0.8278  2.5614 -2.9495
 7143SOL     OW33061   3.234   3.526  15.517  0.2008 -0.0700  0.0216
 7143SOL    HW133062   3.273   3.440  15.536 -0.3256 -0.4138 -0.4391
 7143SOL    HW233063   3.252   3.535  15.423  0.0766  1.9193  0.1908
 7144SOL     OW33064   1.077   3.656  15.137  0.3208  0.4211  0.4362
 7144SOL    HW133065   1.085   3.655  15.042 -1.0951 -0.1894  0.3325
 7144SOL    HW233066   1.170   3.654  15.160  0.1214  0.2143  1.2351
 7145SOL     OW33067   0.319   0.480   8.272  0.2606  0.1228 -0.2916
 7145SOL    HW133068   0.283   0.392   8.283  0.5194 -0.0675 -0.9274
 7145SOL    HW233069   0.414   0.487   8.279  0.4034 -0.4501 -1.6213
 7146SOL     OW33070   1.025   0.796  15.087 -0.2013  0.0116 -0.2642
 7146SOL    HW133071   1.026   0.889  15.108 -2.1577 -0.1877  0.6768
 7146SOL    HW233072   0.935   0.777  15.112  0.1239 -1.6189 -0.3268
 7147SOL     OW33073   1.298   2.684   4.524 -0.3708  0.1051 -0.0031
 7147SOL    HW133074   1.346   2.766   4.510 -0.7282  0.5227  1.2682
 7147SOL    HW233075   1.206   2.708   4.522 -0.3539  0.2030  0.4723
 7148SOL     OW33076   3.135   1.309   9.462  0.0833  0.0911 -0.3506
 7148SOL    HW133077   3.145   1.316   9.368 -0.8424 -2.8604 -0.6859
 7148SOL    HW233078   3.182   1.226   9.472  1.1262  0.7859  0.6348
 7149SOL     OW33079   2.936   0.301  15.717 -0.2227 -0.0970  0.3912
 7149SOL    HW133080   2.989   0.260  15.785  0.4189 -0.6132 -0.4173
 7149SOL    HW233081   2.970   0.389  15.734  0.9683 -0.5870  0.5709
 7150SOL     OW33082   1.028   3.927   8.044 -0.1318 -0.1944 -0.1909
 7150SOL    HW133083   0.987   3.996   8.096 -2.9666 -2.5789  0.7003
 7150SOL    HW233084   0.976   3.849   8.064  0.8547  0.2137  3.8880
 7151SOL     OW33085   0.573   1.557   3.857  0.6753 -0.0903 -0.1361
 7151SOL    HW133086   0.660   1.590   3.836  0.8940 -1.1741 -0.9734
 7151SOL    HW233087   0.581   1.470   3.896  0.9969 -0.0740 -0.1661
 7152SOL     OW33088   3.832   2.928  12.958  0.0566 -0.2426  0.1325
 7152SOL    HW133089   3.878   2.850  12.988 -1.6579 -0.8031  1.3176
 7152SOL    HW233090   3.867   2.942  12.870  1.4695  0.2438  0.7678
 7153SOL     OW33091   2.104   0.342   4.722 -0.0933  0.0438 -0.3511
 7153SOL    HW133092   2.127   0.435   4.725  0.0338  0.0144 -0.3920
 7153SOL    HW233093   2.189   0.300   4.736  0.5816  2.8027  3.9387
 7154SOL     OW33094   1.600   3.724   7.101  0.9106 -0.4984  0.0531
 7154SOL    HW133095   1.640   3.798   7.148 -0.3006  0.2226 -0.0438
 7154SOL    HW233096   1.678   3.681   7.065  1.1557 -0.3139  0.3633
 7155SOL     OW33097   4.434   1.730   6.631 -0.3269 -0.2897 -0.4363
 7155SOL    HW133098   4.472   1.797   6.573  0.0371 -0.7912 -0.7727
 7155SOL    HW233099   4.507   1.682   6.669  0.6143  1.1895 -0.3807
 7156SOL     OW33100   4.735   2.840   7.017  0.3995 -0.4915 -0.0829
 7156SOL    HW133101   4.642   2.841   7.040  0.8167 -1.9279  1.7132
 7156SOL    HW233102   0.028   2.822   7.107  0.3725  1.1254  0.2502
 7157SOL     OW33103   1.211   2.460  15.775  0.2225  0.7535  0.7139
 7157SOL    HW133104   1.291   2.465  15.827  1.1953 -3.0878 -0.4297
 7157SOL    HW233105   1.146   2.471  15.845  0.6843  3.0319  0.7851
 7158SOL     OW33106   2.255   2.402   8.904  0.4361  0.1351 -0.1823
 7158SOL    HW133107   2.192   2.340   8.941 -0.4739  0.9633 -0.3544
 7158SOL    HW233108   2.233   2.390   8.812 -1.3330  2.0052  0.0003
 7159SOL     OW33109   2.074   2.840   3.380  0.5801  0.0195 -0.1812
 7159SOL    HW133110   2.072   2.916   3.438  1.4187 -0.8061  0.9352
 7159SOL    HW233111   2.066   2.873   3.291 -1.6981  0.5598  0.2167
 7160SOL     OW33112   4.326   4.176   5.827  0.3172  0.3161 -0.2431
 7160SOL    HW133113   4.328   4.088   5.788  0.2584 -0.1035  0.6909
 7160SOL    HW233114   4.300   4.223   5.749  1.2330 -2.6407 -2.3456
 7161SOL     OW33115   4.015   4.450   5.109  0.2008 -0.1005 -0.4493
 7161SOL    HW133116   4.097   4.403   5.119  0.1720 -0.2917 -1.0703
 7161SOL    HW233117   4.027   4.493   5.024  0.4776  0.8564  0.0689
 7162SOL     OW33118   0.122   0.610   8.469  0.1720 -0.0744  0.3476
 7162SOL    HW133119   0.175   0.559   8.408  1.6732  1.3255  0.4854
 7162SOL    HW233120   0.042   0.618   8.416  0.2114  0.0934  0.3137
 7163SOL     OW33121   2.826   3.038   6.107  0.0711 -0.1712  0.1751
 7163SOL    HW133122   2.752   3.055   6.050 -0.6395  0.2974  1.2408
 7163SOL    HW233123   2.794   2.966   6.161 -0.3052 -0.3363 -0.2757
 7164SOL     OW33124   2.888   1.318   9.681  0.4215  0.2936  0.1117
 7164SOL    HW133125   2.894   1.251   9.613 -1.5680 -0.0464  0.2771
 7164SOL    HW233126   2.978   1.352   9.675  1.4648 -2.5900 -0.5760
 7165SOL     OW33127   0.793   4.368   8.199  0.2838  0.5175 -0.1263
 7165SOL    HW133128   0.710   4.390   8.157  0.5739  3.7722  1.0446
 7165SOL    HW233129   0.792   4.442   8.258  0.9769 -0.8358  1.5634
 7166SOL     OW33130   2.915   1.253  15.571 -1.2300  0.1545 -0.2341
 7166SOL    HW133131   2.955   1.167  15.571 -1.3825  0.0834 -0.5623
 7166SOL    HW233132   2.846   1.240  15.636  0.0604  1.4170  1.3894
 7167SOL     OW33133   3.291   2.098   7.155 -0.2380 -0.1893  0.5679
 7167SOL    HW133134   3.265   2.014   7.116  1.1460  0.0015 -0.7609
 7167SOL    HW233135   3.363   2.060   7.207  0.8353  1.6755  0.4370
 7168SOL     OW33136   3.517   1.437  17.734  0.2839  0.0034  0.4634
 7168SOL    HW133137   3.441   1.468   0.041  0.5267 -0.1693  0.9463
 7168SOL    HW233138   3.540   1.521  17.695 -0.7620 -0.4959 -1.2016
 7169SOL     OW33139   1.158   3.227   4.782  0.1861 -0.2229  0.4470
 7169SOL    HW133140   1.218   3.295   4.813 -0.6799  0.3590  0.8450
 7169SOL    HW233141   1.161   3.242   4.687 -3.2930 -3.3337 -0.1473
 7170SOL     OW33142   3.100   1.214   7.806 -0.6606 -0.0982 -0.3319
 7170SOL    HW133143   3.133   1.289   7.757 -1.1838  1.5717  1.8566
 7170SOL    HW233144   3.167   1.218   7.875  0.5748 -1.7743 -1.4509
 7171SOL     OW33145   4.315   2.915   2.236 -0.4140  0.1947  0.4770
 7171SOL    HW133146   4.316   2.955   2.323  0.1488 -0.5422  0.8044
 7171SOL    HW233147   4.390   2.856   2.241 -1.0929 -0.5047  2.0662
 7172SOL     OW33148   4.564   3.074   9.131 -0.6530 -1.1026  0.4866
 7172SOL    HW133149   4.568   3.132   9.207 -3.2426 -1.0889  0.5992
 7172SOL    HW233150   4.640   3.017   9.143  1.6833  1.5851 -1.2757
 7173SOL     OW33151   2.200   1.175   5.680  0.0031  0.2310  0.2837
 7173SOL    HW133152   2.277   1.138   5.723 -0.8720 -0.8237  0.9568
 7173SOL    HW233153   2.208   1.260   5.722 -0.6613  0.2351  0.4025
 7174SOL     OW33154   4.276   3.027   4.718 -0.0749  0.4410  0.1997
 7174SOL    HW133155   4.342   2.960   4.703 -2.8384 -1.9611 -1.3745
 7174SOL    HW233156   4.210   2.981   4.665  1.1469  1.7087 -2.4162
 7175SOL     OW33157   2.513   2.271   5.555  0.3920  0.0236 -0.1432
 7175SOL    HW133158   2.553   2.202   5.608 -0.2529 -0.3703 -0.1641
 7175SOL    HW233159   2.533   2.344   5.613 -1.3207  1.0552 -0.8575
 7176SOL     OW33160   1.899   2.826  16.262  0.2637 -0.0683  0.0168
 7176SOL    HW133161   1.895   2.806  16.355 -0.7542 -1.7423 -0.3662
 7176SOL    HW233162   1.897   2.921  16.258  1.2254  0.0860  3.2486
 7177SOL     OW33163   1.345   1.846   4.114  0.2136  0.5149 -0.2347
 7177SOL    HW133164   1.295   1.835   4.033  0.2435  2.7774 -0.5691
 7177SOL    HW233165   1.348   1.942   4.114 -1.8370  0.5904 -0.0118
 7178SOL     OW33166   0.811   1.297   4.980 -0.3968  0.1043 -0.5236
 7178SOL    HW133167   0.721   1.275   4.956  0.2705 -0.2146 -2.7197
 7178SOL    HW233168   0.850   1.226   4.929  0.3343  0.8310 -0.9659
 7179SOL     OW33169   3.470   2.498  14.133 -0.3223  0.3615 -0.2139
 7179SOL    HW133170   3.546   2.468  14.082 -2.2568 -1.5214 -1.9844
 7179SOL    HW233171   3.505   2.466  14.216 -0.4489 -0.0331 -0.3141
 7180SOL     OW33172   2.353   2.926   6.855  0.1774 -0.7606 -0.1905
 7180SOL    HW133173   2.376   3.004   6.907 -0.5703  1.2683 -2.9142
 7180SOL    HW233174   2.391   2.851   6.899 -0.8643 -1.0126  0.2918
 7181SOL     OW33175   0.803   2.559   7.508  0.1180 -0.7278 -0.1383
 7181SOL    HW133176   0.714   2.595   7.514  0.6736  0.5225  0.6158
 7181SOL    HW233177   0.791   2.482   7.452 -0.9322 -0.4523 -0.3023
 7182SOL     OW33178   1.618   2.344   8.907 -0.3191  0.3568 -0.2753
 7182SOL    HW133179   1.559   2.292   8.961  1.6870 -2.4667 -0.8178
 7182SOL    HW233180   1.561   2.395   8.850 -1.9172 -0.5890  0.4735
 7183SOL     OW33181   1.195   3.156   9.356 -0.8421  0.1539 -0.3704
 7183SOL    HW133182   1.116   3.124   9.314 -0.3124 -1.6254 -0.0013
 7183SOL    HW233183   1.194   3.249   9.331 -3.4675  0.1921 -0.1017
 7184SOL     OW33184   4.225   3.417   6.984  0.0347 -0.5163  0.1213
 7184SOL    HW133185   4.155   3.463   7.030  0.5252 -0.3730  0.7267
 7184SOL    HW233186   4.218   3.331   7.027  0.8374 -1.4766 -1.6870
 7185SOL     OW33187   1.986   2.463   4.669 -0.5547  0.0778  0.1547
 7185SOL    HW133188   2.004   2.437   4.579 -0.7673  0.3880  0.0235
 7185SOL    HW233189   2.035   2.544   4.677 -0.3342  0.0500 -0.9765
 7186SOL     OW33190   3.913   0.450   3.656 -0.0450 -0.1504  0.4920
 7186SOL    HW133191   3.958   0.530   3.626  1.1549 -1.0595 -0.1364
 7186SOL    HW233192   3.987   0.424   3.711 -0.7517  1.3952  2.1776
 7187SOL     OW33193   2.348   3.829   7.390  0.2006 -0.0731  0.2409
 7187SOL    HW133194   2.322   3.755   7.334  0.4763  0.7705 -0.9831
 7187SOL    HW233195   2.297   3.812   7.469 -1.6227  0.2271 -0.8522
 7188SOL     OW33196   4.043   3.760  10.559 -0.2883  0.1055 -0.4387
 7188SOL    HW133197   3.964   3.765  10.505 -1.0642  0.2761  0.7149
 7188SOL    HW233198   4.097   3.700  10.507  1.3122  0.8622  0.3554
 7189SOL     OW33199   3.442   2.956   5.361 -0.6638  0.0028 -0.0358
 7189SOL    HW133200   3.361   2.944   5.312 -1.5226 -1.6109  1.8060
 7189SOL    HW233201   3.507   2.928   5.296  1.8933  0.3851  2.3466
 7190SOL     OW33202   1.912   3.698   2.541 -0.1325 -0.1672  0.0476
 7190SOL    HW133203   1.999   3.672   2.511  0.5263  0.1965  1.6651
 7190SOL    HW233204   1.876   3.613   2.569 -2.0224  0.2226 -1.1831
 7191SOL     OW33205   3.250   0.141   3.447 -0.0978  0.7381  0.1150
 7191SOL    HW133206   3.191   0.198   3.398 -0.3631 -1.3157 -1.9865
 7191SOL    HW233207   3.330   0.187   3.422  0.3386  0.9051  1.8765
 7192SOL     OW33208   0.953   2.210   8.176  0.0664  0.5747  0.1082
 7192SOL    HW133209   1.027   2.271   8.176  0.8002 -0.3194 -0.9044
 7192SOL    HW233210   0.999   2.129   8.156  2.3531  2.1125 -0.9845
 7193SOL     OW33211   1.005   0.518   4.108  0.0950 -0.0230 -0.3855
 7193SOL    HW133212   0.938   0.542   4.045  0.9011  0.7458 -0.9371
 7193SOL    HW233213   0.953   0.528   4.188  3.9106 -0.9293  2.1954
 7194SOL     OW33214   2.291   3.903   8.942  0.4870 -0.2779  0.5321
 7194SOL    HW133215   2.292   3.992   8.978 -0.7367 -0.0580  0.0282
 7194SOL    HW233216   2.201   3.875   8.961  0.2691  1.2061  1.7344
 7195SOL     OW33217   3.991   2.943   7.485 -0.2314  0.3089  0.7293
 7195SOL    HW133218   3.959   3.019   7.534  1.0309  1.8169 -0.7622
 7195SOL    HW233219   4.012   2.990   7.404 -0.3003 -0.5349  0.2253
 7196SOL     OW33220   0.627   2.825   8.976  0.3763  0.0404  0.2841
 7196SOL    HW133221   0.719   2.798   8.981  0.1733 -0.5799  0.6865
 7196SOL    HW233222   0.590   2.745   8.937 -0.3274  0.8136 -0.6188
 7197SOL     OW33223   4.158   2.397   0.794 -0.1273 -0.4422  0.4842
 7197SOL    HW133224   4.067   2.413   0.818 -0.0216  2.4171 -0.9668
 7197SOL    HW233225   4.204   2.399   0.878 -0.2650 -1.4099  0.5803
 7198SOL     OW33226   1.042   4.302   1.450 -0.2417  0.1329  0.2105
 7198SOL    HW133227   1.056   4.276   1.359  0.5069  3.3240 -0.5893
 7198SOL    HW233228   1.115   4.257   1.492  0.4864 -0.0023 -1.1808
 7199SOL     OW33229   4.584   3.262   8.330 -0.5644  0.8518  0.1798
 7199SOL    HW133230   4.545   3.348   8.343 -1.0421  0.4888  1.2310
 7199SOL    HW233231   4.528   3.229   8.260 -0.8977  0.4225  0.6427
 7200SOL     OW33232   4.665   1.018  11.959 -0.4312  0.3088  0.1016
 7200SOL    HW133233   4.572   1.042  11.959 -0.6694 -0.6214  0.5692
 7200SOL    HW233234   4.680   0.969  11.878 -0.0082  0.6459 -0.0198
 7201SOL     OW33235   1.554   4.642   3.189 -0.8151 -0.2125 -0.0105
 7201SOL    HW133236   1.606   4.719   3.212 -1.8601  0.6491 -0.4823
 7201SOL    HW233237   1.479   4.694   3.159 -0.8350 -0.0314  0.3472
 7202SOL     OW33238   0.399   1.784  17.664  0.6224  0.2267 -0.0705
 7202SOL    HW133239   0.492   1.761  17.664  0.3848 -0.7342 -0.4361
 7202SOL    HW233240   0.412   1.864  17.716  0.8560  0.2778 -0.2086
 7203SOL     OW33241   2.323   1.555  12.743  0.3016  0.3882 -0.3294
 7203SOL    HW133242   2.232   1.577  12.761  0.0217  0.6955 -2.1315
 7203SOL    HW233243   2.359   1.641  12.766  0.4031 -0.5173  2.9245
 7204SOL     OW33244   2.889   2.259  16.092  0.2395 -0.9791  0.0532
 7204SOL    HW133245   2.842   2.318  16.152  1.2528  0.5618 -0.6499
 7204SOL    HW233246   2.929   2.198  16.154  1.7707  2.2171  2.2289
 7205SOL     OW33247   1.504   4.069   7.246 -0.2169  0.8063 -0.5012
 7205SOL    HW133248   1.510   4.144   7.187 -3.3059 -0.1805 -2.0457
 7205SOL    HW233249   1.595   4.037   7.246 -0.2690  0.6623  0.2133
 7206SOL     OW33250   3.166   4.317   4.217  0.5156  0.0414  0.1525
 7206SOL    HW133251   3.106   4.253   4.254 -0.5207  0.3737 -0.9428
 7206SOL    HW233252   3.190   4.278   4.133  1.0442  1.2425 -0.2616
 7207SOL     OW33253   2.321   2.318  10.602 -0.2406  0.7237  0.3240
 7207SOL    HW133254   2.402   2.339  10.650  0.2376  0.7230 -0.4791
 7207SOL    HW233255   2.265   2.274  10.666 -0.3242  0.9688  0.4204
 7208SOL     OW33256   1.173   2.960   2.329  0.6750 -0.2498  0.6164
 7208SOL    HW133257   1.107   3.016   2.288  1.2248 -0.0189  0.0565
 7208SOL    HW233258   1.125   2.878   2.321 -0.2322  0.7116 -3.5953
 7209SOL     OW33259   2.622   2.424   6.561 -0.1130  0.2408  0.3616
 7209SOL    HW133260   2.578   2.398   6.642  0.3550 -1.2361  0.1481
 7209SOL    HW233261   2.581   2.509   6.550  1.3009  1.2296  2.6477
 7210SOL     OW33262   1.569   2.715   1.420 -0.1135 -0.0679  0.4884
 7210SOL    HW133263   1.562   2.725   1.515 -0.5589  1.9992  0.2377
 7210SOL    HW233264   1.538   2.625   1.410  1.7219 -0.7388  0.7455
 7211SOL     OW33265   4.092   1.298   5.683 -0.6121  0.2410 -0.0808
 7211SOL    HW133266   4.172   1.302   5.630  0.2068 -1.1942  1.0617
 7211SOL    HW233267   4.130   1.255   5.760 -1.0624 -0.2508 -0.1419
 7212SOL     OW33268   0.150   2.158   4.843  0.3712 -0.2938  0.4388
 7212SOL    HW133269   0.199   2.167   4.762 -0.6964  3.9557  0.2469
 7212SOL    HW233270   0.205   2.091   4.883  1.2665  0.3588  0.2809
 7213SOL     OW33271   2.178   3.325   8.754  0.4606 -0.0377 -0.0266
 7213SOL    HW133272   2.224   3.281   8.683 -0.0328  0.9779 -0.9649
 7213SOL    HW233273   2.230   3.405   8.745 -0.5858  0.9742  2.7377
 7214SOL     OW33274   2.235   0.564   4.988 -0.6542 -0.1701  1.1904
 7214SOL    HW133275   2.265   0.654   4.999 -2.4037  0.3336  1.8607
 7214SOL    HW233276   2.318   0.521   5.007 -0.5592 -1.3390 -1.8861
 7215SOL     OW33277   3.208   0.031   7.794 -0.2058  0.7838 -0.1628
 7215SOL    HW133278   3.240   4.680   7.816  0.8804  1.4132  0.7539
 7215SOL    HW233279   3.122   0.012   7.757  0.6078 -0.0342 -1.6266
 7216SOL     OW33280   0.702   4.450   3.709 -0.5322 -0.7911 -0.8500
 7216SOL    HW133281   0.717   4.402   3.628 -1.3039 -2.8781  0.2392
 7216SOL    HW233282   0.749   4.529   3.681  0.4388 -0.4638  1.7507
 7217SOL     OW33283   2.927   0.990  15.422 -0.3491 -0.0907 -0.3799
 7217SOL    HW133284   2.901   0.934  15.350 -1.2196  2.0982 -1.7759
 7217SOL    HW233285   2.842   1.030  15.440  0.5265  1.3427  0.5932
 7218SOL     OW33286   3.089   0.260   8.844  0.4000 -0.6705 -0.2392
 7218SOL    HW133287   3.135   0.333   8.802  0.1620 -0.8086 -0.7363
 7218SOL    HW233288   2.997   0.284   8.840  0.3889 -0.5032  0.7790
 7219SOL     OW33289   4.125   0.647   7.448  0.5790 -0.1725  0.3810
 7219SOL    HW133290   4.078   0.610   7.373  1.0104 -3.1435  1.5823
 7219SOL    HW233291   4.169   0.568   7.479  1.1793  0.1245  0.3035
 7220SOL     OW33292   3.454   3.771   9.113  0.0574  0.1280  0.7641
 7220SOL    HW133293   3.416   3.737   9.194  2.0089 -0.4415  1.4518
 7220SOL    HW233294   3.381   3.828   9.089 -1.2190 -1.6771  0.4035
 7221SOL     OW33295   4.499   3.127   4.377  0.3291 -0.1033  0.1274
 7221SOL    HW133296   4.432   3.060   4.395 -1.5916  1.6531 -0.4942
 7221SOL    HW233297   4.572   3.071   4.350 -0.5657 -0.5628 -1.3485
 7222SOL     OW33298   1.292   4.490   5.934 -0.0960  0.5556 -0.1747
 7222SOL    HW133299   1.313   4.441   5.855 -0.3735  1.3891 -0.7574
 7222SOL    HW233300   1.371   4.540   5.954 -0.6174  1.1614  0.3613
 7223SOL     OW33301   0.930   1.667   6.374  0.1194  0.5303 -0.1083
 7223SOL    HW133302   0.927   1.618   6.292 -0.9168  0.2190  0.1177
 7223SOL    HW233303   1.006   1.720   6.352  0.3454  0.4576  0.4953
 7224SOL     OW33304   0.272   3.376   3.213 -0.6594 -0.0505 -0.5091
 7224SOL    HW133305   0.196   3.362   3.269 -1.1736 -2.4823 -1.8293
 7224SOL    HW233306   0.316   3.291   3.219 -1.0706  0.0382  3.1867
 7225SOL     OW33307   3.601   3.299   5.585 -0.3398  0.4987  0.4983
 7225SOL    HW133308   3.629   3.319   5.496  0.8499 -1.2344  0.4848
 7225SOL    HW233309   3.535   3.366   5.602 -2.6259 -1.9871  1.5148
 7226SOL     OW33310   1.211   0.639   4.252 -0.1137 -0.0060 -0.2396
 7226SOL    HW133311   1.144   0.577   4.223 -0.1368  0.8131 -1.9239
 7226SOL    HW233312   1.254   0.593   4.324  1.2880 -0.6276 -1.4944
 7227SOL     OW33313   4.149   4.129   7.837 -0.1389 -0.2663  0.1606
 7227SOL    HW133314   4.088   4.156   7.769  0.2654  0.2404  0.0033
 7227SOL    HW233315   4.154   4.035   7.817 -0.6264 -0.3730  0.5342
 7228SOL     OW33316   0.005   0.428   4.979  0.2021  0.4923  0.3057
 7228SOL    HW133317   0.040   0.492   4.918 -0.4928 -0.0082 -0.6107
 7228SOL    HW233318   0.035   0.459   5.064  1.1259  1.5213 -0.4046
 7229SOL     OW33319   1.649   1.674  11.997  0.6891  0.8454 -0.4897
 7229SOL    HW133320   1.725   1.667  11.940  1.4503  2.0398  0.3719
 7229SOL    HW233321   1.587   1.722  11.942  1.0884  2.3000  0.3191
 7230SOL     OW33322   3.140   0.998   3.425 -0.2474 -0.3670  0.7104
 7230SOL    HW133323   3.112   0.973   3.337 -0.7505  0.1544  0.7204
 7230SOL    HW233324   3.079   1.071   3.439 -0.5133  0.3066 -3.9309
 7231SOL     OW33325   2.431   4.380   7.219  0.2260 -0.3562 -0.7044
 7231SOL    HW133326   2.344   4.402   7.184  0.6336  1.0174 -0.8556
 7231SOL    HW233327   2.455   4.315   7.153 -0.2276 -0.3059 -0.9210
 7232SOL     OW33328   1.683   2.733  14.610 -0.8753  0.8101 -0.3164
 7232SOL    HW133329   1.726   2.719  14.526  1.1907  0.2302  0.8584
 7232SOL    HW233330   1.589   2.720  14.593 -0.6494  0.6745 -1.4415
 7233SOL     OW33331   3.109   1.406   6.846  0.0115  0.1377 -0.9902
 7233SOL    HW133332   3.146   1.454   6.920 -0.5305 -0.5783 -0.2468
 7233SOL    HW233333   3.048   1.344   6.887 -0.6336  1.0583 -0.5732
 7234SOL     OW33334   0.602   1.922   8.933  0.1251 -0.5237  0.0588
 7234SOL    HW133335   0.639   1.980   8.866  0.3343  0.8780  1.3768
 7234SOL    HW233336   0.636   1.976   9.005  1.6421 -0.2938 -0.8388
 7235SOL     OW33337   3.592   1.585   4.984 -0.0582 -0.1178  0.4188
 7235SOL    HW133338   3.589   1.681   4.977 -0.5843 -0.0429  1.6690
 7235SOL    HW233339   3.513   1.572   5.036 -0.5409  1.1795  0.0081
 7236SOL     OW33340   4.110   4.144   6.408 -0.4187 -0.2304 -0.8569
 7236SOL    HW133341   4.058   4.072   6.445 -1.6905  0.1324 -1.9359
 7236SOL    HW233342   4.051   4.192   6.350 -1.4337 -0.1033  0.2744
 7237SOL     OW33343   1.514   1.620  10.922 -0.0637 -0.6319  0.2446
 7237SOL    HW133344   1.556   1.534  10.923  0.0630 -0.5826 -1.6171
 7237SOL    HW233345   1.585   1.681  10.900  0.5314 -1.1472  0.7168
 7238SOL     OW33346   0.565   0.529  12.523 -0.0883 -0.2593  0.1060
 7238SOL    HW133347   0.529   0.440  12.520 -2.2503  0.6748 -2.0675
 7238SOL    HW233348   0.660   0.529  12.512  0.0332 -2.2902  1.1310
 7239SOL     OW33349   2.207   3.275   2.426 -0.2931 -0.4072 -0.1276
 7239SOL    HW133350   2.179   3.216   2.356  3.7597 -1.1211 -1.1545
 7239SOL    HW233351   2.136   3.339   2.414  0.8275  0.8928  0.1645
 7240SOL     OW33352   2.428   0.112   9.617 -0.1047  0.0254  0.6936
 7240SOL    HW133353   2.410   0.118   9.524  2.3435  2.1302  0.3479
 7240SOL    HW233354   2.517   0.146   9.608  0.2549 -1.2520 -0.4050
 7241SOL     OW33355   4.289   1.664  11.127  0.2420 -0.6717 -0.0613
 7241SOL    HW133356   4.253   1.640  11.041  0.2206 -0.7571 -0.0285
 7241SOL    HW233357   4.219   1.633  11.184 -0.0164 -2.7328 -1.4483
 7242SOL     OW33358   3.986   4.133   7.392  0.0304  0.6550  0.0770
 7242SOL    HW133359   3.986   4.201   7.325  0.9452  1.8887  1.3113
 7242SOL    HW233360   3.971   4.054   7.341 -0.9122 -0.1873  1.6801
 7243SOL     OW33361   1.930   1.114   4.256 -0.4790 -0.2437  0.2905
 7243SOL    HW133362   2.002   1.135   4.197  0.2617  1.2718  1.7389
 7243SOL    HW233363   1.866   1.069   4.200 -0.7877 -0.6760  0.9863
 7244SOL     OW33364   0.000   2.633  14.563  0.0231  0.0782 -0.6063
 7244SOL    HW133365   0.026   2.545  14.592  2.0698  0.7051 -0.5243
 7244SOL    HW233366   4.666   2.614  14.501 -0.5567  0.7609 -0.1547
 7245SOL     OW33367   1.845   1.324   9.292 -0.0627  0.3208 -0.6405
 7245SOL    HW133368   1.930   1.363   9.316 -0.4111 -1.2893  3.2573
 7245SOL    HW233369   1.801   1.398   9.251 -2.3229 -1.8406 -2.0453
 7246SOL     OW33370   2.440   1.422   6.024  0.1263  0.3546  0.1840
 7246SOL    HW133371   2.524   1.466   6.014  1.0660 -1.6049 -0.4596
 7246SOL    HW233372   2.477   1.342   6.061  0.4644  0.3377 -0.1967
 7247SOL     OW33373   1.954   2.755   2.892 -0.0557  0.4748  0.2032
 7247SOL    HW133374   1.985   2.752   2.801 -0.5147  0.8048  0.0373
 7247SOL    HW233375   1.950   2.661   2.908 -0.9338  0.3733 -0.5902
 7248SOL     OW33376   2.914   0.319   1.438  0.7466 -0.1860  0.0506
 7248SOL    HW133377   2.936   0.411   1.448  0.1543 -0.0274 -0.1017
 7248SOL    HW233378   2.819   0.323   1.424  0.5852 -0.0099  1.1857
 7249SOL     OW33379   2.139   3.225   4.689 -0.5202 -0.2905 -0.0174
 7249SOL    HW133380   2.225   3.266   4.681 -0.8516  0.6124  1.0804
 7249SOL    HW233381   2.152   3.171   4.611 -1.0299 -0.0815 -0.2570
 7250SOL     OW33382   0.810   3.717   8.998  0.1901  0.7994 -0.2995
 7250SOL    HW133383   0.752   3.648   8.966  0.1491 -0.6244  2.8031
 7250SOL    HW233384   0.742   3.784   8.997 -2.2795 -1.6641  1.3900
 7251SOL     OW33385   4.695   0.681   6.978 -0.6021  0.2527 -0.7740
 7251SOL    HW133386   0.032   0.735   6.945 -0.3405 -0.1500 -0.8539
 7251SOL    HW233387   4.675   0.703   7.069  0.2662  1.2110 -0.8045
 7252SOL     OW33388   3.169   3.431   4.682 -0.2927  0.2441  0.0858
 7252SOL    HW133389   3.225   3.495   4.637 -1.0447  0.9092  0.0855
 7252SOL    HW233390   3.126   3.388   4.608  0.5401 -1.4027  0.5544
 7253SOL     OW33391   0.825   4.617   6.986 -0.2945 -0.0037 -0.3807
 7253SOL    HW133392   0.845   4.654   7.072 -0.7496 -1.1411  0.2160
 7253SOL    HW233393   0.864   4.684   6.929 -1.5029  0.2391 -0.9252
 7254SOL     OW33394   1.312   2.882   7.522  0.0850 -0.9065 -0.1131
 7254SOL    HW133395   1.345   2.877   7.432 -2.8192 -1.5864 -1.1452
 7254SOL    HW233396   1.279   2.972   7.531  1.1652 -0.3219 -1.8066
 7255SOL     OW33397   0.365   0.568   6.953 -0.2219 -0.0392 -0.1240
 7255SOL    HW133398   0.366   0.612   6.867 -0.2536 -0.4279 -0.3214
 7255SOL    HW233399   0.324   0.487   6.925 -1.9039  0.9744 -0.6088
 7256SOL     OW33400   2.131   1.992  17.211  1.1015  0.9591  0.0591
 7256SOL    HW133401   2.159   1.907  17.176  1.5608  1.4323 -0.7376
 7256SOL    HW233402   2.158   2.030  17.127 -1.4904 -2.0110 -2.1156
 7257SOL     OW33403   4.713   4.246   8.323  0.1504  0.2150 -0.2499
 7257SOL    HW133404   4.654   4.170   8.325  0.9156 -0.3293  1.7527
 7257SOL    HW233405   4.687   4.281   8.238 -2.1707  0.6126  0.6189
 7258SOL     OW33406   2.640   2.658  15.252 -0.0964 -0.0801  0.4000
 7258SOL    HW133407   2.593   2.737  15.224  1.2616 -0.4017 -2.7754
 7258SOL    HW233408   2.622   2.656  15.346  0.9876  0.5810  0.6235
 7259SOL     OW33409   1.125   2.563   4.709 -0.1340 -0.8988 -0.1796
 7259SOL    HW133410   1.203   2.591   4.757 -0.9127  0.2906  0.3954
 7259SOL    HW233411   1.097   2.653   4.693 -0.3530 -1.0519 -0.6636
 7260SOL     OW33412   4.153   4.012  17.001  0.0172 -0.1318 -0.1925
 7260SOL    HW133413   4.144   3.959  16.922 -1.9355  1.4684 -1.0341
 7260SOL    HW233414   4.247   4.001  17.018  0.0127  0.3386  0.1383
 7261SOL     OW33415   2.823   3.140   7.797 -0.3195  0.2340  0.2488
 7261SOL    HW133416   2.889   3.097   7.852 -1.7762  0.5375  2.2588
 7261SOL    HW233417   2.849   3.231   7.784  2.1655 -0.6778 -0.9584
 7262SOL     OW33418   2.468   3.185   3.259 -0.1311 -0.7020  0.9088
 7262SOL    HW133419   2.477   3.162   3.166  1.6817 -0.3657  1.0100
 7262SOL    HW233420   2.559   3.202   3.285  0.3708 -0.2975 -1.1073
 7263SOL     OW33421   0.984   0.964  14.790  0.0448  0.3028 -0.7218
 7263SOL    HW133422   1.007   0.871  14.789  1.3263  0.6297 -1.4824
 7263SOL    HW233423   0.968   0.977  14.883 -0.0452 -3.1473 -0.2475
 7264SOL     OW33424   2.191   1.773   6.330  0.3834  0.1546 -0.5134
 7264SOL    HW133425   2.240   1.721   6.266 -1.0415 -1.1468 -0.5613
 7264SOL    HW233426   2.123   1.807   6.273  1.7078  1.5782 -1.2426
 7265SOL     OW33427   3.345   0.424   4.879  0.7154  0.6749 -0.2613
 7265SOL    HW133428   3.294   0.396   4.803 -0.9062 -0.4097  1.2476
 7265SOL    HW233429   3.334   0.348   4.936 -2.0291  1.1530 -0.1575
 7266SOL     OW33430   2.501   0.887  11.869  0.0770 -0.3033  0.2146
 7266SOL    HW133431   2.441   0.820  11.900 -1.0639  0.5021 -0.2474
 7266SOL    HW233432   2.452   0.946  11.810 -1.5170 -1.7292  0.1362
 7267SOL     OW33433   3.534   3.906   4.568 -0.2933 -0.4360 -0.1839
 7267SOL    HW133434   3.610   3.892   4.624 -0.1923  1.8765  0.2595
 7267SOL    HW233435   3.464   3.862   4.617 -0.8276  0.8258  0.1871
 7268SOL     OW33436   1.537   0.404   3.333  0.4045 -0.1072  0.4905
 7268SOL    HW133437   1.587   0.483   3.356  0.7332 -0.2021  0.1075
 7268SOL    HW233438   1.508   0.415   3.243 -2.2145  0.1672  1.3713
 7269SOL     OW33439   1.955   4.075   3.364  0.4361  0.1458 -0.4609
 7269SOL    HW133440   2.011   4.102   3.291  1.9959 -3.3024 -0.5718
 7269SOL    HW233441   1.970   4.151   3.420 -0.3186 -0.6526  0.8229
 7270SOL     OW33442   3.858   3.341   5.752 -0.0641  0.3072  0.0120
 7270SOL    HW133443   3.781   3.306   5.707 -0.9630  0.6850  1.2340
 7270SOL    HW233444   3.835   3.433   5.764  3.9010  1.4819 -1.5047
 7271SOL     OW33445   4.686   1.990  12.500 -0.1666 -0.2382 -0.0467
 7271SOL    HW133446   4.688   2.002  12.595 -0.8166 -0.1085 -0.0470
 7271SOL    HW233447   4.650   1.902  12.492  1.4879 -0.8066 -1.1405
 7272SOL     OW33448   3.197   0.557   4.291  0.1781  0.2999 -0.2438
 7272SOL    HW133449   3.290   0.543   4.307 -0.6090 -2.4188  1.7766
 7272SOL    HW233450   3.175   0.485   4.232 -4.3285  1.3835  0.1274
 7273SOL     OW33451   0.367   0.328   2.109  0.1577 -0.5696  0.1496
 7273SOL    HW133452   0.301   0.393   2.133  0.1395 -1.0739  1.4747
 7273SOL    HW233453   0.445   0.363   2.151  1.6316 -2.1939 -1.2293
 7274SOL     OW33454   1.035   2.801   7.804  0.2286 -0.1726  0.0103
 7274SOL    HW133455   1.037   2.881   7.751 -1.5397 -0.0780  0.0743
 7274SOL    HW233456   0.985   2.825   7.882 -0.1136 -0.0864 -0.2359
 7275SOL     OW33457   4.172   3.866   4.958  0.0075 -0.4509 -0.2699
 7275SOL    HW133458   4.096   3.922   4.942  0.9541  0.4224 -1.7781
 7275SOL    HW233459   4.121   3.798   5.001  0.5379  0.6298  2.0544
 7276SOL     OW33460   1.759   0.985  15.109  0.2924  0.7086  0.0153
 7276SOL    HW133461   1.855   0.984  15.115  0.4019  1.9101 -1.7210
 7276SOL    HW233462   1.750   0.905  15.057 -1.5124  0.1192  1.2115
 7277SOL     OW33463   2.323   1.085   8.121  0.1975  0.1683  0.1200
 7277SOL    HW133464   2.368   1.074   8.038  0.2129  1.9000 -0.0824
 7277SOL    HW233465   2.389   1.129   8.175 -0.2929  0.3490  0.5744
 7278SOL     OW33466   0.749   3.930   8.410 -0.0217 -0.3373 -0.6986
 7278SOL    HW133467   0.699   3.864   8.458  0.4251  1.2186  1.9121
 7278SOL    HW233468   0.782   3.885   8.333 -0.0085 -0.0334 -0.8703
 7279SOL     OW33469   3.890   2.861  17.634 -0.4648 -0.2410 -0.1385
 7279SOL    HW133470   3.951   2.844  17.706  0.0874  1.8894 -0.1111
 7279SOL    HW233471   3.861   2.951  17.649 -2.5282 -0.7779 -0.9274
 7280SOL     OW33472   3.367   3.253   6.777  0.1460 -0.3715  0.2338
 7280SOL    HW133473   3.372   3.165   6.741  0.6397  0.2207 -1.1438
 7280SOL    HW233474   3.278   3.254   6.814 -1.0452  1.9071 -2.7195
 7281SOL     OW33475   3.745   3.536   6.164 -0.2758 -0.2844  0.1025
 7281SOL    HW133476   3.834   3.548   6.130  0.0297 -0.6512  0.7871
 7281SOL    HW233477   3.704   3.579   6.089 -1.2502  2.4156  2.1841
 7282SOL     OW33478   0.153   0.431   4.406 -0.6620 -0.3053  0.4227
 7282SOL    HW133479   0.218   0.373   4.446  0.7443  1.4374  0.6132
 7282SOL    HW233480   0.075   0.424   4.461  0.6687 -1.0628  2.2030
 7283SOL     OW33481   3.468   1.997   8.333  0.0355  0.3298 -0.4258
 7283SOL    HW133482   3.511   2.037   8.408 -2.2678 -2.3187  2.2981
 7283SOL    HW233483   3.439   1.910   8.357  1.0707  0.2894  0.7016
 7284SOL     OW33484   2.653   3.966   8.758 -0.0069  1.0440  0.0401
 7284SOL    HW133485   2.732   3.912   8.752 -1.3213 -0.6698 -1.9415
 7284SOL    HW233486   2.673   4.023   8.832  0.9735  2.0209 -0.9797
 7285SOL     OW33487   4.082   4.529   1.227 -0.5159  0.0218  0.1548
 7285SOL    HW133488   4.017   4.598   1.225 -1.8548 -1.2905 -1.1737
 7285SOL    HW233489   4.154   4.582   1.261 -0.2656  1.1153 -2.1109
 7286SOL     OW33490   1.842   3.682   9.550 -0.1706  0.5176  0.1620
 7286SOL    HW133491   1.769   3.644   9.503 -2.0045  2.0210  1.7571
 7286SOL    HW233492   1.896   3.726   9.484  1.5340  1.4808  2.1768
 7287SOL     OW33493   3.628   3.779  12.488 -0.2667 -0.5701  0.6531
 7287SOL    HW133494   3.692   3.711  12.469  1.5967  1.9384 -1.8050
 7287SOL    HW233495   3.585   3.778  12.403  1.2352  0.6180 -0.1046
 7288SOL     OW33496   0.088   1.028   2.435 -0.2120  0.2821 -0.3050
 7288SOL    HW133497   0.027   1.095   2.403 -0.6583  0.0465  0.0552
 7288SOL    HW233498   0.030   0.954   2.421 -0.3755  0.3052  0.2377
 7289SOL     OW33499   3.254   4.243   2.584 -0.0764  0.2614  0.2936
 7289SOL    HW133500   3.220   4.311   2.642 -1.7954 -1.4302  1.2502
 7289SOL    HW233501   3.305   4.186   2.640 -0.7807 -0.1426  0.5282
 7290SOL     OW33502   3.443   2.124   9.764 -0.9479  0.1807  0.0830
 7290SOL    HW133503   3.378   2.091   9.826 -2.6810  1.4371 -1.0599
 7290SOL    HW233504   3.451   2.212   9.801  0.0169  0.1481 -0.0360
 7291SOL     OW33505   2.203   2.703   7.456  0.4220 -0.5075 -0.1315
 7291SOL    HW133506   2.115   2.667   7.448 -0.1936  0.0819  4.0701
 7291SOL    HW233507   2.210   2.700   7.551  3.6377  1.5228 -0.2950
 7292SOL     OW33508   0.094   2.852  12.352 -0.5962 -0.2211 -0.0715
 7292SOL    HW133509   0.122   2.935  12.392 -0.7290 -0.0783 -0.2742
 7292SOL    HW233510   0.134   2.868  12.266  0.4534  0.4007  0.5308
 7293SOL     OW33511   1.238   2.265   7.336 -0.3597 -0.1235 -0.6468
 7293SOL    HW133512   1.196   2.202   7.394 -1.2004 -1.2328 -2.4321
 7293SOL    HW233513   1.160   2.319   7.317 -0.7262 -0.7941 -1.0455
 7294SOL     OW33514   2.493   2.963   3.873 -0.5683  0.3844 -0.4734
 7294SOL    HW133515   2.547   2.904   3.925 -1.1996  1.2733  1.2032
 7294SOL    HW233516   2.407   2.938   3.906 -1.3606 -0.1875 -2.9665
 7295SOL     OW33517   4.681   2.007   7.944 -0.5264 -0.3602  0.2836
 7295SOL    HW133518   0.021   1.950   7.933 -0.5561 -0.6861  1.8350
 7295SOL    HW233519   4.708   2.085   7.894  2.4659 -0.0090  2.4605
 7296SOL     OW33520   1.290   0.580   6.595 -0.3283 -0.2297 -0.7169
 7296SOL    HW133521   1.367   0.638   6.600 -1.4659  1.1413  0.9621
 7296SOL    HW233522   1.243   0.638   6.535  0.5567 -1.2811 -2.4152
 7297SOL     OW33523   1.186   0.975   8.867  0.2108  0.3758  0.4059
 7297SOL    HW133524   1.258   0.919   8.840 -0.1625 -0.7640  1.7953
 7297SOL    HW233525   1.225   1.028   8.937 -1.1434 -1.6622  2.6820
 7298SOL     OW33526   3.516   4.007  15.664 -0.9418  0.8767  0.0727
 7298SOL    HW133527   3.552   3.979  15.579  0.0973  1.7449  0.2149
 7298SOL    HW233528   3.592   4.000  15.723  0.1337  0.5870 -1.3266
 7299SOL     OW33529   1.603   3.651   5.116 -0.7414  0.6104  0.2451
 7299SOL    HW133530   1.660   3.623   5.043  0.5209  2.8371  0.3586
 7299SOL    HW233531   1.606   3.569   5.165 -2.4538 -0.2798 -1.1510
 7300SOL     OW33532   2.826   3.415   2.090 -0.5409  0.2034  0.4144
 7300SOL    HW133533   2.811   3.347   2.155 -1.1096 -0.6459 -0.6080
 7300SOL    HW233534   2.810   3.490   2.148  0.8809  0.1870  0.8251
 7301SOL     OW33535   1.436   0.466   3.072 -0.3702 -0.4636  0.0455
 7301SOL    HW133536   1.453   0.557   3.050 -2.7003 -0.0332  0.0390
 7301SOL    HW233537   1.454   0.429   2.985  0.2668  0.1361 -0.0757
 7302SOL     OW33538   0.168   0.727   5.081 -0.3924 -0.2648  0.1567
 7302SOL    HW133539   0.243   0.785   5.089 -0.2082 -0.5657  0.6355
 7302SOL    HW233540   0.097   0.773   5.126  2.1744  2.1236  1.7219
 7303SOL     OW33541   4.451   4.717   3.264  0.2277  0.0681 -0.2891
 7303SOL    HW133542   4.478   4.664   3.340  0.8952 -1.5185 -1.6320
 7303SOL    HW233543   4.409   0.058   3.301 -0.6226  0.1293 -1.3901
 7304SOL     OW33544   1.166   2.799  13.454  0.6822  0.2178 -0.1133
 7304SOL    HW133545   1.105   2.871  13.441  0.5228 -0.1048 -1.1899
 7304SOL    HW233546   1.105   2.733  13.487 -0.9005  1.1850 -1.1512
 7305SOL     OW33547   3.537   4.064   6.639 -0.3957  0.0380 -0.2562
 7305SOL    HW133548   3.475   4.004   6.597 -0.1240 -0.0891 -0.4788
 7305SOL    HW233549   3.484   4.102   6.708 -3.5287 -2.9826 -1.0091
 7306SOL     OW33550   3.430   0.066   2.781  0.7964  0.3152  0.0610
 7306SOL    HW133551   3.417   0.153   2.819  0.1504 -0.4602  1.6239
 7306SOL    HW233552   3.493   0.084   2.711 -1.6263 -2.3614 -2.8618
 7307SOL     OW33553   0.140   1.404   3.314  0.0315 -0.3711 -0.1632
 7307SOL    HW133554   0.108   1.329   3.365 -0.3012  0.8029  1.3387
 7307SOL    HW233555   0.103   1.474   3.367 -1.8820 -0.2980 -1.5963
 7308SOL     OW33556   0.439   1.303   1.677  0.3062  0.6254  0.1448
 7308SOL    HW133557   0.431   1.398   1.670  0.9676  0.7897  1.5215
 7308SOL    HW233558   0.434   1.289   1.771 -2.3663  1.7839  0.1931
 7309SOL     OW33559   4.647   2.686   0.505 -0.0707  0.3560 -0.1748
 7309SOL    HW133560   4.693   2.693   0.589  0.8073  1.1719 -0.7300
 7309SOL    HW233561   4.564   2.723   0.532  0.3666  1.3026 -0.1305
 7310SOL     OW33562   0.057   0.100   1.145 -0.4740  0.2366 -0.4085
 7310SOL    HW133563   0.066   0.131   1.055 -0.2947  0.7142 -0.2292
 7310SOL    HW233564   0.128   0.145   1.192  0.8301  0.2911 -2.4195
 7311SOL     OW33565   2.341   0.615   8.908  0.2997 -0.1365 -0.9681
 7311SOL    HW133566   2.419   0.621   8.853  2.0358 -1.9168  1.2974
 7311SOL    HW233567   2.274   0.649   8.847 -0.0332  1.4535  0.2956
 7312SOL     OW33568   4.182   2.608   2.071 -0.0609 -0.4474 -0.0284
 7312SOL    HW133569   4.243   2.535   2.060  1.0835  0.4901  0.1288
 7312SOL    HW233570   4.120   2.567   2.131 -0.3292 -2.8697 -1.9463
 7313SOL     OW33571   0.210   1.680   2.263  0.6145  0.0703 -0.2399
 7313SOL    HW133572   0.183   1.619   2.331 -1.4009  1.4421  0.2115
 7313SOL    HW233573   0.246   1.748   2.320  0.1639 -0.4318  0.6365
 7314SOL     OW33574   2.258   3.307   4.250 -0.6713 -0.1882 -0.1709
 7314SOL    HW133575   2.299   3.284   4.167  1.5704  0.5896  0.7481
 7314SOL    HW233576   2.319   3.266   4.312 -0.4058 -1.3565 -1.1942
 7315SOL     OW33577   1.397   3.788   6.841 -0.7313  0.5940 -0.2255
 7315SOL    HW133578   1.385   3.877   6.808  0.3073  0.3030 -1.4170
 7315SOL    HW233579   1.310   3.752   6.823 -1.1375  1.6468 -0.3621
 7316SOL     OW33580   2.362   1.665   6.166 -0.8397  0.3143  0.5472
 7316SOL    HW133581   2.371   1.590   6.107  0.3576  0.8416  0.0671
 7316SOL    HW233582   2.442   1.639   6.212 -1.4542 -0.1563  1.3434
 7317SOL     OW33583   1.626   2.851   6.902 -0.3822  0.3299  0.4450
 7317SOL    HW133584   1.581   2.831   6.820 -0.6761  0.7126  0.5091
 7317SOL    HW233585   1.703   2.797   6.885 -0.7723 -0.1205  0.1384
 7318SOL     OW33586   4.538   4.347  11.822  0.0819  0.4396 -0.1374
 7318SOL    HW133587   4.454   4.373  11.860 -0.5952 -1.0903 -0.5898
 7318SOL    HW233588   4.522   4.339  11.728  0.0582  0.3743 -0.1277
 7319SOL     OW33589   3.983   3.718   3.262  0.1649 -0.1295  0.2410
 7319SOL    HW133590   4.005   3.810   3.277  2.0866 -0.3044 -1.5401
 7319SOL    HW233591   4.003   3.680   3.348 -1.9421 -0.3917  0.5997
 7320SOL     OW33592   3.581   4.026  15.091 -0.0364  0.3569 -0.3912
 7320SOL    HW133593   3.555   3.950  15.038  0.3591  1.1302 -1.7026
 7320SOL    HW233594   3.676   4.021  15.079 -0.0571  0.3762 -0.5655
 7321SOL     OW33595   1.847   2.770   4.633  0.0852 -0.0006 -0.0476
 7321SOL    HW133596   1.783   2.701   4.610 -2.7127  2.1017  1.4848
 7321SOL    HW233597   1.924   2.721   4.663 -0.9114 -1.0027  0.8877
 7322SOL     OW33598   3.151   0.202   3.168  0.5326  0.3959  0.2175
 7322SOL    HW133599   3.154   0.133   3.102  0.0545  1.9423 -1.4351
 7322SOL    HW233600   3.237   0.243   3.158 -0.8298  3.0335 -0.7668
 7323SOL     OW33601   2.418   1.892  16.581  0.0579 -0.3575 -0.4588
 7323SOL    HW133602   2.371   1.816  16.615 -2.8673  0.3724 -2.9920
 7323SOL    HW233603   2.356   1.960  16.608 -0.6344 -1.4530  0.7125
 7324SOL     OW33604   0.358   0.699   6.707  0.1567 -0.0706  0.0216
 7324SOL    HW133605   0.337   0.695   6.613 -0.4640  0.9390  0.1063
 7324SOL    HW233606   0.435   0.755   6.708 -0.5393  0.9051 -0.1487
 7325SOL     OW33607   0.813   1.288   8.196  0.3443  0.3955 -0.1943
 7325SOL    HW133608   0.751   1.287   8.269  1.0096  1.6853  0.3863
 7325SOL    HW233609   0.752   1.288   8.122  2.2794 -0.3981 -1.8008
 7326SOL     OW33610   3.154   1.225  13.948  0.4186 -0.5392  0.2611
 7326SOL    HW133611   3.161   1.302  14.005  1.0137 -1.0567  0.8804
 7326SOL    HW233612   3.246   1.199  13.940  0.6007 -0.1327  1.1178
 7327SOL     OW33613   0.762   3.718   1.489  0.2395 -0.2745 -0.0292
 7327SOL    HW133614   0.795   3.711   1.579 -0.4710  1.4418  0.3553
 7327SOL    HW233615   0.831   3.661   1.454  0.6036 -0.2289  0.6112
 7328SOL     OW33616   0.002   2.516   0.304  0.1196  0.1196 -0.4105
 7328SOL    HW133617   4.715   2.579   0.372 -1.2846 -0.6917 -0.1489
 7328SOL    HW233618   0.059   2.566   0.245  0.7990  1.0674  1.0634
 7329SOL     OW33619   3.339   3.087   1.890  0.0274 -0.4702 -0.1406
 7329SOL    HW133620   3.402   3.034   1.841 -0.7784 -1.1430 -0.4527
 7329SOL    HW233621   3.333   3.053   1.980  0.7595  1.7054  0.7145
 7330SOL     OW33622   1.296   2.234  13.807 -0.2128 -0.3747 -0.1182
 7330SOL    HW133623   1.275   2.142  13.791 -0.9926 -0.3330  0.6715
 7330SOL    HW233624   1.210   2.266  13.836 -0.0312 -1.0602  1.1783
 7331SOL     OW33625   2.056   1.702   6.555  0.3393  0.0027 -0.3512
 7331SOL    HW133626   2.004   1.651   6.493  2.2661 -0.9730 -1.1386
 7331SOL    HW233627   2.110   1.751   6.493  1.4167  1.1037  1.4440
 7332SOL     OW33628   2.776   4.228  15.769  0.3965 -0.2310  0.3879
 7332SOL    HW133629   2.800   4.230  15.862  3.7447 -0.6411 -0.4652
 7332SOL    HW233630   2.779   4.319  15.742 -0.6048 -0.1235  0.6262
 7333SOL     OW33631   0.043   2.373   5.941 -0.0667  0.1688  0.0764
 7333SOL    HW133632   4.733   2.312   5.883  0.9266 -0.0537 -0.4756
 7333SOL    HW233633   4.697   2.405   5.978  0.4294 -0.9213  2.1203
 7334SOL     OW33634   3.108   3.784   3.541 -0.1945 -0.3671  0.2036
 7334SOL    HW133635   3.106   3.876   3.515  0.9506 -1.1644 -2.8176
 7334SOL    HW233636   3.017   3.771   3.569 -0.4536  1.2082  0.1109
 7335SOL     OW33637   3.555   2.939   7.447  0.3151  0.1726  0.5054
 7335SOL    HW133638   3.563   2.878   7.374  0.5615  0.9078 -0.0811
 7335SOL    HW233639   3.596   3.014   7.404  0.8695  0.0293  0.7923
 7336SOL     OW33640   3.612   1.831   3.549 -0.4904  0.4139  0.6755
 7336SOL    HW133641   3.650   1.757   3.596 -0.0018  0.9242  1.0800
 7336SOL    HW233642   3.690   1.867   3.508 -0.6190 -1.1881 -0.9656
 7337SOL     OW33643   3.103   0.452   9.250  0.0511  0.0139 -0.2900
 7337SOL    HW133644   3.116   0.500   9.168  0.9336  0.7963  0.3118
 7337SOL    HW233645   3.105   0.521   9.317  1.4273 -0.3111  0.0066
 7338SOL     OW33646   3.967   3.023   8.234  0.1517  0.3772 -0.2058
 7338SOL    HW133647   4.033   3.036   8.166 -0.8924 -1.7505 -1.6516
 7338SOL    HW233648   4.013   3.036   8.316  0.9373  0.4775 -0.6587
 7339SOL     OW33649   1.159   3.329   5.873 -0.5306  0.3474 -0.0596
 7339SOL    HW133650   1.108   3.316   5.953  1.2477  1.6350  1.3046
 7339SOL    HW233651   1.136   3.420   5.854 -1.0636  0.1203 -0.4695
 7340SOL     OW33652   0.728   0.657   2.301 -0.0389 -0.6042 -0.2660
 7340SOL    HW133653   0.812   0.628   2.337 -0.6433 -0.8052  0.9892
 7340SOL    HW233654   0.739   0.752   2.297 -2.2125 -0.2570  1.7837
 7341SOL     OW33655   3.127   3.201   6.474 -0.1695  0.2241 -0.0821
 7341SOL    HW133656   3.176   3.151   6.410 -1.2015  0.1935 -0.8597
 7341SOL    HW233657   3.117   3.131   6.538 -0.4697  0.5063  0.1850
 7342SOL     OW33658   3.604   1.938   8.926  0.2929 -0.0393  0.5067
 7342SOL    HW133659   3.691   1.907   8.950 -0.6341 -1.9319  1.4260
 7342SOL    HW233660   3.560   1.911   9.007  0.0718  0.4712  0.5568
 7343SOL     OW33661   0.870   2.752   9.132 -0.5958  0.5111  0.3439
 7343SOL    HW133662   0.957   2.721   9.155 -1.5575 -0.2746  2.9217
 7343SOL    HW233663   0.890   2.837   9.092  1.5780 -0.5812 -0.8753
 7344SOL     OW33664   0.079   0.224  13.408  0.5967  0.1550  0.1711
 7344SOL    HW133665   0.061   0.305  13.456  3.2930  0.6905  0.2781
 7344SOL    HW233666   0.006   0.167  13.429 -0.5355  1.1351 -1.0193
 7345SOL     OW33667   3.885   4.353   5.719  0.0490 -0.7001 -0.1347
 7345SOL    HW133668   3.807   4.335   5.666  0.1051  0.0257 -0.4603
 7345SOL    HW233669   3.882   4.290   5.791  0.1427  1.9917  2.1927
 7346SOL     OW33670   2.605   3.822   5.995 -0.5054  0.1493 -0.0851
 7346SOL    HW133671   2.701   3.825   5.992 -0.4603  0.8782  2.3451
 7346SOL    HW233672   2.590   3.761   6.067 -3.2253  0.6583 -0.2386
 7347SOL     OW33673   1.106   2.167   5.310  0.1064 -0.3973 -0.2196
 7347SOL    HW133674   1.147   2.154   5.395 -0.5580 -0.6277  0.0656
 7347SOL    HW233675   1.054   2.088   5.302 -1.2036  0.3148  1.3382
 7348SOL     OW33676   2.809   1.955   3.867  0.1625 -0.5444 -0.5991
 7348SOL    HW133677   2.744   1.944   3.936  3.2423  0.4955  2.4992
 7348SOL    HW233678   2.881   1.902   3.900 -0.4000 -0.8224  0.1746
 7349SOL     OW33679   2.910   3.179   6.962  0.3328  0.1125 -0.0689
 7349SOL    HW133680   2.879   3.135   7.041  0.0385 -1.1689 -0.8959
 7349SOL    HW233681   2.829   3.179   6.912  0.9648 -0.7181 -1.0794
 7350SOL     OW33682   1.255   4.491   1.447 -0.1591  0.1804  0.2652
 7350SOL    HW133683   1.288   4.411   1.487  1.5603  1.3122  1.1211
 7350SOL    HW233684   1.167   4.462   1.426 -0.9245  1.1813  2.0713
 7351SOL     OW33685   3.582   1.710   2.579 -0.0844 -0.1810 -0.1685
 7351SOL    HW133686   3.602   1.674   2.493  0.8410  0.1163 -0.0840
 7351SOL    HW233687   3.516   1.646   2.604 -0.7308  2.0691  3.8732
 7352SOL     OW33688   3.276   2.452   4.172  0.0321 -0.6635  0.6667
 7352SOL    HW133689   3.263   2.378   4.232  0.6510 -2.9005 -1.9400
 7352SOL    HW233690   3.336   2.508   4.222  0.3267  0.7063 -1.1976
 7353SOL     OW33691   4.538   2.880   4.703  0.1014  0.5916  0.0675
 7353SOL    HW133692   4.593   2.955   4.677  0.7255 -0.3558 -1.3255
 7353SOL    HW233693   4.597   2.805   4.706 -0.6445  0.0186  0.4916
 7354SOL     OW33694   4.188   4.245   4.667  0.2706 -0.7506 -0.1599
 7354SOL    HW133695   4.108   4.258   4.718 -0.0063 -0.6011 -0.6418
 7354SOL    HW233696   4.195   4.150   4.663  0.5016 -0.7966  1.1069
 7355SOL     OW33697   3.639   0.916   1.503 -0.8275  0.5409  0.6810
 7355SOL    HW133698   3.611   0.988   1.560 -0.5985  0.0545  1.4182
 7355SOL    HW233699   3.734   0.925   1.507 -0.5199 -2.1621 -0.9063
 7356SOL     OW33700   1.754   2.457   7.768  0.1226 -0.2234 -0.2511
 7356SOL    HW133701   1.765   2.534   7.713  1.0101 -0.0154  0.2239
 7356SOL    HW233702   1.743   2.391   7.700  0.2891 -3.7547  3.0879
 7357SOL     OW33703   1.845   3.116  17.086 -0.0805  0.3296  0.3189
 7357SOL    HW133704   1.783   3.118  17.160  0.3697 -0.5494  0.7174
 7357SOL    HW233705   1.808   3.184  17.029  2.0935  1.4028  0.2104
 7358SOL     OW33706   1.634   2.387   8.590 -0.2165 -0.2441  0.0387
 7358SOL    HW133707   1.544   2.369   8.617  0.1507 -2.1253  0.0373
 7358SOL    HW233708   1.633   2.374   8.496  0.3308  1.0924 -0.1543
 7359SOL     OW33709   2.819   0.548  11.151  1.0458 -0.3268 -0.2292
 7359SOL    HW133710   2.785   0.479  11.208 -1.0004  0.5770 -0.3644
 7359SOL    HW233711   2.738   0.591  11.124  2.0699  2.6761  1.5677
 7360SOL     OW33712   1.412   3.776   9.037 -0.0283  0.6991 -0.2063
 7360SOL    HW133713   1.317   3.787   9.048 -0.1936 -1.8815  0.9837
 7360SOL    HW233714   1.442   3.856   8.995 -2.5423  1.8282  0.1779
 7361SOL     OW33715   1.220   4.360  11.276 -0.0872 -0.5045  0.4295
 7361SOL    HW133716   1.145   4.420  11.277  0.7357  0.5098  0.5148
 7361SOL    HW233717   1.288   4.412  11.319 -1.1795  0.0872  1.4361
 7362SOL     OW33718   0.575   4.412   2.592  0.0037  0.2391  0.6868
 7362SOL    HW133719   0.514   4.462   2.537  0.4759  0.6715  0.5573
 7362SOL    HW233720   0.580   4.487   2.652  1.5369  0.5750  0.1479
 7363SOL     OW33721   0.289   3.578   0.542 -0.0767  0.5652 -0.1290
 7363SOL    HW133722   0.344   3.611   0.613 -1.0212  0.1927  0.7668
 7363SOL    HW233723   0.257   3.492   0.569 -0.3004  1.3368  2.0534
 7364SOL     OW33724   2.288   4.397   4.961 -0.0158  0.0923 -0.2980
 7364SOL    HW133725   2.270   4.489   4.985  0.8107  0.0608  0.4315
 7364SOL    HW233726   2.221   4.352   5.011 -0.3858  1.2975  0.3028
 7365SOL     OW33727   4.683   2.081   9.020 -0.3288 -0.5699  0.3892
 7365SOL    HW133728   4.608   2.048   8.970  0.3625 -2.0597  0.3471
 7365SOL    HW233729   0.020   2.074   8.958 -2.4635 -1.3039 -2.0271
 7366SOL     OW33730   0.404   0.262   9.839 -0.6671 -0.1756  0.3363
 7366SOL    HW133731   0.498   0.273   9.854 -0.2625 -1.2492 -1.4309
 7366SOL    HW233732   0.400   0.167   9.852  0.3363 -0.2268  0.2368
 7367SOL     OW33733   1.359   0.232   7.001 -0.2454  0.6793 -0.2182
 7367SOL    HW133734   1.404   0.198   6.923  1.5904  2.4150  0.0887
 7367SOL    HW233735   1.292   0.164   7.010  0.5570 -0.0857  0.0422
 7368SOL     OW33736   0.445   0.887   5.458 -0.5163  0.1415 -0.2829
 7368SOL    HW133737   0.468   0.797   5.483  0.2547  0.2340 -0.6763
 7368SOL    HW233738   0.352   0.873   5.478 -0.0892  1.2312  2.4121
 7369SOL     OW33739   3.536   1.232   1.950 -0.2356  0.0759  0.0293
 7369SOL    HW133740   3.610   1.171   1.958  0.2282  0.5142 -0.9169
 7369SOL    HW233741   3.498   1.222   2.037 -0.8678 -0.4373 -0.3085
 7370SOL     OW33742   0.617   1.795   4.383 -0.1741 -0.2478  0.1556
 7370SOL    HW133743   0.605   1.753   4.298  0.4564 -2.3832  1.1469
 7370SOL    HW233744   0.711   1.799   4.399 -0.2138  1.1507  0.0385
 7371SOL     OW33745   4.290   4.308   5.276 -0.4567  0.0222  0.4048
 7371SOL    HW133746   4.375   4.317   5.320  1.3099 -0.8958 -2.8088
 7371SOL    HW233747   4.307   4.285   5.185  3.0603 -0.9655  1.3076
 7372SOL     OW33748   3.484   2.495   2.264 -0.0366  0.2212  0.4054
 7372SOL    HW133749   3.400   2.533   2.291  0.1555  1.0731 -0.2103
 7372SOL    HW233750   3.545   2.561   2.296 -2.7424  1.9427  2.0454
 7373SOL     OW33751   1.926   0.778  13.570  0.5295 -0.3347  0.5295
 7373SOL    HW133752   1.919   0.701  13.627  0.3702 -0.6509  0.0927
 7373SOL    HW233753   1.832   0.792  13.563  0.7687  0.7096 -0.5592
 7374SOL     OW33754   0.498   4.048   1.519 -0.3941 -0.0284 -0.6658
 7374SOL    HW133755   0.472   4.028   1.430 -2.2393  1.3763 -0.4331
 7374SOL    HW233756   0.436   3.991   1.564  0.0210 -1.0261 -1.3669
 7375SOL     OW33757   3.103   2.638   5.105  0.3843 -0.1706 -0.0799
 7375SOL    HW133758   3.130   2.723   5.070 -0.0370 -0.5546 -1.3139
 7375SOL    HW233759   3.152   2.576   5.051  0.2245 -2.6521  2.6487
 7376SOL     OW33760   1.797   3.732   1.475 -0.6531 -0.3180 -0.1411
 7376SOL    HW133761   1.885   3.760   1.449 -0.4643 -0.6272  0.1823
 7376SOL    HW233762   1.767   3.712   1.386 -0.0584  1.4847 -0.7440
 7377SOL     OW33763   2.696   2.477   1.695  0.3502 -0.2292 -0.7739
 7377SOL    HW133764   2.681   2.562   1.653  0.1819  0.1032 -0.0365
 7377SOL    HW233765   2.660   2.496   1.781 -2.2302  0.2725 -1.9610
 7378SOL     OW33766   0.723   0.102   4.998  0.4901 -0.3441 -0.0361
 7378SOL    HW133767   0.751   0.010   4.998 -0.4928 -0.6389 -0.8536
 7378SOL    HW233768   0.648   0.095   5.057  0.7687 -1.9018  0.1416
 7379SOL     OW33769   1.745   0.992   4.079  0.2294 -0.2173  0.0902
 7379SOL    HW133770   1.774   0.901   4.089 -0.0605 -0.5987 -2.5337
 7379SOL    HW233771   1.663   0.958   4.041  0.2252 -0.9975  0.7715
 7380SOL     OW33772   3.155   4.694   4.147 -0.0862 -0.3045  0.3251
 7380SOL    HW133773   3.221   4.715   4.213 -1.2162 -1.4789  1.8221
 7380SOL    HW233774   3.212   4.673   4.073 -2.0015 -1.2765 -0.9086
 7381SOL     OW33775   1.762   2.627   5.549 -0.0529  0.9544 -0.3867
 7381SOL    HW133776   1.727   2.713   5.571  0.2417  0.3947  2.2027
 7381SOL    HW233777   1.696   2.594   5.488 -1.1215  1.7226  0.3697
 7382SOL     OW33778   2.445   4.252   9.675  0.4137 -0.0514  0.1596
 7382SOL    HW133779   2.523   4.207   9.643 -0.7253 -1.3771 -0.7758
 7382SOL    HW233780   2.392   4.174   9.695 -0.2359  0.4249  0.3115
 7383SOL     OW33781   4.168   3.719   4.144 -0.2052  0.7524 -0.4005
 7383SOL    HW133782   4.154   3.758   4.230  2.0937  2.3143 -0.7302
 7383SOL    HW233783   4.107   3.768   4.089 -0.2798 -0.9889 -1.8619
 7384SOL     OW33784   3.802   2.708   6.589 -0.2913  0.2390 -0.4611
 7384SOL    HW133785   3.830   2.618   6.571  0.7852  0.0112  2.4571
 7384SOL    HW233786   3.833   2.744   6.506  0.0389  2.2344  0.5268
 7385SOL     OW33787   2.595   0.023   9.874 -0.2241  0.0626 -0.9687
 7385SOL    HW133788   2.653   4.716   9.812  1.6092 -1.8110  2.0454
 7385SOL    HW233789   2.524   4.695   9.870  1.2108 -1.5707 -0.1570
 7386SOL     OW33790   0.668   1.957  10.998 -0.2845 -0.1511  0.1583
 7386SOL    HW133791   0.654   2.038  10.949  0.6394 -0.8339 -1.2312
 7386SOL    HW233792   0.639   1.989  11.084 -1.4747  1.1618 -0.7263
 7387SOL     OW33793   3.928   0.342   1.343  0.1950  0.3994 -0.1804
 7387SOL    HW133794   3.837   0.319   1.362  0.1448  0.4286 -0.3922
 7387SOL    HW233795   3.973   0.303   1.418 -1.3594 -2.1113 -0.5762
 7388SOL     OW33796   2.578   1.671   7.363 -0.4029 -0.3782  0.5047
 7388SOL    HW133797   2.588   1.622   7.444  0.2720 -0.8655  0.1299
 7388SOL    HW233798   2.620   1.754   7.385  3.2766 -3.3372  4.6441
 7389SOL     OW33799   1.776   4.609  12.300  0.3324  0.3231 -0.4531
 7389SOL    HW133800   1.763   4.531  12.246  0.1382  1.0670 -1.4791
 7389SOL    HW233801   1.821   4.572  12.376  0.0756  0.7531 -0.0929
 7390SOL     OW33802   3.025   1.396  12.616  0.3768  0.5832 -0.5574
 7390SOL    HW133803   2.934   1.400  12.645  1.5306  3.4194  2.6258
 7390SOL    HW233804   3.000   1.399  12.523  0.9542  0.1184 -0.7272
 7391SOL     OW33805   0.528   4.125   0.426  0.1991 -0.6394  0.0531
 7391SOL    HW133806   0.485   4.068   0.489 -0.7459  0.1153  0.0881
 7391SOL    HW233807   0.470   4.118   0.351 -2.1412  1.1664  1.7054
 7392SOL     OW33808   4.640   4.237   7.752 -0.8794 -0.6006  0.2292
 7392SOL    HW133809   4.556   4.280   7.732  1.3502  2.9543 -1.4374
 7392SOL    HW233810   4.706   4.284   7.701  0.7722  0.6386  3.5114
 7393SOL     OW33811   2.567   0.086   7.012  0.4257 -0.2553 -0.1810
 7393SOL    HW133812   2.531   0.116   6.929 -1.0128  1.4683  1.0615
 7393SOL    HW233813   2.637   0.152   7.018  1.3479 -1.3071  0.6866
 7394SOL     OW33814   1.671   0.212   5.089  0.3427  0.0061  0.0761
 7394SOL    HW133815   1.696   0.297   5.052  1.2159 -0.4249 -0.3424
 7394SOL    HW233816   1.598   0.203   5.027 -0.0510  3.2918  0.0850
 7395SOL     OW33817   1.798   0.283   0.946 -0.4361  0.8039 -0.7348
 7395SOL    HW133818   1.783   0.292   1.040 -1.5064  1.7869 -1.0131
 7395SOL    HW233819   1.884   0.325   0.948  0.1138 -0.1998 -3.0655
 7396SOL     OW33820   3.953   2.022   9.862  0.2748  0.0669  0.6228
 7396SOL    HW133821   3.938   2.116   9.865  0.7706  0.2227 -1.7636
 7396SOL    HW233822   3.864   1.987   9.865 -1.0873  3.2762 -1.7944
 7397SOL     OW33823   0.215   3.150  12.244  0.5966  0.0247 -0.2800
 7397SOL    HW133824   0.145   3.194  12.293  0.4412 -0.8677  0.2926
 7397SOL    HW233825   0.290   3.155  12.303 -2.4246 -1.0262  3.6624
 7398SOL     OW33826   2.648   2.075   6.640  0.1519  0.5599 -1.0907
 7398SOL    HW133827   2.580   2.072   6.708  1.4065 -0.3283  0.1398
 7398SOL    HW233828   2.670   1.982   6.641 -1.5766  0.1565 -1.6861
 7399SOL     OW33829   0.700   4.082   4.532  0.1187  0.4633  0.2126
 7399SOL    HW133830   0.674   4.173   4.536 -1.6169  0.0269 -1.3861
 7399SOL    HW233831   0.690   4.061   4.439 -1.2914  2.9186 -0.1886
 7400SOL     OW33832   4.139   4.055   6.823 -0.9567 -0.2381 -0.6265
 7400SOL    HW133833   4.197   4.127   6.796  0.4444 -1.2451 -0.2949
 7400SOL    HW233834   4.059   4.107   6.830 -1.4289 -1.2866  1.7042
 7401SOL     OW33835   2.288   0.029   4.497  0.4515 -0.5107 -0.1526
 7401SOL    HW133836   2.364   0.083   4.520  0.7540 -0.6190 -0.8994
 7401SOL    HW233837   2.272   4.728   4.584  0.3814  0.9021  0.4305
 7402SOL     OW33838   3.353   1.348  16.493 -0.1373 -0.1767  0.3722
 7402SOL    HW133839   3.357   1.296  16.413  3.1471  1.4684 -0.5409
 7402SOL    HW233840   3.417   1.303  16.548  0.4041 -1.2222 -1.1162
 7403SOL     OW33841   1.147   2.299   7.657  0.7630  0.0255 -0.0041
 7403SOL    HW133842   1.134   2.227   7.595 -0.1987  0.1712  0.0241
 7403SOL    HW233843   1.066   2.297   7.707 -0.9601  1.5792 -2.7375
 7404SOL     OW33844   0.117   2.538  12.429 -0.0604  0.3501 -0.1514
 7404SOL    HW133845   0.043   2.539  12.367 -0.8158 -1.5511  0.7248
 7404SOL    HW233846   0.172   2.607  12.392  1.9956 -0.2973  1.6986
 7405SOL     OW33847   2.391   1.625   5.569 -0.1406  0.1369  0.1032
 7405SOL    HW133848   2.416   1.717   5.561 -1.8754  0.7401  1.4660
 7405SOL    HW233849   2.472   1.586   5.602  0.0147  1.9156  1.8576
 7406SOL     OW33850   1.243   0.985   4.590  0.3265  0.3970  0.1072
 7406SOL    HW133851   1.228   1.047   4.661 -0.8120 -1.8202  1.7585
 7406SOL    HW233852   1.264   0.904   4.636 -2.8300  0.6903  2.0159
 7407SOL     OW33853   3.419   3.847   6.467 -0.0630  0.1607 -0.0609
 7407SOL    HW133854   3.507   3.845   6.430 -0.3605 -0.9875 -0.6973
 7407SOL    HW233855   3.362   3.901   6.411 -2.0909 -2.7259 -0.7862
 7408SOL     OW33856   4.224   3.943   3.105  0.1983  0.7354 -0.2405
 7408SOL    HW133857   4.310   3.983   3.120 -0.3224  1.8653 -0.2317
 7408SOL    HW233858   4.169   3.957   3.182  2.7673  0.2544  1.6748
 7409SOL     OW33859   1.111   2.639   7.236 -0.0266  0.3083  0.8157
 7409SOL    HW133860   1.085   2.549   7.255  0.8763 -0.1014  0.1409
 7409SOL    HW233861   1.093   2.694   7.312 -0.0596  1.3952  0.0317
 7410SOL     OW33862   3.062   3.558   8.505 -0.4141  0.3609 -0.4265
 7410SOL    HW133863   3.098   3.583   8.590 -0.0297  1.3998 -0.8990
 7410SOL    HW233864   3.136   3.510   8.468  0.3602  1.3113 -0.1076
 7411SOL     OW33865   2.478   3.399   7.777  0.3283 -0.7722  0.2940
 7411SOL    HW133866   2.514   3.364   7.859 -0.7879 -0.3549  0.9647
 7411SOL    HW233867   2.491   3.492   7.759  2.3624 -1.6406 -2.6668
 7412SOL     OW33868   4.095   4.589   4.862 -0.2292  0.1807  0.4994
 7412SOL    HW133869   4.043   4.662   4.828  0.4818 -0.2098 -1.4373
 7412SOL    HW233870   4.165   4.582   4.798 -0.9866  2.2423 -0.5690
 7413SOL     OW33871   3.554   1.657   8.859 -0.0461 -0.3749  0.4736
 7413SOL    HW133872   3.549   1.751   8.875  0.8920 -0.3556  0.6407
 7413SOL    HW233873   3.489   1.620   8.918 -0.3469 -1.1955 -0.3697
 7414SOL     OW33874   3.444   3.492   6.707  0.0524 -0.0623  0.0486
 7414SOL    HW133875   3.410   3.480   6.618 -2.0362  1.7929  0.6198
 7414SOL    HW233876   3.416   3.407   6.742 -1.9133  0.0693 -1.2110
 7415SOL     OW33877   0.685   2.134   0.250 -0.0404  0.0614 -0.1588
 7415SOL    HW133878   0.679   2.223   0.285  0.1351  0.1613 -0.3829
 7415SOL    HW233879   0.746   2.102   0.316  1.2127  3.1110  0.1868
 7416SOL     OW33880   3.972   1.587   8.533 -0.5358  0.0084 -0.9887
 7416SOL    HW133881   3.974   1.586   8.629 -0.0035  2.6727 -0.9652
 7416SOL    HW233882   4.065   1.572   8.513 -0.8880  0.3580 -2.8773
 7417SOL     OW33883   1.891   1.225  16.421 -0.1884 -0.1009  0.3307
 7417SOL    HW133884   1.904   1.179  16.504  0.7957  0.0134  0.2341
 7417SOL    HW233885   1.879   1.156  16.356  1.8999 -0.4284  0.3062
 7418SOL     OW33886   0.587   4.052   3.401  0.1126  0.0522 -0.2581
 7418SOL    HW133887   0.518   3.999   3.440  0.7794 -1.5324 -1.2173
 7418SOL    HW233888   0.660   4.030   3.458  1.7808  0.7435 -2.1300
 7419SOL     OW33889   3.101   4.725   5.723 -0.1454  0.7130 -0.4805
 7419SOL    HW133890   3.033   0.001   5.657  0.9843  1.9383 -1.4345
 7419SOL    HW233891   3.171   4.668   5.692 -0.8013  1.1214 -2.6868
 7420SOL     OW33892   1.074   0.586   8.432 -0.0165 -0.3036  0.1495
 7420SOL    HW133893   1.146   0.638   8.395  0.4699 -0.5558  0.7537
 7420SOL    HW233894   1.129   0.512   8.458 -0.1723 -0.6561 -0.5338
 7421SOL     OW33895   3.004   0.318   5.235 -0.2488  0.1035  0.4138
 7421SOL    HW133896   2.997   0.252   5.167  0.4270  0.2531  0.2044
 7421SOL    HW233897   3.048   0.271   5.306 -1.0512  0.7639  1.3624
 7422SOL     OW33898   0.468   2.355   8.701 -0.0532  0.0450 -0.5990
 7422SOL    HW133899   0.373   2.369   8.697 -0.0004  0.7023  0.5869
 7422SOL    HW233900   0.474   2.334   8.794  1.0366  2.8437 -0.0536
 7423SOL     OW33901   0.398   0.287   6.360 -0.5583 -0.3952 -0.3101
 7423SOL    HW133902   0.358   0.365   6.397 -2.8749 -1.1813 -1.1312
 7423SOL    HW233903   0.374   0.313   6.271 -0.9922  1.9886  0.5135
 7424SOL     OW33904   0.499   2.351   2.609  0.1891  0.3666 -0.2815
 7424SOL    HW133905   0.504   2.403   2.530  0.5397 -0.0042 -0.5032
 7424SOL    HW233906   0.404   2.339   2.613  0.2271 -0.0922 -0.7965
 7425SOL     OW33907   4.569   3.400   9.611  0.1012  0.0430 -0.1769
 7425SOL    HW133908   4.570   3.308   9.635  0.3171  0.1268  0.1306
 7425SOL    HW233909   4.499   3.444   9.658  0.0872  2.1180 -2.1313
 7426SOL     OW33910   2.100   0.616   9.065 -0.1982  0.6567 -0.1514
 7426SOL    HW133911   2.090   0.708   9.040 -0.8472  1.5039  3.1768
 7426SOL    HW233912   2.157   0.589   8.993  1.9585  1.4144  1.2599
 7427SOL     OW33913   2.934   1.947  17.211 -0.4058  0.1009 -0.2015
 7427SOL    HW133914   2.896   1.960  17.124 -0.2219  1.5770 -0.0588
 7427SOL    HW233915   3.018   1.990  17.200 -0.5210  0.5005  0.5341
 7428SOL     OW33916   3.130   3.734   9.960  0.0938 -0.1656 -0.0733
 7428SOL    HW133917   3.046   3.755  10.001  0.5937 -0.1118  0.9404
 7428SOL    HW233918   3.185   3.790  10.014 -0.8720  0.8651 -0.1576
 7429SOL     OW33919   1.459   0.572   7.217  0.2367  0.4911 -0.0614
 7429SOL    HW133920   1.464   0.644   7.154 -0.4607  1.4364  0.9493
 7429SOL    HW233921   1.438   0.622   7.296  1.7999  0.4446  0.3854
 7430SOL     OW33922   3.963   3.188  17.003  0.0190  0.2950  0.0180
 7430SOL    HW133923   3.943   3.179  17.096 -1.3367  0.8861 -0.2137
 7430SOL    HW233924   4.015   3.111  16.983  0.7930  1.1869 -1.4096
 7431SOL     OW33925   2.688   0.116   4.024 -0.3030  0.2736 -0.1476
 7431SOL    HW133926   2.643   0.075   4.097  1.9862  0.8649  1.5933
 7431SOL    HW233927   2.729   0.053   3.964  1.5168 -0.1379  1.5269
 7432SOL     OW33928   0.768   0.271   8.450 -0.5818  0.0214 -0.3502
 7432SOL    HW133929   0.791   0.358   8.418  2.1761 -0.0570  1.4244
 7432SOL    HW233930   0.728   0.235   8.371  0.3610  1.2579 -1.3961
 7433SOL     OW33931   3.112   0.446   7.428  0.3545 -0.4182  0.3941
 7433SOL    HW133932   3.147   0.371   7.382 -0.2347  0.1545 -0.9875
 7433SOL    HW233933   3.194   0.495   7.437  0.1317 -0.3375  2.0229
 7434SOL     OW33934   3.140   3.977   2.977  0.0829 -0.1032  0.6009
 7434SOL    HW133935   3.228   3.950   2.949  0.1339  0.3658  0.2928
 7434SOL    HW233936   3.140   4.056   2.923 -2.5259 -0.7985 -0.4012
 7435SOL     OW33937   1.431   1.536   3.943  0.3146  0.2304  0.5675
 7435SOL    HW133938   1.369   1.593   3.897  0.5936  1.6117  1.9010
 7435SOL    HW233939   1.381   1.454   3.943  0.6994 -0.0010 -0.6313
 7436SOL     OW33940   4.385   2.310   6.093  0.3587 -0.6561  0.0998
 7436SOL    HW133941   4.366   2.361   6.014  0.5055  0.9006  1.0862
 7436SOL    HW233942   4.363   2.222   6.062 -0.4190 -0.7543  0.9071
 7437SOL     OW33943   0.707   1.248   1.626  0.2552 -0.1789  0.1166
 7437SOL    HW133944   0.697   1.164   1.671  0.0899 -0.9340 -1.3282
 7437SOL    HW233945   0.617   1.274   1.610 -0.0414 -0.5102  1.2674
 7438SOL     OW33946   3.387   2.413   9.830  0.6500 -0.7075 -0.3224
 7438SOL    HW133947   3.294   2.431   9.847  1.4409  3.4509 -0.2358
 7438SOL    HW233948   3.435   2.489   9.865  1.3183 -1.4780  0.4415
 7439SOL     OW33949   3.520   0.491   2.287  0.2526 -0.0605 -0.2520
 7439SOL    HW133950   3.533   0.578   2.324 -1.8379  1.0737 -2.1536
 7439SOL    HW233951   3.492   0.432   2.357  1.1767 -0.4487 -0.2174
 7440SOL     OW33952   4.217   1.121   6.889 -0.0316  0.3110  0.2396
 7440SOL    HW133953   4.285   1.177   6.851  0.5941  1.4507  3.0601
 7440SOL    HW233954   4.182   1.184   6.952 -0.0397  1.0289 -0.4797
 7441SOL     OW33955   3.540   1.588   3.933 -0.3649 -0.6598  0.1663
 7441SOL    HW133956   3.484   1.656   3.970  0.7187  0.5466 -0.3922
 7441SOL    HW233957   3.617   1.644   3.946 -2.2624  2.2468 -0.9606
 7442SOL     OW33958   1.825   1.081   7.390  0.0383  0.1455  0.1242
 7442SOL    HW133959   1.740   1.110   7.359 -1.0662  0.4527  3.4186
 7442SOL    HW233960   1.820   1.062   7.484  1.4500  0.1977  0.2217
 7443SOL     OW33961   4.258   2.565   7.026 -0.5450  0.2469 -0.1484
 7443SOL    HW133962   4.294   2.488   6.981  1.0150 -0.3094  2.0321
 7443SOL    HW233963   4.308   2.571   7.107  0.7438  1.2539 -1.0070
 7444SOL     OW33964   0.755   2.432   8.473 -0.2034  0.3083 -0.0481
 7444SOL    HW133965   0.749   2.487   8.394  0.1478  0.4495  0.0234
 7444SOL    HW233966   0.738   2.503   8.535 -2.9487  0.0571 -0.5320
 7445SOL     OW33967   1.415   1.862   6.436  0.3890  0.5062 -0.5996
 7445SOL    HW133968   1.400   1.956   6.449 -2.3781 -0.0346  0.0963
 7445SOL    HW233969   1.508   1.875   6.415  0.0931  2.2043 -0.8383
 7446SOL     OW33970   1.471   1.676  11.762  0.1614 -0.6282 -0.4610
 7446SOL    HW133971   1.551   1.671  11.709  1.2237 -1.8781  1.2481
 7446SOL    HW233972   1.435   1.753  11.719  0.1770 -0.5888 -0.4042
 7447SOL     OW33973   0.369   3.810   5.665  0.1190 -0.1791  0.0988
 7447SOL    HW133974   0.356   3.720   5.696  3.3330 -0.6739  0.0942
 7447SOL    HW233975   0.393   3.792   5.574 -1.7072 -2.0313 -0.0000
 7448SOL     OW33976   3.807   1.974  13.203  0.0687 -0.3068 -0.6542
 7448SOL    HW133977   3.775   1.964  13.113 -1.0708  1.7514 -0.4807
 7448SOL    HW233978   3.735   2.010  13.255  2.8354  2.1507  1.4501
 7449SOL     OW33979   2.706   2.270   7.206  0.5706 -0.4497  0.0978
 7449SOL    HW133980   2.781   2.324   7.231  0.9396 -0.6081 -0.6814
 7449SOL    HW233981   2.632   2.326   7.230  0.5051 -0.0011 -1.1555
 7450SOL     OW33982   2.797   2.335  14.993 -0.4128 -0.3706 -0.3007
 7450SOL    HW133983   2.835   2.309  14.909 -0.4113  1.1994 -0.7734
 7450SOL    HW233984   2.830   2.259  15.041 -0.9277  1.4612  2.9665
 7451SOL     OW33985   0.092   0.682   1.913 -0.3386  0.4639 -0.2842
 7451SOL    HW133986   0.039   0.735   1.853 -1.1706 -0.4785 -0.3674
 7451SOL    HW233987   0.108   0.608   1.854 -1.3923  0.3867 -0.4699
 7452SOL     OW33988   1.289   4.683   2.815 -0.2452 -0.1208  0.2530
 7452SOL    HW133989   1.270   4.609   2.758  1.4236  1.0319 -1.7855
 7452SOL    HW233990   1.266   0.022   2.760 -1.2783  0.3466  1.3211
 7453SOL     OW33991   0.450   1.265   1.955  0.3748  0.0763 -0.2361
 7453SOL    HW133992   0.437   1.278   2.049  0.0460 -1.1684 -0.1006
 7453SOL    HW233993   0.435   1.171   1.968  0.7911 -0.4817 -3.7362
 7454SOL     OW33994   1.641   3.480  11.824 -0.5590 -0.0318  0.0321
 7454SOL    HW133995   1.693   3.403  11.799  1.4528  0.4402  2.8305
 7454SOL    HW233996   1.588   3.451  11.898 -0.5883 -1.2205 -0.4573
 7455SOL     OW33997   1.089   4.334   8.550 -0.8574 -0.5034 -0.8353
 7455SOL    HW133998   1.043   4.256   8.581 -0.7200 -0.0550  0.4830
 7455SOL    HW233999   1.058   4.403   8.609 -1.2639 -1.5594  0.1855
 7456SOL     OW34000   0.899   2.255   6.859  0.3152  0.4907  0.4935
 7456SOL    HW134001   0.840   2.181   6.843  0.8383 -0.0406  1.0485
 7456SOL    HW234002   0.844   2.333   6.859 -0.4374 -0.0507  1.7887
 7457SOL     OW34003   4.602   0.195   2.218  0.2447  0.2379  0.2258
 7457SOL    HW134004   4.642   0.173   2.302 -0.7150  2.4227  1.2378
 7457SOL    HW234005   4.627   0.117   2.169 -0.6154  0.2965 -0.2995
 7458SOL     OW34006   1.542   2.810   2.243  0.4211  0.3868  0.9050
 7458SOL    HW134007   1.497   2.745   2.189 -1.8373  1.0047  2.0559
 7458SOL    HW234008   1.622   2.822   2.192  0.1524  0.9832  0.6276
 7459SOL     OW34009   3.119   2.728   2.616 -0.5812 -0.4073  0.1876
 7459SOL    HW134010   3.085   2.785   2.547  0.6302  0.4977  0.3318
 7459SOL    HW234011   3.150   2.646   2.576  0.6508 -0.3139  0.9343
 7460SOL     OW34012   2.104   2.626   0.028 -0.1612  0.3393 -0.0523
 7460SOL    HW134013   2.111   2.554   0.090 -0.2478  0.8856  0.5918
 7460SOL    HW234014   2.053   2.680   0.088  0.0930  0.1437  0.3382
 7461SOL     OW34015   4.541   3.173  13.281 -0.7381 -0.4495  0.0875
 7461SOL    HW134016   4.514   3.243  13.223 -0.9230 -2.1894 -1.9374
 7461SOL    HW234017   4.541   3.097  13.223 -0.5768 -0.8399  0.5936
 7462SOL     OW34018   4.316   0.336  13.669  0.4277  0.1273  0.0974
 7462SOL    HW134019   4.361   0.388  13.735  0.5585 -0.6796  0.6445
 7462SOL    HW234020   4.225   0.339  13.697  1.6819 -0.9560  4.3269
 7463SOL     OW34021   4.591   0.836   2.083 -0.0008  0.3910  0.4489
 7463SOL    HW134022   4.516   0.777   2.073  0.9355 -0.5975 -0.6760
 7463SOL    HW234023   4.648   0.792   2.020 -0.5721  0.7259 -0.3054
 7464SOL     OW34024   3.950   4.665   2.137  0.1833  0.4863  0.4390
 7464SOL    HW134025   3.921   4.591   2.084  1.8207  0.8990 -1.0194
 7464SOL    HW234026   3.863   4.683   2.173  0.8734 -2.2146  3.4746
 7465SOL     OW34027   1.986   1.715  17.008 -0.2755  0.0051  0.4705
 7465SOL    HW134028   1.983   1.804  16.972  0.4385 -0.0528  0.2729
 7465SOL    HW234029   2.065   1.681  16.965 -0.2785  1.6264 -0.8363
 7466SOL     OW34030   2.969   2.921   3.364  0.0222 -0.0821 -0.0264
 7466SOL    HW134031   3.022   2.950   3.289 -2.5837  1.2454 -1.3311
 7466SOL    HW234032   2.984   3.000   3.416 -3.0973  0.8526 -0.5505
 7467SOL     OW34033   4.342   1.594   5.455  0.6623 -0.1885 -0.1471
 7467SOL    HW134034   4.433   1.580   5.429  0.8925 -0.1657  0.6290
 7467SOL    HW234035   4.320   1.501   5.463 -0.6110  0.1158 -0.0361
 7468SOL     OW34036   1.679   4.660  16.954  0.0494  0.4582  0.6992
 7468SOL    HW134037   1.631   4.585  16.988  0.0441  1.6593  3.3698
 7468SOL    HW234038   1.766   4.620  16.947 -0.1973  0.1465 -0.5285
 7469SOL     OW34039   4.206   1.987   8.232  0.1556  0.0717  0.1511
 7469SOL    HW134040   4.112   1.981   8.248  0.2441  1.4624  1.1463
 7469SOL    HW234041   4.249   1.924   8.289  0.0605  0.0742  0.2242
 7470SOL     OW34042   4.428   1.143   9.057  0.3192  0.0923 -0.2667
 7470SOL    HW134043   4.391   1.221   9.014 -0.5305  0.2241  0.7026
 7470SOL    HW234044   4.431   1.165   9.150  1.1790  0.1573 -0.3053
 7471SOL     OW34045   4.331   2.041   1.193 -0.3278 -0.7491  0.3442
 7471SOL    HW134046   4.239   2.068   1.198 -0.0894  0.4167 -1.5521
 7471SOL    HW234047   4.367   2.106   1.133 -0.3640 -0.7458  0.3264
 7472SOL     OW34048   0.813   1.856   6.093 -0.0186  0.2727 -0.6131
 7472SOL    HW134049   0.831   1.946   6.065  1.0521  0.1497 -0.3207
 7472SOL    HW234050   0.725   1.869   6.130  0.5543  2.2021  0.0953
 7473SOL     OW34051   2.239   3.673   7.210 -0.1360 -0.0117 -0.9939
 7473SOL    HW134052   2.146   3.698   7.208 -0.5989 -1.6936 -0.4942
 7473SOL    HW234053   2.284   3.728   7.146  0.8764  0.2646 -0.0377
 7474SOL     OW34054   1.267   0.528   3.339 -0.1803  0.3311 -0.3228
 7474SOL    HW134055   1.347   0.531   3.287 -0.6031  1.2510 -0.9338
 7474SOL    HW234056   1.230   0.609   3.302 -0.0710  0.0429 -1.0551
 7475SOL     OW34057   1.002   0.321  10.205 -0.0452  0.7357  0.0806
 7475SOL    HW134058   0.993   0.232  10.170 -1.7691  0.5127  1.0390
 7475SOL    HW234059   0.960   0.306  10.290 -0.2876  3.2326  0.4153
 7476SOL     OW34060   3.909   1.546   7.015  0.3267  0.2941  0.2841
 7476SOL    HW134061   3.823   1.586   7.002  0.2578 -0.0042 -0.1894
 7476SOL    HW234062   3.968   1.617   6.993  0.7613  0.0823  0.7710
 7477SOL     OW34063   0.572   1.858  10.616  0.4623 -0.4496 -0.1851
 7477SOL    HW134064   0.531   1.934  10.574 -0.7878 -0.3577  1.1755
 7477SOL    HW234065   0.661   1.872  10.586  1.2563 -3.7600  0.6463
 7478SOL     OW34066   1.165   1.635   2.741 -0.7120 -0.3511 -0.3018
 7478SOL    HW134067   1.136   1.675   2.823 -0.7944 -0.5846 -0.2162
 7478SOL    HW234068   1.255   1.664   2.731 -0.3821 -1.8320 -1.6589
 7479SOL     OW34069   3.950   1.261   2.347  0.4905  0.6851  0.5166
 7479SOL    HW134070   3.968   1.352   2.323 -0.9739  0.3031 -1.9441
 7479SOL    HW234071   3.876   1.277   2.405 -0.8332 -0.0676 -0.9686
 7480SOL     OW34072   2.703   0.402  12.249 -0.2140  0.5034 -0.0415
 7480SOL    HW134073   2.756   0.390  12.170  2.8222  0.8407  1.9670
 7480SOL    HW234074   2.736   0.341  12.314  0.4946  1.5545  0.5867
 7481SOL     OW34075   4.726   4.725   2.048 -0.2794  0.0041 -0.3103
 7481SOL    HW134076   0.077   0.016   2.018  0.2033  0.4368  1.4378
 7481SOL    HW234077   0.011   4.652   2.105 -0.7913 -1.6891 -2.3126
 7482SOL     OW34078   0.586   1.439  13.514 -0.0049 -0.4494 -0.5354
 7482SOL    HW134079   0.672   1.407  13.542 -0.5132 -1.7535 -0.4842
 7482SOL    HW234080   0.615   1.508  13.453 -0.9575 -0.1840 -0.6851
 7483SOL     OW34081   4.225   0.414   6.269  0.1555 -0.2471 -0.0994
 7483SOL    HW134082   4.165   0.349   6.232 -0.2870 -0.1426  0.4327
 7483SOL    HW234083   4.304   0.381   6.226 -0.0966 -0.7393 -0.1790
 7484SOL     OW34084   2.977   2.025   9.152  0.7856  0.3251  0.1505
 7484SOL    HW134085   2.934   2.106   9.123  1.2189  0.0944 -1.1277
 7484SOL    HW234086   3.059   2.030   9.104  0.8125 -1.0583  0.0748
 7485SOL     OW34087   4.141   0.182   0.422  0.3718  0.2345 -0.1004
 7485SOL    HW134088   4.153   0.275   0.439 -0.2929  0.1500  0.7969
 7485SOL    HW234089   4.144   0.163   0.515  2.4074  0.3375 -0.1442
 7486SOL     OW34090   2.184   3.181   3.734  0.1700  0.0372 -0.2085
 7486SOL    HW134091   2.136   3.263   3.725  1.0130  0.7257  1.5508
 7486SOL    HW234092   2.273   3.213   3.725  0.0336 -0.2767 -2.6737
 7487SOL     OW34093   1.817   1.747   7.885  0.2340  0.1903 -0.2365
 7487SOL    HW134094   1.874   1.772   7.813 -0.4173  0.8623 -0.5198
 7487SOL    HW234095   1.823   1.813   7.954 -0.6304  0.4268 -0.3904
 7488SOL     OW34096   2.431   3.605   2.291 -0.0016  0.2508  0.3366
 7488SOL    HW134097   2.362   3.591   2.225  1.4338 -2.9994 -0.4797
 7488SOL    HW234098   2.458   3.693   2.264 -0.9112  1.0994  2.1849
 7489SOL     OW34099   3.200   0.219   1.353 -0.4659 -0.3347 -0.3537
 7489SOL    HW134100   3.180   0.127   1.339 -1.8288  0.2383 -2.1406
 7489SOL    HW234101   3.168   0.254   1.269 -2.7308 -1.9571 -0.1474
 7490SOL     OW34102   3.207   2.750   6.746  0.2828 -0.3886  0.3603
 7490SOL    HW134103   3.263   2.795   6.810  0.4250  0.3206 -0.2732
 7490SOL    HW234104   3.129   2.732   6.799  1.1417 -0.4719  1.5937
 7491SOL     OW34105   1.055   2.752  12.191  0.3245  0.0843  0.0145
 7491SOL    HW134106   1.090   2.690  12.255 -1.2689 -0.7521  0.0717
 7491SOL    HW234107   1.020   2.828  12.237  2.3472  0.1634  1.4400
 7492SOL     OW34108   4.296   0.064   4.238 -0.4849  0.5801 -0.1880
 7492SOL    HW134109   4.378   0.097   4.275 -0.0113  0.5764 -1.2180
 7492SOL    HW234110   4.238   0.040   4.309  0.5125 -0.2232  0.3465
 7493SOL     OW34111   3.849   1.849   3.351  0.1590  0.0060  0.0700
 7493SOL    HW134112   3.893   1.767   3.330  2.1547  1.9588 -3.2068
 7493SOL    HW234113   3.794   1.863   3.274 -0.3313  2.3578  0.8589
 7494SOL     OW34114   0.445   1.493   7.648 -0.2910  0.4806 -0.5260
 7494SOL    HW134115   0.517   1.508   7.586 -0.6152 -3.8134 -1.9714
 7494SOL    HW234116   0.439   1.580   7.687 -0.3508  1.3488 -2.4285
 7495SOL     OW34117   4.184   3.968  10.852 -0.2970 -0.4249 -0.2008
 7495SOL    HW134118   4.269   4.013  10.855 -1.6261  2.1669 -1.2100
 7495SOL    HW234119   4.202   3.889  10.903  1.3868 -0.5951 -1.0587
 7496SOL     OW34120   3.840   3.847  15.948 -0.6723  0.3252  0.4463
 7496SOL    HW134121   3.819   3.761  15.984 -1.2362  0.4044  0.3208
 7496SOL    HW234122   3.934   3.854  15.936 -0.6610 -1.0995 -0.4096
 7497SOL     OW34123   3.663   2.398   2.621  0.5050  0.0450  0.9886
 7497SOL    HW134124   3.695   2.485   2.643 -1.1288  0.7516  0.5214
 7497SOL    HW234125   3.713   2.377   2.543  0.4064 -0.7789  1.1409
 7498SOL     OW34126   1.783   4.086   5.583 -0.0627  0.1829  0.6026
 7498SOL    HW134127   1.781   3.992   5.565 -1.0652  0.3496 -0.1506
 7498SOL    HW234128   1.689   4.103   5.570  0.6780  2.8147 -1.1693
 7499SOL     OW34129   3.686   1.208   1.329  0.0790  0.1107 -0.1587
 7499SOL    HW134130   3.603   1.160   1.326 -1.3652  2.6116  0.1446
 7499SOL    HW234131   3.735   1.148   1.272  1.9412 -1.9399  3.6196
 7500SOL     OW34132   0.253   3.566   4.875  0.4383  0.0906 -0.4744
 7500SOL    HW134133   0.281   3.511   4.947  0.7878  1.1128  0.1672
 7500SOL    HW234134   0.329   3.620   4.851 -0.2150  0.5620 -1.5077
 7501SOL     OW34135   1.311   2.761   7.853 -0.0875 -0.0902 -0.2339
 7501SOL    HW134136   1.293   2.688   7.793  0.1628 -1.1231  0.9367
 7501SOL    HW234137   1.226   2.802   7.868  0.5113  0.7171  0.9318
 7502SOL     OW34138   3.470   0.459  10.682 -0.0173 -0.5909 -0.8478
 7502SOL    HW134139   3.421   0.408  10.747  1.8252 -1.7833 -0.3989
 7502SOL    HW234140   3.550   0.455  10.734 -0.9629  0.4615  0.6858
 7503SOL     OW34141   2.660   3.057  12.653  0.3447  0.5391  0.0738
 7503SOL    HW134142   2.595   3.100  12.597  0.5574  2.4700  1.2946
 7503SOL    HW234143   2.725   3.058  12.584 -1.7473  2.0223 -1.8719
 7504SOL     OW34144   1.480   4.296  10.018 -0.4330  0.1118 -0.3954
 7504SOL    HW134145   1.397   4.267   9.980 -0.4179  0.4857 -0.7104
 7504SOL    HW234146   1.491   4.382   9.977  1.1168  0.7393  1.3130
 7505SOL     OW34147   2.963   1.166   9.241 -0.0005 -0.2687 -0.0844
 7505SOL    HW134148   2.931   1.160   9.151 -1.4227  0.0200  0.3998
 7505SOL    HW234149   2.903   1.110   9.289  1.0040 -2.3108 -1.2168
 7506SOL     OW34150   2.461   0.227   1.587  0.4944  0.1885 -0.1544
 7506SOL    HW134151   2.426   0.139   1.599  1.5097 -0.3139 -0.8826
 7506SOL    HW234152   2.435   0.260   1.673  3.4687  2.6727 -0.1650
 7507SOL     OW34153   1.409   0.804  15.585  0.0578  0.1842 -0.0832
 7507SOL    HW134154   1.396   0.813  15.491  3.9380  1.9145 -0.4703
 7507SOL    HW234155   1.450   0.888  15.607  2.3957 -1.2851  1.2182
 7508SOL     OW34156   0.236   4.068   2.467  0.1583 -0.1003  0.6970
 7508SOL    HW134157   0.283   4.028   2.394 -1.7952 -0.7046 -0.2157
 7508SOL    HW234158   0.269   4.011   2.536  1.1963 -1.9268 -1.3066
 7509SOL     OW34159   0.924   0.477  14.899 -0.0235 -0.3097 -0.2727
 7509SOL    HW134160   0.946   0.440  14.985  2.4071  1.7514 -0.0215
 7509SOL    HW234161   0.910   0.399  14.846 -1.7177  1.6210 -2.7318
 7510SOL     OW34162   0.509   3.777   7.704  0.1909 -0.1389  0.0033
 7510SOL    HW134163   0.578   3.836   7.734 -1.1459  0.7963  1.2376
 7510SOL    HW234164   0.441   3.795   7.769  1.4039  0.5565  1.0680
 7511SOL     OW34165   0.097   3.207   6.940  0.1511  0.4115  0.0207
 7511SOL    HW134166   0.072   3.294   6.972 -0.9799  0.5135 -1.1233
 7511SOL    HW234167   0.018   3.168   6.978  0.3259 -0.1426 -0.1837
 7512SOL     OW34168   1.692   3.459   6.416 -0.2813  0.0774  0.7816
 7512SOL    HW134169   1.772   3.452   6.364  0.7120  1.0604  2.1975
 7512SOL    HW234170   1.714   3.390   6.478 -0.4679 -1.6352 -1.0553
 7513SOL     OW34171   3.610   3.262  17.287 -0.7474 -0.2214 -1.0129
 7513SOL    HW134172   3.675   3.191  17.295 -0.7988 -0.2136 -0.5077
 7513SOL    HW234173   3.527   3.216  17.296 -0.3235 -0.6903  0.5637
 7514SOL     OW34174   0.915   3.603   9.257  0.4986 -0.7575  0.1253
 7514SOL    HW134175   0.846   3.657   9.221 -0.6052 -2.2103  0.0576
 7514SOL    HW234176   0.898   3.510   9.240 -0.6949 -0.6418  0.6766
 7515SOL     OW34177   4.518   4.288  14.031 -0.1897  0.0705 -0.4677
 7515SOL    HW134178   4.451   4.231  13.993 -2.2271  1.4262  1.1670
 7515SOL    HW234179   4.466   4.342  14.090  0.2649 -1.4659  1.3420
 7516SOL     OW34180   3.981   0.015   5.452  0.3895 -0.5225  0.2426
 7516SOL    HW134181   4.013   4.661   5.461  0.1154 -0.8561 -2.0137
 7516SOL    HW234182   3.987   0.054   5.539 -0.8883 -0.3291  0.2495
 7517SOL     OW34183   0.525   2.911   9.324 -0.4578  0.1007 -0.3253
 7517SOL    HW134184   0.443   2.959   9.335 -0.8471 -0.4072 -1.0338
 7517SOL    HW234185   0.497   2.848   9.258 -0.8719  1.5081 -1.4804
 7518SOL     OW34186   0.652   4.298  10.484 -1.5335  0.1203 -0.4311
 7518SOL    HW134187   0.724   4.345  10.526  1.1052 -2.8414 -1.6276
 7518SOL    HW234188   0.603   4.277  10.564 -0.7709  1.9270  0.5171
 7519SOL     OW34189   3.868   1.590   5.782  0.1386  0.3290  0.0038
 7519SOL    HW134190   3.944   1.646   5.798 -0.5588  1.3698 -0.3808
 7519SOL    HW234191   3.823   1.615   5.862  0.9254 -1.1086  0.9174
 7520SOL     OW34192   1.009   1.316   3.799  0.2234  0.2369  0.0171
 7520SOL    HW134193   1.023   1.237   3.747  1.1546 -0.5664  1.4725
 7520SOL    HW234194   1.027   1.387   3.737  0.7462  2.3977  2.6237
 7521SOL     OW34195   3.640   3.333   6.290 -0.1648 -0.4209  0.0620
 7521SOL    HW134196   3.676   3.389   6.221 -1.7954  1.1878  0.5301
 7521SOL    HW234197   3.553   3.370   6.272  0.5113  1.1770  0.1154
 7522SOL     OW34198   2.376   1.872   8.196  0.0297  0.3916  0.3241
 7522SOL    HW134199   2.464   1.874   8.159 -0.2577 -0.3158 -0.3996
 7522SOL    HW234200   2.358   1.966   8.190  0.6000  0.4610 -0.3709
 7523SOL     OW34201   3.135   0.655   3.071 -0.3647 -0.1667  0.4392
 7523SOL    HW134202   3.174   0.618   2.992 -1.8717 -2.0684  0.5881
 7523SOL    HW234203   3.210   0.657   3.131  0.0870 -2.2533 -0.0475
 7524SOL     OW34204   3.352   0.052   3.998 -0.3328 -0.1483 -0.2446
 7524SOL    HW134205   3.437   0.096   3.988 -0.8655  1.0634  0.5159
 7524SOL    HW234206   3.285   0.120   3.987 -0.6048 -0.3380  0.2428
 7525SOL     OW34207   3.137   0.826   0.261  0.3889  0.3660 -0.0565
 7525SOL    HW134208   3.045   0.853   0.262 -0.5060 -2.6649 -0.4118
 7525SOL    HW234209   3.172   0.878   0.334  1.0429  0.0252 -0.1284
 7526SOL     OW34210   2.924   1.809   5.029  0.5148 -0.3623  0.7239
 7526SOL    HW134211   2.992   1.767   4.976 -1.2207 -0.8170 -1.1351
 7526SOL    HW234212   2.841   1.780   4.991 -0.7844  2.6606  1.2921
 7527SOL     OW34213   2.026   2.114   3.249  0.3694  0.1671  0.1135
 7527SOL    HW134214   2.056   2.135   3.161 -2.5364  3.0982 -0.1727
 7527SOL    HW234215   2.096   2.150   3.304 -0.0304  2.9681 -1.2078
 7528SOL     OW34216   4.384   2.682  12.049  0.3953  0.1968  0.1382
 7528SOL    HW134217   4.448   2.639  11.992 -0.6339  1.6028 -2.1037
 7528SOL    HW234218   4.440   2.702  12.124  0.4338  0.5645  0.0127
 7529SOL     OW34219   3.043   1.047   6.479  0.0029 -0.0248 -0.5058
 7529SOL    HW134220   3.042   1.077   6.388 -2.5047 -0.3472 -0.5945
 7529SOL    HW234221   3.132   1.071   6.503  0.4973 -0.6322 -1.7646
 7530SOL     OW34222   0.456   2.321   1.731 -0.4102 -0.5355 -0.4097
 7530SOL    HW134223   0.400   2.368   1.670 -1.8667 -0.3812  1.0373
 7530SOL    HW234224   0.404   2.317   1.812  0.5317 -2.3313  0.1021
 7531SOL     OW34225   2.905   4.229   7.902  0.4387  0.4710 -0.4184
 7531SOL    HW134226   2.960   4.151   7.908 -0.4746 -0.1186  0.2131
 7531SOL    HW234227   2.964   4.294   7.939 -0.9349  1.6989 -0.3851
 7532SOL     OW34228   3.202   0.794   8.049  0.9057  0.4078 -0.2399
 7532SOL    HW134229   3.286   0.748   8.045  0.8976  0.4099 -0.4158
 7532SOL    HW234230   3.203   0.849   7.971 -2.4958  1.5740  0.5154
 7533SOL     OW34231   1.542   1.654   0.564 -0.1870 -0.0236 -0.8544
 7533SOL    HW134232   1.544   1.590   0.636 -0.5308 -0.5803 -1.3458
 7533SOL    HW234233   1.601   1.724   0.594 -1.0856 -0.4394  1.9369
 7534SOL     OW34234   2.898   2.224  17.011  0.0340  0.3849 -0.2471
 7534SOL    HW134235   2.993   2.217  17.020 -0.0576  2.6978  2.6680
 7534SOL    HW234236   2.878   2.150  16.953 -1.4413  0.8657 -0.3405
 7535SOL     OW34237   3.465   2.447   7.876 -0.0806  0.1179  0.3826
 7535SOL    HW134238   3.436   2.460   7.786 -0.5168  1.2569  0.6895
 7535SOL    HW234239   3.484   2.540   7.886 -1.3621  0.2174  1.8628
 7536SOL     OW34240   4.392   4.093  16.328  0.3250 -0.3167  0.0185
 7536SOL    HW134241   4.315   4.056  16.284 -1.7689  0.9249  2.6123
 7536SOL    HW234242   4.366   4.080  16.419  1.5592 -1.4486  0.2062
 7537SOL     OW34243   4.141   1.351   3.921 -0.4280  0.4573  0.2333
 7537SOL    HW134244   4.068   1.291   3.905 -0.3751  0.3167  0.5211
 7537SOL    HW234245   4.201   1.310   3.858 -0.9989  1.1211 -0.7449
 7538SOL     OW34246   3.058   3.899   5.490 -0.3209  0.4342 -0.4651
 7538SOL    HW134247   2.980   3.845   5.506  0.8262 -1.1286 -0.1297
 7538SOL    HW234248   3.059   3.913   5.396  4.7238  0.2325 -0.4188
 7539SOL     OW34249   1.840   2.505   6.209  0.4298 -0.4026 -0.3481
 7539SOL    HW134250   1.910   2.447   6.180  0.0408 -0.6233 -0.8497
 7539SOL    HW234251   1.804   2.541   6.128 -1.9230 -1.7481  0.1070
 7540SOL     OW34252   3.667   2.466   3.279  0.2296 -0.4983  0.0209
 7540SOL    HW134253   3.621   2.501   3.355  0.6511 -0.4205  0.2426
 7540SOL    HW234254   3.611   2.395   3.248 -2.2118  2.0756 -1.4598
 7541SOL     OW34255   0.728   4.362   6.019  0.6208  0.1167 -0.0572
 7541SOL    HW134256   0.795   4.397   6.078 -0.8610  1.1865  0.9803
 7541SOL    HW234257   0.692   4.442   5.981  0.2193 -0.0891 -0.1090
 7542SOL     OW34258   2.664   2.149   6.385  0.3183 -0.3793  0.4242
 7542SOL    HW134259   2.678   2.125   6.476  0.3487 -0.7090  0.3342
 7542SOL    HW234260   2.576   2.188   6.389  0.5264 -0.0969  1.9505
 7543SOL     OW34261   1.465   4.145  16.904 -0.0973 -0.1354 -0.5478
 7543SOL    HW134262   1.488   4.063  16.948  1.2943  1.5738  1.9046
 7543SOL    HW234263   1.541   4.198  16.928  0.9728 -1.8002 -0.2553
 7544SOL     OW34264   3.044   3.159   2.626 -0.5251 -0.0059 -0.3295
 7544SOL    HW134265   3.096   3.088   2.664 -1.2018 -0.0168  0.5671
 7544SOL    HW234266   3.014   3.208   2.703  1.4909  1.7495 -0.6862
 7545SOL     OW34267   4.728   1.747   7.745  0.3141 -0.5798  0.0179
 7545SOL    HW134268   4.685   1.711   7.823  0.6717 -1.3075 -0.1177
 7545SOL    HW234269   0.069   1.690   7.746  1.1450  0.5578  0.8058
 7546SOL     OW34270   3.232   0.914   5.112 -0.4631 -0.3118  0.1652
 7546SOL    HW134271   3.219   0.899   5.206  0.9925 -1.2461  0.2082
 7546SOL    HW234272   3.268   0.835   5.071 -1.2195 -1.7972  2.3709
 7547SOL     OW34273   4.346   4.071  13.974 -0.0381  0.5232 -0.2469
 7547SOL    HW134274   4.371   3.989  13.931 -2.8868 -0.4643 -0.0297
 7547SOL    HW234275   4.251   4.056  13.969 -0.3209  1.4894  2.2662
 7548SOL     OW34276   3.495   0.027   8.247 -0.4576 -0.1754  0.2906
 7548SOL    HW134277   3.435   4.722   8.309  1.5415  0.6324  2.7568
 7548SOL    HW234278   3.437   0.032   8.170 -1.0626 -1.8858  0.6396
 7549SOL     OW34279   2.148   0.222  12.855 -0.5077  0.5160  0.6351
 7549SOL    HW134280   2.154   0.168  12.776  3.8209  2.6388 -0.5015
 7549SOL    HW234281   2.219   0.187  12.909  0.8935  0.4892 -1.2453
 7550SOL     OW34282   0.132   2.966   6.008  0.1019 -0.4940 -0.0461
 7550SOL    HW134283   0.068   2.895   6.008  0.3286 -0.6373 -4.9767
 7550SOL    HW234284   0.108   3.010   6.090 -0.7752 -0.8558 -0.1162
 7551SOL     OW34285   3.930   2.857   2.285  0.2494  0.1154  0.5326
 7551SOL    HW134286   3.994   2.819   2.345 -0.3880  0.6380  1.5390
 7551SOL    HW234287   3.856   2.801   2.308 -0.9730  0.8849 -1.4811
 7552SOL     OW34288   4.122   2.944   5.570  0.2278  0.4322 -0.3724
 7552SOL    HW134289   4.045   2.999   5.559 -2.9972 -3.6046  2.0934
 7552SOL    HW234290   4.159   2.983   5.649  0.3482 -2.4954  1.0375
 7553SOL     OW34291   1.032   4.098  14.074 -0.0067 -0.0564 -0.1500
 7553SOL    HW134292   0.970   4.136  14.010 -2.2459  0.4919  2.3468
 7553SOL    HW234293   1.115   4.119  14.031 -1.3404  1.1970 -2.1480
 7554SOL     OW34294   4.311   1.912   4.812  0.0069 -0.5670  0.2351
 7554SOL    HW134295   4.288   1.948   4.898 -0.2032  0.3378 -0.2037
 7554SOL    HW234296   4.282   1.822   4.831 -0.2580 -0.3844  0.6866
 7555SOL     OW34297   1.829   1.427  16.598  0.5485 -0.5773 -0.8631
 7555SOL    HW134298   1.858   1.365  16.532  2.4037 -0.2466 -0.3454
 7555SOL    HW234299   1.781   1.363  16.651  0.0130 -0.2368 -0.9295
 7556SOL     OW34300   0.570   2.291   7.037  0.0287  0.3486  0.0064
 7556SOL    HW134301   0.523   2.279   7.120 -1.8608 -0.2520 -1.1577
 7556SOL    HW234302   0.660   2.269   7.060 -0.5257 -1.8363  0.0649
 7557SOL     OW34303   3.057   2.803  15.675 -0.3922 -0.9149 -0.7214
 7557SOL    HW134304   3.004   2.879  15.698  2.7035  0.9976 -0.0872
 7557SOL    HW234305   3.090   2.834  15.591 -0.4700  0.5882 -0.1807
 7558SOL     OW34306   1.078   4.161   9.177  0.1514  0.6988  0.5611
 7558SOL    HW134307   1.127   4.175   9.096  1.2556  0.2236  1.1576
 7558SOL    HW234308   1.041   4.073   9.170  0.9304  0.6183 -2.4648
 7559SOL     OW34309   0.066   3.614  10.732 -0.7059  0.4882  0.2362
 7559SOL    HW134310   0.154   3.577  10.737 -1.1957 -0.6103  0.5271
 7559SOL    HW234311   0.057   3.643  10.823 -0.3933  0.9817  0.1118
 7560SOL     OW34312   1.251   3.896   3.697  0.2923  0.2033 -0.1009
 7560SOL    HW134313   1.346   3.892   3.706  0.3073 -0.1451 -0.4208
 7560SOL    HW234314   1.239   3.947   3.617 -0.5583  2.9435  1.7653
 7561SOL     OW34315   1.983   2.038  16.897 -0.7729 -0.5799  0.0242
 7561SOL    HW134316   2.015   2.098  16.964 -0.8543 -0.0090 -0.4511
 7561SOL    HW234317   1.909   2.088  16.863  0.3509 -0.0517 -1.6343
 7562SOL     OW34318   1.312   3.374   8.397 -0.2654 -0.3578 -0.3237
 7562SOL    HW134319   1.407   3.383   8.386  0.1780 -3.2314  1.0368
 7562SOL    HW234320   1.280   3.460   8.369 -1.3317 -1.6730 -3.1339
 7563SOL     OW34321   1.625   2.180   0.921 -0.4083  0.0675  0.2407
 7563SOL    HW134322   1.647   2.093   0.955  1.0044  0.6346  0.7867
 7563SOL    HW234323   1.654   2.228   0.998 -4.0032 -1.8350  2.7253
 7564SOL     OW34324   2.157   0.045   6.784 -0.1267  0.3497  0.0826
 7564SOL    HW134325   2.107   4.706   6.815  0.5369  0.3563  1.1931
 7564SOL    HW234326   2.186   0.069   6.872  0.9258  0.0860 -0.1906
 7565SOL     OW34327   4.573   2.436   1.282 -0.3402  0.5966 -0.6022
 7565SOL    HW134328   4.601   2.446   1.191  0.1469 -1.3397 -0.6594
 7565SOL    HW234329   4.628   2.364   1.310 -2.4723 -1.3133 -1.2998
 7566SOL     OW34330   3.607   1.689   4.540  0.1915 -0.6974  0.5023
 7566SOL    HW134331   3.677   1.642   4.584  0.3107  1.2838  2.4615
 7566SOL    HW234332   3.535   1.667   4.600 -0.9220  0.3811 -0.4406
 7567SOL     OW34333   4.324   0.810   7.245 -0.1453 -0.2258  0.0543
 7567SOL    HW134334   4.317   0.806   7.341 -2.4664 -0.8374 -0.1448
 7567SOL    HW234335   4.291   0.898   7.226  1.5504 -0.1574 -2.5599
 7568SOL     OW34336   2.286   0.571   9.468 -0.4197  0.0519  0.2328
 7568SOL    HW134337   2.191   0.572   9.456 -0.2806  0.1306 -0.8556
 7568SOL    HW234338   2.282   0.584   9.563 -0.3431 -1.8179  0.4816
 7569SOL     OW34339   2.382   0.449   0.606 -0.3987  0.4640 -0.1212
 7569SOL    HW134340   2.288   0.434   0.609 -0.4609  0.8196 -0.2548
 7569SOL    HW234341   2.376   0.528   0.552 -0.4282 -0.6172 -1.6940
 7570SOL     OW34342   0.416   3.230   7.690 -0.3617  0.0050 -0.4724
 7570SOL    HW134343   0.465   3.285   7.753 -1.0757 -0.8556  0.8257
 7570SOL    HW234344   0.357   3.185   7.750  1.6661 -0.7253  0.9821
 7571SOL     OW34345   2.650   0.472   8.702  0.2548  0.3251  0.2295
 7571SOL    HW134346   2.716   0.542   8.704 -1.7475  2.2478 -0.5431
 7571SOL    HW234347   2.574   0.526   8.679 -0.3714 -1.6531 -2.3369
 7572SOL     OW34348   1.208   2.966  17.175  0.0828 -0.4528 -0.0241
 7572SOL    HW134349   1.164   2.953  17.092  0.2647  0.0213 -0.1951
 7572SOL    HW234350   1.228   2.874  17.196 -1.3833 -0.5327  0.9971
 7573SOL     OW34351   0.665   2.579   8.845 -0.0720  0.4460 -0.2738
 7573SOL    HW134352   0.741   2.528   8.874 -0.7813 -1.0726 -1.1103
 7573SOL    HW234353   0.591   2.526   8.876  0.7250  0.9877  2.6072
 7574SOL     OW34354   0.574   0.689   7.616 -0.3498  0.5471 -0.0961
 7574SOL    HW134355   0.495   0.714   7.663 -1.4641 -2.7336 -0.2017
 7574SOL    HW234356   0.646   0.749   7.636  0.6069 -0.4319 -0.5883
 7575SOL     OW34357   1.948   1.074   9.162  0.0223  0.6123 -0.1151
 7575SOL    HW134358   1.900   1.125   9.226  0.6871  1.3674 -0.2204
 7575SOL    HW234359   1.906   1.108   9.084 -2.4529 -0.6642  0.6467
 7576SOL     OW34360   0.406   0.072   5.537  0.2647 -0.0296  0.6566
 7576SOL    HW134361   0.454   4.732   5.570  2.5343  0.8603 -0.5892
 7576SOL    HW234362   0.468   0.145   5.539  2.0187 -1.5217  0.9514
 7577SOL     OW34363   4.381   2.178   8.812  0.1323 -0.2378 -0.4290
 7577SOL    HW134364   4.416   2.265   8.832  2.2188 -1.0267 -0.6916
 7577SOL    HW234365   4.318   2.194   8.742 -1.0737 -2.2887  0.1696
 7578SOL     OW34366   1.974   4.340   6.687  0.7936 -0.2591  0.1609
 7578SOL    HW134367   1.938   4.251   6.689 -0.1647  0.1491  1.7045
 7578SOL    HW234368   1.895   4.386   6.660  0.8959  0.9169  1.8807
 7579SOL     OW34369   1.745   0.460  13.643 -0.3705 -0.6090  0.3438
 7579SOL    HW134370   1.707   0.486  13.559 -1.4621 -1.4261  0.5918
 7579SOL    HW234371   1.677   0.397  13.667  2.7596 -4.8159 -1.8938
 7580SOL     OW34372   4.214   2.052   7.248  0.1981  0.2363  0.0230
 7580SOL    HW134373   4.177   2.058   7.336 -1.6862  0.5637 -0.7938
 7580SOL    HW234374   4.279   1.982   7.256  1.7194  1.5674 -0.5966
 7581SOL     OW34375   2.519   0.914   4.537 -0.0236  0.2504 -0.2336
 7581SOL    HW134376   2.476   0.868   4.609  2.0885 -1.1921  0.1033
 7581SOL    HW234377   2.601   0.865   4.545  0.6402  1.4026 -0.0198
 7582SOL     OW34378   1.094   4.283  10.612 -0.6483 -0.7781  0.2032
 7582SOL    HW134379   1.148   4.234  10.674 -1.4603  2.2872  3.3160
 7582SOL    HW234380   1.136   4.368  10.615  3.7007 -2.8066 -4.9333
 7583SOL     OW34381   0.191   2.083   5.268 -0.0269  0.0774 -0.6356
 7583SOL    HW134382   0.211   1.989   5.264  1.3272  0.4113 -1.5845
 7583SOL    HW234383   0.270   2.117   5.227 -0.0372  0.4352 -0.3515
 7584SOL     OW34384   4.397   2.444   9.179  0.0249 -0.0667 -1.0867
 7584SOL    HW134385   4.464   2.403   9.234  0.3578  1.9072 -0.0077
 7584SOL    HW234386   4.319   2.444   9.234  1.0483 -0.3101  0.3568
 7585SOL     OW34387   3.962   3.431   9.140  0.1954 -0.0032  0.2886
 7585SOL    HW134388   4.000   3.347   9.116  0.8287  0.5404 -0.6502
 7585SOL    HW234389   3.936   3.470   9.056  3.2981 -0.1088 -0.7240
 7586SOL     OW34390   1.323   0.532  10.936 -0.6448  0.0360  0.4933
 7586SOL    HW134391   1.235   0.531  10.976 -1.4273 -0.7677 -1.2575
 7586SOL    HW234392   1.316   0.530  10.841  1.6398  3.4007  0.2682
 7587SOL     OW34393   3.940   4.393   5.369 -0.2561 -0.2280  0.5933
 7587SOL    HW134394   3.933   4.434   5.283  0.1999  1.7804  1.5120
 7587SOL    HW234395   3.851   4.413   5.397 -0.3895 -1.0619  0.7625
 7588SOL     OW34396   3.518   3.869   6.992  0.0365  0.4284 -0.4226
 7588SOL    HW134397   3.446   3.909   6.943 -0.1430  1.1930  0.4496
 7588SOL    HW234398   3.536   3.946   7.047 -3.6859  0.6934  0.4684
 7589SOL     OW34399   4.502   3.981  15.770 -0.3859 -0.6097  0.7833
 7589SOL    HW134400   4.468   4.027  15.847 -0.3945  1.2509 -0.3498
 7589SOL    HW234401   4.523   4.051  15.709  1.6198 -1.8383  0.0569
 7590SOL     OW34402   1.184   2.142   8.824  0.2691 -0.1727  0.3015
 7590SOL    HW134403   1.256   2.085   8.850  1.3341  0.5322 -1.1384
 7590SOL    HW234404   1.134   2.154   8.904 -1.1911  1.2644 -0.8210
 7591SOL     OW34405   3.216   3.124   6.044 -0.1681  0.2550  0.1824
 7591SOL    HW134406   3.265   3.163   5.971  0.7009 -0.4977  0.3610
 7591SOL    HW234407   3.285   3.130   6.111 -0.5663 -1.0740  0.7047
 7592SOL     OW34408   3.207   0.406   1.120  0.1842  0.1828 -0.4143
 7592SOL    HW134409   3.210   0.495   1.086 -0.1414  0.2172 -0.3553
 7592SOL    HW234410   3.112   0.397   1.112  0.2144 -0.6838  0.1612
 7593SOL     OW34411   4.059   0.829  12.196 -0.5633  0.0051 -0.1591
 7593SOL    HW134412   4.104   0.842  12.279 -0.4947 -0.9467 -0.0504
 7593SOL    HW234413   4.105   0.888  12.136 -0.1534 -0.2813 -0.1274
 7594SOL     OW34414   1.700   1.171   2.465 -0.0451 -0.3229  0.3334
 7594SOL    HW134415   1.723   1.263   2.472  0.9136 -0.4345 -1.1515
 7594SOL    HW234416   1.673   1.165   2.373 -1.9916 -3.8348  1.1174
 7595SOL     OW34417   3.272   4.581   0.600 -0.3909 -0.1357  0.1452
 7595SOL    HW134418   3.334   4.551   0.533  0.4478  1.5618  0.1526
 7595SOL    HW234419   3.296   4.520   0.670  1.4681  0.4832  0.0540
 7596SOL     OW34420   0.026   0.957  13.378 -0.5670 -0.1824  0.2582
 7596SOL    HW134421   0.042   1.040  13.423 -0.4279  0.1878 -0.4815
 7596SOL    HW234422   0.054   0.973  13.288 -0.2187 -0.6649  0.2807
 7597SOL     OW34423   1.975   1.116   2.939 -0.1062  0.2064  0.7222
 7597SOL    HW134424   1.932   1.132   2.856 -0.5508 -0.4131  0.8341
 7597SOL    HW234425   2.061   1.158   2.925  0.0117 -1.0537 -2.1671
 7598SOL     OW34426   1.416   4.315  11.617  0.3772  0.0547 -0.4321
 7598SOL    HW134427   1.503   4.310  11.657  0.6885 -3.3859 -1.5744
 7598SOL    HW234428   1.435   4.330  11.525 -1.5838  1.1237 -0.6722
 7599SOL     OW34429   2.362   0.802   5.029  0.2971  0.8535 -0.2030
 7599SOL    HW134430   2.428   0.774   5.093  0.7376  1.3433 -0.4538
 7599SOL    HW234431   2.388   0.889   5.002 -0.6813  1.3923  0.5899
 7600SOL     OW34432   3.823   1.811   7.221  0.2321 -0.2416 -0.3280
 7600SOL    HW134433   3.807   1.733   7.274  2.1554 -1.8232 -2.1050
 7600SOL    HW234434   3.889   1.853   7.277 -0.9415 -1.2721  1.8037
 7601SOL     OW34435   3.978   4.615  15.489 -0.1077 -0.5002 -0.1699
 7601SOL    HW134436   3.910   4.650  15.432  0.8770  0.2500 -0.8863
 7601SOL    HW234437   4.030   4.691  15.518  1.8763 -1.1335 -2.0393
 7602SOL     OW34438   2.571   3.547   8.168  0.2367  0.0066  0.1830
 7602SOL    HW134439   2.599   3.460   8.138  1.6733  0.9697 -1.3291
 7602SOL    HW234440   2.622   3.566   8.247  1.4682 -0.8273 -0.3893
 7603SOL     OW34441   0.755   0.680  14.531  0.8184 -0.0618  0.4486
 7603SOL    HW134442   0.806   0.621  14.475  1.7400 -0.5670  1.8108
 7603SOL    HW234443   0.741   0.755  14.474  1.8038  0.2842  0.6635
 7604SOL     OW34444   1.554   1.107   8.823  0.2027 -0.0684  0.1026
 7604SOL    HW134445   1.566   1.017   8.850  1.6470 -0.9781 -3.5659
 7604SOL    HW234446   1.570   1.157   8.903  2.3008  0.5432 -0.6874
 7605SOL     OW34447   1.795   3.648   0.388 -0.4189 -0.4510  0.0270
 7605SOL    HW134448   1.878   3.616   0.422 -0.1082  1.4738  1.0586
 7605SOL    HW234449   1.803   3.738   0.418 -1.7605 -0.4644  0.4114
 7606SOL     OW34450   3.727   0.316   7.837  0.3577  0.2522 -0.0518
 7606SOL    HW134451   3.644   0.313   7.884 -0.0039  0.7084 -0.6556
 7606SOL    HW234452   3.776   0.260   7.898  0.3564 -1.2988 -1.4883
 7607SOL     OW34453   3.806   3.425  13.267  0.1728 -0.1890 -0.0622
 7607SOL    HW134454   3.898   3.447  13.259  0.3074 -0.6102  0.3035
 7607SOL    HW234455   3.798   3.350  13.207 -1.1162 -0.8507  0.9240
 7608SOL     OW34456   0.811   2.147   7.496  0.4860  0.4234  0.2390
 7608SOL    HW134457   0.850   2.194   7.569  2.3595  3.0627 -2.4712
 7608SOL    HW234458   0.728   2.137   7.543  0.5607  0.6028  0.4063
 7609SOL     OW34459   0.213   4.186   4.002  0.5440 -0.1359 -0.6025
 7609SOL    HW134460   0.270   4.231   4.066  0.9007 -0.1972 -0.8799
 7609SOL    HW234461   0.245   4.097   4.016 -1.2759 -0.8371 -0.9940
 7610SOL     OW34462   4.354   3.191   8.176  0.4815 -0.1292  0.1900
 7610SOL    HW134463   4.314   3.140   8.246 -0.1655  0.4907  0.2652
 7610SOL    HW234464   4.312   3.140   8.107  1.1284 -1.5472  0.8304
 7611SOL     OW34465   0.184   0.100   7.301  0.0697  0.2317  0.4806
 7611SOL    HW134466   0.096   0.131   7.279 -0.6666 -0.2371  2.7547
 7611SOL    HW234467   0.234   0.151   7.237  0.7874 -0.3552  0.5724
 7612SOL     OW34468   4.046   2.048   7.460 -0.2178 -0.0055 -0.3378
 7612SOL    HW134469   4.044   1.968   7.513 -0.0510  1.1468  1.3885
 7612SOL    HW234470   4.085   2.102   7.528  1.2496 -3.1048  1.3120
 7613SOL     OW34471   3.908   1.035   3.517 -0.0681  0.4985  0.0059
 7613SOL    HW134472   3.851   1.011   3.443 -1.2083 -0.5476  1.2145
 7613SOL    HW234473   3.849   1.042   3.592 -1.0758  1.3214 -0.8598
 7614SOL     OW34474   0.390   1.352   6.972  0.3847 -0.2790 -0.6269
 7614SOL    HW134475   0.388   1.291   7.045 -0.6185  1.0030  0.4160
 7614SOL    HW234476   0.394   1.435   7.021 -0.2984 -1.0904  0.7916
 7615SOL     OW34477   1.829   0.854   6.600 -0.5957  0.4720  0.4728
 7615SOL    HW134478   1.875   0.808   6.530 -1.9910 -1.6800  0.9806
 7615SOL    HW234479   1.884   0.837   6.677  2.6702 -3.1036 -2.6535
 7616SOL     OW34480   1.534   2.732   6.673  0.3063 -0.0697 -0.3794
 7616SOL    HW134481   1.554   2.735   6.579  2.1304  0.1407  0.0113
 7616SOL    HW234482   1.576   2.652   6.705  0.5707  0.8200  1.4562
 7617SOL     OW34483   1.821   2.654   1.801  0.2976  0.6609  0.5261
 7617SOL    HW134484   1.868   2.599   1.863 -0.4012  1.0927  1.4496
 7617SOL    HW234485   1.892   2.703   1.760 -0.5543  2.1428  0.8031
 7618SOL     OW34486   4.345   3.550  17.149  0.4784 -0.4626 -0.2927
 7618SOL    HW134487   4.302   3.477  17.194  1.0527 -1.0402 -0.6826
 7618SOL    HW234488   4.322   3.525  17.059 -3.6486 -0.7479  0.8298
 7619SOL     OW34489   1.968   2.096   6.491  0.5576 -0.6002  0.8899
 7619SOL    HW134490   1.949   2.122   6.401  0.5255 -4.0663 -0.1118
 7619SOL    HW234491   1.885   2.122   6.531  0.3932 -1.8367  1.3489
 7620SOL     OW34492   2.277   3.641   4.062 -0.4071 -0.0762 -0.0737
 7620SOL    HW134493   2.255   3.601   4.147  4.3831 -0.1018  1.1182
 7620SOL    HW234494   2.274   3.733   4.087  1.1501 -0.3170  0.9898
 7621SOL     OW34495   2.736   4.359   5.886  0.3801  0.8621  0.2828
 7621SOL    HW134496   2.811   4.357   5.826  0.5523 -4.1029  0.6704
 7621SOL    HW234497   2.711   4.267   5.889 -0.8009  1.0692 -2.9078
 7622SOL     OW34498   1.583   2.373   2.158  0.2799 -0.2026  0.5700
 7622SOL    HW134499   1.542   2.457   2.134  2.4945  0.8675  0.4944
 7622SOL    HW234500   1.544   2.354   2.243 -2.9594 -0.0470 -0.8835
 7623SOL     OW34501   4.057   3.463   1.216 -0.1018 -0.0829  0.8140
 7623SOL    HW134502   4.079   3.371   1.204  0.7519  0.1511  0.5215
 7623SOL    HW234503   4.147   3.494   1.228  0.4300 -0.2678 -2.4797
 7624SOL     OW34504   3.772   1.307   9.547 -0.0403 -0.0111 -0.4803
 7624SOL    HW134505   3.850   1.271   9.505  0.4995  0.5879 -0.0077
 7624SOL    HW234506   3.805   1.355   9.623 -1.0005 -0.3498  0.1481
 7625SOL     OW34507   3.178   1.975   5.666 -0.3013 -0.0080  0.1791
 7625SOL    HW134508   3.199   1.881   5.667  0.1829  0.0971  0.0546
 7625SOL    HW234509   3.093   1.963   5.624 -1.2375 -0.2073  2.1541
 7626SOL     OW34510   3.030   4.239   8.177 -0.5823 -0.2659 -0.4220
 7626SOL    HW134511   2.948   4.226   8.224  0.9959 -1.0468  2.0709
 7626SOL    HW234512   3.072   4.154   8.174  0.1291  0.1244 -1.7897
 7627SOL     OW34513   4.043   0.991   6.288  0.2406  0.2766 -0.3007
 7627SOL    HW134514   4.097   1.050   6.234  0.7509 -0.8171 -0.9939
 7627SOL    HW234515   4.073   0.904   6.260  0.0235 -0.0660  0.5369
 7628SOL     OW34516   2.233   2.153   7.731 -0.1875 -0.2010  0.2094
 7628SOL    HW134517   2.178   2.122   7.803 -0.6795 -1.6588 -0.8083
 7628SOL    HW234518   2.310   2.109   7.768 -0.8184  0.2098  2.0194
 7629SOL     OW34519   1.202   3.339   7.307  0.0816 -0.0659  0.6187
 7629SOL    HW134520   1.150   3.260   7.298  0.9359 -0.2685 -2.5302
 7629SOL    HW234521   1.284   3.304   7.342  0.3995  0.6299  0.5732
 7630SOL     OW34522   3.121   2.497  16.424  0.1996 -0.0979 -0.3841
 7630SOL    HW134523   3.162   2.578  16.453 -0.9919 -0.0543  1.1642
 7630SOL    HW234524   3.066   2.517  16.349 -0.7608 -2.8309 -0.4175
 7631SOL     OW34525   1.503   4.013  17.146 -0.5396 -0.6033 -0.0181
 7631SOL    HW134526   1.437   4.036  17.211 -0.2529 -1.5412  0.6085
 7631SOL    HW234527   1.541   3.935  17.186  2.0842  0.1928 -0.9491
 7632SOL     OW34528   3.991   2.480  14.313 -0.4342 -0.0083  0.8674
 7632SOL    HW134529   4.075   2.500  14.356 -0.2721  2.4141 -0.5974
 7632SOL    HW234530   3.924   2.487  14.381 -1.5440  2.0087 -0.4570
 7633SOL     OW34531   0.878   4.495   9.045  0.1695 -0.7677  0.2524
 7633SOL    HW134532   0.835   4.517   8.962 -0.2414 -0.3645  0.5721
 7633SOL    HW234533   0.857   4.402   9.047 -0.0106 -0.7430 -0.6967
 7634SOL     OW34534   4.065   1.885   5.568  0.3281 -0.2506 -0.5665
 7634SOL    HW134535   4.030   1.878   5.656 -0.2146  0.6935 -0.7044
 7634SOL    HW234536   4.138   1.943   5.589 -0.4652 -1.0609  4.2772
 7635SOL     OW34537   2.408   2.580  10.213  0.1489 -0.8175  0.0606
 7635SOL    HW134538   2.459   2.522  10.270 -0.3206  0.3667  1.6789
 7635SOL    HW234539   2.428   2.665  10.251 -0.1868 -1.3545  1.4614
 7636SOL     OW34540   4.645   0.797   7.620  0.0917 -0.3205  0.4616
 7636SOL    HW134541   4.734   0.773   7.594 -0.2680  0.1466 -1.2012
 7636SOL    HW234542   4.653   0.864   7.688  0.0372  0.0571  0.0920
 7637SOL     OW34543   3.716   3.640   7.758 -0.0124 -0.7433  0.1992
 7637SOL    HW134544   3.677   3.642   7.846  0.0485  0.4536  0.2047
 7637SOL    HW234545   3.683   3.722   7.721 -3.4720 -1.8570  0.7596
 7638SOL     OW34546   1.744   1.520   4.011 -0.2294  0.0314  0.2589
 7638SOL    HW134547   1.772   1.522   3.919  0.8162  2.4363  0.6241
 7638SOL    HW234548   1.654   1.492   3.996 -0.0204  0.0010 -0.9418
 7639SOL     OW34549   3.547   0.591   5.719 -0.2429 -0.0485 -0.1080
 7639SOL    HW134550   3.498   0.509   5.734  0.0177 -0.3099 -0.6876
 7639SOL    HW234551   3.515   0.651   5.786  0.4079  0.0079  0.1499
 7640SOL     OW34552   0.061   3.219   5.562 -0.2792 -0.1562  0.1563
 7640SOL    HW134553   0.089   3.190   5.649 -2.4397 -0.6916  0.6564
 7640SOL    HW234554   4.718   3.271   5.574 -1.0734 -1.4016  0.4127
 7641SOL     OW34555   2.718   0.451   9.412 -0.3243  0.6443  1.0990
 7641SOL    HW134556   2.764   0.534   9.394 -0.3428  0.6224  0.9520
 7641SOL    HW234557   2.672   0.451   9.328 -2.2432  0.0317  2.1591
 7642SOL     OW34558   1.486   4.690   4.944 -0.6924  0.6040 -0.2791
 7642SOL    HW134559   1.436   4.629   4.889  2.0434 -0.4667 -1.5832
 7642SOL    HW234560   1.574   4.689   4.906 -0.9093  1.0748 -0.7932
 7643SOL     OW34561   0.516   2.391   0.781  0.5158  0.0685  0.8188
 7643SOL    HW134562   0.611   2.396   0.771  0.4868  0.2249  0.6004
 7643SOL    HW234563   0.488   2.478   0.750 -0.9803 -1.3901 -1.9922
 7644SOL     OW34564   2.310   0.547   1.731  0.3041 -0.1721 -0.1273
 7644SOL    HW134565   2.321   0.462   1.772 -0.8185  0.6882  1.9553
 7644SOL    HW234566   2.216   0.535   1.715  0.5437 -0.5007 -1.2757
 7645SOL     OW34567   1.122   4.040  10.901 -0.1875  0.0880  0.7004
 7645SOL    HW134568   1.204   3.993  10.886 -1.1531 -1.5441  0.5787
 7645SOL    HW234569   1.155   4.115  10.951 -0.3451  1.0310 -0.6111
 7646SOL     OW34570   3.200   2.510   9.515  0.3813  0.0296  0.2163
 7646SOL    HW134571   3.244   2.443   9.462 -1.4364 -1.6808  0.9022
 7646SOL    HW234572   3.213   2.476   9.604 -0.1857  0.9914  0.6712
 7647SOL     OW34573   3.167   3.772   6.916  0.2701  0.0373  0.7077
 7647SOL    HW134574   3.198   3.765   6.826 -2.1942  1.4576 -0.2621
 7647SOL    HW234575   3.151   3.866   6.923  0.3285  0.0645  0.4860
 7648SOL     OW34576   0.900   3.806   6.133  0.1518 -0.0424 -0.7011
 7648SOL    HW134577   0.906   3.901   6.119  0.8920  0.2241  1.3150
 7648SOL    HW234578   0.876   3.784   6.044 -1.9933  0.6611 -0.2913
 7649SOL     OW34579   4.447   3.377  15.431 -0.3976 -0.2496  0.0375
 7649SOL    HW134580   4.352   3.377  15.447 -0.2837  2.6864  0.6834
 7649SOL    HW234581   4.446   3.418  15.345  0.6626 -0.5428 -0.1124
 7650SOL     OW34582   2.137   4.433   7.127  0.1355 -0.8520  0.6407
 7650SOL    HW134583   2.106   4.514   7.168 -1.1324 -0.0117 -2.0200
 7650SOL    HW234584   2.124   4.452   7.034  2.4804 -1.6529  0.1583
 7651SOL     OW34585   0.469   2.320   7.870  0.0021 -0.4080  0.1803
 7651SOL    HW134586   0.415   2.242   7.854 -0.7299  0.3083 -0.8500
 7651SOL    HW234587   0.490   2.302   7.962 -1.4487  0.5508  0.7111
 7652SOL     OW34588   2.763   1.934   6.239 -0.3580  0.2490 -0.7033
 7652SOL    HW134589   2.730   2.019   6.267 -1.7671 -0.4700 -0.1546
 7652SOL    HW234590   2.684   1.897   6.199 -0.2536  1.0104 -1.6133
 7653SOL     OW34591   0.109   0.114   2.671 -0.0554 -0.2958  0.6829
 7653SOL    HW134592   0.066   0.195   2.698 -2.3994 -1.7243  1.2562
 7653SOL    HW234593   0.057   0.053   2.723  1.4758 -0.7046  1.7226
 7654SOL     OW34594   4.431   1.226   5.983  0.5905 -0.3370 -0.3057
 7654SOL    HW134595   4.431   1.282   5.906 -0.7945  0.9246  0.6145
 7654SOL    HW234596   4.508   1.172   5.965  0.7844 -0.9271  2.2652
 7655SOL     OW34597   1.735   2.344   4.759 -0.1654 -0.0419  0.5083
 7655SOL    HW134598   1.668   2.410   4.744  0.5811  0.6582  0.2776
 7655SOL    HW234599   1.813   2.396   4.739 -0.4300 -0.6216 -2.1265
 7656SOL     OW34600   1.364   1.084   6.247  0.5432 -0.2158  0.3624
 7656SOL    HW134601   1.370   0.997   6.285  2.1013 -0.9290 -1.5197
 7656SOL    HW234602   1.441   1.086   6.190 -0.5415  0.9375 -1.0788
 7657SOL     OW34603   0.341   4.562   2.092  0.1967  0.1556 -0.0539
 7657SOL    HW134604   0.426   4.564   2.135  0.5898  0.4278 -0.8493
 7657SOL    HW234605   0.312   4.473   2.112 -1.6860  0.4914 -1.2917
 7658SOL     OW34606   3.840   3.297   6.523 -0.5492  0.3205 -0.1583
 7658SOL    HW134607   3.771   3.334   6.577  0.0063  2.4651 -0.9144
 7658SOL    HW234608   3.801   3.321   6.439 -1.1912  0.0586  0.0663
 7659SOL     OW34609   1.716   0.657   7.052 -0.4448  0.4822 -0.0620
 7659SOL    HW134610   1.705   0.739   7.100 -0.3641  1.2514 -1.3778
 7659SOL    HW234611   1.646   0.672   6.989 -1.2818 -1.6822  0.3379
 7660SOL     OW34612   2.977   1.344  10.138  0.3838 -0.3252 -0.1963
 7660SOL    HW134613   3.046   1.300  10.188  2.3053  2.4300 -0.4084
 7660SOL    HW234614   3.022   1.427  10.121 -0.4957  0.3959  1.0051
 7661SOL     OW34615   3.523   3.996  10.259  0.2442 -0.1739 -0.5695
 7661SOL    HW134616   3.562   3.993  10.172  0.2772 -0.6481 -0.5362
 7661SOL    HW234617   3.514   4.090  10.273  1.5483 -0.3286  1.2428
 7662SOL     OW34618   2.728   3.082  17.591 -0.6247 -0.2560  0.3202
 7662SOL    HW134619   2.812   3.126  17.602  0.8168 -3.0786  0.6218
 7662SOL    HW234620   2.664   3.154  17.594  0.1152  0.4124  0.0816
 7663SOL     OW34621   1.895   2.167  15.293  0.1107  0.4895 -0.1869
 7663SOL    HW134622   1.981   2.130  15.274  0.3777  0.6546  0.7146
 7663SOL    HW234623   1.870   2.097  15.353  0.6759 -0.4647 -1.0780
 7664SOL     OW34624   0.442   3.422  12.469  0.2149  0.1200 -0.2968
 7664SOL    HW134625   0.409   3.457  12.551 -0.2829  1.0499 -0.8987
 7664SOL    HW234626   0.397   3.472  12.401  0.0605  1.3767  0.7427
 7665SOL     OW34627   2.645   3.104   6.829  0.5652 -0.0785  0.0261
 7665SOL    HW134628   2.576   3.109   6.763 -0.0911  0.8335  0.7768
 7665SOL    HW234629   2.674   3.013   6.831  1.4422  0.2032 -0.0238
 7666SOL     OW34630   0.027   4.203  14.055  0.3743  0.0165 -0.1163
 7666SOL    HW134631   0.007   4.171  14.143 -1.0932 -2.4306 -1.3581
 7666SOL    HW234632   4.675   4.230  14.029  0.5726  1.2187  0.4562
 7667SOL     OW34633   1.173   4.485  15.856  0.9017  0.0613 -0.1790
 7667SOL    HW134634   1.164   4.559  15.796  0.0414  2.3562  2.8342
 7667SOL    HW234635   1.243   4.520  15.911  0.8536  0.1900 -0.2014
 7668SOL     OW34636   1.440   4.078   5.167 -0.4849 -0.3157  0.0353
 7668SOL    HW134637   1.505   4.055   5.232 -1.8088 -0.9067  1.1383
 7668SOL    HW234638   1.365   4.102   5.221  0.3258 -3.2094  2.4555
 7669SOL     OW34639   2.376   1.961   6.460  0.0104 -0.2762 -0.1427
 7669SOL    HW134640   2.343   1.900   6.394  0.0165  0.7247 -1.0621
 7669SOL    HW234641   2.464   1.926   6.476  0.1274 -0.5300 -1.3029
 7670SOL     OW34642   0.756   1.488   6.847 -0.3587 -0.2160 -0.1648
 7670SOL    HW134643   0.726   1.402   6.817 -2.0731 -0.2637  1.7375
 7670SOL    HW234644   0.755   1.481   6.943  0.6724 -0.2752 -0.1547
 7671SOL     OW34645   0.732   1.793  14.736  0.4487 -0.1406  0.1134
 7671SOL    HW134646   0.762   1.704  14.719  1.9913 -0.0510  2.3926
 7671SOL    HW234647   0.805   1.833  14.784  0.6244 -1.3545  0.8440
 7672SOL     OW34648   0.624   4.649  16.692 -0.7024 -0.1210 -0.2882
 7672SOL    HW134649   0.664   4.683  16.612  1.1485  0.7692  0.9997
 7672SOL    HW234650   0.674   4.567  16.687 -1.2897 -0.5795  1.2594
 7673SOL     OW34651   3.221   0.858  10.844 -0.4000  0.3576  0.7671
 7673SOL    HW134652   3.167   0.924  10.886 -0.7377  1.6153 -1.7001
 7673SOL    HW234653   3.213   0.787  10.908 -0.1687 -0.9219 -0.6215
 7674SOL     OW34654   2.377   2.758   4.380  0.7878 -0.0548 -0.0960
 7674SOL    HW134655   2.375   2.840   4.331  0.3308 -0.4143 -0.6894
 7674SOL    HW234656   2.329   2.705   4.316  1.5721  0.0097 -0.7307
 7675SOL     OW34657   2.312   2.401   9.571 -0.4615 -0.4108 -0.0804
 7675SOL    HW134658   2.303   2.369   9.481 -0.2573 -3.1005  0.8421
 7675SOL    HW234659   2.353   2.485   9.552  1.2626 -1.2405 -0.0198
 7676SOL     OW34660   0.543   3.987  17.453  0.2425 -1.0353  0.1765
 7676SOL    HW134661   0.636   4.004  17.465  0.0610 -0.8282  1.2713
 7676SOL    HW234662   0.551   3.906  17.402 -1.5908 -0.8632 -0.4047
 7677SOL     OW34663   1.331   3.027   3.328 -0.1170  0.2615  0.2184
 7677SOL    HW134664   1.341   3.122   3.341 -0.5554  0.4564 -0.8423
 7677SOL    HW234665   1.293   3.007   3.413 -0.5170 -0.0357 -0.0288
 7678SOL     OW34666   2.295   0.851   7.910  0.0702  0.2641  0.1808
 7678SOL    HW134667   2.356   0.923   7.899  0.9049 -0.4067  0.4116
 7678SOL    HW234668   2.342   0.786   7.858 -2.2256 -1.6840  0.4879
 7679SOL     OW34669   0.113   4.332  15.556 -0.0366 -0.2955  0.1343
 7679SOL    HW134670   0.077   4.374  15.478 -0.2427 -0.7133  0.0025
 7679SOL    HW234671   0.153   4.405  15.603  2.0186 -0.7519 -0.9088
 7680SOL     OW34672   0.695   4.071   8.642 -0.4418 -0.4512  0.1910
 7680SOL    HW134673   0.704   4.027   8.558 -1.0262  0.2406 -0.2387
 7680SOL    HW234674   0.677   4.164   8.626  0.2913 -0.2551  0.5064
 7681SOL     OW34675   0.413   3.909  17.709 -0.3250  0.3100 -0.4100
 7681SOL    HW134676   0.440   3.975   0.031  0.1847  0.6413 -0.9556
 7681SOL    HW234677   0.455   3.948  17.632  2.5318 -2.8562 -0.4127
 7682SOL     OW34678   1.336   2.963   9.142  0.3398 -0.1620 -0.0901
 7682SOL    HW134679   1.268   2.967   9.075  0.9014 -2.3250 -0.7740
 7682SOL    HW234680   1.392   3.036   9.113  1.1270 -1.1632 -1.1061
 7683SOL     OW34681   1.457   2.401  13.285 -0.2757 -0.0944 -0.0942
 7683SOL    HW134682   1.431   2.477  13.233 -1.0195 -1.0747 -1.1200
 7683SOL    HW234683   1.405   2.410  13.365 -2.2239  0.2414 -1.4085
 7684SOL     OW34684   3.133   0.270   4.415  0.2054 -0.1443  0.0851
 7684SOL    HW134685   3.078   0.193   4.398  1.4390  0.0615 -4.7574
 7684SOL    HW234686   3.156   0.296   4.326  2.7937 -0.9408  0.5115
 7685SOL     OW34687   1.276   3.985   8.352 -0.1493 -0.1426  0.4105
 7685SOL    HW134688   1.256   4.077   8.341  0.3447 -0.1802 -0.8579
 7685SOL    HW234689   1.318   3.973   8.437  0.4877 -2.0272 -0.1502
 7686SOL     OW34690   0.719   2.993   7.715  0.0940 -0.4994  1.2649
 7686SOL    HW134691   0.684   3.042   7.790 -0.4212  0.7142  0.2321
 7686SOL    HW234692   0.658   3.014   7.644  0.3220 -4.2631 -0.0245
 7687SOL     OW34693   3.526   3.780  12.247 -0.3422 -0.0377 -0.5921
 7687SOL    HW134694   3.583   3.763  12.172  0.0362  0.3913 -0.3959
 7687SOL    HW234695   3.456   3.716  12.233 -0.3468  0.1435 -1.4455
 7688SOL     OW34696   2.747   3.363   2.928  0.2264 -0.1241 -0.7142
 7688SOL    HW134697   2.682   3.409   2.980 -0.3801 -1.6651 -0.1199
 7688SOL    HW234698   2.733   3.277   2.967  2.4931  1.7845  4.2791
 7689SOL     OW34699   2.789   2.244   8.523 -0.1482 -0.0197  0.2423
 7689SOL    HW134700   2.811   2.237   8.430  0.2165  0.9719  0.2599
 7689SOL    HW234701   2.857   2.301   8.557  0.5007 -1.5097  1.4414
 7690SOL     OW34702   0.073   2.096  16.647  0.0977 -0.5757  0.3875
 7690SOL    HW134703   0.060   2.037  16.721 -1.2090 -2.5110 -1.3637
 7690SOL    HW234704   0.163   2.120  16.666  0.0338 -0.0118 -0.0224
 7691SOL     OW34705   3.357   2.874  16.702  0.0292  0.3514 -0.0779
 7691SOL    HW134706   3.451   2.874  16.717  0.2703  0.7822 -1.6256
 7691SOL    HW234707   3.324   2.867  16.791  1.8824 -2.0755  0.4060
 7692SOL     OW34708   4.183   2.153  15.560 -0.3811  0.2215  0.1743
 7692SOL    HW134709   4.189   2.115  15.647 -0.4301 -0.3013 -0.0524
 7692SOL    HW234710   4.181   2.247  15.576  0.2464  0.5474 -1.6340
 7693SOL     OW34711   3.312   4.666   8.434 -0.6416  0.3302  0.2703
 7693SOL    HW134712   3.281   4.657   8.524  0.0105  1.2659  0.5903
 7693SOL    HW234713   3.335   4.577   8.406 -1.9862 -0.3205  1.2448
 7694SOL     OW34714   3.938   4.168   7.088  0.3254  0.4614 -0.2277
 7694SOL    HW134715   4.026   4.200   7.071  0.7148  0.9400  2.7413
 7694SOL    HW234716   3.891   4.238   7.042  0.4047  1.3938  1.1173
 7695SOL     OW34717   4.007   2.988  14.587  0.5002  0.8220 -0.4813
 7695SOL    HW134718   3.980   3.071  14.626 -0.0553 -0.1560  1.2119
 7695SOL    HW234719   3.972   2.993  14.498 -0.0973  0.3443 -0.2696
 7696SOL     OW34720   1.213   3.992   7.854 -0.6117  0.6015  0.6616
 7696SOL    HW134721   1.285   4.029   7.906  0.2731  0.0709 -0.1937
 7696SOL    HW234722   1.154   3.976   7.928  1.5977 -0.5411  2.1773
 7697SOL     OW34723   1.440   4.105  10.351 -0.0362  0.0031  0.5975
 7697SOL    HW134724   1.451   4.101  10.256  0.7274 -2.5348  0.8189
 7697SOL    HW234725   1.350   4.073  10.352 -0.8673  2.3327  2.3869
 7698SOL     OW34726   2.809   0.942   5.694  0.5861 -0.1249  0.0185
 7698SOL    HW134727   2.748   0.876   5.660  1.9065 -0.0172 -2.5419
 7698SOL    HW234728   2.799   1.011   5.628  0.3431 -1.4756 -1.3575
 7699SOL     OW34729   4.705   2.252   0.649  0.2119  0.1814  0.0593
 7699SOL    HW134730   0.020   2.281   0.573 -1.6290 -0.3060 -1.3569
 7699SOL    HW234731   4.650   2.324   0.679  1.2411  0.9676  0.0948
 7700SOL     OW34732   0.234   1.570  10.325  0.2928  0.6540  0.0261
 7700SOL    HW134733   0.149   1.610  10.344  0.2890  1.7710 -2.3576
 7700SOL    HW234734   0.288   1.644  10.353  1.6869  0.5131 -2.2944
 7701SOL     OW34735   0.642   2.196  11.203  0.0000 -0.3838  0.3824
 7701SOL    HW134736   0.676   2.258  11.267  0.2822  2.3595 -2.4374
 7701SOL    HW234737   0.649   2.250  11.124 -0.0847 -1.4890 -0.3814
 7702SOL     OW34738   2.620   4.514  16.868  0.3993  0.8055  0.3005
 7702SOL    HW134739   2.710   4.535  16.895  0.6122  0.5162 -0.1728
 7702SOL    HW234740   2.623   4.419  16.860 -4.9285  0.8286 -1.5460
 7703SOL     OW34741   4.485   4.140   4.748  0.0658 -0.0841  0.0828
 7703SOL    HW134742   4.413   4.094   4.704 -1.6173  4.4137 -1.8029
 7703SOL    HW234743   4.527   4.069   4.797  1.6573  1.0350  0.3240
 7704SOL     OW34744   1.864   0.027   5.176  0.3197  0.0566 -0.4217
 7704SOL    HW134745   1.894   0.105   5.222  0.1923 -0.4337  0.4971
 7704SOL    HW234746   1.795   0.062   5.119 -0.1189 -0.3733 -0.1557
 7705SOL     OW34747   3.338   2.188   6.719 -0.4533  0.1052 -0.4034
 7705SOL    HW134748   3.386   2.172   6.638 -1.6223 -3.3531 -0.4100
 7705SOL    HW234749   3.251   2.152   6.702  0.3432 -0.9526 -2.2363
 7706SOL     OW34750   0.425   4.174  10.078  0.0432 -0.5285 -0.3152
 7706SOL    HW134751   0.409   4.135  10.164 -0.9870 -0.2277 -0.3703
 7706SOL    HW234752   0.490   4.116  10.039 -1.8950 -3.6298  1.0561
 7707SOL     OW34753   1.473   2.521   4.656 -0.2861 -0.4721  0.2323
 7707SOL    HW134754   1.552   2.531   4.602 -0.1354 -1.5396  0.2605
 7707SOL    HW234755   1.414   2.581   4.610  1.3457  1.7180  0.9434
 7708SOL     OW34756   0.105   1.875   1.554 -0.0338  0.3292 -0.1359
 7708SOL    HW134757   0.095   1.901   1.462  0.0255  1.4482  0.1709
 7708SOL    HW234758   0.159   1.799   1.534 -2.2335 -1.6637  1.5542
 7709SOL     OW34759   4.664   1.523   0.062  0.1308  0.0302 -0.2984
 7709SOL    HW134760   4.729   1.568   0.116 -2.2862  0.8749  1.9220
 7709SOL    HW234761   4.624   1.597   0.018  0.6973  1.7690  2.0889
 7710SOL     OW34762   3.201   4.670   2.001  0.0770 -0.1635 -0.0631
 7710SOL    HW134763   3.200   4.578   1.976  1.3843 -0.7672  2.1699
 7710SOL    HW234764   3.230   4.663   2.091 -0.0826 -0.0435 -0.0026
 7711SOL     OW34765   2.484   2.944   9.717 -0.5100  0.1945  0.0416
 7711SOL    HW134766   2.551   3.012   9.730 -2.3393  1.5929  2.0370
 7711SOL    HW234767   2.508   2.932   9.625  0.1550  1.7101  0.0101
 7712SOL     OW34768   1.385   2.491  12.793  0.6936 -0.3645 -0.3458
 7712SOL    HW134769   1.378   2.537  12.877  0.6731 -0.0651 -0.5145
 7712SOL    HW234770   1.336   2.411  12.811 -0.7932  0.3454 -1.2231
 7713SOL     OW34771   1.566   3.735  15.363  0.5850 -0.2086 -0.2997
 7713SOL    HW134772   1.634   3.765  15.302  0.0619 -0.1324 -0.8427
 7713SOL    HW234773   1.545   3.814  15.412 -0.8326 -0.2055 -0.9137
 7714SOL     OW34774   2.505   1.495   8.716  0.3783 -0.3257  0.3679
 7714SOL    HW134775   2.434   1.550   8.750  2.8365  2.1789  1.4502
 7714SOL    HW234776   2.564   1.492   8.791  0.0304 -0.5575  0.6337
 7715SOL     OW34777   2.064   0.842   9.760  0.5518  0.3214 -0.1292
 7715SOL    HW134778   2.009   0.829   9.838  0.6919  1.1733  0.1039
 7715SOL    HW234779   1.994   0.847   9.695  0.1019 -0.9617  0.2559
 7716SOL     OW34780   1.106   2.687   9.236 -0.2516  0.2629  0.4984
 7716SOL    HW134781   1.067   2.599   9.237  0.3746 -0.0179 -0.0715
 7716SOL    HW234782   1.160   2.682   9.315 -0.9144 -0.7946  0.8868
 7717SOL     OW34783   0.416   0.868   0.540  0.1880 -0.6959 -0.1375
 7717SOL    HW134784   0.511   0.865   0.555  0.0264  2.0160  1.2715
 7717SOL    HW234785   0.409   0.916   0.458  0.5717 -0.1619  0.1432
 7718SOL     OW34786   0.905   3.276   8.531 -0.0468 -0.1561  0.2368
 7718SOL    HW134787   0.975   3.301   8.470 -0.8083  0.3073 -0.4461
 7718SOL    HW234788   0.924   3.188   8.562  0.1714 -0.6184 -1.2337
 7719SOL     OW34789   1.416   2.578   3.821  0.0331 -0.5173 -0.4705
 7719SOL    HW134790   1.479   2.645   3.797 -1.0251  0.4539 -0.5647
 7719SOL    HW234791   1.440   2.554   3.910  2.2645 -0.6625 -1.1251
 7720SOL     OW34792   0.227   2.723  17.647  0.0285 -0.0499 -0.2288
 7720SOL    HW134793   0.134   2.737  17.629  0.2126  2.4459  0.8499
 7720SOL    HW234794   0.268   2.804  17.619 -2.9729  1.2804 -0.7019
 7721SOL     OW34795   1.959   4.567  16.610 -0.3264 -0.2509 -0.4423
 7721SOL    HW134796   1.869   4.595  16.623 -0.3773 -1.0193  0.8826
 7721SOL    HW234797   2.010   4.633  16.656 -1.4384  0.7671 -0.6877
 7722SOL     OW34798   0.604   1.185   4.829  0.1205 -0.1163 -0.1091
 7722SOL    HW134799   0.532   1.187   4.767  1.5796 -0.6644 -1.8155
 7722SOL    HW234800   0.553   1.137   4.895 -1.6658  0.7724 -0.8638
 7723SOL     OW34801   3.926   3.927   1.551 -0.1603 -0.0336 -0.2918
 7723SOL    HW134802   3.971   3.866   1.492 -0.4520 -0.5495  0.0134
 7723SOL    HW234803   3.942   3.887   1.636  1.4032  0.8685 -0.1554
 7724SOL     OW34804   0.870   4.685  17.528  0.2618 -0.2637  0.0411
 7724SOL    HW134805   0.831   4.650  17.448  1.4001  0.2913 -0.7570
 7724SOL    HW234806   0.821   0.030  17.541  1.5381  0.5590 -0.2905
 7725SOL     OW34807   0.369   4.383   7.608  0.2178  0.1482  0.0249
 7725SOL    HW134808   0.362   4.384   7.512 -1.7766  2.4139  0.1849
 7725SOL    HW234809   0.421   4.464   7.605 -2.7062  2.0631  1.2048
 7726SOL     OW34810   0.979   3.012  12.280  0.0448  0.1418  0.6229
 7726SOL    HW134811   1.072   3.026  12.301  0.3974  2.0447 -2.3118
 7726SOL    HW234812   0.967   3.052  12.194 -1.0426 -1.0751  0.2152
 7727SOL     OW34813   4.680   4.314   6.528 -0.5315  0.0067 -0.2972
 7727SOL    HW134814   0.003   4.251   6.486  1.1755  0.4753  1.4214
 7727SOL    HW234815   4.611   4.312   6.461  0.0769  1.3207 -0.9623
 7728SOL     OW34816   2.785   3.117   9.508  0.2414 -0.1864 -0.3751
 7728SOL    HW134817   2.774   3.157   9.594 -1.5933 -1.4494 -0.0345
 7728SOL    HW234818   2.693   3.094   9.493 -0.2369  1.9494 -0.8030
 7729SOL     OW34819   4.555   4.406   6.038 -0.7898 -0.3538 -0.1299
 7729SOL    HW134820   4.468   4.415   6.002 -1.2521 -0.3970  0.9630
 7729SOL    HW234821   4.600   4.361   5.967  0.8964 -0.5539  1.0625
 7730SOL     OW34822   1.563   1.467   0.760 -0.3466 -0.1719  0.5430
 7730SOL    HW134823   1.648   1.463   0.803  1.7595 -0.7309 -3.7176
 7730SOL    HW234824   1.506   1.466   0.837 -1.7063 -0.6034 -0.4708
 7731SOL     OW34825   3.641   4.498   5.672 -0.4234  0.4395 -0.0767
 7731SOL    HW134826   3.641   4.440   5.748  2.0830 -0.0117 -0.4174
 7731SOL    HW234827   3.635   4.585   5.711 -2.0718 -1.1566  3.2444
 7732SOL     OW34828   4.727   2.332   6.371 -0.0156  0.4244 -0.1021
 7732SOL    HW134829   4.658   2.266   6.369  1.3706 -1.0475  0.3413
 7732SOL    HW234830   4.673   2.405   6.400  0.1338  1.2082 -1.7712
 7733SOL     OW34831   1.977   0.570  10.677 -0.6388 -0.0347  0.2727
 7733SOL    HW134832   1.924   0.535  10.749 -0.4580  1.0079  0.9138
 7733SOL    HW234833   1.922   0.547  10.602  0.0124 -1.5177  0.2504
 7734SOL     OW34834   2.922   0.085  10.055 -0.1224  0.7273 -0.3760
 7734SOL    HW134835   2.948   0.003  10.097  1.4161  1.9168  0.9611
 7734SOL    HW234836   2.838   0.102  10.097 -0.0666  0.2918 -0.0924
 7735SOL     OW34837   3.454   2.947   3.585  0.0130  0.5529  0.1635
 7735SOL    HW134838   3.375   2.899   3.563 -2.6720  3.7079  2.8872
 7735SOL    HW234839   3.495   2.893   3.652 -0.4316 -0.0181 -0.0344
 7736SOL     OW34840   4.386   1.161   2.257  0.2379  0.1269 -0.2053
 7736SOL    HW134841   4.300   1.121   2.246  0.2878 -0.0750  0.1503
 7736SOL    HW234842   4.440   1.107   2.200  1.6599  0.2832  0.9918
 7737SOL     OW34843   4.134   0.750   6.230  0.0559 -0.2655 -0.8017
 7737SOL    HW134844   4.210   0.768   6.285 -1.2049  0.8617  0.5747
 7737SOL    HW234845   4.170   0.697   6.160  0.7146 -1.0009  0.1063
 7738SOL     OW34846   1.375   2.971   9.462  0.6597  0.1617 -0.4724
 7738SOL    HW134847   1.342   3.010   9.543 -0.7544 -1.8213 -0.0874
 7738SOL    HW234848   1.341   3.038   9.402  2.1611  0.4938 -0.9302
 7739SOL     OW34849   0.949   1.101   3.117 -0.2473  0.1077 -0.2890
 7739SOL    HW134850   0.861   1.078   3.145  0.5087 -0.3692  1.6700
 7739SOL    HW234851   0.934   1.078   3.026 -1.2576 -1.3910  0.2702
 7740SOL     OW34852   4.234   4.706   4.489  0.4428 -0.0287 -0.4363
 7740SOL    HW134853   4.295   4.728   4.560 -0.8980 -0.3932  0.8253
 7740SOL    HW234854   4.249   4.612   4.484  0.5557  0.0277 -1.2148
 7741SOL     OW34855   4.185   1.836   0.541 -0.6765  0.4416 -0.2327
 7741SOL    HW134856   4.253   1.896   0.510 -0.7802  1.1627  0.9625
 7741SOL    HW234857   4.204   1.746   0.514  1.0518  1.5438 -2.7652
 7742SOL     OW34858   3.173   2.945   1.038 -0.0123 -0.0578 -0.0434
 7742SOL    HW134859   3.194   2.869   1.091  2.0850  0.6005  0.0446
 7742SOL    HW234860   3.166   2.898   0.955 -0.1855 -3.5802  2.0020
 7743SOL     OW34861   2.284   1.151   7.068  0.5136 -0.0145 -0.6095
 7743SOL    HW134862   2.266   1.244   7.078 -0.6289 -0.3271  0.2683
 7743SOL    HW234863   2.354   1.140   7.132  0.2012  0.3351 -0.2053
 7744SOL     OW34864   1.658   2.471  14.865 -0.0902  0.3159  0.3900
 7744SOL    HW134865   1.711   2.462  14.945 -1.1190  2.2812  1.2873
 7744SOL    HW234866   1.693   2.543  14.813 -0.8786  1.4228  1.3956
 7745SOL     OW34867   4.726   4.004   2.626  0.6536 -0.4035  0.1796
 7745SOL    HW134868   4.632   3.987   2.624 -0.0082  3.3433 -0.3753
 7745SOL    HW234869   0.020   4.018   2.536 -0.6301 -1.6079 -0.4347
 7746SOL     OW34870   4.090   0.757   8.244  0.8741 -0.4669 -0.0533
 7746SOL    HW134871   4.139   0.745   8.325  0.2725 -0.7166  0.2750
 7746SOL    HW234872   4.111   0.669   8.214 -1.1491 -1.1660  0.5337
 7747SOL     OW34873   4.265   0.471   8.381 -0.1593 -0.3127  0.2996
 7747SOL    HW134874   4.223   0.473   8.295 -1.2634  2.7986  0.9268
 7747SOL    HW234875   4.210   0.410   8.429 -1.4686  2.1352  1.9044
 7748SOL     OW34876   4.074   0.051   8.424  0.1447 -0.3962 -0.3970
 7748SOL    HW134877   4.083   4.707   8.372  0.0980 -1.8377  1.8146
 7748SOL    HW234878   4.161   0.088   8.409  0.8662 -1.7869  0.3649
 7749SOL     OW34879   4.133   2.875   7.856 -0.7683 -0.1517  0.2369
 7749SOL    HW134880   4.225   2.853   7.841 -1.0943 -2.1421  1.2762
 7749SOL    HW234881   4.111   2.832   7.938  0.4309  1.1221  1.2268
 7750SOL     OW34882   2.660   3.273  13.126 -0.0629 -0.6810  0.7026
 7750SOL    HW134883   2.682   3.365  13.111  1.9412 -1.2138  0.3107
 7750SOL    HW234884   2.689   3.229  13.046  0.8877  0.5259  0.3801
 7751SOL     OW34885   0.929   2.015  10.029 -0.2893  0.1657 -0.6030
 7751SOL    HW134886   0.895   2.097  10.064  0.3933  1.5363 -3.1770
 7751SOL    HW234887   1.023   2.028  10.039  0.0716 -0.8545 -2.6754
 7752SOL     OW34888   3.254   0.011   2.990  0.4011  0.4022 -0.2216
 7752SOL    HW134889   3.251   4.652   3.000 -0.9564  0.4677 -0.0697
 7752SOL    HW234890   3.328   0.025   2.930  0.0229 -0.9422 -0.9917
 7753SOL     OW34891   3.649   0.288   1.316 -0.0613 -0.0891 -0.0053
 7753SOL    HW134892   3.587   0.359   1.300 -0.5443 -0.4884  0.0842
 7753SOL    HW234893   3.669   0.309   1.407  0.0680  0.4383 -0.1562
 7754SOL     OW34894   1.145   3.832  16.920 -0.3405  0.0199 -0.0532
 7754SOL    HW134895   1.152   3.896  16.991  0.0256 -0.4802  0.3656
 7754SOL    HW234896   1.238   3.810  16.911 -0.6387 -0.3461 -2.1736
 7755SOL     OW34897   0.039   1.045  16.414 -0.6651 -0.1736 -0.1628
 7755SOL    HW134898   4.709   1.054  16.482  0.4506 -2.0609  1.1478
 7755SOL    HW234899   4.733   0.981  16.356 -0.0018  0.9228 -1.8719
 7756SOL     OW34900   1.372   0.281   9.179 -0.6170 -0.1634  0.5218
 7756SOL    HW134901   1.359   0.336   9.256  1.9895 -3.2156  3.1097
 7756SOL    HW234902   1.452   0.238   9.209 -0.3722  0.2192  0.4172
 7757SOL     OW34903   2.821   2.955   0.938 -0.3771  0.2158 -0.3990
 7757SOL    HW134904   2.884   3.017   0.901 -0.0536 -0.1925 -0.5369
 7757SOL    HW234905   2.765   2.956   0.861 -1.1833  0.7557  0.1984
 7758SOL     OW34906   3.827   1.489  10.369 -0.4152  0.1867 -0.0845
 7758SOL    HW134907   3.769   1.423  10.331 -0.4888 -0.6005  1.3841
 7758SOL    HW234908   3.793   1.566  10.325  1.8932  0.0491 -2.0861
 7759SOL     OW34909   1.211   2.218   6.176 -0.1291 -0.1677  0.3999
 7759SOL    HW134910   1.118   2.203   6.195 -1.1023  1.2615 -3.0642
 7759SOL    HW234911   1.212   2.281   6.104 -3.5304 -1.7106 -0.9953
 7760SOL     OW34912   0.631   1.702   4.941 -0.3697 -0.2498 -0.3865
 7760SOL    HW134913   0.727   1.695   4.946 -0.2576  2.0933  0.9523
 7760SOL    HW234914   0.622   1.735   4.852  1.0102  0.5233 -0.2543
 7761SOL     OW34915   4.129   3.121   6.475  0.0789  0.7998 -0.0339
 7761SOL    HW134916   4.178   3.042   6.498 -0.2879  1.2756  2.3896
 7761SOL    HW234917   4.082   3.137   6.557 -1.4349 -1.7150 -0.4244
 7762SOL     OW34918   3.726   2.888   3.846 -0.0277 -0.5441  0.6319
 7762SOL    HW134919   3.765   2.936   3.773 -2.1003  1.0115  0.5545
 7762SOL    HW234920   3.806   2.885   3.899  1.8289  0.9847 -2.0399
 7763SOL     OW34921   4.321   0.775  14.503 -0.1133 -0.2854  0.1290
 7763SOL    HW134922   4.321   0.816  14.589 -0.8152  1.6846 -0.8184
 7763SOL    HW234923   4.416   0.778  14.487 -0.1167  0.2487  0.2253
 7764SOL     OW34924   4.122   4.683   8.140  0.3149 -0.2615 -0.2040
 7764SOL    HW134925   4.067   4.608   8.116 -1.4293  0.9698 -0.0968
 7764SOL    HW234926   4.122   4.717   8.050 -1.2474 -0.6069 -0.3402
 7765SOL     OW34927   2.237   2.456   8.626  0.5053  0.0706  0.0693
 7765SOL    HW134928   2.222   2.493   8.539 -0.3336  0.2071  0.2741
 7765SOL    HW234929   2.233   2.362   8.608 -0.1753  0.4315 -1.5873
 7766SOL     OW34930   3.266   3.394   5.073  0.2527  0.4725  0.6448
 7766SOL    HW134931   3.215   3.331   5.021  0.4645  0.1759  0.7976
 7766SOL    HW234932   3.198   3.421   5.134 -1.2898  0.0002 -0.8665
 7767SOL     OW34933   3.767   4.667   7.304  0.0057  0.2290  0.2155
 7767SOL    HW134934   3.723   4.608   7.243 -1.3643  1.6291 -0.1495
 7767SOL    HW234935   3.732   4.628   7.384  1.4732  1.4941  1.4895
 7768SOL     OW34936   3.085   4.251   3.852  0.3219 -0.3223  0.0272
 7768SOL    HW134937   3.053   4.179   3.798 -0.5512  0.4121 -0.4336
 7768SOL    HW234938   3.028   4.322   3.822 -1.2162 -0.8986  1.5599
 7769SOL     OW34939   0.721   0.635  17.009 -0.4539  0.3829 -0.6603
 7769SOL    HW134940   0.712   0.601  17.098  0.6693  2.1081  0.1040
 7769SOL    HW234941   0.658   0.707  17.010  0.6438  1.3635 -2.7726
 7770SOL     OW34942   0.201   3.485   0.849  0.0556 -0.4490 -0.5137
 7770SOL    HW134943   0.184   3.433   0.770 -1.3415 -1.7384  0.6633
 7770SOL    HW234944   0.287   3.452   0.876  0.3307 -0.8293 -1.8430
 7771SOL     OW34945   4.290   2.352   4.533  1.3155 -0.1403 -1.0928
 7771SOL    HW134946   4.276   2.373   4.625  3.3652 -2.2517 -0.3174
 7771SOL    HW234947   4.357   2.285   4.542 -0.3931 -1.8903 -1.2970
 7772SOL     OW34948   2.878   2.208  16.656  0.4612  0.0642 -0.4064
 7772SOL    HW134949   2.948   2.245  16.711 -0.0392  0.3469  0.0418
 7772SOL    HW234950   2.842   2.290  16.624  0.1852  0.1527  0.1357
 7773SOL     OW34951   0.449   1.136   7.450 -0.2463  0.2661  0.1863
 7773SOL    HW134952   0.491   1.055   7.421 -0.8816  0.1296 -0.3244
 7773SOL    HW234953   0.486   1.139   7.539 -1.2633  0.0879  0.6116
 7774SOL     OW34954   3.249   1.603   3.138 -0.2381  0.3134  0.2056
 7774SOL    HW134955   3.292   1.689   3.137 -0.7684  0.5729 -0.4247
 7774SOL    HW234956   3.265   1.572   3.227 -0.9687 -0.2340  0.1429
 7775SOL     OW34957   3.802   3.933  15.686  0.0915 -0.3491 -0.0493
 7775SOL    HW134958   3.828   3.900  15.772  1.4903  1.5388  0.2469
 7775SOL    HW234959   3.799   4.028  15.696  0.1937 -0.2340 -1.0839
 7776SOL     OW34960   1.318   3.141  17.702  0.1762  0.5925  0.5444
 7776SOL    HW134961   1.288   3.102   0.042  0.8040 -3.4500 -1.1386
 7776SOL    HW234962   1.241   3.134  17.646 -0.0027 -0.9227  0.9723
 7777SOL     OW34963   2.583   4.685   4.941 -0.4159 -0.0129 -0.1900
 7777SOL    HW134964   2.511   4.685   5.003 -0.6125  0.6371 -0.4259
 7777SOL    HW234965   2.614   0.038   4.929  0.5764 -0.3703 -0.2972
 7778SOL     OW34966   0.909   3.380   5.110 -0.4724 -0.6286  0.5940
 7778SOL    HW134967   0.901   3.290   5.077  0.0762 -0.5058  0.1207
 7778SOL    HW234968   0.869   3.368   5.196 -2.0180 -0.3267 -0.0816
 7779SOL     OW34969   0.581   0.082   7.267  0.0236 -0.1806  0.3064
 7779SOL    HW134970   0.667   0.058   7.232 -0.6391 -0.8728 -0.8221
 7779SOL    HW234971   0.526   0.034   7.205  1.5906 -0.8814 -0.5355
 7780SOL     OW34972   4.349   4.403   7.453  0.3528  0.2596  0.6835
 7780SOL    HW134973   4.438   4.437   7.447 -0.1350  1.1374 -1.8021
 7780SOL    HW234974   4.295   4.481   7.465 -0.8027 -0.3342 -0.5650
 7781SOL     OW34975   3.184   3.688   6.633 -0.0047 -0.4183  0.9115
 7781SOL    HW134976   3.185   3.601   6.594  2.8625  0.7294 -1.5727
 7781SOL    HW234977   3.247   3.734   6.578 -0.9605 -1.3019 -0.8880
 7782SOL     OW34978   3.570   0.941  10.497 -0.2107  0.1128 -0.0816
 7782SOL    HW134979   3.597   0.862  10.545  1.6121  0.6894 -0.1752
 7782SOL    HW234980   3.613   1.008  10.550  0.2027  0.6867 -1.1697
 7783SOL     OW34981   3.640   3.671   6.837  0.4057  0.4528  1.1269
 7783SOL    HW134982   3.596   3.599   6.791  0.0323  1.4215 -0.0118
 7783SOL    HW234983   3.565   3.725   6.859 -0.1189  0.4790 -0.7610
 7784SOL     OW34984   3.048   4.522   0.754 -0.0307  0.2395 -0.2470
 7784SOL    HW134985   2.973   4.572   0.786  1.8122  1.3879  2.3056
 7784SOL    HW234986   3.090   4.589   0.699 -0.9363 -0.5379 -1.8705
 7785SOL     OW34987   2.363   0.474   8.015  0.8971 -0.5570 -0.1536
 7785SOL    HW134988   2.436   0.520   8.057 -0.3114  1.2218 -0.0038
 7785SOL    HW234989   2.304   0.460   8.089  0.1187  1.6885 -0.3500
 7786SOL     OW34990   0.916   3.091   9.277 -0.1721 -0.3517 -0.2053
 7786SOL    HW134991   0.863   3.033   9.332  0.3955 -0.5775  0.1085
 7786SOL    HW234992   0.911   3.054   9.189 -0.3025 -1.0274  0.0860
 7787SOL     OW34993   4.713   3.386  17.507 -0.4814  0.2845 -0.6508
 7787SOL    HW134994   4.668   3.463  17.541  0.6375  0.5211  0.2961
 7787SOL    HW234995   4.664   3.366  17.427 -1.3277 -0.5236  0.0886
 7788SOL     OW34996   0.880   3.577   1.160  0.2627  0.3772  0.2146
 7788SOL    HW134997   0.856   3.651   1.104 -2.4121  1.4792  2.8585
 7788SOL    HW234998   0.976   3.582   1.150  0.2549 -2.6672 -1.3225
 7789SOL     OW34999   4.230   0.875   2.716 -0.0003 -0.4755  0.1032
 7789SOL    HW135000   4.277   0.798   2.683 -1.3871 -0.8503 -0.9882
 7789SOL    HW235001   4.204   0.833   2.798 -0.0771  0.9597  0.8050
 7790SOL     OW35002   3.278   4.303   6.395  0.2104 -0.3079 -0.5417
 7790SOL    HW135003   3.333   4.382   6.397 -0.5155  0.1295  1.9302
 7790SOL    HW235004   3.252   4.270   6.481  1.3101  2.2255  0.7553
 7791SOL     OW35005   2.566   2.402   4.731  0.4062  0.6054  0.3540
 7791SOL    HW135006   2.539   2.468   4.668  3.2195  0.0521 -1.4339
 7791SOL    HW235007   2.479   2.378   4.764  0.4739 -0.0594  0.0429
 7792SOL     OW35008   0.973   4.128   8.686  0.1246 -0.0451 -0.4363
 7792SOL    HW135009   0.991   4.040   8.653  0.7965  0.1582 -0.6135
 7792SOL    HW235010   0.878   4.134   8.671 -0.2151  0.0618  1.6824
 7793SOL     OW35011   2.545   2.195   2.612 -0.2871  0.5912 -0.6693
 7793SOL    HW135012   2.557   2.100   2.607  0.2062  0.5432  1.3923
 7793SOL    HW235013   2.595   2.207   2.693 -0.1803 -2.6259 -0.2539
 7794SOL     OW35014   2.524   3.765  12.211 -0.2359  0.0466 -0.2228
 7794SOL    HW135015   2.536   3.697  12.144  0.2542  0.2902 -0.3843
 7794SOL    HW235016   2.536   3.832  12.144  2.1517  1.1957  1.3648
 7795SOL     OW35017   1.632   1.189   9.951  0.1681 -0.3726 -0.4678
 7795SOL    HW135018   1.611   1.096   9.958  1.4656 -0.4665  2.3602
 7795SOL    HW235019   1.707   1.194  10.011 -0.2776  2.0175 -0.0982
 7796SOL     OW35020   0.955   4.136   3.470  0.2444 -0.3418 -0.4550
 7796SOL    HW135021   1.040   4.108   3.436  0.2118  0.6141 -1.3132
 7796SOL    HW235022   0.903   4.057   3.485 -0.2122 -0.1073 -0.7877
 7797SOL     OW35023   0.160   3.726   1.557  0.5259  0.2609  0.3943
 7797SOL    HW135024   0.164   3.631   1.561 -1.0746  0.0533 -2.5285
 7797SOL    HW235025   0.076   3.754   1.521  0.5679  0.2371  0.2774
 7798SOL     OW35026   0.639   4.066  15.638 -0.0959 -0.4492 -0.1931
 7798SOL    HW135027   0.593   4.122  15.701  3.4805 -0.4445  2.4040
 7798SOL    HW235028   0.564   4.011  15.613 -0.2327 -0.1522 -0.4286
 7799SOL     OW35029   0.027   2.532   5.391 -0.2232 -0.2344 -0.0246
 7799SOL    HW135030   4.697   2.511   5.457  0.0787 -0.6609  0.1411
 7799SOL    HW235031   4.721   2.598   5.336  1.3139  0.6731 -0.0991
 7800SOL     OW35032   0.321   1.655   3.849  0.1642  0.4167 -0.2027
 7800SOL    HW135033   0.276   1.637   3.932  0.2940  2.5271  0.3216
 7800SOL    HW235034   0.408   1.614   3.853 -0.1171 -0.1476  0.2641
 7801SOL     OW35035   1.932   3.472  12.995 -0.7360 -0.2273  0.3862
 7801SOL    HW135036   1.986   3.395  12.976 -0.2297  0.0153  0.8598
 7801SOL    HW235037   1.897   3.438  13.077 -0.9406 -1.1281 -0.0753
 7802SOL     OW35038   1.615   3.472  14.821 -0.7239 -0.0454  0.4545
 7802SOL    HW135039   1.566   3.453  14.741 -2.9737  0.7988  1.6381
 7802SOL    HW235040   1.704   3.468  14.786 -0.3845 -2.2082  1.5288
 7803SOL     OW35041   3.113   3.885   5.186 -0.5767 -0.3006 -0.5449
 7803SOL    HW135042   3.186   3.944   5.166 -0.1076 -0.0538  1.8815
 7803SOL    HW235043   3.165   3.805   5.190 -0.4479 -0.2239 -0.7053
 7804SOL     OW35044   3.433   3.360  13.614  0.0829  0.1396  0.1551
 7804SOL    HW135045   3.507   3.338  13.671 -0.0212 -0.0551  0.2148
 7804SOL    HW235046   3.374   3.407  13.672 -1.0231 -0.4286 -0.5051
 7805SOL     OW35047   2.763   0.250   7.756 -0.0589 -0.7195  0.6242
 7805SOL    HW135048   2.811   0.298   7.689 -2.9079 -0.3980 -1.1947
 7805SOL    HW235049   2.696   0.207   7.702  0.8388  1.2087 -1.9927
 7806SOL     OW35050   3.832   3.344   1.889  0.0091  0.2658 -0.6184
 7806SOL    HW135051   3.892   3.289   1.940 -1.8621 -0.5780  0.6944
 7806SOL    HW235052   3.887   3.403   1.838 -1.3686  3.3501  1.4525
 7807SOL     OW35053   3.882   4.221   6.297 -0.0800  0.3244 -0.8731
 7807SOL    HW135054   3.792   4.210   6.328  0.4777 -0.3248  0.4905
 7807SOL    HW235055   3.890   4.316   6.312 -1.5241  0.3583 -0.3549
 7808SOL     OW35056   1.042   1.354   8.572  0.4744 -0.1477 -0.0449
 7808SOL    HW135057   1.000   1.272   8.596 -0.5685  0.5642  0.5580
 7808SOL    HW235058   1.000   1.415   8.633  0.9328 -0.6525  0.7690
 7809SOL     OW35059   2.494   3.142   1.599 -0.2273  0.0774  0.0126
 7809SOL    HW135060   2.541   3.182   1.672 -1.4588 -0.4362  1.0923
 7809SOL    HW235061   2.498   3.051   1.629 -0.3278 -0.2255 -0.9068
 7810SOL     OW35062   0.056   2.851   6.752 -0.0845 -0.3593 -0.2173
 7810SOL    HW135063   0.052   2.843   6.847 -2.9963 -0.3568 -0.3539
 7810SOL    HW235064   0.079   2.761   6.730 -0.4533 -1.2484  3.1007
 7811SOL     OW35065   0.010   1.449   5.168 -0.2100  0.1002 -0.2210
 7811SOL    HW135066   0.079   1.459   5.102  0.3300 -0.1002  0.3112
 7811SOL    HW235067   4.668   1.445   5.113  0.1352 -1.2970 -0.6224
 7812SOL     OW35068   2.298   0.506  16.760  0.5072 -0.1937  0.5792
 7812SOL    HW135069   2.300   0.438  16.694 -1.6210  1.4035 -1.1429
 7812SOL    HW235070   2.329   0.462  16.840  1.7969 -1.9070 -0.8806
 7813SOL     OW35071   3.431   2.682   5.914  0.2994 -0.3411 -0.3483
 7813SOL    HW135072   3.487   2.655   5.987  2.3460  0.9056 -1.4624
 7813SOL    HW235073   3.483   2.756   5.882  2.1226 -0.2804  2.7151
 7814SOL     OW35074   4.356   4.196   8.503 -0.5714  0.2442 -0.1762
 7814SOL    HW135075   4.287   4.251   8.466 -0.4351  0.4223 -0.1680
 7814SOL    HW235076   4.388   4.255   8.572 -2.8584  2.6323 -1.1332
 7815SOL     OW35077   2.937   1.145  10.737  0.4378  0.5737 -0.0361
 7815SOL    HW135078   2.870   1.082  10.761  0.8957  0.2619  0.4172
 7815SOL    HW235079   2.972   1.124  10.650  2.6793 -1.7070  1.4115
 7816SOL     OW35080   0.052   2.271   6.692  0.1574 -0.1218 -0.3529
 7816SOL    HW135081   0.131   2.323   6.672 -0.7548  1.6611  0.6377
 7816SOL    HW235082   0.012   2.336   6.750 -0.2620 -0.6514 -0.0563
 7817SOL     OW35083   2.562   4.198   4.807 -0.0615 -0.3881 -0.6706
 7817SOL    HW135084   2.486   4.180   4.863  0.3302 -0.3177 -0.1070
 7817SOL    HW235085   2.572   4.293   4.811  2.0771 -0.6821  1.2157
 7818SOL     OW35086   2.010   1.154   3.243  0.2445 -0.4321  0.2982
 7818SOL    HW135087   1.982   1.111   3.324 -0.0389 -1.7502 -0.4992
 7818SOL    HW235088   1.923   1.153   3.202  0.5145  0.6676 -0.2842
 7819SOL     OW35089   4.711   0.139   5.057 -0.0414 -0.3699 -0.0972
 7819SOL    HW135090   4.694   0.180   4.973 -1.1100 -2.1743 -0.7693
 7819SOL    HW235091   0.024   0.208   5.101  0.2203 -1.2293  0.9766
 7820SOL     OW35092   4.535   1.487  10.274  0.1732 -0.0859 -0.5803
 7820SOL    HW135093   4.454   1.530  10.303  0.1825  0.5130 -1.4742
 7820SOL    HW235094   4.592   1.489  10.351  0.4688  0.3421 -0.8110
 7821SOL     OW35095   3.930   0.621   6.384  0.2492  0.1150 -0.7903
 7821SOL    HW135096   3.971   0.690   6.333  0.9732  0.2873  0.0371
 7821SOL    HW235097   3.840   0.653   6.393  0.4010 -0.0944  1.5481
 7822SOL     OW35098   4.651   3.235  12.365  0.5547 -0.6278 -0.0979
 7822SOL    HW135099   4.622   3.288  12.291  0.6222  0.4750  0.6740
 7822SOL    HW235100   4.594   3.159  12.352 -1.5212  0.6957  1.1983
 7823SOL     OW35101   0.154   3.991   8.043  0.0584 -0.2404 -0.1133
 7823SOL    HW135102   0.180   3.999   7.952 -0.7573 -0.2517 -0.3463
 7823SOL    HW235103   0.092   4.064   8.037 -0.9532 -1.1286 -0.4444
 7824SOL     OW35104   0.308   2.054   0.347  0.2611  0.8009 -0.3913
 7824SOL    HW135105   0.332   2.106   0.270 -0.7388  0.0185 -1.2258
 7824SOL    HW235106   0.327   2.120   0.414  1.1911 -1.7712  1.8571
 7825SOL     OW35107   1.686   0.885   8.920  0.1847 -0.3265  0.4613
 7825SOL    HW135108   1.646   0.822   8.979  0.0540  0.2244  0.9595
 7825SOL    HW235109   1.741   0.815   8.884  0.9155 -0.7407  2.3792
 7826SOL     OW35110   2.669   1.471   9.490 -0.0788 -0.8356 -0.4755
 7826SOL    HW135111   2.735   1.476   9.560 -1.0475  2.8252  0.1841
 7826SOL    HW235112   2.633   1.559   9.478  0.6502 -0.4973 -0.2203
 7827SOL     OW35113   0.009   3.149  15.209  0.0934 -0.3106  0.1129
 7827SOL    HW135114   0.022   3.241  15.189 -1.7959 -0.2389 -0.8681
 7827SOL    HW235115   4.695   3.150  15.290  1.9052  0.9952  1.1975
 7828SOL     OW35116   0.630   2.259   2.291 -0.0789  0.2993 -0.3542
 7828SOL    HW135117   0.696   2.328   2.285  1.3292 -0.9328  0.7685
 7828SOL    HW235118   0.598   2.242   2.203 -0.1465 -0.3545 -0.1991
 7829SOL     OW35119   0.700   1.455  15.872 -0.1904  0.1410  0.0925
 7829SOL    HW135120   0.711   1.542  15.833  0.4552  0.7877  1.7102
 7829SOL    HW235121   0.728   1.399  15.800 -2.8693  2.1550 -2.5355
 7830SOL     OW35122   1.040   0.798  11.642  0.5428  0.2538  0.4002
 7830SOL    HW135123   1.074   0.886  11.660 -0.7498  1.3555 -2.4319
 7830SOL    HW235124   0.960   0.806  11.695  0.8533 -1.5838  1.1394
 7831SOL     OW35125   2.395   4.015   7.786  0.3126  0.6728  0.2364
 7831SOL    HW135126   2.344   4.043   7.861 -0.2528  1.0486 -0.2931
 7831SOL    HW235127   2.359   3.926   7.783 -0.6821  0.9794  4.0168
 7832SOL     OW35128   1.548   3.581   1.013  0.1154 -0.5142  0.3129
 7832SOL    HW135129   1.459   3.544   1.017 -0.2820  0.5365  1.2644
 7832SOL    HW235130   1.551   3.599   0.919  3.0037 -0.6626  0.4051
 7833SOL     OW35131   2.028   2.465   2.240  0.1541 -0.2087  0.5507
 7833SOL    HW135132   1.935   2.468   2.264 -0.1951  0.7135 -0.8790
 7833SOL    HW235133   2.082   2.440   2.315  0.2190  1.5844  1.1113
 7834SOL     OW35134   0.758   4.241   5.607  0.4463 -0.3420  0.1438
 7834SOL    HW135135   0.839   4.195   5.587  0.4188 -0.3313  0.0089
 7834SOL    HW235136   0.787   4.301   5.676 -2.6463 -0.0372  1.1621
 7835SOL     OW35137   3.415   1.131   6.296 -0.0070 -0.0045  0.4199
 7835SOL    HW135138   3.481   1.099   6.235 -0.5529 -0.7902  0.2378
 7835SOL    HW235139   3.449   1.219   6.313 -0.9817  0.7880 -1.7287
 7836SOL     OW35140   3.683   1.907   5.172  0.1303 -0.4142 -0.4223
 7836SOL    HW135141   3.721   1.983   5.129 -2.2856 -0.0119 -1.8519
 7836SOL    HW235142   3.645   1.860   5.098  0.0390  0.5571 -0.9901
 7837SOL     OW35143   2.925   4.178   7.209  0.1137  0.5253  0.5493
 7837SOL    HW135144   2.893   4.092   7.180 -0.2158  0.6376  0.5830
 7837SOL    HW235145   2.935   4.222   7.125  0.0328 -1.1681 -0.3550
 7838SOL     OW35146   0.874   1.018   7.914 -0.7241 -0.2396  0.8633
 7838SOL    HW135147   0.851   0.964   7.839  1.2064  0.1907 -0.0313
 7838SOL    HW235148   0.819   1.096   7.921  0.3122  0.5792 -0.0798
 7839SOL     OW35149   0.941   4.158   4.311  0.0353 -0.0011 -0.2162
 7839SOL    HW135150   0.888   4.167   4.390  0.3063  2.9066 -0.3369
 7839SOL    HW235151   0.919   4.073   4.275  0.4378 -0.5966  0.9481
 7840SOL     OW35152   4.190   4.398  15.083 -0.1610  0.8516 -0.2385
 7840SOL    HW135153   4.214   4.349  15.162 -1.5372  1.9902  0.8894
 7840SOL    HW235154   4.099   4.373  15.066 -0.2438  1.2993 -0.4629
 7841SOL     OW35155   2.821   0.213  17.642  0.3774  0.3805 -0.1020
 7841SOL    HW135156   2.858   0.134  17.603  2.0822  1.5626 -0.8904
 7841SOL    HW235157   2.811   0.182  17.732  0.1957 -0.4764 -0.4165
 7842SOL     OW35158   2.145   2.204   4.586  0.1055  0.3049  1.0320
 7842SOL    HW135159   2.137   2.254   4.505 -0.1830 -3.0446 -1.0387
 7842SOL    HW235160   2.109   2.268   4.646 -1.0735  0.9138 -0.3306
 7843SOL     OW35161   0.623   4.630   6.252  0.2309 -0.1942  0.7152
 7843SOL    HW135162   0.556   4.660   6.313 -0.9108 -0.1633 -0.5589
 7843SOL    HW235163   0.665   4.710   6.221 -1.4959 -0.7359 -2.9733
 7844SOL     OW35164   3.010   3.055   0.716 -0.1967 -0.2230 -0.3848
 7844SOL    HW135165   3.066   2.991   0.759 -0.3829  0.1243  0.3657
 7844SOL    HW235166   3.051   3.136   0.745  0.0385 -0.2444 -0.6588
 7845SOL     OW35167   0.679   3.481   0.729  0.3999  0.2865 -0.0885
 7845SOL    HW135168   0.773   3.501   0.722  0.2008  0.8789 -0.9665
 7845SOL    HW235169   0.675   3.407   0.669 -0.5496 -0.0512  0.3813
 7846SOL     OW35170   3.901   0.904   4.937  0.2507  0.0294  0.6446
 7846SOL    HW135171   3.888   0.946   4.852 -0.9423 -0.1313  0.7475
 7846SOL    HW235172   3.986   0.871   4.907 -1.2126 -1.3696 -1.9813
 7847SOL     OW35173   1.546   0.688   7.878  0.6640 -0.2418  0.4791
 7847SOL    HW135174   1.609   0.628   7.838 -0.3251 -0.8775 -0.1218
 7847SOL    HW235175   1.583   0.773   7.854  1.4365 -0.9161 -0.6802
 7848SOL     OW35176   4.385   0.738   5.215  0.5522 -0.1636 -0.2262
 7848SOL    HW135177   4.419   0.814   5.263 -0.4311  0.5738 -0.6987
 7848SOL    HW235178   4.360   0.758   5.125 -0.2336 -1.9761 -0.4200
 7849SOL     OW35179   0.098   1.242   7.389  0.0095  0.4774  0.5932
 7849SOL    HW135180   0.107   1.151   7.415 -1.0269  0.6701  1.6310
 7849SOL    HW235181   0.005   1.259   7.404 -1.0997 -1.8177 -3.6468
 7850SOL     OW35182   0.066   3.465   1.131 -0.0949 -0.2737  0.0547
 7850SOL    HW135183   0.131   3.442   1.197  0.3824 -0.6138 -0.5397
 7850SOL    HW235184   0.123   3.496   1.060  0.1153  1.1652  0.8440
 7851SOL     OW35185   3.987   4.318   2.735  0.6974  0.3721 -0.4993
 7851SOL    HW135186   3.896   4.303   2.711  0.6516 -2.8764  1.7745
 7851SOL    HW235187   4.004   4.404   2.696 -0.3046  1.3857  1.3694
 7852SOL     OW35188   4.465   0.863   6.935 -0.2528  0.2580 -0.1276
 7852SOL    HW135189   4.453   0.914   7.015  2.1009  0.6878 -0.0388
 7852SOL    HW235190   4.526   0.794   6.959  0.3189  1.0114  0.6032
 7853SOL     OW35191   4.066   2.752   2.529 -0.2486 -0.1563  0.3190
 7853SOL    HW135192   4.126   2.726   2.599  1.3484 -2.7901 -2.0371
 7853SOL    HW235193   3.993   2.692   2.544 -0.9496  0.6266  0.0501
 7854SOL     OW35194   3.716   0.933   2.123  0.0278  0.3001 -0.1486
 7854SOL    HW135195   3.643   0.905   2.179 -0.3704  1.5194 -0.0461
 7854SOL    HW235196   3.782   0.870   2.151 -0.4091 -0.2898 -0.4742
 7855SOL     OW35197   3.486   2.840   3.973 -0.3152  0.0380 -0.3220
 7855SOL    HW135198   3.548   2.886   3.917  0.9505 -0.5071  0.6228
 7855SOL    HW235199   3.473   2.750   3.944 -1.7343  0.3254 -0.5859
 7856SOL     OW35200   2.565   2.984   2.514 -0.1996 -0.3394 -0.0313
 7856SOL    HW135201   2.562   2.911   2.452 -0.4570 -1.3309  1.1483
 7856SOL    HW235202   2.647   3.023   2.486 -0.1078  1.2547  2.4580
 7857SOL     OW35203   0.543   0.779  15.052 -0.4030 -0.6345  0.1887
 7857SOL    HW135204   0.569   0.833  14.977 -0.5528  1.8605  1.9012
 7857SOL    HW235205   0.492   0.842  15.103  0.0335  0.4908 -0.7629
 7858SOL     OW35206   1.063   1.472   2.466  0.3571 -0.0862  0.1683
 7858SOL    HW135207   1.141   1.452   2.516  0.2133  1.1555  0.8889
 7858SOL    HW235208   1.099   1.458   2.378  1.6250  0.5167  0.5917
 7859SOL     OW35209   1.034   4.178  11.366 -0.3385  0.0296  0.2034
 7859SOL    HW135210   1.093   4.235  11.316 -1.0137 -0.6666 -1.3748
 7859SOL    HW235211   0.969   4.247  11.381 -0.2825 -0.0616  0.8964
 7860SOL     OW35212   4.508   1.889  17.128  0.2719 -0.4976  0.1991
 7860SOL    HW135213   4.443   1.907  17.060  0.2732  0.1960  0.3748
 7860SOL    HW235214   4.461   1.826  17.181  0.7241 -1.0637 -0.0718
 7861SOL     OW35215   1.810   1.961   8.044  0.3903  0.1629  0.5918
 7861SOL    HW135216   1.802   2.045   7.999 -2.5262 -0.0952  0.6224
 7861SOL    HW235217   1.841   1.998   8.126  1.1613 -0.9928  0.8230
 7862SOL     OW35218   3.328   3.874  10.133  0.5112  0.3184 -0.3601
 7862SOL    HW135219   3.403   3.918  10.172  0.1108 -2.5222  3.5189
 7862SOL    HW235220   3.303   3.818  10.206 -2.2752  1.8215 -0.1451
 7863SOL     OW35221   0.276   0.559   3.683  0.0759  0.1073  0.1720
 7863SOL    HW135222   0.310   0.644   3.708  2.9335 -1.1021  0.4268
 7863SOL    HW235223   0.213   0.564   3.611 -1.2833  2.2573  1.5499
 7864SOL     OW35224   2.426   0.500   6.653  0.6566  0.6825 -0.2233
 7864SOL    HW135225   2.341   0.459   6.667  1.6532 -1.1188  0.5222
 7864SOL    HW235226   2.442   0.535   6.741  0.5192 -0.5856  0.3031
 7865SOL     OW35227   2.103   0.753   2.809  0.0608  0.8055 -0.2500
 7865SOL    HW135228   2.156   0.678   2.835 -0.4638  0.6311  0.3157
 7865SOL    HW235229   2.170   0.814   2.777  1.6808 -0.0957  1.4391
 7866SOL     OW35230   4.372   0.084   7.559 -0.2980 -0.1800  0.6294
 7866SOL    HW135231   4.462   0.060   7.536 -0.6777 -0.0048 -1.0334
 7866SOL    HW235232   4.383   0.139   7.637  1.3337 -0.7671  0.8143
 7867SOL     OW35233   3.674   3.738  12.036 -0.1782 -0.7411 -0.1774
 7867SOL    HW135234   3.640   3.758  11.949 -1.3246 -1.4286  0.1105
 7867SOL    HW235235   3.727   3.665  12.005  1.6410  0.3101  0.4914
 7868SOL     OW35236   2.391   1.789   8.483 -0.0435 -0.1615  0.0901
 7868SOL    HW135237   2.446   1.740   8.423  1.1828  0.1842  0.9407
 7868SOL    HW235238   2.308   1.740   8.485 -0.4783  0.6284  2.4659
 7869SOL     OW35239   0.935   2.500   6.319 -0.2968 -0.2581  0.1514
 7869SOL    HW135240   1.006   2.505   6.255 -0.1181  0.1541  0.3818
 7869SOL    HW235241   0.977   2.555   6.385 -0.2115 -1.2566  0.9246
 7870SOL     OW35242   0.295   3.750   0.339  0.0435  0.5160  0.8281
 7870SOL    HW135243   0.263   3.713   0.421 -0.6041 -0.1785  0.2576
 7870SOL    HW235244   0.359   3.680   0.324 -0.6501  0.1583 -0.4291
 7871SOL     OW35245   1.464   4.209   4.948 -0.0556 -0.1667  0.5675
 7871SOL    HW135246   1.495   4.140   4.889  1.5027  0.9863  0.0552
 7871SOL    HW235247   1.457   4.161   5.031  1.0396 -0.1788  0.6446
 7872SOL     OW35248   0.058   4.655   7.639 -0.3808  0.5882  0.6953
 7872SOL    HW135249   4.728   4.703   7.589  0.6362  0.1721 -1.0501
 7872SOL    HW235250   0.135   4.646   7.583 -1.1290  2.2493 -0.6189
 7873SOL     OW35251   1.148   0.196   7.622  0.6674 -0.1586  0.0730
 7873SOL    HW135252   1.186   0.284   7.617  1.0932 -0.3326  0.3039
 7873SOL    HW235253   1.192   0.158   7.546 -0.5837 -2.8956  0.7313
 7874SOL     OW35254   0.899   0.553  10.143 -0.3538  0.0220 -0.5844
 7874SOL    HW135255   0.807   0.532  10.160  0.8431 -2.8568  2.4781
 7874SOL    HW235256   0.934   0.468  10.169  0.1023  0.0968 -0.9608
 7875SOL     OW35257   4.069   1.322   7.037 -0.6568 -0.2144  0.2722
 7875SOL    HW135258   4.000   1.387   7.021  0.3705  0.6503 -0.6772
 7875SOL    HW235259   4.119   1.388   7.086  1.0489 -1.5011  0.2969
 7876SOL     OW35260   4.596   1.851   0.059  0.0942  0.3719  0.2585
 7876SOL    HW135261   4.526   1.879  17.742  0.0672 -1.1458 -0.4258
 7876SOL    HW235262   4.580   1.907   0.135  1.7482 -0.0193  0.8984
 7877SOL     OW35263   4.594   0.769   7.209 -0.1883  0.2572 -0.1972
 7877SOL    HW135264   4.510   0.777   7.164 -1.1408 -1.4234  1.3252
 7877SOL    HW235265   4.598   0.849   7.260 -0.6605 -0.8245  1.5078
 7878SOL     OW35266   3.500   1.397   6.954 -0.1826  0.4007  0.2292
 7878SOL    HW135267   3.569   1.462   6.941 -0.6192  1.1166  1.4667
 7878SOL    HW235268   3.536   1.320   6.912 -1.4988  0.0894 -0.3236
 7879SOL     OW35269   2.232   4.234   7.422  0.6766  0.0406 -0.0004
 7879SOL    HW135270   2.208   4.308   7.368  2.3255  0.6619  0.1001
 7879SOL    HW235271   2.316   4.260   7.461  0.6301 -0.5146  0.4775
 7880SOL     OW35272   1.600   1.874   2.925 -0.4850  0.2584 -0.0533
 7880SOL    HW135273   1.559   1.888   2.840 -0.7310  1.9544  0.3463
 7880SOL    HW235274   1.674   1.935   2.916  0.9389 -1.1912  1.6767
 7881SOL     OW35275   2.709   0.109   5.466 -0.3752  0.2787 -0.8343
 7881SOL    HW135276   2.756   0.046   5.519 -0.3551 -1.1881 -2.6089
 7881SOL    HW235277   2.621   0.080   5.492 -0.4097  1.8097  0.7292
 7882SOL     OW35278   3.976   1.309   4.513  0.4222 -0.4955  0.0979
 7882SOL    HW135279   3.996   1.284   4.423  0.4126  0.5088 -0.1876
 7882SOL    HW235280   3.900   1.264   4.549  0.1851  1.7714  2.4120
 7883SOL     OW35281   2.219   2.600   3.962  0.3861 -0.5212 -0.4646
 7883SOL    HW135282   2.157   2.572   3.895 -1.4977  0.0005  1.0863
 7883SOL    HW235283   2.285   2.532   3.950  2.0149  1.2669 -1.8160
 7884SOL     OW35284   0.181   1.274   8.585  0.2007 -0.1511  0.3200
 7884SOL    HW135285   0.167   1.227   8.667  1.1938  0.2442  0.7197
 7884SOL    HW235286   0.266   1.240   8.558  1.0693 -0.9703  4.0065
 7885SOL     OW35287   1.213   3.086   7.836 -0.0532  0.4178  0.2403
 7885SOL    HW135288   1.146   3.060   7.773  1.6423 -3.4342  0.0159
 7885SOL    HW235289   1.227   3.176   7.806  0.2169  0.5732  0.8385
 7886SOL     OW35290   3.194   0.719  12.609  0.0585 -0.6985 -0.4434
 7886SOL    HW135291   3.287   0.739  12.624 -0.1807  1.8259 -2.3320
 7886SOL    HW235292   3.214   0.648  12.547 -0.8938 -0.5102 -0.9660
 7887SOL     OW35293   2.316   3.224  13.609  0.2617 -0.1732  0.1472
 7887SOL    HW135294   2.311   3.314  13.642  0.8746  0.2589 -0.9505
 7887SOL    HW235295   2.313   3.240  13.515 -1.7643 -0.2341  0.1983
 7888SOL     OW35296   3.618   2.541   6.054 -0.1647  0.4325  0.7488
 7888SOL    HW135297   3.674   2.564   6.128  0.4703 -0.3221  0.4954
 7888SOL    HW235298   3.669   2.591   5.991 -1.6019  1.7528  0.6350
 7889SOL     OW35299   2.590   4.293   1.117  0.0466  0.2404  0.4999
 7889SOL    HW135300   2.685   4.298   1.112  0.0691 -0.2990  0.4039
 7889SOL    HW235301   2.566   4.359   1.051  0.9419  0.8398  0.7743
 7890SOL     OW35302   2.897   3.184   8.773 -0.3501 -0.7849 -0.5504
 7890SOL    HW135303   2.826   3.126   8.747  1.7018 -4.1403  1.3113
 7890SOL    HW235304   2.862   3.258   8.822  0.7943 -0.0866 -0.7764
 7891SOL     OW35305   3.347   2.091   2.198  0.4851 -0.7210  0.2334
 7891SOL    HW135306   3.299   2.158   2.148 -0.2434 -0.7048  0.9572
 7891SOL    HW235307   3.429   2.139   2.210  0.7826 -1.6522  1.8994
 7892SOL     OW35308   3.626   3.020   5.648  0.1961 -0.7703  0.1958
 7892SOL    HW135309   3.541   2.978   5.659 -0.2436 -0.0625 -0.5245
 7892SOL    HW235310   3.610   3.112   5.630  1.5298 -0.3105  1.2850
 7893SOL     OW35311   1.039   2.966  15.673  0.3612  0.1873  0.2862
 7893SOL    HW135312   1.004   2.957  15.584  1.0912  2.4381 -0.2274
 7893SOL    HW235313   0.982   2.906  15.721  1.4308  0.5831  2.0321
 7894SOL     OW35314   2.501   2.556  12.974 -0.4241 -0.6568 -0.3851
 7894SOL    HW135315   2.485   2.637  12.926  2.0088 -0.0345 -0.1326
 7894SOL    HW235316   2.450   2.551  13.055  3.8662 -0.0875  2.3248
 7895SOL     OW35317   0.702   4.597   5.369  0.1922 -1.0814  0.1807
 7895SOL    HW135318   0.756   4.655   5.316 -0.0043  1.3159  2.6047
 7895SOL    HW235319   0.740   4.610   5.456  0.7467  1.3087 -0.4492
 7896SOL     OW35320   1.275   0.485   2.643  0.2608  0.0068  0.1136
 7896SOL    HW135321   1.297   0.471   2.550  0.3033  1.5583 -0.1117
 7896SOL    HW235322   1.213   0.557   2.638 -0.8551 -0.7518  3.2597
 7897SOL     OW35323   2.327   4.603   2.695  0.8211 -0.2584 -0.0933
 7897SOL    HW135324   2.308   4.683   2.744 -2.0256 -1.0805  0.1817
 7897SOL    HW235325   2.259   4.554   2.741  0.9061 -0.2290  0.0645
 7898SOL     OW35326   1.602   3.667   4.694  0.5082 -0.2056 -0.4870
 7898SOL    HW135327   1.672   3.619   4.739  1.8445  2.2691  0.0844
 7898SOL    HW235328   1.528   3.613   4.721  0.7583 -0.3729 -0.1455
 7899SOL     OW35329   0.262   3.495   1.872  0.6019  0.2978  0.1976
 7899SOL    HW135330   0.353   3.511   1.847 -0.1787  0.5845 -2.4698
 7899SOL    HW235331   0.217   3.519   1.792 -0.0309 -0.2564  0.3868
 7900SOL     OW35332   3.995   3.795   8.704 -0.4664  0.1127  0.4343
 7900SOL    HW135333   4.041   3.874   8.730  1.3569 -0.2282 -1.7982
 7900SOL    HW235334   3.924   3.834   8.653  0.5547  0.2717 -0.8558
 7901SOL     OW35335   0.266   0.008   6.136 -0.0683 -0.3792  0.1070
 7901SOL    HW135336   0.217   4.710   6.061  1.4532  0.8982 -1.4633
 7901SOL    HW235337   0.333   0.057   6.089  1.3795  0.0931  2.6685
 7902SOL     OW35338   1.821   4.603   6.320  0.4216  0.1285 -0.1857
 7902SOL    HW135339   1.850   4.691   6.297 -0.9647  0.9112  1.0309
 7902SOL    HW235340   1.728   4.625   6.328  0.7719  1.3500  0.4904
 7903SOL     OW35341   2.383   2.534  11.121  0.8073  0.2738 -0.3009
 7903SOL    HW135342   2.357   2.577  11.040  0.1875  1.0208  0.2940
 7903SOL    HW235343   2.449   2.474  11.085 -0.9746 -0.6690 -1.9935
 7904SOL     OW35344   3.339   0.822  11.689  0.2159  0.2732  0.0947
 7904SOL    HW135345   3.370   0.883  11.622 -2.7246  2.1801  0.4156
 7904SOL    HW235346   3.326   0.882  11.763  0.7857 -1.6665  1.7540
 7905SOL     OW35347   2.901   1.719   7.174  0.5556 -0.1795  0.1923
 7905SOL    HW135348   2.816   1.720   7.129  0.0219 -1.4821  1.1338
 7905SOL    HW235349   2.935   1.631   7.157  0.8362 -0.4356  2.0063
 7906SOL     OW35350   3.324   4.475   8.128 -0.2747  0.3849 -0.1279
 7906SOL    HW135351   3.300   4.568   8.131  1.8252  0.8864  0.7425
 7906SOL    HW235352   3.324   4.461   8.034  2.3300 -0.4773  0.0084
 7907SOL     OW35353   2.120   1.667   2.679 -0.2460 -0.0236  0.0276
 7907SOL    HW135354   2.104   1.723   2.602 -0.5960  2.4905  1.9299
 7907SOL    HW235355   2.096   1.722   2.753 -1.0577  0.1744 -0.3796
 7908SOL     OW35356   1.467   0.323   4.827 -0.5709 -0.3123  0.0846
 7908SOL    HW135357   1.533   0.375   4.873 -1.0511 -0.2058  0.6547
 7908SOL    HW235358   1.494   0.343   4.738 -0.6536  3.0489  0.8146
 7909SOL     OW35359   3.291   4.526  11.010  0.1006 -0.0954  0.0349
 7909SOL    HW135360   3.266   4.454  10.953 -0.6591  0.3887 -0.2470
 7909SOL    HW235361   3.248   4.602  10.970  1.6286  0.5962 -0.2707
 7910SOL     OW35362   2.367   4.512   9.716 -0.5742 -0.4006 -0.1392
 7910SOL    HW135363   2.428   4.537   9.646 -1.4685  1.5414 -0.2163
 7910SOL    HW235364   2.377   4.417   9.707  0.1188 -0.3662  0.2650
 7911SOL     OW35365   0.938   3.451   3.364 -0.1741 -0.0937  0.1750
 7911SOL    HW135366   0.991   3.482   3.437 -0.2726  0.3813  0.0447
 7911SOL    HW235367   0.957   3.532   3.315  2.7487 -0.4642  0.7005
 7912SOL     OW35368   0.586   0.269   6.968 -0.7904  0.7884 -0.0078
 7912SOL    HW135369   0.669   0.277   7.016  0.7864  1.6509 -2.8251
 7912SOL    HW235370   0.613   0.310   6.885 -0.2969  2.0683  0.7765
 7913SOL     OW35371   1.119   3.650   6.243 -0.1579 -0.3341  0.7108
 7913SOL    HW135372   1.052   3.705   6.203  1.4248  1.6963  0.8214
 7913SOL    HW235373   1.110   3.670   6.336 -0.8789 -1.9056  0.9707
 7914SOL     OW35374   1.852   4.683   7.682  0.3668 -0.2045 -0.3111
 7914SOL    HW135375   1.901   4.601   7.691  0.5091 -0.1273 -0.3873
 7914SOL    HW235376   1.893   4.719   7.761 -0.3646 -1.9296  0.8664
 7915SOL     OW35377   4.308   4.632   5.618 -0.4303 -0.4715 -0.5623
 7915SOL    HW135378   4.215   4.607   5.618 -0.6867  0.4674 -1.5252
 7915SOL    HW235379   4.303   4.723   5.589  1.0426 -0.3456 -0.3943
 7916SOL     OW35380   0.021   4.587  14.329 -0.0894 -0.1609  0.3491
 7916SOL    HW135381   0.035   4.672  14.370  0.9618  0.9450 -2.3125
 7916SOL    HW235382   4.717   4.620  14.248 -0.8285  0.9076  1.1391
 7917SOL     OW35383   1.257   0.536   8.758  0.1221 -0.1339  0.4044
 7917SOL    HW135384   1.291   0.449   8.738 -1.6865 -0.8014  0.2270
 7917SOL    HW235385   1.211   0.520   8.840 -1.3538 -0.0958 -0.4031
 7918SOL     OW35386   3.068   0.508   6.189 -0.4894  0.0370  0.2435
 7918SOL    HW135387   3.090   0.593   6.152  1.0046 -0.3535  0.2498
 7918SOL    HW235388   2.998   0.476   6.132 -1.5928 -1.1757  2.2799
 7919SOL     OW35389   1.627   4.011  14.834  0.3150 -0.2463 -0.0611
 7919SOL    HW135390   1.541   3.984  14.867  0.3326  0.7934  0.8260
 7919SOL    HW235391   1.653   3.941  14.773  2.3262  1.3598 -1.0707
 7920SOL     OW35392   4.103   1.875   3.198 -0.2331 -0.1458 -0.5040
 7920SOL    HW135393   4.061   1.809   3.143 -0.6374 -1.0506  0.8941
 7920SOL    HW235394   4.190   1.834   3.203 -0.5894 -0.6340  1.9039
 7921SOL     OW35395   2.357   3.870  10.041 -0.1582 -0.0693 -0.2342
 7921SOL    HW135396   2.416   3.805  10.079 -0.2763 -0.5241 -0.8268
 7921SOL    HW235397   2.418   3.943  10.035 -1.9481  1.6509  2.3802
 7922SOL     OW35398   2.287   2.139   5.793  0.2214  0.0553 -0.3316
 7922SOL    HW135399   2.355   2.079   5.824 -0.5662 -1.6317 -1.8948
 7922SOL    HW235400   2.322   2.218   5.835  1.6842 -0.0068 -1.4194
 7923SOL     OW35401   0.201   2.700  15.992  0.1258 -0.2008  0.0746
 7923SOL    HW135402   0.231   2.612  16.015 -0.4020  0.0499  1.6828
 7923SOL    HW235403   0.164   2.725  16.076 -2.1990 -0.8764 -0.7670
 7924SOL     OW35404   2.105   1.409   6.318  0.5185 -0.5983  0.1964
 7924SOL    HW135405   2.172   1.476   6.330  0.0977 -0.2029  0.3206
 7924SOL    HW235406   2.057   1.421   6.399  0.4041 -2.9125  0.4805
 7925SOL     OW35407   0.377   3.079   1.381 -0.1056  0.1842 -0.0077
 7925SOL    HW135408   0.398   3.149   1.318 -0.8581  0.1388 -0.3132
 7925SOL    HW235409   0.447   3.088   1.446  0.2386  0.3184 -0.3954
 7926SOL     OW35410   4.588   0.246   2.555  0.2368  0.1548  0.4956
 7926SOL    HW135411   4.611   0.157   2.527 -2.9588 -0.3041 -0.6238
 7926SOL    HW235412   4.495   0.230   2.540  0.0395  1.7239  0.0781
 7927SOL     OW35413   0.009   0.305   1.559  0.2719  0.4873 -0.1349
 7927SOL    HW135414   0.060   0.274   1.484  0.3652  1.2074 -0.3680
 7927SOL    HW235415   4.657   0.273   1.542  0.6948 -0.1680 -1.0841
 7928SOL     OW35416   1.212   3.624   1.459 -0.5352 -0.1197  0.2789
 7928SOL    HW135417   1.288   3.578   1.496 -1.0024 -0.3721  0.9244
 7928SOL    HW235418   1.189   3.687   1.527  2.5477  1.1512  0.1468
 7929SOL     OW35419   3.524   1.949   7.827  0.0180 -0.0268  0.0353
 7929SOL    HW135420   3.547   1.856   7.831 -0.2476 -0.1162 -0.4512
 7929SOL    HW235421   3.593   1.988   7.879 -1.0384  0.9041  0.7499
 7930SOL     OW35422   0.605   0.480   8.230  0.4447  0.7509  0.1739
 7930SOL    HW135423   0.635   0.562   8.191 -0.8073  0.0016 -2.3477
 7930SOL    HW235424   0.676   0.459   8.291 -0.1168  0.7492  0.8126
 7931SOL     OW35425   0.561   0.505   3.335 -0.0002 -0.1035 -0.2395
 7931SOL    HW135426   0.580   0.414   3.312 -1.6643 -0.3992 -0.4210
 7931SOL    HW235427   0.633   0.546   3.287  0.1114 -0.8852 -0.7477
 7932SOL     OW35428   2.466   1.917   5.852 -0.4861 -0.2331 -0.0978
 7932SOL    HW135429   2.398   1.851   5.837 -1.4563 -0.0127  3.3557
 7932SOL    HW235430   2.497   1.898   5.941 -2.5908  0.3860  0.7775
 7933SOL     OW35431   1.118   3.007   5.253  0.3261 -0.5712  0.2676
 7933SOL    HW135432   1.034   2.979   5.289 -0.8908  2.6304 -0.0102
 7933SOL    HW235433   1.157   2.921   5.242 -0.2967 -0.8437  0.1612
 7934SOL     OW35434   1.675   2.824   8.775 -0.0379  0.0791  0.1071
 7934SOL    HW135435   1.762   2.860   8.791  0.5373 -0.9406 -0.7291
 7934SOL    HW235436   1.619   2.901   8.785 -0.1337  0.0168  0.0491
 7935SOL     OW35437   4.425   0.059   4.653  0.3743  0.3799 -0.9444
 7935SOL    HW135438   4.464   0.141   4.685 -4.6774  1.6462  1.9708
 7935SOL    HW235439   4.479   0.006   4.712  0.2611  2.7217  1.3067
 7936SOL     OW35440   1.153   2.199   5.580  0.2763 -0.2993  0.2186
 7936SOL    HW135441   1.100   2.259   5.633 -1.9268  1.3103 -3.7732
 7936SOL    HW235442   1.231   2.253   5.570 -0.1254  0.2867  0.2689
 7937SOL     OW35443   2.428   3.070   0.311 -0.5536 -0.0488 -0.2070
 7937SOL    HW135444   2.496   3.031   0.256  1.4684  0.4205  1.9764
 7937SOL    HW235445   2.366   2.998   0.297 -0.6225 -0.2005  0.9338
 7938SOL     OW35446   1.811   2.223   2.214 -0.7358 -0.2113  0.1615
 7938SOL    HW135447   1.737   2.283   2.204  1.7614  2.7847 -0.6018
 7938SOL    HW235448   1.872   2.256   2.147 -0.7224  0.1213  0.3352
 7939SOL     OW35449   4.547   2.112   4.320  0.7896 -0.1050  0.3860
 7939SOL    HW135450   4.452   2.106   4.310  0.6254 -0.3836  2.0210
 7939SOL    HW235451   4.557   2.082   4.410  0.7819  2.1712  1.1614
 7940SOL     OW35452   3.252   3.964   9.163 -0.3589  0.2572 -0.0080
 7940SOL    HW135453   3.160   3.989   9.169 -0.0592  0.9101  1.7582
 7940SOL    HW235454   3.256   3.906   9.239  0.4630 -0.4167 -0.5579
 7941SOL     OW35455   2.879   3.371   8.973 -0.4117  0.1847  0.2154
 7941SOL    HW135456   2.973   3.369   8.960 -0.5076  1.7792 -0.7614
 7941SOL    HW235457   2.860   3.465   8.964 -0.7205  0.1670  0.6795
 7942SOL     OW35458   4.086   2.226   0.574  0.1917 -0.0790 -0.0690
 7942SOL    HW135459   4.170   2.186   0.548 -0.3435 -0.7403 -0.7718
 7942SOL    HW235460   4.111   2.262   0.659 -0.7236 -0.5013  0.3680
 7943SOL     OW35461   3.023   3.812  13.811  0.1121  0.0920  0.0252
 7943SOL    HW135462   3.045   3.785  13.722 -0.5163 -1.6531  0.3870
 7943SOL    HW235463   3.105   3.854  13.835  0.4348 -1.3301  1.4211
 7944SOL     OW35464   0.789   2.043   5.466  0.2124 -0.2206 -0.7664
 7944SOL    HW135465   0.695   2.054   5.476  0.1400 -1.8758  0.1902
 7944SOL    HW235466   0.810   1.958   5.427  0.8436  0.1983 -1.3453
 7945SOL     OW35467   3.581   1.120   3.574  0.0991 -0.3382  0.3706
 7945SOL    HW135468   3.589   1.057   3.502  0.9532 -0.6457  0.7376
 7945SOL    HW235469   3.647   1.084   3.633  0.1275 -1.7474 -0.5153
 7946SOL     OW35470   2.119   0.432   0.579 -0.6644 -0.2676 -0.0874
 7946SOL    HW135471   2.090   0.508   0.529  1.2714 -0.3146 -1.2781
 7946SOL    HW235472   2.047   0.370   0.565 -1.4583  0.1019  2.3329
 7947SOL     OW35473   2.005   4.309  16.662 -0.1130 -0.3946  0.1256
 7947SOL    HW135474   1.952   4.289  16.585  0.7854  0.4915 -0.7180
 7947SOL    HW235475   1.998   4.404  16.658 -0.8163 -0.4917 -0.6795
 7948SOL     OW35476   3.957   4.558   9.773  0.3322 -0.5185  0.2587
 7948SOL    HW135477   3.892   4.605   9.825 -0.2541 -3.0216  1.7962
 7948SOL    HW235478   3.914   4.541   9.689  1.8926 -0.8425 -0.4736
 7949SOL     OW35479   2.969   0.632   2.638  0.5844  0.7256 -0.1469
 7949SOL    HW135480   2.916   0.697   2.685 -2.6775 -0.6920 -1.8900
 7949SOL    HW235481   2.901   0.619   2.572  0.0730 -2.7627  1.1141
 7950SOL     OW35482   2.326   1.519   4.393 -0.1460 -0.0417 -0.2179
 7950SOL    HW135483   2.239   1.555   4.381 -0.2072 -0.4612 -1.0727
 7950SOL    HW235484   2.356   1.509   4.302  1.2352  0.8048  0.1488
 7951SOL     OW35485   3.277   0.844   9.636 -0.1502 -0.0554 -0.0702
 7951SOL    HW135486   3.356   0.828   9.689  1.2273  1.7472 -1.5628
 7951SOL    HW235487   3.317   0.833   9.550  0.8897 -0.3641  0.4504
 7952SOL     OW35488   0.526   0.638   4.361 -0.4140  0.9413  0.2129
 7952SOL    HW135489   0.615   0.668   4.345 -0.5187  0.9881 -0.2821
 7952SOL    HW235490   0.510   0.583   4.284  1.5662 -1.4173  1.4752
 7953SOL     OW35491   4.350   1.525   0.642 -0.2855 -0.0802  0.0736
 7953SOL    HW135492   4.266   1.517   0.685  0.6842 -0.8202  1.8201
 7953SOL    HW235493   4.330   1.546   0.550 -0.7309 -0.1411  0.1566
 7954SOL     OW35494   3.699   4.690  16.532 -0.2593  0.1932  0.2162
 7954SOL    HW135495   3.645   0.028  16.559  0.2783  0.3491  0.8646
 7954SOL    HW235496   3.625   4.635  16.507 -0.7855  0.7734  0.4904
 7955SOL     OW35497   0.354   2.515  10.723 -0.1884  0.0275  0.2358
 7955SOL    HW135498   0.301   2.593  10.737  0.8161  1.1192 -2.0055
 7955SOL    HW235499   0.439   2.558  10.731 -1.1397  1.5817  2.0785
 7956SOL     OW35500   1.286   4.518   8.865 -0.3814 -0.1457 -0.0039
 7956SOL    HW135501   1.319   4.550   8.950 -1.3454 -1.5100  0.8809
 7956SOL    HW235502   1.230   4.445   8.889 -1.0333 -0.3003 -2.0166
 7957SOL     OW35503   3.989   3.490   1.714 -0.3829  0.2729 -0.2630
 7957SOL    HW135504   4.083   3.475   1.725 -0.2670  0.0079 -1.5333
 7957SOL    HW235505   3.989   3.586   1.713  0.4612  0.2916  1.3585
 7958SOL     OW35506   2.347   3.925   9.304  0.1461  0.1750  0.0480
 7958SOL    HW135507   2.257   3.924   9.337  1.0424  2.1352  2.5108
 7958SOL    HW235508   2.360   3.832   9.286 -2.5419 -0.2292  0.2381
 7959SOL     OW35509   3.486   0.804  13.013  0.1765  0.2223  0.0783
 7959SOL    HW135510   3.416   0.745  12.987  0.5238 -0.4653  0.6754
 7959SOL    HW235511   3.472   0.797  13.108  0.6965  3.6414  0.4122
 7960SOL     OW35512   1.081   2.659   6.953  0.2082  0.0417  0.1495
 7960SOL    HW135513   0.996   2.616   6.939  0.9817 -0.8299 -1.8559
 7960SOL    HW235514   1.084   2.666   7.048 -1.3435 -0.4697  0.2499
 7961SOL     OW35515   3.811   0.542   2.418 -0.2374 -0.0751  0.0910
 7961SOL    HW135516   3.724   0.530   2.380 -1.0045  0.8009  1.5962
 7961SOL    HW235517   3.847   0.606   2.357  0.8840  0.9255  1.8079
 7962SOL     OW35518   1.357   1.325  16.858 -0.1178 -0.6624  0.2023
 7962SOL    HW135519   1.424   1.264  16.890  1.0174  0.4657 -0.0434
 7962SOL    HW235520   1.404   1.398  16.819  0.1519 -1.4783 -0.9963
 7963SOL     OW35521   0.311   2.786   4.684  0.1441 -0.0414 -0.3321
 7963SOL    HW135522   0.337   2.713   4.628 -0.5432 -0.1616 -0.4891
 7963SOL    HW235523   0.345   2.766   4.771  0.0522 -0.2344 -0.3409
 7964SOL     OW35524   3.317   0.610   5.367  0.7581  0.0188 -0.6103
 7964SOL    HW135525   3.312   0.706   5.371  0.1420  0.0360 -1.7039
 7964SOL    HW235526   3.331   0.589   5.459  0.8091 -0.5233 -0.7438
 7965SOL     OW35527   3.202   2.759   3.427  0.8610  0.1800 -0.1270
 7965SOL    HW135528   3.153   2.841   3.436  0.1055 -0.4253  1.2566
 7965SOL    HW235529   3.180   2.733   3.338 -2.7145  1.7283  0.2873
 7966SOL     OW35530   3.780   2.641   7.441 -0.3867 -0.5966 -0.2535
 7966SOL    HW135531   3.806   2.697   7.515 -2.1035  0.1339 -0.2034
 7966SOL    HW235532   3.708   2.585   7.470  0.3628 -0.0692  2.7100
 7967SOL     OW35533   3.764   0.285   4.348 -0.3232 -0.0236 -0.6002
 7967SOL    HW135534   3.743   0.310   4.438 -3.0512 -0.3481 -1.1431
 7967SOL    HW235535   3.858   0.301   4.358 -0.7042  0.7933  1.6705
 7968SOL     OW35536   3.974   4.548   2.987  0.0164 -0.4265  0.1409
 7968SOL    HW135537   3.975   4.453   2.973 -1.2295 -0.6487  1.5146
 7968SOL    HW235538   3.981   4.553   3.082  0.4586  0.8774  0.0368
 7969SOL     OW35539   3.914   3.828   8.968 -0.1090 -0.1404 -0.4297
 7969SOL    HW135540   4.009   3.838   8.971  0.0360 -2.5137  2.8000
 7969SOL    HW235541   3.893   3.822   8.875 -0.9892  0.8642 -0.2963
 7970SOL     OW35542   4.160   0.487   9.793 -0.1204 -0.1680 -0.1662
 7970SOL    HW135543   4.079   0.464   9.839 -0.4390 -0.3441 -0.8010
 7970SOL    HW235544   4.180   0.401   9.756  1.7809 -0.7187  2.1621
 7971SOL     OW35545   2.410   0.059   7.765 -0.0578 -0.3274  0.0604
 7971SOL    HW135546   2.373   0.028   7.849  1.4147 -0.0384  0.8104
 7971SOL    HW235547   2.337   0.044   7.705  0.6515 -0.6547 -0.7167
 7972SOL     OW35548   3.512   3.524  11.326  0.2608 -0.7883 -0.1404
 7972SOL    HW135549   3.545   3.552  11.412 -0.1736 -1.3052  0.1968
 7972SOL    HW235550   3.488   3.613  11.300  0.6838 -0.3803  0.8596
 7973SOL     OW35551   2.835   2.734   2.921  0.5290 -0.3074 -0.2140
 7973SOL    HW135552   2.829   2.733   3.017  1.1886 -0.2067 -0.1735
 7973SOL    HW235553   2.807   2.825   2.910 -0.6633 -0.5550  0.7893
 7974SOL     OW35554   1.893   1.883   5.214  0.2129 -0.2706  0.7154
 7974SOL    HW135555   1.909   1.892   5.308 -0.8579  1.8490  0.6936
 7974SOL    HW235556   1.847   1.801   5.199  1.5500 -0.8856 -0.0921
 7975SOL     OW35557   1.849   3.317  15.440 -0.2770  0.0104 -0.0952
 7975SOL    HW135558   1.765   3.358  15.457 -0.7736 -0.3628 -1.6169
 7975SOL    HW235559   1.827   3.237  15.488 -4.7297  1.1891 -0.2571
 7976SOL     OW35560   3.791   2.284  10.516 -0.0831 -0.2791  0.4311
 7976SOL    HW135561   3.884   2.306  10.512 -0.0878 -0.1057  1.1024
 7976SOL    HW235562   3.813   2.231  10.593  0.4479 -0.8330 -0.0987
 7977SOL     OW35563   2.824   3.238   6.554 -0.2138  0.0682  0.0581
 7977SOL    HW135564   2.917   3.216   6.549 -0.4615 -0.9486 -0.0399
 7977SOL    HW235565   2.790   3.148   6.550  0.3964 -0.1192 -0.8484
 7978SOL     OW35566   4.432   1.927   8.018 -0.0990  0.8082  0.4238
 7978SOL    HW135567   4.506   1.962   7.968 -0.5975 -0.2673 -1.0348
 7978SOL    HW235568   4.450   1.834   8.004  1.4019  1.2712 -0.7165
 7979SOL     OW35569   1.327   0.720   9.590 -0.1464 -0.0254  0.1597
 7979SOL    HW135570   1.313   0.666   9.668 -1.8768 -2.1068 -1.5820
 7979SOL    HW235571   1.237   0.701   9.561 -0.5912 -0.2903  1.7154
 7980SOL     OW35572   1.900   2.207   7.017  0.2800 -0.1194 -0.0473
 7980SOL    HW135573   1.810   2.200   7.048  0.2716  0.7106  0.1262
 7980SOL    HW235574   1.884   2.287   6.966 -0.7709 -0.6296 -0.5217
 7981SOL     OW35575   0.159   4.266   9.990  0.2085 -0.0052 -0.8325
 7981SOL    HW135576   0.251   4.254  10.016 -0.3887 -1.6001  0.5583
 7981SOL    HW235577   0.130   4.176   9.976 -1.8938  0.9369 -2.4631
 7982SOL     OW35578   0.990   2.663   3.926 -0.2122 -0.0892 -0.5647
 7982SOL    HW135579   0.972   2.756   3.939 -2.3395 -0.6531  0.4850
 7982SOL    HW235580   1.045   2.654   4.004 -1.5520  1.0276  0.5068
 7983SOL     OW35581   1.115   1.507   9.321  0.1693 -0.5464 -0.3398
 7983SOL    HW135582   1.053   1.452   9.370 -1.0705  0.2679 -0.9991
 7983SOL    HW235583   1.074   1.593   9.318 -0.1229 -0.7348 -1.6164
 7984SOL     OW35584   1.284   0.181   4.938  0.1927  0.1839  0.2990
 7984SOL    HW135585   1.349   0.113   4.953 -0.3364 -0.5313 -0.7102
 7984SOL    HW235586   1.344   0.234   4.886  1.8295 -1.0383  0.9657
 7985SOL     OW35587   1.485   1.765   4.799 -0.4447  0.2214  0.2326
 7985SOL    HW135588   1.398   1.739   4.770 -0.6886  0.1911  0.9950
 7985SOL    HW235589   1.465   1.858   4.807  0.0674  0.1502  2.4307
 7986SOL     OW35590   0.887   1.750   5.348 -0.0926 -0.3272 -0.0568
 7986SOL    HW135591   0.922   1.706   5.426  1.9524 -1.6556 -1.7070
 7986SOL    HW235592   0.807   1.699   5.337  1.0655 -2.0311 -0.7450
 7987SOL     OW35593   4.242   3.662  10.357 -0.2428  0.4018  0.1042
 7987SOL    HW135594   4.296   3.585  10.376 -2.2230 -0.9277  0.3474
 7987SOL    HW235595   4.272   3.712  10.281 -3.4184  2.3806  0.1854
 7988SOL     OW35596   3.864   1.092   7.641  0.5592  0.2718 -0.0437
 7988SOL    HW135597   3.778   1.050   7.641  1.4265 -1.5216 -1.4743
 7988SOL    HW235598   3.922   1.016   7.636 -0.4939 -0.4773 -0.7971
 7989SOL     OW35599   3.037   0.928   9.421 -0.1589  0.2836 -0.2860
 7989SOL    HW135600   3.093   0.851   9.434 -1.9168 -1.0604 -0.7325
 7989SOL    HW235601   3.102   0.989   9.387  0.4900 -0.5730 -0.5790
 7990SOL     OW35602   1.813   1.205   7.971 -0.8317 -0.1439  0.2626
 7990SOL    HW135603   1.729   1.209   8.017 -0.2917  0.8720  1.1538
 7990SOL    HW235604   1.837   1.297   7.968  0.9991 -0.6011  0.8976
 7991SOL     OW35605   3.134   3.373   9.667 -0.7347 -0.0538  0.4604
 7991SOL    HW135606   3.094   3.459   9.655 -2.3286 -0.8541 -0.0047
 7991SOL    HW235607   3.086   3.329   9.596  0.3318 -2.1739  1.0494
 7992SOL     OW35608   3.262   0.533   1.791 -0.1859  0.1605 -0.4276
 7992SOL    HW135609   3.312   0.461   1.750 -0.7353 -1.2234  1.3327
 7992SOL    HW235610   3.300   0.524   1.879  1.4628  0.9067 -1.0562
 7993SOL     OW35611   1.457   1.898   1.170 -0.0876  0.0667  0.0047
 7993SOL    HW135612   1.434   1.911   1.262  0.8264  2.1800 -0.0853
 7993SOL    HW235613   1.374   1.897   1.121  0.1840  0.7146 -0.4689
 7994SOL     OW35614   0.172   3.817   0.034 -0.6839 -0.0811 -0.2634
 7994SOL    HW135615   0.206   3.763   0.105 -0.0482 -0.3003 -0.7300
 7994SOL    HW235616   0.250   3.844  17.729 -2.3655 -2.0808 -4.2078
 7995SOL     OW35617   0.160   0.186   3.011 -0.0637  0.2144 -0.0234
 7995SOL    HW135618   0.207   0.269   3.012  2.4719 -1.2484  1.7732
 7995SOL    HW235619   0.226   0.118   3.020  0.7777  0.6128 -3.0486
 7996SOL     OW35620   3.297   4.139   5.930 -0.0848  0.4543  0.0934
 7996SOL    HW135621   3.332   4.131   6.019 -2.3360  1.2373  1.0379
 7996SOL    HW235622   3.225   4.076   5.934  0.6663 -0.5923 -2.4641
 7997SOL     OW35623   0.672   2.699   1.645 -0.7418  0.4774 -0.0930
 7997SOL    HW135624   0.715   2.706   1.730  1.8591 -0.7234 -1.3300
 7997SOL    HW235625   0.686   2.606   1.630 -1.3464  0.3528  0.1173
 7998SOL     OW35626   3.418   0.343   7.022  0.6435  0.9706 -0.3998
 7998SOL    HW135627   3.332   0.384   7.029  0.1924  0.2991 -2.0617
 7998SOL    HW235628   3.456   0.352   7.109 -0.0124  0.7709 -0.0945
 7999SOL     OW35629   2.927   3.367   8.091 -0.1870  0.3364  0.5664
 7999SOL    HW135630   2.889   3.283   8.117  0.7967 -0.0220  0.8536
 7999SOL    HW235631   2.892   3.378   8.003  1.8851  0.8442 -0.1908
 8000SOL     OW35632   2.173   2.151  11.662  0.5600  0.0598  0.0198
 8000SOL    HW135633   2.237   2.183  11.726  0.0583  0.1025  0.5066
 8000SOL    HW235634   2.166   2.222  11.598 -0.0775  1.7735  1.9935
 8001SOL     OW35635   0.827   2.444   2.311 -0.0243  0.6020 -0.0478
 8001SOL    HW135636   0.857   2.444   2.220  1.0114 -0.5804  0.2917
 8001SOL    HW235637   0.898   2.396   2.354  0.0546 -0.5782 -1.5192
 8002SOL     OW35638   0.458   2.480   2.372  0.7418 -0.3752  0.1145
 8002SOL    HW135639   0.371   2.456   2.342  1.8611 -1.9476 -1.8832
 8002SOL    HW235640   0.511   2.436   2.304 -0.3363  0.1595 -1.0726
 8003SOL     OW35641   3.866   3.742   9.208 -0.3186 -0.1030  0.5258
 8003SOL    HW135642   3.870   3.647   9.200 -0.2752 -0.1250  0.8094
 8003SOL    HW235643   3.876   3.771   9.118  0.9613  0.2971  0.7956
 8004SOL     OW35644   4.336   3.144   0.916 -0.0428 -0.1844 -0.4363
 8004SOL    HW135645   4.387   3.211   0.870 -0.5847 -1.7422 -3.3591
 8004SOL    HW235646   4.260   3.197   0.937  1.2713  0.6812  2.0787
 8005SOL     OW35647   2.388   2.964   2.034  0.2165  0.0082  0.0705
 8005SOL    HW135648   2.296   2.951   2.011  0.6626  1.5018 -2.6624
 8005SOL    HW235649   2.433   2.957   1.949  0.9613 -0.8731  0.5313
 8006SOL     OW35650   3.287   1.787   9.835  0.3969  0.7185  0.5730
 8006SOL    HW135651   3.213   1.770   9.777  1.1707 -0.7393 -0.0050
 8006SOL    HW235652   3.250   1.859   9.886 -0.4544  0.6108  0.1174
 8007SOL     OW35653   1.224   0.089   3.351 -0.8004  0.3639 -0.0837
 8007SOL    HW135654   1.253   0.033   3.279 -1.5660  1.0201 -0.9062
 8007SOL    HW235655   1.181   0.156   3.297 -0.2010  1.6724  1.0576
 8008SOL     OW35656   1.271   3.446  14.106  0.1670  0.2678 -0.0019
 8008SOL    HW135657   1.354   3.403  14.086 -1.3416 -2.2603 -0.8128
 8008SOL    HW235658   1.232   3.385  14.169 -0.1063  1.4691  1.0012
 8009SOL     OW35659   4.466   4.413   1.379  0.1898 -0.4222  0.3853
 8009SOL    HW135660   4.499   4.396   1.467 -0.0386 -0.8469  0.3869
 8009SOL    HW235661   4.378   4.376   1.387  0.0541  0.3006  2.3727
 8010SOL     OW35662   0.556   0.114   4.092 -0.3600 -0.1972  0.3575
 8010SOL    HW135663   0.637   0.085   4.049 -1.5086 -1.3217 -1.0165
 8010SOL    HW235664   0.554   0.074   4.179 -0.4679 -1.3370 -0.1658
 8011SOL     OW35665   2.672   2.764   3.662 -0.5262 -0.0688 -0.2138
 8011SOL    HW135666   2.637   2.778   3.750 -0.9144  2.1523 -0.7328
 8011SOL    HW235667   2.652   2.670   3.654 -0.2794 -0.2479  1.3715
 8012SOL     OW35668   0.257   1.933   6.492 -0.0275  0.1948  0.5517
 8012SOL    HW135669   0.320   1.860   6.488 -0.6558 -0.1946 -2.2005
 8012SOL    HW235670   0.256   1.951   6.398  1.0165 -1.7320  0.1582
 8013SOL     OW35671   4.438   3.328  12.887 -0.0458  0.0718 -0.1275
 8013SOL    HW135672   4.451   3.381  12.808  0.2131  0.4778  0.1820
 8013SOL    HW235673   4.348   3.296  12.884  0.6002 -2.0589  3.1197
 8014SOL     OW35674   0.836   3.666   7.778  0.1076  0.0220  0.3911
 8014SOL    HW135675   0.922   3.672   7.821  0.5419 -1.6850 -0.2516
 8014SOL    HW235676   0.848   3.608   7.703 -0.0900 -1.0235  1.1875
 8015SOL     OW35677   1.972   4.229   4.773  0.1861 -0.0144  0.1060
 8015SOL    HW135678   1.895   4.212   4.719  1.0803 -1.4088 -0.7235
 8015SOL    HW235679   1.950   4.181   4.853 -1.4561  1.4352  0.5251
 8016SOL     OW35680   2.522   4.192   8.302 -0.4378 -0.3395  0.5999
 8016SOL    HW135681   2.427   4.207   8.303 -0.4948 -0.7360  1.3553
 8016SOL    HW235682   2.532   4.187   8.398  1.5483 -1.6985  0.3136
 8017SOL     OW35683   3.880   3.515   0.256 -0.3452 -0.0893 -0.0044
 8017SOL    HW135684   3.797   3.556   0.233  0.8963  2.0333 -0.6753
 8017SOL    HW235685   3.884   3.552   0.344  0.8609  0.7433 -0.4118
 8018SOL     OW35686   1.327   1.238   2.236  0.0994 -0.0130  0.4195
 8018SOL    HW135687   1.420   1.255   2.221  0.7644 -1.4422  2.9370
 8018SOL    HW235688   1.334   1.144   2.219 -1.9779  0.0340 -0.7353
 8019SOL     OW35689   3.241   2.823   0.520  0.0103 -0.3954  0.1752
 8019SOL    HW135690   3.320   2.771   0.534  1.2139  1.9665  2.2652
 8019SOL    HW235691   3.269   2.911   0.545  1.1602  0.2934 -3.5635
 8020SOL     OW35692   3.081   1.725   8.269 -0.6108 -0.4237 -0.3067
 8020SOL    HW135693   3.122   1.638   8.274  2.1772  0.9204  0.1259
 8020SOL    HW235694   3.053   1.725   8.178 -1.0179  0.0630 -0.1800
 8021SOL     OW35695   0.503   2.752   1.024 -0.0490  0.5389  0.4417
 8021SOL    HW135696   0.526   2.833   0.977 -1.3122 -0.4352 -1.8801
 8021SOL    HW235697   0.432   2.783   1.080  0.4784  1.9252  0.3406
 8022SOL     OW35698   3.782   2.586   3.665 -0.4004 -0.3317 -0.2353
 8022SOL    HW135699   3.858   2.642   3.652 -0.3885 -0.9412 -2.8584
 8022SOL    HW235700   3.801   2.536   3.586  1.5541  0.5284 -0.2981
 8023SOL     OW35701   1.264   1.440   5.022  1.1622 -0.3241  0.3509
 8023SOL    HW135702   1.338   1.415   4.966 -0.0325 -0.5093 -1.1502
 8023SOL    HW235703   1.321   1.477   5.089  0.2884  1.5082  0.1025
 8024SOL     OW35704   0.270   1.634   1.876 -0.4685  0.0712 -0.3131
 8024SOL    HW135705   0.180   1.626   1.846 -0.5337 -0.5005  0.0314
 8024SOL    HW235706   0.258   1.580   1.954  0.6217  1.9211  1.1611
 8025SOL     OW35707   3.669   0.293   8.762 -0.2015 -0.1321  0.0047
 8025SOL    HW135708   3.603   0.252   8.818 -0.3603 -0.9621 -0.7775
 8025SOL    HW235709   3.741   0.236   8.785 -0.1978 -1.1699 -2.5384
 8026SOL     OW35710   1.251   1.201   4.785  0.0582 -0.0488  0.0255
 8026SOL    HW135711   1.251   1.295   4.766 -0.0337 -0.4120 -1.7333
 8026SOL    HW235712   1.332   1.186   4.833  0.4786  0.6801 -0.4561
 8027SOL     OW35713   0.386   1.960  14.145 -0.3776 -0.2908  0.1959
 8027SOL    HW135714   0.362   2.018  14.073  1.0201 -0.4789 -0.4330
 8027SOL    HW235715   0.432   2.023  14.202  0.5438  0.1437 -1.0340
 8028SOL     OW35716   1.510   3.997   3.706 -0.0036 -0.5182 -0.2982
 8028SOL    HW135717   1.584   4.055   3.727 -0.0172 -0.2314 -1.0546
 8028SOL    HW235718   1.488   3.960   3.792  0.9836 -1.2023 -0.3369
 8029SOL     OW35719   1.733   2.890   3.200  0.2843  0.0876  0.1461
 8029SOL    HW135720   1.737   2.982   3.225 -0.7789  0.9728 -2.9514
 8029SOL    HW235721   1.643   2.881   3.169  0.1586 -0.4365  0.6587
 8030SOL     OW35722   2.065   2.036  16.125 -0.2159 -0.9845 -0.1605
 8030SOL    HW135723   2.001   2.050  16.195  1.4848 -0.8203  1.3764
 8030SOL    HW235724   2.128   2.107  16.142  1.2272 -2.0412 -1.0997
 8031SOL     OW35725   0.410   3.267  17.585 -0.6358  0.1156  0.1653
 8031SOL    HW135726   0.497   3.294  17.556 -0.8306 -0.3524 -0.8418
 8031SOL    HW235727   0.426   3.173  17.598  0.0133  0.4322  1.7331
 8032SOL     OW35728   2.499   1.434   6.543  0.3763  0.2068  0.6345
 8032SOL    HW135729   2.480   1.369   6.610 -0.6389 -1.0637 -0.8864
 8032SOL    HW235730   2.420   1.487   6.558  0.5943  1.0236 -1.0708
 8033SOL     OW35731   0.157   1.574  10.040 -0.3701  0.3522 -0.2597
 8033SOL    HW135732   0.077   1.528  10.018  0.4917 -1.3028  0.0368
 8033SOL    HW235733   0.175   1.565  10.134  0.8671 -0.3099 -0.5535
 8034SOL     OW35734   1.786   2.999   2.793 -0.7470  0.3398 -0.2866
 8034SOL    HW135735   1.808   2.950   2.872  1.3541  0.7934 -0.5795
 8034SOL    HW235736   1.868   2.983   2.745  0.7279  1.1985  1.9373
 8035SOL     OW35737   2.734   1.926   8.834  0.3503  0.1479 -0.2378
 8035SOL    HW135738   2.710   1.980   8.909 -0.5791  0.7426 -0.9604
 8035SOL    HW235739   2.648   1.898   8.805 -0.8961  0.8497  2.8026
 8036SOL     OW35740   2.038   2.595   7.991 -0.2211 -0.3463  0.0703
 8036SOL    HW135741   1.991   2.677   7.970  1.4404  1.1282  2.0915
 8036SOL    HW235742   2.094   2.572   7.917 -0.1326 -0.9894  0.3413
 8037SOL     OW35743   0.456   2.614   3.930 -0.0608 -0.2028 -0.1648
 8037SOL    HW135744   0.510   2.632   3.853  0.7700  0.2160  0.5041
 8037SOL    HW235745   0.503   2.539   3.966  2.4342  0.9067 -1.0409
 8038SOL     OW35746   0.892   1.018   8.295 -0.6366 -0.3209 -0.4976
 8038SOL    HW135747   0.906   0.960   8.220  0.9382  0.0960 -0.5391
 8038SOL    HW235748   0.838   1.091   8.265 -0.4072  0.3737  0.7706
 8039SOL     OW35749   3.311   0.590  14.963 -0.2706  0.1609 -0.1019
 8039SOL    HW135750   3.385   0.631  14.918  0.3135  0.2288  0.9267
 8039SOL    HW235751   3.356   0.506  14.973  0.8892  0.6273 -1.3476
 8040SOL     OW35752   0.867   4.233   0.277 -0.1199 -0.0443  0.0649
 8040SOL    HW135753   0.917   4.236   0.359  0.7680 -0.0313 -0.4749
 8040SOL    HW235754   0.797   4.296   0.295 -2.3197 -2.5779  0.3470
 8041SOL     OW35755   3.857   0.457   7.628 -0.1588  0.5230  0.4478
 8041SOL    HW135756   3.793   0.401   7.672 -0.5775  1.2471  0.7584
 8041SOL    HW235757   3.902   0.499   7.701  1.4369  0.4200 -0.4817
 8042SOL     OW35758   3.209   2.310   0.577  0.2129  0.2293 -0.1545
 8042SOL    HW135759   3.155   2.319   0.656 -0.9115  3.3841 -1.2901
 8042SOL    HW235760   3.172   2.236   0.527 -1.9550  2.0387 -1.2171
 8043SOL     OW35761   1.016   4.075   6.134 -0.1571  0.3755 -0.8489
 8043SOL    HW135762   0.928   4.113   6.131  0.0632  1.0399  1.0563
 8043SOL    HW235763   1.065   4.156   6.117  0.6722  0.5068  2.0462
 8044SOL     OW35764   1.458   3.813   5.961 -0.4576 -0.0095  0.2801
 8044SOL    HW135765   1.437   3.736   6.013  1.3613  0.6429  1.9635
 8044SOL    HW235766   1.551   3.814   5.981 -0.3225  0.7656 -0.3927
 8045SOL     OW35767   3.965   2.019   6.476 -0.0625 -0.3150  0.1161
 8045SOL    HW135768   3.983   2.046   6.386 -1.4887  0.5037  0.0668
 8045SOL    HW235769   4.040   1.961   6.488  0.5964  0.1880 -1.6099
 8046SOL     OW35770   3.937   2.739   5.027  0.1116 -0.0159 -0.5851
 8046SOL    HW135771   3.961   2.669   5.088 -0.3643 -0.9872 -1.5211
 8046SOL    HW235772   4.018   2.791   5.027 -1.6702  2.7438  2.0006
 8047SOL     OW35773   3.738   3.375  11.669  0.2639 -0.5441  0.3778
 8047SOL    HW135774   3.721   3.354  11.761 -1.2991 -0.4803  0.1080
 8047SOL    HW235775   3.763   3.466  11.688 -1.1502  0.4296 -2.4350
 8048SOL     OW35776   4.553   4.381   6.794 -0.4881  0.3323  0.2330
 8048SOL    HW135777   4.601   4.357   6.715  0.5682  0.3606  0.8590
 8048SOL    HW235778   4.576   4.313   6.857 -0.3628 -0.2829 -0.4728
 8049SOL     OW35779   1.078   0.902   6.376 -0.2374 -0.0279 -0.0174
 8049SOL    HW135780   1.086   0.913   6.281 -1.1590 -0.7215 -0.1673
 8049SOL    HW235781   1.167   0.870   6.394 -0.6645 -0.0479  2.0480
 8050SOL     OW35782   0.517   3.609   6.519  0.3965  0.1640  0.0151
 8050SOL    HW135783   0.424   3.614   6.540  0.3363  2.4304 -0.7954
 8050SOL    HW235784   0.527   3.692   6.473 -0.3746 -0.8235 -1.9177
 8051SOL     OW35785   4.594   1.604   0.741  0.1535  0.5802  0.5485
 8051SOL    HW135786   4.563   1.650   0.819  0.8393 -0.8984  1.7031
 8051SOL    HW235787   4.506   1.588   0.709  1.1558  0.4555 -2.1489
 8052SOL     OW35788   2.859   4.558   5.031 -0.0540 -0.0090 -0.3603
 8052SOL    HW135789   2.778   4.596   4.997  0.6745  2.2694  0.4745
 8052SOL    HW235790   2.819   4.499   5.095 -0.9368 -0.6105 -1.4743
 8053SOL     OW35791   3.787   1.519   7.646  0.0659 -0.6142  0.4018
 8053SOL    HW135792   3.815   1.590   7.703 -2.5067  2.5101 -2.2387
 8053SOL    HW235793   3.856   1.453   7.647  0.0912 -0.5540  2.4899
 8054SOL     OW35794   0.810   4.494   7.547  0.3182  0.5807 -0.1607
 8054SOL    HW135795   0.823   4.589   7.545  1.4293  0.3756 -3.6699
 8054SOL    HW235796   0.738   4.485   7.609  0.9963 -1.4428  0.3317
 8055SOL     OW35797   2.745   3.873   7.735  0.0029  0.4344 -0.0459
 8055SOL    HW135798   2.707   3.949   7.780  0.0441  1.1062 -1.1275
 8055SOL    HW235799   2.714   3.893   7.647 -0.1828 -0.4587 -0.1753
 8056SOL     OW35800   3.882   4.510   4.184 -0.2400 -0.1328  0.1427
 8056SOL    HW135801   3.904   4.580   4.123  1.1805  2.6772  3.8912
 8056SOL    HW235802   3.823   4.549   4.248  0.2023 -0.6672  0.8743
 8057SOL     OW35803   1.688   0.880  16.488 -0.4154  0.3198  0.3876
 8057SOL    HW135804   1.689   0.799  16.537 -0.3121 -1.5177 -2.6537
 8057SOL    HW235805   1.701   0.859  16.395 -2.0918 -0.0974  0.2424
 8058SOL     OW35806   4.323   0.199   2.612 -0.3284 -0.0109  0.2875
 8058SOL    HW135807   4.330   0.105   2.629  0.3168  0.2006  1.1310
 8058SOL    HW235808   4.332   0.231   2.701  1.3111  1.5288 -0.4413
 8059SOL     OW35809   0.420   3.644   0.036 -0.4623 -0.1206 -0.1368
 8059SOL    HW135810   0.513   3.644   0.059 -0.4872  0.4389 -0.0496
 8059SOL    HW235811   0.409   3.734   0.007  1.2919 -0.0951 -0.7652
 8060SOL     OW35812   4.529   2.783   6.234 -0.0288  0.1359  0.5983
 8060SOL    HW135813   4.541   2.877   6.248  1.5087 -0.0759  0.7160
 8060SOL    HW235814   4.442   2.786   6.195  1.0834 -0.6977 -1.9605
 8061SOL     OW35815   1.450   1.999   5.750 -0.8250 -0.1930  0.7512
 8061SOL    HW135816   1.461   2.086   5.788  4.6429  0.1856 -1.7289
 8061SOL    HW235817   1.541   1.990   5.722 -0.8943  0.0043  0.4607
 8062SOL     OW35818   2.246   2.111   5.502  0.3296 -0.0440 -0.2328
 8062SOL    HW135819   2.226   2.116   5.595  1.9155  2.0546 -0.0017
 8062SOL    HW235820   2.282   2.199   5.492  0.7701 -0.3734 -1.6741
 8063SOL     OW35821   3.426   2.538   7.153  0.2130  0.1577  0.0336
 8063SOL    HW135822   3.400   2.474   7.219  0.3017  0.9216  0.8112
 8063SOL    HW235823   3.398   2.480   7.083 -0.3193 -0.9644  1.1831
 8064SOL     OW35824   4.095   1.207  14.422 -0.1128 -0.2673 -0.0845
 8064SOL    HW135825   4.111   1.269  14.351  2.7886  0.4799  1.2008
 8064SOL    HW235826   4.146   1.253  14.490 -0.5893  0.1792 -0.0296
 8065SOL     OW35827   1.915   2.116   7.697 -0.0842 -0.2066 -0.5616
 8065SOL    HW135828   1.945   2.170   7.623  1.3697 -1.9527 -1.2470
 8065SOL    HW235829   1.956   2.031   7.685 -1.9667 -0.9423 -1.7426
 8066SOL     OW35830   2.355   3.822   5.612 -0.4695 -0.8095  0.3069
 8066SOL    HW135831   2.416   3.750   5.596  1.4771  0.8474  0.2359
 8066SOL    HW235832   2.391   3.873   5.684  0.1085 -0.0873 -0.4999
 8067SOL     OW35833   1.407   4.117   0.837 -0.0654 -0.5203  0.2090
 8067SOL    HW135834   1.431   4.172   0.912  0.0242  1.5824 -1.3728
 8067SOL    HW235835   1.476   4.132   0.773 -2.1844 -0.3889 -2.0599
 8068SOL     OW35836   0.705   3.975   8.915 -0.1925 -0.0810  0.5103
 8068SOL    HW135837   0.683   3.989   8.823 -0.7659 -1.0200  0.4949
 8068SOL    HW235838   0.614   3.974   8.944  0.0631  1.3541  1.3600
 8069SOL     OW35839   4.419   1.241   4.966 -0.2398 -0.5425  0.1624
 8069SOL    HW135840   4.442   1.308   5.030 -0.0775  0.5873 -1.0693
 8069SOL    HW235841   4.496   1.210   4.918  0.2380  0.1705  0.4568
 8070SOL     OW35842   3.707   4.366  17.355 -0.1791 -0.2846 -0.4161
 8070SOL    HW135843   3.678   4.455  17.377 -0.6921 -0.3991 -0.6435
 8070SOL    HW235844   3.642   4.339  17.290  0.6912 -2.0899 -0.5455
 8071SOL     OW35845   0.440   2.989   4.173  0.0940  0.3297 -0.6031
 8071SOL    HW135846   0.386   2.996   4.252  0.3342 -1.6183 -0.2803
 8071SOL    HW235847   0.512   3.045   4.203 -0.4215  0.9545 -0.5305
 8072SOL     OW35848   4.286   3.494   6.255  0.0561 -0.5266  0.2778
 8072SOL    HW135849   4.233   3.425   6.294 -1.4861  0.9160  0.7550
 8072SOL    HW235850   4.255   3.566   6.311  0.1356  0.2377 -0.6613
 8073SOL     OW35851   1.008   2.056  13.930  0.5381  0.7478  0.5727
 8073SOL    HW135852   0.965   2.098  13.855 -0.0698  0.2180  0.6151
 8073SOL    HW235853   1.091   2.027  13.892  0.1847  0.6434 -0.1278
 8074SOL     OW35854   1.560   0.652   8.649  0.3814 -0.0093 -0.1675
 8074SOL    HW135855   1.567   0.560   8.673 -0.0329 -0.1732 -0.6565
 8074SOL    HW235856   1.508   0.639   8.569 -1.8615 -1.6677  1.5623
 8075SOL     OW35857   2.778   0.881   3.555  0.0111 -0.4560 -0.1512
 8075SOL    HW135858   2.695   0.929   3.552 -0.5148 -1.3913 -0.5391
 8075SOL    HW235859   2.833   0.949   3.595  0.5842 -0.6289 -0.6459
 8076SOL     OW35860   3.102   0.825   5.622  0.1651  0.0342  0.1928
 8076SOL    HW135861   3.036   0.837   5.691 -0.6868  0.0623 -0.6288
 8076SOL    HW235862   3.126   0.918   5.617  2.1499 -0.5147 -0.2578
 8077SOL     OW35863   1.998   2.052   3.565 -0.3181 -0.1287  0.7010
 8077SOL    HW135864   2.079   2.097   3.543 -1.5334  0.9667 -1.5867
 8077SOL    HW235865   1.935   2.121   3.542  0.6835 -0.0605 -1.8202
 8078SOL     OW35866   1.053   2.574   2.487 -0.1078 -0.4127  0.2840
 8078SOL    HW135867   1.048   2.588   2.393  0.4209 -1.8934  0.0254
 8078SOL    HW235868   1.018   2.485   2.491 -0.2525 -0.4013 -0.8828
 8079SOL     OW35869   0.802   1.857  10.462  0.4088  0.6101  0.3953
 8079SOL    HW135870   0.841   1.798  10.397 -1.8604 -2.5727  1.8677
 8079SOL    HW235871   0.842   1.940  10.437  0.5976  0.5102  0.3699
 8080SOL     OW35872   1.333   3.997   4.319  0.0016 -0.0477  0.1653
 8080SOL    HW135873   1.316   4.072   4.262 -1.7156  0.7287  1.6998
 8080SOL    HW235874   1.293   4.016   4.404 -1.2569  0.0074 -0.4415
 8081SOL     OW35875   2.201   1.077  11.970 -0.0090 -0.1701 -0.2837
 8081SOL    HW135876   2.262   1.133  11.922  0.5309 -0.7057 -0.2283
 8081SOL    HW235877   2.146   1.049  11.897 -0.3962  1.7183 -0.7110
 8082SOL     OW35878   3.117   1.465   9.692  0.1377  0.2536  0.3125
 8082SOL    HW135879   3.210   1.475   9.708 -0.2690 -0.5874  3.1479
 8082SOL    HW235880   3.110   1.407   9.616 -2.1255  0.2500  0.5131
 8083SOL     OW35881   3.403   4.656   4.542 -0.4969 -0.0564 -0.7521
 8083SOL    HW135882   3.495   4.640   4.563 -0.5042  0.6802 -0.1211
 8083SOL    HW235883   3.390   4.572   4.498  0.3705 -0.5887 -0.0064
 8084SOL     OW35884   3.253   0.887   5.388  0.3407 -0.0532 -0.5338
 8084SOL    HW135885   3.316   0.933   5.443 -0.8023 -1.7168  2.1209
 8084SOL    HW235886   3.200   0.847   5.456 -2.0940  0.8218 -1.9290
 8085SOL     OW35887   4.410   3.725   0.805  0.0013 -0.2107  0.3901
 8085SOL    HW135888   4.489   3.704   0.855  1.0303  3.8632  0.4420
 8085SOL    HW235889   4.356   3.779   0.862 -1.7265 -1.2724 -0.2340
 8086SOL     OW35890   0.273   3.135   3.888  0.0324 -0.0333  0.0466
 8086SOL    HW135891   0.324   3.054   3.885 -1.3299 -0.8952  0.2827
 8086SOL    HW235892   0.188   3.101   3.860  0.9301 -0.7301 -1.8609
 8087SOL     OW35893   2.856   4.034   5.191  0.0842  0.4324  0.0976
 8087SOL    HW135894   2.825   3.990   5.270 -0.2355  2.8219  1.3313
 8087SOL    HW235895   2.938   3.986   5.180  0.5226  1.7256 -2.3210
 8088SOL     OW35896   0.725   4.388  16.702 -0.2424 -0.0218 -0.3735
 8088SOL    HW135897   0.673   4.308  16.716 -1.1072  0.8200  1.3135
 8088SOL    HW235898   0.766   4.362  16.620 -1.8948  1.6921 -1.7399
 8089SOL     OW35899   3.725   0.642   5.914  0.4163 -0.2433 -0.4483
 8089SOL    HW135900   3.793   0.699   5.878  1.1294 -0.7056  0.1804
 8089SOL    HW235901   3.664   0.641   5.840  0.0189  0.3200 -0.1258
 8090SOL     OW35902   4.454   0.882   3.332  0.3009 -0.4078  0.5946
 8090SOL    HW135903   4.441   0.975   3.352  1.5466  0.2867 -1.9107
 8090SOL    HW235904   4.392   0.863   3.262  0.6355 -1.6013  0.6209
 8091SOL     OW35905   1.603   3.446  15.454 -0.1765  0.3157 -0.8723
 8091SOL    HW135906   1.520   3.485  15.482  0.8949  2.7456 -1.1078
 8091SOL    HW235907   1.601   3.464  15.360  1.9284 -0.7823 -1.1167
 8092SOL     OW35908   0.697   2.475  12.002 -0.2496 -0.1565 -0.0664
 8092SOL    HW135909   0.728   2.555  12.043  1.0778 -0.1526 -1.0998
 8092SOL    HW235910   0.784   2.435  12.010 -1.0406 -1.4993  1.8796
 8093SOL     OW35911   0.374   2.801   7.136  0.0622 -0.1611  0.0545
 8093SOL    HW135912   0.438   2.740   7.101 -1.3813 -0.5003 -1.9587
 8093SOL    HW235913   0.357   2.862   7.064 -0.5201  1.1226  1.2622
 8094SOL     OW35914   2.561   4.280  17.416  0.5071 -0.0979  0.0116
 8094SOL    HW135915   2.506   4.319  17.348  0.5154  1.9531  1.1943
 8094SOL    HW235916   2.578   4.349  17.479 -0.9297 -0.5446  0.8955
 8095SOL     OW35917   2.422   1.853   0.059 -0.1050 -0.2236  0.0612
 8095SOL    HW135918   2.517   1.870   0.065 -0.7867  3.3735  1.0313
 8095SOL    HW235919   2.384   1.930   0.016  0.8252  1.2918  1.9279
 8096SOL     OW35920   3.081   3.790   8.182  0.2366  0.3771  0.0453
 8096SOL    HW135921   3.062   3.815   8.273 -0.1994  0.1023  0.0276
 8096SOL    HW235922   3.004   3.736   8.169  0.8167 -0.2685 -0.7271
 8097SOL     OW35923   0.213   2.893   6.357  0.1597  0.1531  0.1100
 8097SOL    HW135924   0.273   2.819   6.358 -0.4490 -0.3121  1.7037
 8097SOL    HW235925   0.134   2.840   6.360  0.5519 -0.3685  0.9954
 8098SOL     OW35926   2.457   2.195   0.527 -0.1675  0.1926  1.0657
 8098SOL    HW135927   2.528   2.142   0.563 -0.6456 -0.1634  1.4870
 8098SOL    HW235928   2.499   2.278   0.507 -0.8446  0.4504  0.7325
 8099SOL     OW35929   0.706   2.657   9.486  0.0104  0.0661  0.2264
 8099SOL    HW135930   0.652   2.607   9.548 -0.8304 -1.6599 -1.9209
 8099SOL    HW235931   0.783   2.601   9.495  0.4131  0.4827 -0.6913
 8100SOL     OW35932   2.077   0.256   1.644  0.8101  0.3439  0.3483
 8100SOL    HW135933   1.997   0.250   1.697 -0.2546  1.2067 -1.1445
 8100SOL    HW235934   2.102   0.165   1.635  1.5155  0.6477 -0.8443
 8101SOL     OW35935   3.478   2.094   3.482 -0.0795 -0.3366 -0.4045
 8101SOL    HW135936   3.535   2.156   3.528 -0.9765  0.6571 -0.6392
 8101SOL    HW235937   3.520   2.011   3.505 -2.2891 -1.6841 -1.2288
 8102SOL     OW35938   2.652   1.049  15.508  0.0970  1.0046 -0.3944
 8102SOL    HW135939   2.630   1.115  15.574 -3.4082 -0.6916  0.1029
 8102SOL    HW235940   2.607   0.971  15.540 -1.6109  1.8718 -0.7164
 8103SOL     OW35941   1.472   2.232   0.508  0.0932  0.4997 -0.4252
 8103SOL    HW135942   1.509   2.287   0.439  0.7655  1.0730  0.3901
 8103SOL    HW235943   1.388   2.273   0.525 -1.1878 -1.3441 -2.2663
 8104SOL     OW35944   0.761   2.682   1.023 -0.1413 -0.4979  0.0112
 8104SOL    HW135945   0.670   2.688   1.053  0.3552  3.0349  0.8412
 8104SOL    HW235946   0.741   2.695   0.930 -2.3374  0.7952  0.6802
 8105SOL     OW35947   4.575   1.107  11.622 -0.3622  0.1715  0.0136
 8105SOL    HW135948   4.649   1.167  11.626  0.4143 -0.7221 -1.2762
 8105SOL    HW235949   4.514   1.127  11.693 -0.7733  1.6877 -0.7848
 8106SOL     OW35950   0.429   2.864   2.025  0.1882  0.0192 -0.1000
 8106SOL    HW135951   0.387   2.888   2.107  1.6287  2.4167 -0.0700
 8106SOL    HW235952   0.521   2.857   2.051 -0.3867 -3.7358  0.9308
 8107SOL     OW35953   3.463   0.137  12.312  0.3360 -0.2814 -0.5534
 8107SOL    HW135954   3.449   0.164  12.221  0.4345 -0.6574 -0.6812
 8107SOL    HW235955   3.548   0.180  12.323 -0.5075  1.3261 -0.3692
 8108SOL     OW35956   2.193   2.223  17.060 -0.3681 -0.5847  0.2189
 8108SOL    HW135957   2.278   2.219  17.017  0.3247 -0.8506  1.6238
 8108SOL    HW235958   2.180   2.317  17.073  0.0788 -0.4187 -0.5790
 8109SOL     OW35959   2.073   0.465   2.417 -0.7065  0.1031  0.2658
 8109SOL    HW135960   2.118   0.429   2.494 -0.1575  0.8811  0.3046
 8109SOL    HW235961   2.017   0.389   2.399  0.3905 -1.1941  2.3425
 8110SOL     OW35962   2.732   0.486   5.160 -0.3952 -0.1771 -0.0500
 8110SOL    HW135963   2.782   0.481   5.078 -0.8981  3.3781 -0.5859
 8110SOL    HW235964   2.796   0.453   5.223 -1.8303  0.9488  2.0082
 8111SOL     OW35965   3.202   4.082  13.073 -0.2856  0.2461 -0.4262
 8111SOL    HW135966   3.289   4.057  13.042 -0.6566 -0.2276 -1.0673
 8111SOL    HW235967   3.228   4.089  13.165 -0.1323  0.1422 -0.4615
 8112SOL     OW35968   4.536   3.629   4.320 -0.2003 -0.4836  0.2280
 8112SOL    HW135969   4.599   3.595   4.256  0.1518 -1.2870  0.9915
 8112SOL    HW235970   4.553   3.721   4.300  0.6909 -0.6732  0.0918
 8113SOL     OW35971   2.336   1.581   2.540  1.0172  0.0210  0.9197
 8113SOL    HW135972   2.282   1.641   2.592  0.8822 -0.3989  1.2667
 8113SOL    HW235973   2.313   1.501   2.588  0.4802 -0.0941  0.4733
 8114SOL     OW35974   4.108   4.210  13.190 -0.3556  0.3713 -0.1485
 8114SOL    HW135975   4.039   4.164  13.142 -2.3067  2.4604  0.6709
 8114SOL    HW235976   4.054   4.239  13.263  0.1748  0.8588  0.0545
 8115SOL     OW35977   3.818   3.070  17.262 -0.2571 -0.0276  0.2451
 8115SOL    HW135978   3.748   3.009  17.241  0.8653 -0.4636 -2.2283
 8115SOL    HW235979   3.897   3.018  17.278 -0.0507 -0.3076 -1.7273
 8116SOL     OW35980   0.512   4.103   6.448 -0.5062  0.5040  0.0097
 8116SOL    HW135981   0.579   4.152   6.400  0.4629  0.1143  0.9574
 8116SOL    HW235982   0.436   4.138   6.402 -1.0073 -1.2570 -0.5082
 8117SOL     OW35983   1.655   3.288   8.253  0.1965 -0.7740  0.1380
 8117SOL    HW135984   1.581   3.229   8.266  1.3615 -2.1588  0.4808
 8117SOL    HW235985   1.729   3.230   8.271  1.2394  1.0687  1.8116
 8118SOL     OW35986   1.797   3.165   4.088 -0.6482 -0.2866 -0.2537
 8118SOL    HW135987   1.891   3.177   4.101 -0.6204  0.8102 -1.4683
 8118SOL    HW235988   1.755   3.135   4.168  0.8941 -0.2442  0.5606
 8119SOL     OW35989   4.377   0.485   5.609 -0.6050 -0.3715 -0.9502
 8119SOL    HW135990   4.288   0.453   5.600 -0.0356 -2.1295 -0.3687
 8119SOL    HW235991   4.417   0.416   5.663 -1.5100 -0.3825 -0.2910
 8120SOL     OW35992   2.126   4.600   5.659 -0.1349  0.1227 -0.4426
 8120SOL    HW135993   2.204   4.545   5.653 -0.2770 -0.3751  2.2182
 8120SOL    HW235994   2.092   4.597   5.570  1.4501  2.0690 -1.1160
 8121SOL     OW35995   3.490   4.491   0.480  0.1992  0.4415 -0.1583
 8121SOL    HW135996   3.581   4.513   0.460  0.6238 -1.5772 -0.4327
 8121SOL    HW235997   3.463   4.438   0.405  0.6996  0.6042 -0.4564
 8122SOL     OW35998   2.264   4.493   5.313 -0.0067  0.1576  0.2742
 8122SOL    HW135999   2.185   4.537   5.347  0.7191  0.9372  0.9651
 8122SOL    HW236000   2.305   4.471   5.397 -0.4716 -0.6992  0.2800
 8123SOL     OW36001   4.457   1.648   3.800  0.4044 -0.2412 -0.2073
 8123SOL    HW136002   4.366   1.656   3.829 -0.0942 -3.1171 -0.9657
 8123SOL    HW236003   4.452   1.573   3.741  1.2288 -0.8187  0.4691
 8124SOL     OW36004   2.633   2.305   2.022  0.2443  0.1698 -0.6556
 8124SOL    HW136005   2.589   2.335   2.101  1.3926  0.4437 -0.1071
 8124SOL    HW236006   2.618   2.379   1.963  1.2740  0.9304  0.0340
 8125SOL     OW36007   3.227   1.867   1.515  0.5935  0.3139 -0.4549
 8125SOL    HW136008   3.152   1.819   1.480  2.0690 -1.2575 -1.4559
 8125SOL    HW236009   3.173   1.935   1.556 -1.1279 -1.4088  0.1310
 8126SOL     OW36010   0.778   1.136   2.494  0.5695  0.0040  0.0746
 8126SOL    HW136011   0.864   1.098   2.474  1.0464  0.6978  0.8071
 8126SOL    HW236012   0.756   1.069   2.559 -2.7687  1.2714  0.2714
 8127SOL     OW36013   1.796   2.317  12.353  0.6750 -0.2463  0.3879
 8127SOL    HW136014   1.814   2.228  12.322  0.4636 -0.4322  0.7982
 8127SOL    HW236015   1.859   2.333  12.424  3.6332 -1.0847 -2.0367
 8128SOL     OW36016   0.028   4.348   8.669  0.4978 -0.1430  0.1879
 8128SOL    HW136017   4.711   4.326   8.592 -0.4428  2.6353  0.0321
 8128SOL    HW236018   0.104   4.289   8.665 -0.9807 -2.0354  0.0468
 8129SOL     OW36019   2.758   3.871   5.399  0.6353  0.9805  0.1864
 8129SOL    HW136020   2.717   3.801   5.449  1.1321  0.5399 -0.0242
 8129SOL    HW236021   2.689   3.878   5.334  0.6557 -0.2795  0.0406
 8130SOL     OW36022   3.808   4.482   8.689  0.0523  0.1018  0.3056
 8130SOL    HW136023   3.747   4.409   8.680  1.5532 -0.9707 -1.2189
 8130SOL    HW236024   3.867   4.452   8.759  1.0369  0.0764 -0.5314
 8131SOL     OW36025   3.273   2.832   4.394  0.0414 -0.0225  0.0504
 8131SOL    HW136026   3.184   2.816   4.426 -0.8007  0.4923 -2.0719
 8131SOL    HW236027   3.280   2.926   4.411 -0.5727  0.0333 -0.0152
 8132SOL     OW36028   4.582   0.814   4.282  0.1489  0.6728 -0.6839
 8132SOL    HW136029   4.667   0.812   4.326 -0.2201 -0.1751  0.0031
 8132SOL    HW236030   4.554   0.901   4.312 -0.2144  0.7003 -1.0935
 8133SOL     OW36031   3.538   1.880  14.258  0.3848  0.3953 -0.0809
 8133SOL    HW136032   3.583   1.836  14.185  1.1360 -2.5485  2.1765
 8133SOL    HW236033   3.575   1.833  14.332 -2.0152  0.2025  0.9953
 8134SOL     OW36034   1.584   2.590  17.216  0.9194  0.3873  0.4318
 8134SOL    HW136035   1.625   2.602  17.302  1.2239 -1.8002  0.5914
 8134SOL    HW236036   1.585   2.684  17.196  2.4150  0.2210 -0.2117
 8135SOL     OW36037   3.529   0.146   6.596 -0.4268  0.2569  0.3121
 8135SOL    HW136038   3.522   0.230   6.550 -0.4953 -0.0534 -0.2521
 8135SOL    HW236039   3.442   0.149   6.636 -1.7057 -1.0275 -2.3488
 8136SOL     OW36040   3.426   2.313  15.956 -0.1187  0.5687 -0.1261
 8136SOL    HW136041   3.337   2.332  15.986 -0.0903  2.8043 -1.4212
 8136SOL    HW236042   3.413   2.264  15.875  1.3478 -1.7817  1.0698
 8137SOL     OW36043   0.953   2.530   5.416 -0.0907 -0.3582 -0.1039
 8137SOL    HW136044   0.940   2.442   5.451  0.8509  0.3041  1.8908
 8137SOL    HW236045   1.038   2.518   5.374  0.4791  1.2786  0.5974
 8138SOL     OW36046   1.077   4.336   6.445  0.2776  0.3060  0.0928
 8138SOL    HW136047   1.048   4.413   6.494  1.2651  0.7470 -0.0071
 8138SOL    HW236048   1.054   4.364   6.357 -0.9191 -0.0430  0.2859
 8139SOL     OW36049   2.671   4.256  16.872 -0.3433  0.4312  0.3129
 8139SOL    HW136050   2.701   4.216  16.954  1.0177 -0.6879 -0.7300
 8139SOL    HW236051   2.740   4.228  16.812 -1.6622  1.1042 -1.5060
 8140SOL     OW36052   3.848   3.661   5.509 -0.3679 -0.3167 -0.4109
 8140SOL    HW136053   3.852   3.583   5.454  0.1047 -0.5259 -0.0698
 8140SOL    HW236054   3.903   3.724   5.464 -0.1930 -0.5414 -0.5108
 8141SOL     OW36055   2.268   3.626  15.239 -0.1060  0.6308 -0.3883
 8141SOL    HW136056   2.186   3.581  15.259  0.1818  0.8182  1.1934
 8141SOL    HW236057   2.251   3.668  15.155 -2.1356  0.2632 -0.1517
 8142SOL     OW36058   0.220   1.955   0.645  0.1173 -0.5826  0.1632
 8142SOL    HW136059   0.284   2.023   0.627  0.1007 -0.1643  1.7078
 8142SOL    HW236060   0.258   1.887   0.588  1.2323  0.7733 -0.7107
 8143SOL     OW36061   0.012   1.263   9.059 -0.7762  0.3649  0.4093
 8143SOL    HW136062   0.019   1.217   9.143  1.5921  0.3918  0.2157
 8143SOL    HW236063   4.683   1.330   9.080 -0.8285  0.7754 -1.0902
 8144SOL     OW36064   3.721   0.391   6.566 -0.0368 -0.0242  0.3469
 8144SOL    HW136065   3.722   0.462   6.502  2.4904  1.0166  1.5667
 8144SOL    HW236066   3.628   0.375   6.583  0.4092 -2.0532  0.8548
 8145SOL     OW36067   2.525   3.956   3.940 -0.7909 -0.1927 -0.2868
 8145SOL    HW136068   2.433   3.930   3.944 -1.3065  1.9446  2.0356
 8145SOL    HW236069   2.570   3.873   3.956  0.3832  0.3804 -0.5881
 8146SOL     OW36070   0.942   2.428   0.284 -0.1781 -0.5895  0.0573
 8146SOL    HW136071   0.984   2.342   0.274  0.4057 -0.1976 -0.7599
 8146SOL    HW236072   1.011   2.489   0.310  0.1520 -1.4194  1.1818
 8147SOL     OW36073   4.082   2.818   8.502  0.3884 -0.3127  0.1025
 8147SOL    HW136074   4.077   2.880   8.575  0.5766 -1.4816  1.1132
 8147SOL    HW236075   4.108   2.736   8.545  1.8300  0.3120  0.4161
 8148SOL     OW36076   3.309   2.593   3.635  0.2896 -0.8307 -0.2833
 8148SOL    HW136077   3.285   2.506   3.606 -0.7406 -0.1050 -1.5929
 8148SOL    HW236078   3.235   2.638   3.594  2.9197  1.3822 -2.6181
 8149SOL     OW36079   4.524   3.498   4.939 -0.1228  0.3156 -0.1039
 8149SOL    HW136080   4.557   3.415   4.904  1.1385  0.8344 -0.1405
 8149SOL    HW236081   4.476   3.462   5.014 -1.0175  3.3032  0.7556
 8150SOL     OW36082   3.841   4.293   4.009 -0.5381 -0.2241  0.1441
 8150SOL    HW136083   3.870   4.358   4.072  2.8939 -0.4467 -1.1652
 8150SOL    HW236084   3.774   4.249   4.062 -0.7304  1.5724  1.3725
 8151SOL     OW36085   4.619   4.235   5.019  0.2411 -0.1591  0.1189
 8151SOL    HW136086   4.625   4.153   4.969  2.8539 -1.4769  2.5851
 8151SOL    HW236087   4.600   4.296   4.949  0.2305 -0.2146  0.0737
 8152SOL     OW36088   4.728   1.937   5.032 -0.4330 -0.3742 -0.1228
 8152SOL    HW136089   0.040   2.003   4.981  0.9386 -1.4753 -0.2584
 8152SOL    HW236090   0.043   1.924   5.112 -2.9643  0.2811  1.5929
 8153SOL     OW36091   3.958   0.297   4.948 -0.1497 -0.4038  0.2819
 8153SOL    HW136092   3.955   0.374   4.891  1.1323  0.5768  1.5431
 8153SOL    HW236093   3.909   0.332   5.023  1.6773 -0.9342  1.7352
 8154SOL     OW36094   2.940   1.151   8.288 -0.3545  0.4594 -0.0216
 8154SOL    HW136095   3.025   1.186   8.315 -0.2661  0.2231  0.0026
 8154SOL    HW236096   2.922   1.216   8.220  0.2158  1.3971  0.7273
 8155SOL     OW36097   4.120   3.073   3.657 -0.2409 -0.5837  0.2794
 8155SOL    HW136098   4.114   3.167   3.676 -0.5147 -1.0149  2.3431
 8155SOL    HW236099   4.215   3.074   3.644 -0.5142  0.5523 -1.5098
 8156SOL     OW36100   4.369   4.640   6.470  0.1870 -0.2550  0.8888
 8156SOL    HW136101   4.454   4.628   6.512  0.8701 -2.0554 -0.9780
 8156SOL    HW236102   4.393   4.698   6.398  0.6457 -0.0808  1.1832
 8157SOL     OW36103   2.326   3.782   2.721 -0.0502 -0.4247 -0.6339
 8157SOL    HW136104   2.336   3.830   2.639 -2.8358 -2.2075 -2.0128
 8157SOL    HW236105   2.258   3.827   2.771 -0.3540 -1.0399 -0.4967
 8158SOL     OW36106   2.547   3.270  17.037 -0.2587 -1.0161 -0.4301
 8158SOL    HW136107   2.525   3.362  17.023  0.3876 -1.3770 -3.9013
 8158SOL    HW236108   2.464   3.240  17.072  0.3209 -0.4531  1.3972
 8159SOL     OW36109   3.142   0.177   9.929 -0.2153  0.0058 -0.2231
 8159SOL    HW136110   3.068   0.137   9.973  1.8204 -3.2658  0.2088
 8159SOL    HW236111   3.119   0.268   9.950 -1.2611  0.1742 -2.0813
 8160SOL     OW36112   1.587   3.341  12.109  0.2649  0.7669  0.1137
 8160SOL    HW136113   1.550   3.326  12.196  1.6238  1.8225  0.8697
 8160SOL    HW236114   1.675   3.370  12.132 -0.1561  1.4136  0.9401
 8161SOL     OW36115   0.596   2.030  13.926  0.4991  0.1921  0.1037
 8161SOL    HW136116   0.635   2.060  14.008 -2.3682  0.9191  1.2087
 8161SOL    HW236117   0.660   1.960  13.917  1.0424  0.8140 -0.9090
 8162SOL     OW36118   3.497   2.237   3.229 -0.4251  0.0798 -0.3395
 8162SOL    HW136119   3.482   2.186   3.309 -1.2801  1.0837  0.1270
 8162SOL    HW236120   3.414   2.258   3.188 -1.9217  0.1369  2.6900
 8163SOL     OW36121   2.021   2.290   7.503 -0.2900  0.1976 -0.3580
 8163SOL    HW136122   2.094   2.276   7.442 -1.8179  0.1509 -2.1799
 8163SOL    HW236123   2.047   2.372   7.545 -0.1434  0.0058 -0.0785
 8164SOL     OW36124   2.025   3.165   1.713  0.1702 -0.4008  0.0118
 8164SOL    HW136125   2.038   3.258   1.698  1.4957 -0.8318 -1.5012
 8164SOL    HW236126   2.116   3.143   1.733  0.3029  0.6579  0.5509
 8165SOL     OW36127   1.007   2.545  15.953 -0.3073  0.4384  0.2510
 8165SOL    HW136128   1.004   2.558  16.048  1.2631  0.9582  0.2226
 8165SOL    HW236129   1.046   2.630  15.935 -0.0318  0.3343  0.3649
 8166SOL     OW36130   2.504   0.708   2.464 -0.2506 -0.0462  0.1520
 8166SOL    HW136131   2.449   0.786   2.474 -1.2961 -0.7671  0.0125
 8166SOL    HW236132   2.510   0.673   2.553 -2.4647 -1.2968 -0.2146
 8167SOL     OW36133   3.987   1.339   7.652 -0.1783  0.2905  0.0800
 8167SOL    HW136134   4.039   1.300   7.722  0.0463 -0.0303 -0.2679
 8167SOL    HW236135   3.960   1.261   7.604  2.0123 -0.4529  0.0362
 8168SOL     OW36136   2.466   1.309   9.681  0.4462  0.0072  0.5672
 8168SOL    HW136137   2.554   1.347   9.682 -0.0483  1.2954 -2.4940
 8168SOL    HW236138   2.467   1.246   9.752 -1.9830  1.1120  1.5788
 8169SOL     OW36139   0.083   3.215   2.957 -0.3230  0.1084 -0.2253
 8169SOL    HW136140   0.175   3.234   2.940 -0.6407  0.4123 -1.5787
 8169SOL    HW236141   0.046   3.302   2.975  0.9503  1.3394 -3.7150
 8170SOL     OW36142   2.194   1.308   9.136 -0.3651 -0.8247  0.2996
 8170SOL    HW136143   2.156   1.225   9.166  2.1733 -2.3032 -0.5667
 8170SOL    HW236144   2.264   1.315   9.201 -1.8103 -5.2514  2.3513
 8171SOL     OW36145   2.180   4.479   4.087  0.5877 -0.3445 -0.2024
 8171SOL    HW136146   2.158   4.569   4.062 -1.5248 -0.5385  0.9568
 8171SOL    HW236147   2.210   4.492   4.177 -2.6508 -0.0871  0.8332
 8172SOL     OW36148   0.274   0.892   3.647  0.7219 -0.5376 -0.0426
 8172SOL    HW136149   0.344   0.860   3.704 -1.0361 -0.4589  2.1915
 8172SOL    HW236150   0.322   0.958   3.597  0.6406 -0.9117 -0.6078
 8173SOL     OW36151   3.800   1.214   7.856  0.0652  0.4836  0.3140
 8173SOL    HW136152   3.830   1.172   7.775 -1.3524 -2.6613  1.4235
 8173SOL    HW236153   3.832   1.304   7.849 -0.3493  0.3512 -3.2502
 8174SOL     OW36154   3.224   2.860  16.116 -0.1652 -0.1497 -0.1204
 8174SOL    HW136155   3.183   2.775  16.097 -1.8264  0.4336  0.7987
 8174SOL    HW236156   3.184   2.890  16.198  0.2916 -0.4909  0.2228
 8175SOL     OW36157   3.802   1.155   8.509 -0.1563 -0.6779 -0.5523
 8175SOL    HW136158   3.888   1.138   8.472 -0.2550 -1.2369 -0.5260
 8175SOL    HW236159   3.762   1.073   8.480  1.6185 -0.8705 -2.3961
 8176SOL     OW36160   3.796   3.031  11.078  0.4139  0.6760 -0.2089
 8176SOL    HW136161   3.816   2.950  11.124  0.8956  1.1419  0.4067
 8176SOL    HW236162   3.816   3.013  10.986 -2.3211 -1.3685 -0.4078
 8177SOL     OW36163   1.003   1.854   1.593 -0.1978 -0.0699  0.6209
 8177SOL    HW136164   0.967   1.922   1.536 -1.9500  0.4714  2.3839
 8177SOL    HW236165   1.086   1.898   1.610  1.2622 -1.6835 -2.2908
 8178SOL     OW36166   2.536   1.661   3.115 -0.5055 -0.0664 -0.5784
 8178SOL    HW136167   2.593   1.729   3.078 -0.4808  1.6553  2.6061
 8178SOL    HW236168   2.594   1.586   3.105 -0.8894 -0.3516 -0.6579
 8179SOL     OW36169   3.598   1.705   8.577  0.4940  0.0117 -0.0619
 8179SOL    HW136170   3.513   1.739   8.551  0.4200 -0.1277 -0.0038
 8179SOL    HW236171   3.595   1.672   8.667 -4.1274 -0.9332 -0.5674
 8180SOL     OW36172   4.447   4.006   2.669  0.2099 -0.3687  0.0330
 8180SOL    HW136173   4.476   4.097   2.667 -0.7924 -0.0398  0.5611
 8180SOL    HW236174   4.354   4.011   2.688  0.4754 -1.3655  1.5926
 8181SOL     OW36175   3.916   1.379   6.720 -0.4031  0.7625 -0.0590
 8181SOL    HW136176   3.892   1.404   6.809 -0.6571 -0.9232  0.3299
 8181SOL    HW236177   3.877   1.292   6.712 -0.4945  0.7424  0.6037
 8182SOL     OW36178   3.795   3.030  11.489  0.0147  0.0688 -0.0653
 8182SOL    HW136179   3.840   3.113  11.470 -0.1321  0.4819  1.3528
 8182SOL    HW236180   3.722   3.062  11.543  1.7576  1.0753  1.6984
 8183SOL     OW36181   0.792   0.613   2.896 -0.7768 -0.2916  0.0992
 8183SOL    HW136182   0.817   0.690   2.946  0.5529  0.4541 -1.7321
 8183SOL    HW236183   0.701   0.623   2.867  1.0116  1.8054 -4.8770
 8184SOL     OW36184   1.260   1.624   1.879  0.0158  0.2933  0.3791
 8184SOL    HW136185   1.207   1.637   1.958 -2.0768 -0.1896 -0.9669
 8184SOL    HW236186   1.192   1.651   1.818 -0.2959 -0.4891  0.3898
 8185SOL     OW36187   0.712   1.905   6.579 -0.0674  0.3180  0.1917
 8185SOL    HW136188   0.742   1.860   6.658  0.5237 -1.2295 -0.9317
 8185SOL    HW236189   0.714   1.834   6.515 -0.3566 -0.5193  1.1264
 8186SOL     OW36190   3.257   0.410   8.699 -0.6726 -0.2298 -0.4926
 8186SOL    HW136191   3.285   0.393   8.609 -0.0695  1.3754 -0.6166
 8186SOL    HW236192   3.185   0.470   8.679 -0.6294  0.2549  0.8277
 8187SOL     OW36193   2.382   1.345   3.225 -0.2873 -0.7897  0.0925
 8187SOL    HW136194   2.316   1.363   3.293 -0.6867 -1.2891 -0.1713
 8187SOL    HW236195   2.338   1.273   3.181 -1.1464  1.7093 -3.1393
 8188SOL     OW36196   3.456   2.344   0.149 -0.4324  0.2528 -0.3740
 8188SOL    HW136197   3.494   2.381   0.070 -2.2486 -1.0212 -1.8248
 8188SOL    HW236198   3.376   2.397   0.153 -0.2522  0.4708  0.3884
 8189SOL     OW36199   1.367   2.956  13.317 -0.2307  0.4824 -0.7129
 8189SOL    HW136200   1.364   2.916  13.230  0.9150 -0.5303 -0.2917
 8189SOL    HW236201   1.292   2.918  13.362  1.3138 -1.7322 -0.0085
 8190SOL     OW36202   2.233   2.371   8.093  0.5352 -0.2255 -0.4940
 8190SOL    HW136203   2.213   2.390   8.001  0.4057 -0.5230 -0.5252
 8190SOL    HW236204   2.307   2.430   8.110 -0.8577  1.4171 -0.1472
 8191SOL     OW36205   4.205   1.181   2.949  0.3458 -0.4007 -0.0425
 8191SOL    HW136206   4.247   1.224   3.024  0.3034 -0.5115  0.0453
 8191SOL    HW236207   4.283   1.177   2.894  0.1797 -1.8281 -0.1585
 8192SOL     OW36208   3.553   1.683   2.288 -0.5116  0.4267  0.6600
 8192SOL    HW136209   3.485   1.634   2.334  0.3356 -1.5338 -0.1879
 8192SOL    HW236210   3.500   1.733   2.226  0.2179  0.7925  0.3277
 8193SOL     OW36211   2.990   4.317   6.967 -0.4423  0.2336 -0.3393
 8193SOL    HW136212   3.054   4.385   6.947 -1.4298  1.7277  1.5678
 8193SOL    HW236213   2.913   4.361   7.005 -0.5375 -1.9069  1.9562
 8194SOL     OW36214   1.597   2.186   7.548 -0.5551 -1.3794  0.4112
 8194SOL    HW136215   1.658   2.167   7.477  1.0077 -2.3522  2.0148
 8194SOL    HW236216   1.582   2.098   7.584  1.6463 -1.1043  1.9635
 8195SOL     OW36217   4.371   0.100   5.254  0.0245  0.0966 -0.0088
 8195SOL    HW136218   4.407   0.177   5.297  1.0688  1.9427 -4.1736
 8195SOL    HW236219   4.356   0.042   5.329 -0.4882  0.1979 -0.0279
 8196SOL     OW36220   2.023   4.506  12.490  0.5425  0.6837 -0.3903
 8196SOL    HW136221   2.093   4.480  12.431  0.8231  2.7683 -0.9736
 8196SOL    HW236222   2.012   4.416  12.520 -0.9975  1.2177  0.6832
 8197SOL     OW36223   2.570   3.952   8.166  0.2401 -0.6893  0.3691
 8197SOL    HW136224   2.530   4.032   8.202 -0.3963 -1.0640  0.5019
 8197SOL    HW236225   2.622   3.986   8.093  0.9195  1.1174  1.7057
 8198SOL     OW36226   3.111   4.530   3.218  0.3070  0.0185  0.3688
 8198SOL    HW136227   3.066   4.445   3.227  1.6931 -0.7081  0.4398
 8198SOL    HW236228   3.050   4.569   3.155  2.4327  2.4898 -0.1167
 8199SOL     OW36229   2.174   1.842   7.286 -0.2230 -0.2665 -0.1311
 8199SOL    HW136230   2.127   1.787   7.225 -0.5109 -0.9215  0.6878
 8199SOL    HW236231   2.217   1.897   7.220  0.1093  1.0129  1.1572
 8200SOL     OW36232   0.303   0.899   5.845  0.1953 -0.1012  0.3836
 8200SOL    HW136233   0.216   0.861   5.849  0.8304 -1.4055  1.8968
 8200SOL    HW236234   0.358   0.822   5.828 -0.7965 -0.2507 -2.1612
 8201SOL     OW36235   3.550   3.758  14.968 -0.7486 -0.3485  0.3967
 8201SOL    HW136236   3.477   3.720  15.017 -0.0364 -2.1927  0.0508
 8201SOL    HW236237   3.523   3.733  14.879 -1.8459  0.3287  0.5484
 8202SOL     OW36238   0.646   3.456   6.250 -0.0345  0.5563  0.3465
 8202SOL    HW136239   0.696   3.514   6.306  0.0171  0.7381  0.1138
 8202SOL    HW236240   0.570   3.512   6.231 -0.0815 -0.8165 -3.5611
 8203SOL     OW36241   1.594   2.253  17.681  0.5663  0.2372  0.0759
 8203SOL    HW136242   1.521   2.203  17.644 -0.3698  1.3447  0.4067
 8203SOL    HW236243   1.657   2.234  17.612  0.9409 -2.3728  1.1376
 8204SOL     OW36244   3.546   4.336   6.183  0.6632 -0.5184  0.3411
 8204SOL    HW136245   3.581   4.271   6.245  1.2522  1.2761  1.8705
 8204SOL    HW236246   3.513   4.393   6.252 -0.1702  0.6398 -1.0288
 8205SOL     OW36247   2.589   2.427   0.405  0.1977  0.4122 -0.1180
 8205SOL    HW136248   2.643   2.422   0.326 -0.0489 -1.2118 -0.1845
 8205SOL    HW236249   2.518   2.486   0.377 -1.6151 -1.1173  1.2862
 8206SOL     OW36250   4.098   3.780   1.728 -0.0720 -0.3847 -0.2853
 8206SOL    HW136251   4.132   3.756   1.641 -0.8297 -1.8384 -0.1814
 8206SOL    HW236252   4.181   3.804   1.768 -1.0448  1.7024  0.5003
 8207SOL     OW36253   2.633   1.183   8.063 -0.5006  0.1954 -0.8893
 8207SOL    HW136254   2.640   1.272   8.100  2.2563 -0.2428 -0.3487
 8207SOL    HW236255   2.720   1.168   8.027 -0.4482 -0.0555 -0.6561
 8208SOL     OW36256   3.516   2.831  11.457 -0.3288  0.2863  0.5925
 8208SOL    HW136257   3.581   2.873  11.401 -0.7687  0.1682  0.0010
 8208SOL    HW236258   3.551   2.742  11.458  0.2155  0.5112  1.4338
 8209SOL     OW36259   1.813   2.119   7.381  0.1318  0.3581  0.1882
 8209SOL    HW136260   1.869   2.195   7.398  1.1910 -0.7190  1.5849
 8209SOL    HW236261   1.866   2.052   7.424 -1.5226 -1.7827 -1.1203
 8210SOL     OW36262   1.187   0.728   2.911 -0.4426 -0.6131 -0.4131
 8210SOL    HW136263   1.153   0.651   2.865 -0.8786 -2.5035  3.0627
 8210SOL    HW236264   1.185   0.794   2.841 -0.6987  1.0291  1.1540
 8211SOL     OW36265   4.300   0.379   2.837 -0.2888  0.3645  0.3190
 8211SOL    HW136266   4.246   0.428   2.898 -0.6123 -0.5234  0.7530
 8211SOL    HW236267   4.380   0.355   2.885 -0.2925  1.6791  0.9598
 8212SOL     OW36268   2.056   4.180  13.516  0.4959 -0.0134  1.4267
 8212SOL    HW136269   2.121   4.251  13.518  1.1926 -0.5399 -2.3460
 8212SOL    HW236270   2.056   4.166  13.422  2.7523  2.4057  1.0549
 8213SOL     OW36271   4.245   2.904   1.173 -0.2130 -0.0546  0.5703
 8213SOL    HW136272   4.271   2.956   1.249  4.5691  1.3233 -2.0552
 8213SOL    HW236273   4.312   2.836   1.175  0.0467  0.2182  1.1966
 8214SOL     OW36274   2.839   0.002   8.675 -0.5952 -0.6528 -0.0336
 8214SOL    HW136275   2.827   0.074   8.737 -2.1434 -1.2079  0.3194
 8214SOL    HW236276   2.750   4.732   8.640 -0.6635  1.8227 -0.2537
 8215SOL     OW36277   0.756   0.572   5.156 -0.5611  0.0449 -0.3190
 8215SOL    HW136278   0.727   0.483   5.177  0.1148  0.0853  0.7953
 8215SOL    HW236279   0.771   0.599   5.247  0.7562 -2.2044  0.1403
 8216SOL     OW36280   0.938   1.057   8.909 -0.2068 -0.0064  0.3772
 8216SOL    HW136281   1.022   1.011   8.909 -2.2095 -3.5763  0.9527
 8216SOL    HW236282   0.925   1.046   9.003  1.1890  1.9257  0.8067
 8217SOL     OW36283   1.155   0.465   7.891 -0.2847  0.3238 -0.0068
 8217SOL    HW136284   1.162   0.383   7.939 -1.4192  2.3042  3.5168
 8217SOL    HW236285   1.234   0.507   7.925 -0.0385 -0.7262  0.7000
 8218SOL     OW36286   4.220   1.155   3.719 -0.1101  0.2742  0.3649
 8218SOL    HW136287   4.176   1.094   3.778 -0.1994  0.1520  0.1719
 8218SOL    HW236288   4.145   1.193   3.673  1.4844  1.7013 -1.0375
 8219SOL     OW36289   2.358   3.478  13.642 -0.1435 -0.2252 -0.6347
 8219SOL    HW136290   2.302   3.552  13.616  1.5211  1.1523 -0.3111
 8219SOL    HW236291   2.447   3.512  13.651  0.0638 -1.7257  3.0410
 8220SOL     OW36292   4.409   1.423  15.381 -0.6299  0.7391 -0.1499
 8220SOL    HW136293   4.473   1.489  15.405 -1.8784  0.6576  3.4217
 8220SOL    HW236294   4.386   1.442  15.290 -0.2103 -1.5033 -0.7363
 8221SOL     OW36295   4.612   1.624   8.037  0.4402  0.2488 -0.5848
 8221SOL    HW136296   4.645   1.607   8.126  0.6171 -1.0844 -0.9025
 8221SOL    HW236297   4.571   1.539   8.019 -0.5556 -0.0304  2.9325
 8222SOL     OW36298   2.757   2.617   6.060 -0.0931 -0.8218 -0.4987
 8222SOL    HW136299   2.844   2.628   6.098  0.1582 -1.7942 -0.7920
 8222SOL    HW236300   2.752   2.522   6.071  1.1947 -0.6296  1.6955
 8223SOL     OW36301   2.118   4.429   2.778  0.1349  0.1757  0.7756
 8223SOL    HW136302   2.047   4.430   2.842 -0.4221 -0.6243  0.1621
 8223SOL    HW236303   2.078   4.377   2.709 -2.8955  1.1544  1.7779
 8224SOL     OW36304   3.380   0.305   5.636 -0.1126  0.5188 -0.4282
 8224SOL    HW136305   3.348   0.394   5.648  1.0717  1.0005 -0.7477
 8224SOL    HW236306   3.358   0.270   5.722  1.4276 -1.1018 -0.6818
 8225SOL     OW36307   3.731   2.005  12.934 -0.1707  0.3129 -0.0802
 8225SOL    HW136308   3.738   2.098  12.913  1.4955  0.0116 -0.7925
 8225SOL    HW236309   3.639   1.978  12.925 -0.8208  2.5845 -0.2712
 8226SOL     OW36310   2.511   1.990  16.343 -0.1836  0.0607 -0.1828
 8226SOL    HW136311   2.491   1.925  16.409 -2.4972  0.6494 -0.3033
 8226SOL    HW236312   2.586   2.024  16.392 -0.3407  0.7842 -0.4398
 8227SOL     OW36313   3.801   1.540   4.314  0.4934  0.2104  0.3237
 8227SOL    HW136314   3.809   1.573   4.404 -0.6332 -1.4021  1.0153
 8227SOL    HW236315   3.774   1.621   4.272 -0.8159 -0.7363 -0.6579
 8228SOL     OW36316   1.071   3.651  17.256  0.2543  0.1779  0.1529
 8228SOL    HW136317   1.039   3.740  17.246  0.4360  0.1777 -0.3864
 8228SOL    HW236318   1.019   3.612  17.328  0.4122 -1.5094 -0.6444
 8229SOL     OW36319   0.106   1.178  10.870 -0.2147  0.3056  0.2213
 8229SOL    HW136320   0.063   1.235  10.808  2.0433  0.1434 -1.5070
 8229SOL    HW236321   0.027   1.158  10.919  0.3341 -3.4850 -0.4392
 8230SOL     OW36322   3.080   3.086  10.762  0.5179 -0.0056  0.4802
 8230SOL    HW136323   3.106   3.048  10.677 -2.1733 -1.7320  0.4280
 8230SOL    HW236324   3.157   3.133  10.792  0.3386  0.6273 -0.0582
 8231SOL     OW36325   4.572   1.973   9.416  0.6696 -0.3659 -0.5582
 8231SOL    HW136326   4.541   1.900   9.468 -1.0348 -0.4020 -1.6488
 8231SOL    HW236327   4.662   1.952   9.442  0.3110  0.0287  0.9869
 8232SOL     OW36328   1.595   2.738   1.686  0.0908 -0.2820  0.2830
 8232SOL    HW136329   1.588   2.820   1.735 -2.1276 -0.7474  0.7335
 8232SOL    HW236330   1.680   2.709   1.719  0.5500  0.2240 -0.4414
 8233SOL     OW36331   4.213   0.700   1.855 -0.4097  0.6729 -0.5024
 8233SOL    HW136332   4.147   0.766   1.834  0.3769  1.7044  0.2903
 8233SOL    HW236333   4.287   0.742   1.811  0.2385  0.7844  0.6840
 8234SOL     OW36334   0.780   0.800   4.827 -0.1314 -0.3754  0.4773
 8234SOL    HW136335   0.811   0.716   4.860  1.1920 -0.5996 -1.3230
 8234SOL    HW236336   0.835   0.832   4.755  1.9884  1.3087  2.8569
 8235SOL     OW36337   2.994   2.879   8.208  0.3353  0.6737  0.4599
 8235SOL    HW136338   2.991   2.824   8.286 -2.9141 -1.0412 -0.9029
 8235SOL    HW236339   3.064   2.939   8.235  0.6445  0.5578 -0.0789
 8236SOL     OW36340   3.460   0.193   4.613 -0.3030 -0.2153 -0.0490
 8236SOL    HW136341   3.463   0.139   4.692 -1.1952  1.3666  1.0720
 8236SOL    HW236342   3.434   0.124   4.553  1.6346 -0.7337 -0.3094
 8237SOL     OW36343   2.902   0.359   3.762 -0.0477 -0.7264 -0.0756
 8237SOL    HW136344   2.955   0.284   3.734  0.3049 -0.5387  0.0934
 8237SOL    HW236345   2.944   0.438   3.728 -1.0361 -0.3650 -0.4504
 8238SOL     OW36346   4.681   0.335   2.804 -0.2425  0.1575 -0.8553
 8238SOL    HW136347   4.610   0.329   2.739 -0.7403 -2.5579 -0.0455
 8238SOL    HW236348   4.636   0.294   2.877  0.1619 -0.5021 -0.9856
 8239SOL     OW36349   4.348   3.911   1.118 -0.0810 -0.0530  0.1595
 8239SOL    HW136350   4.354   4.000   1.082 -0.6061  1.1978  3.1832
 8239SOL    HW236351   4.439   3.896   1.140 -0.4699 -5.0231 -1.6354
 8240SOL     OW36352   0.846   3.593  17.507 -0.2277 -0.2860 -0.1468
 8240SOL    HW136353   0.844   3.654  17.581  0.2829 -0.5484  0.0872
 8240SOL    HW236354   0.767   3.612  17.456 -0.3263 -0.2769  0.0107
 8241SOL     OW36355   3.989   3.906   7.163 -0.2016  0.7017  0.1576
 8241SOL    HW136356   3.983   3.977   7.099  1.6211  0.0850 -0.6830
 8241SOL    HW236357   3.896   3.886   7.155 -0.4210  0.9942  1.9902
 8242SOL     OW36358   3.106   2.883  12.995 -0.3779 -0.1283  0.1604
 8242SOL    HW136359   3.074   2.793  12.995 -0.9922  0.0941 -1.9524
 8242SOL    HW236360   3.196   2.876  12.963 -0.1853  1.5059  0.3402
 8243SOL     OW36361   0.210   1.585   6.452 -0.2608  0.1887  0.0493
 8243SOL    HW136362   0.284   1.633   6.489  0.0680  0.1213 -0.5268
 8243SOL    HW236363   0.237   1.588   6.360 -0.8814  0.3013 -0.1364
 8244SOL     OW36364   3.957   3.606   7.559  0.4093 -0.1299 -0.4985
 8244SOL    HW136365   3.992   3.613   7.470 -2.0679  0.5839 -1.4107
 8244SOL    HW236366   3.911   3.688   7.572  2.7595  1.0148  0.5991
 8245SOL     OW36367   3.297   1.411  12.099 -0.3318 -0.3135 -0.1343
 8245SOL    HW136368   3.331   1.393  12.012  1.9841 -1.9893  1.1108
 8245SOL    HW236369   3.307   1.327  12.143 -1.0439 -0.6927 -0.7045
 8246SOL     OW36370   0.847   0.883   2.658 -0.0230 -0.5704 -0.0423
 8246SOL    HW136371   0.759   0.864   2.625 -0.9262  0.9548  1.5181
 8246SOL    HW236372   0.899   0.812   2.620 -1.3732 -2.2695  1.2153
 8247SOL     OW36373   0.346   2.362  11.372 -0.1600  0.3140 -0.0424
 8247SOL    HW136374   0.257   2.328  11.378 -0.4015  0.9619  0.0079
 8247SOL    HW236375   0.399   2.291  11.411 -2.8878 -0.5549  2.1384
 8248SOL     OW36376   0.962   4.676   5.232 -0.0337 -0.3414 -0.4465
 8248SOL    HW136377   0.971   4.602   5.172  2.1499  1.8494 -2.7820
 8248SOL    HW236378   0.973   0.013   5.172 -1.0090  0.1429 -0.0407
 8249SOL     OW36379   1.130   1.740   6.822 -0.3148 -0.6364 -0.0482
 8249SOL    HW136380   1.123   1.695   6.738  1.2418  2.5229 -1.8805
 8249SOL    HW236381   1.226   1.734   6.819 -0.0576  1.5621  2.8349
 8250SOL     OW36382   1.075   2.085   7.496 -0.0571 -0.2552  0.1178
 8250SOL    HW136383   0.986   2.081   7.459 -0.1688  0.1420  0.3545
 8250SOL    HW236384   1.094   1.991   7.497  0.1442 -0.2252 -0.6820
 8251SOL     OW36385   1.065   1.066   5.384 -0.2584 -0.4101 -0.3505
 8251SOL    HW136386   1.026   1.144   5.345  0.7503 -0.4030 -1.3424
 8251SOL    HW236387   1.157   1.089   5.369 -0.1169 -1.1872 -0.7052
 8252SOL     OW36388   1.000   2.050   9.044  0.2120  0.0448  0.1843
 8252SOL    HW136389   0.916   2.066   9.087  2.0033  0.6926  3.4638
 8252SOL    HW236390   1.037   1.993   9.112 -2.1241 -1.3008  0.3224
 8253SOL     OW36391   3.386   1.568   2.713 -0.2403  0.5552  0.0625
 8253SOL    HW136392   3.391   1.607   2.801  1.9278 -0.9231  0.5593
 8253SOL    HW236393   3.304   1.518   2.714 -0.2275  0.4596 -3.1220
 8254SOL     OW36394   1.286   1.825   3.342  0.3396  0.3690  0.3013
 8254SOL    HW136395   1.310   1.789   3.257  0.3622 -1.8091  1.2210
 8254SOL    HW236396   1.375   1.853   3.362 -0.2817  1.5894  1.3634
 8255SOL     OW36397   2.059   1.229   2.329 -0.0979  0.5939 -0.3916
 8255SOL    HW136398   2.117   1.190   2.263  0.6178  0.4962  0.2887
 8255SOL    HW236399   1.989   1.268   2.277 -0.3917  0.8959  0.2253
 8256SOL     OW36400   4.709   1.593   6.645 -0.0379 -0.1533  0.1448
 8256SOL    HW136401   0.061   1.571   6.615 -0.2892 -0.4278 -0.3893
 8256SOL    HW236402   4.696   1.530   6.715  0.6018 -0.1718  0.2464
 8257SOL     OW36403   1.257   0.262   5.996 -0.9359 -0.0112  0.3757
 8257SOL    HW136404   1.346   0.294   6.015 -1.4117  1.0971  0.7166
 8257SOL    HW236405   1.278   0.240   5.905 -0.5713 -0.6081  0.6002
 8258SOL     OW36406   2.215   4.374   6.236 -0.1450  0.2820 -0.3512
 8258SOL    HW136407   2.132   4.396   6.279  0.4921 -0.1061  1.0819
 8258SOL    HW236408   2.256   4.311   6.295 -0.5080  1.4436  1.1556
 8259SOL     OW36409   1.661   2.552   5.004 -0.0347 -0.3427  0.5270
 8259SOL    HW136410   1.570   2.526   4.992 -0.6923  2.7811 -1.0234
 8259SOL    HW236411   1.689   2.490   5.072  3.8869 -0.0867 -0.8351
 8260SOL     OW36412   3.849   1.250  14.203  0.2931  0.0965  0.1599
 8260SOL    HW136413   3.861   1.193  14.127 -4.0200 -0.2132 -0.2542
 8260SOL    HW236414   3.870   1.334  14.161 -1.0836  0.3346 -0.0335
 8261SOL     OW36415   1.170   1.310  15.007 -0.1827  0.1481  0.0615
 8261SOL    HW136416   1.117   1.230  15.007  0.7530 -0.4747 -1.9083
 8261SOL    HW236417   1.254   1.280  15.044 -1.1284 -1.3413  0.9812
 8262SOL     OW36418   2.998   1.067   5.905  0.4044  0.4589 -0.0925
 8262SOL    HW136419   2.963   1.150   5.937  2.3313  0.8865  0.8942
 8262SOL    HW236420   2.930   1.037   5.845  0.8179 -0.3407 -0.1736
 8263SOL     OW36421   2.083   3.645   3.871  0.0064 -0.7225  0.7492
 8263SOL    HW136422   2.139   3.655   3.948 -0.3869  0.6172  0.8542
 8263SOL    HW236423   2.141   3.655   3.795 -0.4662 -1.9852  0.2199
 8264SOL     OW36424   1.997   2.840   8.174 -0.3039 -0.7693  0.4189
 8264SOL    HW136425   1.969   2.811   8.261  1.2118 -0.4689  1.0039
 8264SOL    HW236426   2.091   2.824   8.184  0.0743  0.7323 -0.6914
 8265SOL     OW36427   1.166   2.644   0.311  0.4619 -0.2608 -0.0910
 8265SOL    HW136428   1.214   2.676   0.388  2.2055 -1.7390 -0.5712
 8265SOL    HW236429   1.136   2.728   0.275  1.2291 -0.1753 -0.5355
 8266SOL     OW36430   0.746   3.017   7.154  0.0068 -0.1856 -0.4680
 8266SOL    HW136431   0.685   2.988   7.223  0.8244 -0.6345  0.0616
 8266SOL    HW236432   0.722   3.110   7.153  1.0987  0.1197  2.6619
 8267SOL     OW36433   4.044   3.587   7.111  0.2350 -0.4606 -0.1681
 8267SOL    HW136434   4.030   3.615   7.201  0.0136 -2.5525  0.4404
 8267SOL    HW236435   4.095   3.665   7.084 -0.0868 -0.4387 -0.7230
 8268SOL     OW36436   0.899   3.002   0.149  0.6337 -0.4362 -0.0837
 8268SOL    HW136437   0.898   2.968   0.059  1.6473  3.2460 -1.4932
 8268SOL    HW236438   0.898   3.096   0.132  1.2364 -0.4425 -0.1443
 8269SOL     OW36439   0.834   0.639   9.675  0.2985  0.1101 -0.0103
 8269SOL    HW136440   0.756   0.585   9.671 -0.3242  0.8649  2.1170
 8269SOL    HW236441   0.809   0.702   9.743  1.2225 -0.2153  0.6365
 8270SOL     OW36442   0.791   4.609   3.483  0.1003  0.2584 -0.4858
 8270SOL    HW136443   0.838   4.531   3.451 -0.4130 -0.7047  1.0974
 8270SOL    HW236444   0.818   4.676   3.420 -1.3920  0.6333 -0.7104
 8271SOL     OW36445   1.770   3.586   5.620 -0.2862  0.0183 -0.2982
 8271SOL    HW136446   1.692   3.635   5.593 -0.5180 -0.8216 -1.1330
 8271SOL    HW236447   1.792   3.635   5.700  1.8611 -2.1582  0.4163
 8272SOL     OW36448   0.179   3.205   4.288 -0.3264  0.0990  0.2538
 8272SOL    HW136449   0.190   3.257   4.368 -3.0220  0.6153  0.3097
 8272SOL    HW236450   0.235   3.253   4.227 -1.7418  0.0064 -1.1256
 8273SOL     OW36451   0.960   1.658   5.627 -0.2022 -0.3340  0.0732
 8273SOL    HW136452   0.991   1.582   5.577 -2.5581 -0.5756 -1.0074
 8273SOL    HW236453   1.040   1.702   5.655 -1.6411  1.0197  2.0209
 8274SOL     OW36454   3.660   2.016   9.631  0.9575  0.3193  0.2553
 8274SOL    HW136455   3.596   2.060   9.687  0.8623  2.0923 -1.2464
 8274SOL    HW236456   3.702   2.095   9.598 -0.4406  2.0895  2.6409
 8275SOL     OW36457   0.139   1.120   7.884 -0.0222  0.3098 -0.5291
 8275SOL    HW136458   0.214   1.141   7.940  0.7453  0.9548 -1.7967
 8275SOL    HW236459   0.137   1.199   7.830  0.4091 -0.9151 -2.3401
 8276SOL     OW36460   1.967   2.068   8.265  0.7172 -0.0606 -0.7365
 8276SOL    HW136461   1.950   2.129   8.336 -2.7568 -0.5159 -1.1891
 8276SOL    HW236462   2.017   2.000   8.310  1.1558 -0.3244 -1.6263
 8277SOL     OW36463   1.908   2.012  10.037  0.2738 -0.3807  0.3775
 8277SOL    HW136464   1.857   2.003   9.957  1.0561  2.3886 -0.4152
 8277SOL    HW236465   1.934   2.104  10.042  1.8171 -0.7939  0.0011
 8278SOL     OW36466   0.873   0.248   4.833 -0.5683  0.7824  0.4324
 8278SOL    HW136467   0.798   0.222   4.886 -0.5950  1.2999  0.6431
 8278SOL    HW236468   0.927   0.169   4.831 -1.5713  0.2011 -3.7228
 8279SOL     OW36469   4.049   2.777   0.770  0.1860 -0.8102 -0.3421
 8279SOL    HW136470   3.995   2.755   0.694  0.7611 -0.7508 -0.7764
 8279SOL    HW236471   4.005   2.724   0.836 -1.6832 -0.5614 -1.3986
 8280SOL     OW36472   0.593   3.028  12.725  0.0261 -0.2209  0.1773
 8280SOL    HW136473   0.563   3.057  12.639 -0.0878 -1.6374 -0.2426
 8280SOL    HW236474   0.515   3.040  12.780 -0.7882 -0.1614 -1.0020
 8281SOL     OW36475   2.663   4.112   8.977 -0.2914  0.2763  0.1363
 8281SOL    HW136476   2.748   4.156   8.988 -0.9623  1.7757 -0.8344
 8281SOL    HW236477   2.605   4.186   8.990 -0.5989  0.3845 -1.8431
 8282SOL     OW36478   3.734   0.554  16.995  0.2971  0.6726 -0.4907
 8282SOL    HW136479   3.678   0.631  16.994 -0.4706  0.1178 -0.9571
 8282SOL    HW236480   3.805   0.599  17.040 -1.1686  0.1672  2.2964
 8283SOL     OW36481   0.172   4.318   2.926  0.1540  0.7394 -0.0507
 8283SOL    HW136482   0.206   4.307   3.015  0.9738  0.3948 -0.4078
 8283SOL    HW236483   0.116   4.241   2.918 -0.1132  1.1048 -1.6714
 8284SOL     OW36484   4.439   3.817   1.510 -0.3294 -0.9338  0.6501
 8284SOL    HW136485   4.501   3.793   1.441 -1.6976 -1.7169 -0.3041
 8284SOL    HW236486   4.427   3.909   1.490 -1.3142 -0.9547  1.1208
 8285SOL     OW36487   4.043   1.599  11.278 -0.3602 -0.3191  0.3349
 8285SOL    HW136488   4.076   1.521  11.323  1.8854  0.0126 -0.7034
 8285SOL    HW236489   4.049   1.652  11.357  0.2551  0.3065 -0.1280
 8286SOL     OW36490   4.588   0.176  16.257  0.0127  0.1571  0.1337
 8286SOL    HW136491   4.533   0.171  16.336 -1.3487  0.6333 -0.7779
 8286SOL    HW236492   4.639   0.257  16.269  2.4884 -1.2862 -0.6595
 8287SOL     OW36493   0.520   2.908   7.371 -0.2696  0.0793 -0.2308
 8287SOL    HW136494   0.473   2.962   7.434  0.3103 -1.7032  1.7417
 8287SOL    HW236495   0.457   2.912   7.299 -1.1962  0.4037  0.6041
 8288SOL     OW36496   4.177   0.428   5.430  0.0988 -0.3908 -0.4831
 8288SOL    HW136497   4.170   0.523   5.438 -0.8764 -0.5091  0.1396
 8288SOL    HW236498   4.096   0.404   5.384  0.5924  0.5744 -1.8399
 8289SOL     OW36499   2.003   3.789  15.630 -0.1282 -0.2847  0.2132
 8289SOL    HW136500   1.912   3.758  15.626 -0.5030  0.7632  0.6578
 8289SOL    HW236501   2.022   3.800  15.537 -2.3008 -3.8633 -0.6550
 8290SOL     OW36502   0.897   2.247  15.598  0.0550 -0.8114  0.1784
 8290SOL    HW136503   0.957   2.228  15.670 -0.4665 -0.0998  0.7949
 8290SOL    HW236504   0.913   2.170  15.544 -3.2099 -1.6722  0.4532
 8291SOL     OW36505   1.936   3.179   5.340  0.8212  0.0906 -0.0791
 8291SOL    HW136506   1.840   3.182   5.340  0.8606  1.3013  0.7098
 8291SOL    HW236507   1.958   3.117   5.410 -0.0473 -1.2609 -0.9898
 8292SOL     OW36508   1.883   0.942   0.248  0.5957 -0.4783  0.0569
 8292SOL    HW136509   1.873   1.023   0.298  3.0203 -0.4494  0.4766
 8292SOL    HW236510   1.833   0.963   0.170 -1.2904 -1.4988  0.9898
 8293SOL     OW36511   0.545   1.852  17.261  0.2770  0.2913 -0.2222
 8293SOL    HW136512   0.574   1.913  17.193 -0.0787  1.1830  0.4385
 8293SOL    HW236513   0.457   1.882  17.281  0.0023  0.8319 -2.2069
 8294SOL     OW36514   4.291   2.814   2.775 -0.1042 -0.1909  0.1751
 8294SOL    HW136515   4.368   2.869   2.765 -2.2079  2.7763  0.3451
 8294SOL    HW236516   4.334   2.741   2.819 -0.6517 -0.1045  0.8433
 8295SOL     OW36517   1.948   2.848   8.477 -0.0518  0.6541 -0.2949
 8295SOL    HW136518   1.915   2.759   8.487 -1.4418  1.2028  0.0300
 8295SOL    HW236519   1.941   2.857   8.572  0.0822  2.1302 -0.4139
 8296SOL     OW36520   1.601   1.354  10.925 -0.0388  0.4790 -0.1121
 8296SOL    HW136521   1.556   1.331  10.843  0.7238 -0.3226 -0.3037
 8296SOL    HW236522   1.677   1.296  10.932 -0.4476  0.0247  0.4465
 8297SOL     OW36523   1.399   3.660  13.777  0.5986 -0.0639 -0.0634
 8297SOL    HW136524   1.354   3.629  13.699  0.8277 -0.4963 -0.0213
 8297SOL    HW236525   1.323   3.652  13.835  0.6543 -1.6779 -0.2128
 8298SOL     OW36526   0.186   3.812   8.827 -0.1420 -0.3444  0.1469
 8298SOL    HW136527   0.189   3.735   8.770  2.8111  0.7320 -1.1377
 8298SOL    HW236528   0.217   3.881   8.767 -4.1264 -1.1207 -2.8432
 8299SOL     OW36529   2.956   3.579   1.119  0.3435 -0.4673  0.5222
 8299SOL    HW136530   3.010   3.514   1.165  0.6648 -1.0187 -0.6199
 8299SOL    HW236531   2.868   3.541   1.117  0.1893  0.0104 -2.9404
 8300SOL     OW36532   3.163   1.692  15.339 -0.1305 -0.0412 -0.3295
 8300SOL    HW136533   3.245   1.729  15.305  0.1090  0.6302  1.0177
 8300SOL    HW236534   3.194   1.666  15.425  1.2706 -0.0259 -0.8346
 8301SOL     OW36535   2.560   2.402   1.320 -0.5069 -0.4049  0.0197
 8301SOL    HW136536   2.604   2.485   1.301 -0.3623 -0.6462 -0.6747
 8301SOL    HW236537   2.508   2.436   1.393  2.1381  2.6748  0.5112
 8302SOL     OW36538   4.641   3.169  14.411 -0.0094  0.6853 -0.2965
 8302SOL    HW136539   4.725   3.123  14.421 -0.2987  0.6466  2.0688
 8302SOL    HW236540   4.666   3.242  14.354  2.1653  1.1618  1.2685
 8303SOL     OW36541   1.066   3.287   0.929  0.6600  0.2579 -0.3847
 8303SOL    HW136542   1.093   3.249   1.012  3.2442  1.1720 -0.8169
 8303SOL    HW236543   1.081   3.213   0.870  0.0534 -0.2035  0.0384
 8304SOL     OW36544   4.064   0.295   3.917  0.6152  0.0798 -0.6431
 8304SOL    HW136545   4.044   0.205   3.942  0.2123  0.5123  0.5977
 8304SOL    HW236546   4.092   0.284   3.826 -0.0174 -1.0079 -0.7073
 8305SOL     OW36547   3.655   3.817   6.059  0.2017 -0.0656  0.3875
 8305SOL    HW136548   3.683   3.860   6.140  1.6689 -1.3817  0.5693
 8305SOL    HW236549   3.661   3.890   5.997 -2.7994  0.4657  0.7131
 8306SOL     OW36550   0.673   1.029  15.242  0.2683  0.5301 -0.1543
 8306SOL    HW136551   0.624   1.058  15.164 -0.1605  0.5048  0.1047
 8306SOL    HW236552   0.606   0.977  15.286 -0.9241  0.5405 -1.9565
 8307SOL     OW36553   0.440   2.385   6.346  0.0200 -0.0356 -0.3277
 8307SOL    HW136554   0.521   2.434   6.332  0.0246  0.2620  0.7293
 8307SOL    HW236555   0.473   2.295   6.342  0.5415  0.0903  0.9986
 8308SOL     OW36556   2.320   0.021  12.413 -0.1519  0.3437 -0.0554
 8308SOL    HW136557   2.232   0.038  12.446  0.2806  1.3331  0.5919
 8308SOL    HW236558   2.335   4.679  12.466 -0.1609  1.2382  1.2373
 8309SOL     OW36559   0.712   2.712   4.699 -0.3969 -0.1698 -0.1619
 8309SOL    HW136560   0.667   2.637   4.735 -0.5646 -0.5880 -1.2369
 8309SOL    HW236561   0.655   2.757   4.636 -2.3429  1.0018  2.4774
 8310SOL     OW36562   1.678   4.142  15.073  0.2511  0.7411  0.0632
 8310SOL    HW136563   1.691   4.090  14.994 -0.7120 -1.3457  1.2529
 8310SOL    HW236564   1.661   4.229  15.037  1.4966  0.4604 -1.1582
 8311SOL     OW36565   2.657   1.893   1.448 -0.2493 -0.1808 -0.3285
 8311SOL    HW136566   2.580   1.910   1.394  0.3908 -0.9733 -1.4747
 8311SOL    HW236567   2.619   1.866   1.532  2.4216 -1.8601  0.3189
 8312SOL     OW36568   0.340   0.458   5.604 -0.3614 -0.2392 -0.2403
 8312SOL    HW136569   0.330   0.374   5.648 -1.1923  0.0575  0.1526
 8312SOL    HW236570   0.272   0.501   5.657 -0.6512  1.2243 -1.7978
 8313SOL     OW36571   2.264   0.769   9.274  0.2772 -0.7648 -0.6893
 8313SOL    HW136572   2.293   0.718   9.350 -2.1721  1.3307  1.6144
 8313SOL    HW236573   2.216   0.704   9.223 -1.4821  0.7032 -0.9122
 8314SOL     OW36574   2.999   0.775  12.096 -0.0468 -0.0407 -0.1735
 8314SOL    HW136575   2.921   0.725  12.073  0.1656  0.8193 -2.8265
 8314SOL    HW236576   3.025   0.796  12.006 -0.6922  0.1835 -0.3073
 8315SOL     OW36577   2.742   2.122   6.949  0.2611 -0.0108 -0.5049
 8315SOL    HW136578   2.658   2.140   6.992  0.8986  0.0982  0.7047
 8315SOL    HW236579   2.794   2.192   6.989 -0.4705  0.0168  0.4083
 8316SOL     OW36580   4.409   4.538  12.148  0.3741  0.0326 -0.3804
 8316SOL    HW136581   4.369   4.486  12.078  1.0411  1.3570 -1.7569
 8316SOL    HW236582   4.339   4.548  12.212  0.6442  2.0525 -0.4184
 8317SOL     OW36583   0.578   4.528  14.089  0.5816  0.6098 -0.2657
 8317SOL    HW136584   0.544   4.561  14.007 -1.7147 -1.8806 -0.3395
 8317SOL    HW236585   0.600   4.607  14.138 -0.6563  0.6287  0.2590
 8318SOL     OW36586   3.323   4.724   9.851  0.4153  0.2593  0.3603
 8318SOL    HW136587   3.254   4.662   9.828 -0.6548  0.7751  2.2309
 8318SOL    HW236588   3.272   0.063   9.882  0.5297  0.0750  0.9826
 8319SOL     OW36589   3.602   2.743   7.268  0.1640  0.0415  0.0525
 8319SOL    HW136590   3.552   2.662   7.263  0.0570  0.2066 -1.6574
 8319SOL    HW236591   3.671   2.701   7.319  1.4064  1.9730 -0.0420
 8320SOL     OW36592   3.431   1.972   6.097  0.1319  0.2338  0.2044
 8320SOL    HW136593   3.430   2.066   6.077  1.4474 -0.2439 -2.0938
 8320SOL    HW236594   3.452   1.942   6.008 -0.2355 -1.8919  0.8283
 8321SOL     OW36595   1.447   3.373   8.724 -0.7678  0.2814  0.0315
 8321SOL    HW136596   1.466   3.446   8.666 -1.6478  0.6401  0.1872
 8321SOL    HW236597   1.447   3.302   8.659  2.7653  0.6712 -0.3935
 8322SOL     OW36598   1.018   3.604   5.014 -0.2883 -0.5244  0.3999
 8322SOL    HW136599   1.082   3.575   4.950 -0.9188 -0.1784 -0.3930
 8322SOL    HW236600   0.982   3.516   5.030  0.8425 -1.1587 -0.5456
 8323SOL     OW36601   0.708   3.654  11.536 -0.2859 -0.1892  0.0524
 8323SOL    HW136602   0.795   3.694  11.535 -1.0603  1.4773  0.3308
 8323SOL    HW236603   0.673   3.679  11.621  0.7336  0.8906  0.1576
 8324SOL     OW36604   3.912   2.782  14.757 -0.1807 -0.0329  0.0281
 8324SOL    HW136605   3.820   2.777  14.731 -0.4434  0.1717  0.9471
 8324SOL    HW236606   3.941   2.860  14.710 -2.7907  0.9998  0.1886
 8325SOL     OW36607   4.573   1.505  11.365 -0.4583  0.6627  0.1446
 8325SOL    HW136608   4.540   1.584  11.408 -1.1970  0.8811 -0.8303
 8325SOL    HW236609   4.491   1.456  11.364 -0.5657  0.8851 -1.7103
 8326SOL     OW36610   2.469   4.184   5.291  0.2190 -0.3541  0.3858
 8326SOL    HW136611   2.389   4.178   5.342 -1.1163  0.2184 -1.6363
 8326SOL    HW236612   2.528   4.232   5.349 -1.2554  1.0736  0.7070
 8327SOL     OW36613   0.645   4.538  17.321  0.1375 -0.4051 -0.2790
 8327SOL    HW136614   0.594   4.600  17.268  1.5865  1.1295  0.1257
 8327SOL    HW236615   0.578   4.471  17.327  0.7096 -1.0844 -1.3947
 8328SOL     OW36616   1.377   0.218   3.860 -0.9652 -0.6513 -0.4169
 8328SOL    HW136617   1.365   0.127   3.834  0.5221 -1.0825  0.4507
 8328SOL    HW236618   1.403   0.260   3.778 -0.5316 -0.3125 -0.1032
 8329SOL     OW36619   2.751   3.006  16.123  0.7655 -0.6210  0.0445
 8329SOL    HW136620   2.716   2.986  16.036  1.3186 -0.1761 -0.2791
 8329SOL    HW236621   2.845   2.994  16.115  1.2341  2.4313  1.1373
 8330SOL     OW36622   3.203   4.002   0.841  0.1153  0.3287  0.1530
 8330SOL    HW136623   3.152   4.043   0.771  1.0192  1.6282  0.2600
 8330SOL    HW236624   3.224   4.072   0.902  1.7173  1.3961 -1.5868
 8331SOL     OW36625   4.185   2.551  14.949 -0.1060  1.1167 -0.1719
 8331SOL    HW136626   4.123   2.511  15.010  1.9175 -0.3194  0.9793
 8331SOL    HW236627   4.146   2.638  14.953 -2.5257 -0.0285  0.8648
 8332SOL     OW36628   0.824   1.960   5.726  0.2975  0.1479  0.9657
 8332SOL    HW136629   0.767   1.884   5.725  0.9136 -0.2670 -1.2726
 8332SOL    HW236630   0.808   1.989   5.636  2.3690 -0.8012  0.2897
 8333SOL     OW36631   0.094   1.916  16.844  0.4947 -0.4455 -0.0890
 8333SOL    HW136632   0.060   1.970  16.916 -1.2391  1.7116 -2.5194
 8333SOL    HW236633   0.086   1.830  16.884  0.9380  0.7168  2.5346
 8334SOL     OW36634   0.639   1.408   8.492 -0.2463 -0.2692 -0.0439
 8334SOL    HW136635   0.679   1.493   8.507 -0.8908  0.1206 -0.5569
 8334SOL    HW236636   0.682   1.344   8.549 -0.8834 -0.4311  0.2587
 8335SOL     OW36637   0.717   0.060   9.984  0.4130  0.4223  0.2546
 8335SOL    HW136638   0.678   0.147   9.991  0.8737  0.6818 -0.4446
 8335SOL    HW236639   0.638   0.007   9.973  2.1622 -1.9459 -0.8386
 8336SOL     OW36640   3.381   2.980   7.102 -0.0916  0.0460  0.3852
 8336SOL    HW136641   3.425   3.063   7.084  1.1797 -0.8945 -0.8825
 8336SOL    HW236642   3.298   2.995   7.056  1.0590 -1.2442 -2.1412
 8337SOL     OW36643   2.755   2.488  17.652 -0.3625 -0.5297  0.6146
 8337SOL    HW136644   2.758   2.503  17.557 -1.0935  4.6112  1.4106
 8337SOL    HW236645   2.781   2.573  17.686  1.6858 -0.5652 -0.7931
 8338SOL     OW36646   1.437   1.848  13.940  0.1237  0.2310  0.2976
 8338SOL    HW136647   1.452   1.869  13.848 -1.4630  3.0638  0.6858
 8338SOL    HW236648   1.470   1.759  13.944  1.6579  0.7771 -0.1358
 8339SOL     OW36649   0.421   1.399   5.275  0.2873 -0.0756  0.1242
 8339SOL    HW136650   0.504   1.401   5.227 -0.6780  1.6521 -1.5001
 8339SOL    HW236651   0.451   1.364   5.358  0.4713 -0.6467 -0.1857
 8340SOL     OW36652   3.331   0.254   7.452  0.1444 -0.7698  0.2609
 8340SOL    HW136653   3.409   0.273   7.400 -1.1575  1.8884 -0.7184
 8340SOL    HW236654   3.352   0.298   7.534 -1.7080  0.6241 -0.0053
 8341SOL     OW36655   2.353   2.834   6.581 -0.0969  0.7315  0.0280
 8341SOL    HW136656   2.277   2.795   6.623 -0.5171  0.6574 -0.7976
 8341SOL    HW236657   2.378   2.899   6.646  0.7846 -1.8744  2.3004
 8342SOL     OW36658   1.753   3.720  13.076  0.1147 -0.4933  0.2749
 8342SOL    HW136659   1.827   3.663  13.054  0.1420 -0.4243  0.1864
 8342SOL    HW236660   1.697   3.660  13.125 -2.9085  1.2233 -1.0625
 8343SOL     OW36661   4.107   4.268   8.081  0.3683 -0.4300  0.2373
 8343SOL    HW136662   4.112   4.225   7.996  0.0173  0.0029 -0.0085
 8343SOL    HW236663   4.038   4.334   8.071 -0.8241 -1.3072  2.4696
 8344SOL     OW36664   2.496   2.445   6.968  0.2676 -0.5625 -0.0473
 8344SOL    HW136665   2.573   2.492   6.936  0.0422  0.7324  1.2727
 8344SOL    HW236666   2.489   2.367   6.914 -2.1814 -0.6454  0.3751
 8345SOL     OW36667   1.264   1.965  10.728  0.3615  0.3100 -0.0700
 8345SOL    HW136668   1.178   1.934  10.754  1.5770 -1.4561  1.8675
 8345SOL    HW236669   1.242   2.056  10.709 -0.9413 -0.3670 -1.7759
 8346SOL     OW36670   4.028   2.071   9.460  0.0811  0.2142 -0.4251
 8346SOL    HW136671   3.978   2.008   9.408  0.3450  0.6271 -1.1840
 8346SOL    HW236672   4.118   2.056   9.431  0.0802  0.5875 -0.6248
 8347SOL     OW36673   4.225   3.283   9.420 -0.3762 -0.2120 -0.2643
 8347SOL    HW136674   4.246   3.254   9.331  0.8444 -2.9698  0.9032
 8347SOL    HW236675   4.297   3.242   9.468  0.7991  2.1282 -0.0089
 8348SOL     OW36676   2.817   2.364  14.127  0.0426 -0.2146 -0.5339
 8348SOL    HW136677   2.805   2.278  14.086  0.7204 -0.5930  0.0743
 8348SOL    HW236678   2.890   2.396  14.075  0.5169 -1.9947 -0.9481
 8349SOL     OW36679   1.920   4.564   8.847  0.7717  0.0607  0.2310
 8349SOL    HW136680   1.974   4.487   8.866  0.5523  0.3605  2.0468
 8349SOL    HW236681   1.882   4.583   8.932 -1.2868  0.2643 -0.7425
 8350SOL     OW36682   3.295   2.083   0.771  0.1331 -0.5068  0.2637
 8350SOL    HW136683   3.390   2.077   0.778  0.1338 -2.3111 -1.2739
 8350SOL    HW236684   3.274   2.165   0.817  0.7394 -1.1101  1.6042
 8351SOL     OW36685   2.731   3.720   9.357 -0.6297  0.0092  0.3208
 8351SOL    HW136686   2.723   3.767   9.274 -1.0864 -0.9082 -0.1582
 8351SOL    HW236687   2.695   3.792   9.407 -0.5465  0.4761 -0.2921
 8352SOL     OW36688   4.629   2.362  10.939  0.1676  0.0472  0.7427
 8352SOL    HW136689   4.595   2.329  11.022 -0.4412  0.9225  0.8418
 8352SOL    HW236690   4.721   2.344  10.958  0.3969 -0.7076 -1.0438
 8353SOL     OW36691   4.154   1.841   1.129  0.3335  0.9822 -0.5768
 8353SOL    HW136692   4.228   1.899   1.108  2.8951 -1.3789  1.9907
 8353SOL    HW236693   4.082   1.904   1.124 -0.1012  0.3151 -2.4911
 8354SOL     OW36694   3.154   3.236  11.721  0.0806 -0.0838  0.3782
 8354SOL    HW136695   3.236   3.225  11.672  0.5954  0.8532  1.0335
 8354SOL    HW236696   3.106   3.171  11.670 -0.0148 -2.5000  3.5312
 8355SOL     OW36697   2.384   2.134   0.878  0.1388  0.0016 -0.1825
 8355SOL    HW136698   2.293   2.111   0.897 -0.0048 -0.3345 -1.2807
 8355SOL    HW236699   2.383   2.197   0.806 -1.5931  0.3997  0.1868
 8356SOL     OW36700   3.024   1.791  15.106  0.5145  0.2546 -0.3120
 8356SOL    HW136701   3.107   1.812  15.063  1.1923  1.5103  1.6311
 8356SOL    HW236702   3.048   1.766  15.195  1.0698  1.4607 -0.1310
 8357SOL     OW36703   4.236   3.811   4.458  0.2789 -0.2244  0.3246
 8357SOL    HW136704   4.311   3.751   4.465  0.4847 -0.0543 -0.4475
 8357SOL    HW236705   4.275   3.887   4.415  2.5963 -1.0893  0.8952
 8358SOL     OW36706   4.595   1.943   5.428 -0.4425  0.0027 -0.2591
 8358SOL    HW136707   4.676   1.929   5.477 -1.1090 -1.6652  0.3411
 8358SOL    HW236708   4.557   2.020   5.470 -3.7948 -1.3290 -0.8584
 8359SOL     OW36709   2.334   2.986   4.240 -0.0899 -0.1751 -0.3889
 8359SOL    HW136710   2.286   2.963   4.160  0.3964 -0.9058 -0.4768
 8359SOL    HW236711   2.416   3.019   4.204  0.9442 -0.8311  1.3932
 8360SOL     OW36712   0.745   1.154   3.434  0.5056 -0.4231 -0.2648
 8360SOL    HW136713   0.816   1.140   3.496 -0.9145 -1.5471  1.1115
 8360SOL    HW236714   0.729   1.248   3.442  2.0115 -0.0937 -1.0592
 8361SOL     OW36715   3.261   2.671   8.253  0.0093  0.6374  0.1631
 8361SOL    HW136716   3.233   2.584   8.282 -0.5206  0.8179  0.1925
 8361SOL    HW236717   3.223   2.721   8.325 -2.1662 -1.3163  0.3889
 8362SOL     OW36718   0.244   3.997   6.127  0.3977 -0.1053  0.0709
 8362SOL    HW136719   0.182   4.040   6.069 -1.5631 -3.4372 -0.2537
 8362SOL    HW236720   0.319   3.981   6.070  0.3703 -1.4395  0.4140
 8363SOL     OW36721   1.910   1.753   6.016 -0.1762 -0.5290 -0.1689
 8363SOL    HW136722   1.852   1.811   5.966 -1.1317 -0.0801  1.4629
 8363SOL    HW236723   1.984   1.811   6.032  0.6651 -1.6446 -0.0039
 8364SOL     OW36724   0.025   3.456   7.008 -0.5138 -0.6795  0.8607
 8364SOL    HW136725   0.000   3.515   7.079  1.8766 -0.4739  1.5064
 8364SOL    HW236726   0.081   3.510   6.951  1.2886 -0.5793  2.7446
 8365SOL     OW36727   1.820   2.199   8.833 -0.0938  0.0226 -0.3994
 8365SOL    HW136728   1.733   2.233   8.857  0.3818  0.5390  0.5700
 8365SOL    HW236729   1.872   2.273   8.803  0.8316 -0.4484  0.0526
 8366SOL     OW36730   3.525   3.810  12.951 -0.6142  0.1798 -0.5556
 8366SOL    HW136731   3.523   3.718  12.977 -2.2857  0.5150  0.4857
 8366SOL    HW236732   3.604   3.803  12.897 -0.2314  2.0493 -0.2238
 8367SOL     OW36733   3.092   2.860   5.598 -0.1358  0.0011 -0.0088
 8367SOL    HW136734   2.998   2.856   5.615 -0.6475 -2.9235 -3.6698
 8367SOL    HW236735   3.111   2.819   5.682 -1.3722  1.2013  0.8702
 8368SOL     OW36736   0.485   4.569   9.256 -0.2484 -0.1778 -0.1089
 8368SOL    HW136737   0.449   4.630   9.321  1.2291  0.2994  0.2629
 8368SOL    HW236738   0.456   4.486   9.293  2.1146 -1.3941 -0.9552
 8369SOL     OW36739   1.462   2.199  10.365  0.5941 -0.3424 -0.0024
 8369SOL    HW136740   1.536   2.206  10.304 -0.0162 -0.1430 -0.7169
 8369SOL    HW236741   1.506   2.184  10.449 -0.3407  1.0697  0.7327
 8370SOL     OW36742   4.723   3.305   4.069  0.3656  0.0891  0.1680
 8370SOL    HW136743   0.008   3.281   4.159 -2.2430 -0.2613  0.6946
 8370SOL    HW236744   4.661   3.236   4.046 -1.0908  0.9912  1.4379
 8371SOL     OW36745   3.723   2.028  14.446 -0.0022  0.0906  0.1782
 8371SOL    HW136746   3.690   2.083  14.375  0.0098 -1.1028 -0.7429
 8371SOL    HW236747   3.645   1.980  14.472  0.0364  0.3446  0.7559
 8372SOL     OW36748   1.076   1.972   8.116  0.6592  0.4853 -0.1916
 8372SOL    HW136749   1.118   1.936   8.194  0.8183  0.6082 -0.2196
 8372SOL    HW236750   1.147   1.961   8.053  2.1232 -1.7664  1.8435
 8373SOL     OW36751   1.852   3.880   4.803 -0.4119 -0.3781  0.2150
 8373SOL    HW136752   1.877   3.933   4.879  0.6002 -0.3856 -0.1179
 8373SOL    HW236753   1.896   3.797   4.818 -1.1798 -0.7558  0.3818
 8374SOL     OW36754   1.435   3.960   6.394 -0.5293  0.1961  0.2992
 8374SOL    HW136755   1.458   3.867   6.395  2.4495  0.9291 -0.6972
 8374SOL    HW236756   1.340   3.956   6.386 -0.5372  1.0068 -0.0015
 8375SOL     OW36757   2.619   4.666   4.525 -0.5538 -0.0855  0.3322
 8375SOL    HW136758   2.583   0.009   4.564 -1.1931  0.4315 -1.3335
 8375SOL    HW236759   2.639   4.693   4.435  0.9487 -2.3024 -0.0051
 8376SOL     OW36760   1.329   3.010  11.772  0.2863 -0.5215 -0.1622
 8376SOL    HW136761   1.307   2.977  11.859 -1.2615 -0.6919 -0.6116
 8376SOL    HW236762   1.255   3.063  11.742 -0.5269 -0.6430  1.6395
 8377SOL     OW36763   1.978   0.877   3.056  0.2574  0.1824  0.3142
 8377SOL    HW136764   1.961   0.961   3.014  1.3949  0.0160 -0.4689
 8377SOL    HW236765   2.009   0.820   2.986 -1.4679  0.4061 -0.6312
 8378SOL     OW36766   0.455   3.937   6.977  0.3038 -0.1866  0.5412
 8378SOL    HW136767   0.519   3.897   6.918  0.0820 -0.8717  0.7631
 8378SOL    HW236768   0.453   3.877   7.051 -2.0643  0.5228  1.0384
 8379SOL     OW36769   0.696   1.509  17.159 -0.3937  0.5319 -0.3525
 8379SOL    HW136770   0.662   1.454  17.088  0.7749  0.6426 -0.9869
 8379SOL    HW236771   0.763   1.448  17.188  0.7054  2.1102  0.3821
 8380SOL     OW36772   4.018   2.290   8.112  0.1944 -0.0187  0.2370
 8380SOL    HW136773   4.057   2.370   8.145 -0.5238 -0.0793  1.2238
 8380SOL    HW236774   4.022   2.229   8.186  0.6064 -1.5233 -1.0225
 8381SOL     OW36775   0.438   2.174   0.947 -0.0874 -0.1128  0.1069
 8381SOL    HW136776   0.347   2.178   0.920 -0.2854 -0.0829  0.7721
 8381SOL    HW236777   0.468   2.261   0.921  0.1432 -0.8721 -2.2013
 8382SOL     OW36778   0.392   1.773  10.396 -0.1248 -0.5442  0.3278
 8382SOL    HW136779   0.478   1.736  10.372  0.3783  0.2756  0.8736
 8382SOL    HW236780   0.405   1.847  10.455 -1.1498 -2.4122  2.8901
 8383SOL     OW36781   2.872   2.987  17.262 -0.1254  0.0342  0.0526
 8383SOL    HW136782   2.871   2.944  17.347  1.8199 -2.4453 -1.1834
 8383SOL    HW236783   2.810   3.056  17.287  1.4204  1.0837  0.9965
 8384SOL     OW36784   1.532   2.990   5.406  0.1692 -0.1670 -0.1708
 8384SOL    HW136785   1.511   3.023   5.319  2.3553  0.6561 -0.3819
 8384SOL    HW236786   1.448   2.947   5.422  1.5448 -2.9299 -0.3323
 8385SOL     OW36787   3.234   1.063  15.825 -0.0304 -0.0764  0.5898
 8385SOL    HW136788   3.192   0.979  15.841 -0.0417 -0.5235 -1.7397
 8385SOL    HW236789   3.327   1.038  15.828  0.3111  1.2802  1.2751
 8386SOL     OW36790   0.735   3.890   1.943  0.9353  0.0473 -0.5716
 8386SOL    HW136791   0.771   3.866   2.029  2.2243  0.4621 -0.9905
 8386SOL    HW236792   0.700   3.978   1.954  0.5468 -0.0795 -0.8109
 8387SOL     OW36793   1.813   4.639   3.488 -0.3463  0.3726  0.2097
 8387SOL    HW136794   1.771   4.570   3.437  1.1364 -0.8716  0.6705
 8387SOL    HW236795   1.801   4.710   3.425  1.2265 -0.1701 -0.6991
 8388SOL     OW36796   2.351   3.395   1.123 -0.1915  0.1666  1.0039
 8388SOL    HW136797   2.336   3.402   1.029  1.6667 -0.7225  0.6336
 8388SOL    HW236798   2.407   3.319   1.137 -0.7657 -0.1855  1.3985
 8389SOL     OW36799   4.319   3.544   1.165  0.0502 -0.3660 -0.3732
 8389SOL    HW136800   4.387   3.546   1.098  0.5412  0.6602  0.1692
 8389SOL    HW236801   4.256   3.607   1.131  0.4165  0.8247  1.1576
 8390SOL     OW36802   4.492   3.383   6.091 -0.2517 -0.6736  0.0810
 8390SOL    HW136803   4.414   3.415   6.137  0.2299  0.8141 -0.1216
 8390SOL    HW236804   4.560   3.424   6.146  0.1436 -2.0147  0.5847
 8391SOL     OW36805   4.348   4.013   4.072 -0.4620 -0.3847  0.1774
 8391SOL    HW136806   4.278   4.022   4.137  1.4459  2.0470  1.8793
 8391SOL    HW236807   4.424   3.995   4.128  0.9648  0.3700 -1.5322
 8392SOL     OW36808   2.267   2.195   7.347 -0.0638 -0.7080  0.0475
 8392SOL    HW136809   2.345   2.234   7.309  1.1295 -1.5650  1.6369
 8392SOL    HW236810   2.206   2.197   7.273 -0.9843  2.2672  0.8993
 8393SOL     OW36811   1.278   0.192   2.650  0.0724  0.5365  0.7107
 8393SOL    HW136812   1.356   0.198   2.596  0.2974 -0.3500  0.9397
 8393SOL    HW236813   1.281   0.279   2.691 -0.9839  1.2906 -0.8295
 8394SOL     OW36814   0.725   1.267   8.720  0.3240 -0.0399 -1.1376
 8394SOL    HW136815   0.783   1.201   8.683  1.2852  0.1001  0.0934
 8394SOL    HW236816   0.702   1.219   8.800  3.1342  1.7015  0.7622
 8395SOL     OW36817   3.870   0.935   2.787 -0.2920  0.1762 -0.3192
 8395SOL    HW136818   3.876   0.878   2.710  1.0407  2.9518 -2.2694
 8395SOL    HW236819   3.801   0.996   2.762  2.0944  1.5276 -3.6569
 8396SOL     OW36820   0.308   0.701   2.075  0.1058  1.3002  0.1552
 8396SOL    HW136821   0.266   0.687   2.159  0.0864 -0.3584 -0.1268
 8396SOL    HW236822   0.227   0.700   2.024  0.5487 -1.7627 -0.4992
 8397SOL     OW36823   1.744   0.618   0.061  0.2577 -0.0101 -0.0953
 8397SOL    HW136824   1.674   0.660   0.111 -0.5234 -4.0022  2.0993
 8397SOL    HW236825   1.730   0.658  17.718  0.1446  2.3045  1.0030
 8398SOL     OW36826   3.213   2.923   5.208  0.0236  0.1859 -0.0905
 8398SOL    HW136827   3.241   2.952   5.121 -0.8796 -0.9050 -0.7394
 8398SOL    HW236828   3.120   2.938   5.196 -0.3667  0.3085  3.2155
 8399SOL     OW36829   4.460   2.220   6.628  0.2389  0.5051  0.4944
 8399SOL    HW136830   4.532   2.205   6.566 -2.6361  1.8260 -3.1731
 8399SOL    HW236831   4.496   2.181   6.707  0.5989 -1.0154 -0.4338
 8400SOL     OW36832   2.211   1.413   3.429  0.1016 -0.4078 -0.1009
 8400SOL    HW136833   2.136   1.356   3.416 -2.0537  2.6530 -1.0543
 8400SOL    HW236834   2.166   1.495   3.408  1.2776  0.2523 -0.0544
 8401SOL     OW36835   0.529   2.066   0.047 -0.0628  0.7947 -0.1473
 8401SOL    HW136836   0.448   2.114   0.064 -0.2838 -0.2062  1.5150
 8401SOL    HW236837   0.582   2.100   0.118 -2.0487  1.1920  1.1471
 8402SOL     OW36838   1.045   2.000   6.407 -0.3631 -0.0489  0.2614
 8402SOL    HW136839   1.001   1.995   6.491  0.1779 -2.4405  0.3816
 8402SOL    HW236840   0.969   2.043   6.367  0.5797  1.6137  0.2685
 8403SOL     OW36841   0.724   0.946   2.077 -0.1207  0.7841  0.5786
 8403SOL    HW136842   0.679   0.944   2.162 -1.0432  0.0957  0.0719
 8403SOL    HW236843   0.668   0.894   2.020  1.1999  1.8085 -1.6364
 8404SOL     OW36844   4.596   4.649   4.834 -0.1009 -0.3577 -0.2836
 8404SOL    HW136845   4.586   4.554   4.831  0.0268 -0.3451 -1.2731
 8404SOL    HW236846   4.562   4.670   4.921 -0.3681 -2.2911  0.0652
 8405SOL     OW36847   3.289   0.537   2.524  0.5881 -0.4020 -0.1377
 8405SOL    HW136848   3.291   0.442   2.520  1.4745 -0.3257 -1.3276
 8405SOL    HW236849   3.235   0.550   2.446  0.1615 -0.1004  0.2085
 8406SOL     OW36850   4.605   3.811   6.375  0.4635 -0.4065  0.2414
 8406SOL    HW136851   4.631   3.825   6.466 -0.2934 -1.3860  0.6104
 8406SOL    HW236852   4.624   3.890   6.324  1.2807 -0.3257  0.6773
 8407SOL     OW36853   3.473   1.206   9.678 -0.2352 -0.0054 -0.2837
 8407SOL    HW136854   3.452   1.181   9.768  2.0638 -1.2915 -0.1003
 8407SOL    HW236855   3.562   1.171   9.673 -1.1332 -2.1805 -0.9204
 8408SOL     OW36856   0.977   0.745  12.316 -0.1433 -0.3382  0.5434
 8408SOL    HW136857   0.993   0.702  12.232  0.3625  1.6370 -0.3749
 8408SOL    HW236858   0.957   0.828  12.273  0.6251  0.2446  1.3072
 8409SOL     OW36859   2.267   1.690   3.008  0.0507 -0.3294 -0.5101
 8409SOL    HW136860   2.341   1.643   3.048 -1.9023 -2.4003  0.6219
 8409SOL    HW236861   2.319   1.731   2.939 -1.8380  1.4016 -0.8890
 8410SOL     OW36862   0.555   2.436   4.812  0.5403  0.3787  0.0081
 8410SOL    HW136863   0.557   2.449   4.907  1.8097  1.7380 -0.2070
 8410SOL    HW236864   0.474   2.485   4.796 -0.5511 -0.6587  2.2741
 8411SOL     OW36865   2.531   3.644   7.889  0.4084 -0.2962  0.1470
 8411SOL    HW136866   2.578   3.728   7.892 -0.0356 -0.0321 -0.3918
 8411SOL    HW236867   2.496   3.649   7.978 -0.0990 -0.0842 -0.0716
 8412SOL     OW36868   2.210   3.529   2.705  0.4206 -0.2010  0.2951
 8412SOL    HW136869   2.163   3.560   2.627  2.2117 -1.7006 -1.3760
 8412SOL    HW236870   2.264   3.605   2.724  1.7488 -1.2704  0.7616
 8413SOL     OW36871   3.185   1.093   5.660 -0.0586  0.0498  0.0407
 8413SOL    HW136872   3.154   1.141   5.737 -0.9701 -0.0251 -0.2793
 8413SOL    HW236873   3.167   1.163   5.598 -1.4119  0.8413  1.3366
 8414SOL     OW36874   0.082   1.619   2.995 -0.5892  0.0566  0.0153
 8414SOL    HW136875   0.158   1.661   2.955 -2.1333  1.4473 -1.5159
 8414SOL    HW236876   0.017   1.637   2.927  1.9005  1.1697 -2.0408
 8415SOL     OW36877   4.254   2.843  14.531  0.6242 -0.3672  0.6963
 8415SOL    HW136878   4.275   2.854  14.623 -0.4131  0.8129  0.7873
 8415SOL    HW236879   4.166   2.881  14.535  0.6962 -0.2484  1.0950
 8416SOL     OW36880   4.188   1.085   1.858 -0.2432 -0.2352  0.6302
 8416SOL    HW136881   4.268   1.105   1.811 -0.3212  0.1460  0.6608
 8416SOL    HW236882   4.127   1.115   1.790  0.0613  2.2860  1.4592
 8417SOL     OW36883   1.297   2.109   7.807 -0.1074  0.1399  0.1883
 8417SOL    HW136884   1.310   2.177   7.873 -1.2094 -0.9104  1.4838
 8417SOL    HW236885   1.245   2.165   7.748  0.0153 -2.1222 -2.0721
 8418SOL     OW36886   1.426   1.768  10.675  0.1411  0.1214  0.2004
 8418SOL    HW136887   1.358   1.835  10.677 -0.3512 -0.3304 -1.1666
 8418SOL    HW236888   1.376   1.695  10.710 -1.1268  1.0573  0.3519
 8419SOL     OW36889   2.200   1.617  16.887 -0.4701  0.2777 -0.3539
 8419SOL    HW136890   2.144   1.541  16.868 -1.7503  0.9097  0.8877
 8419SOL    HW236891   2.233   1.626  16.798 -1.3755 -0.4322 -0.7669
 8420SOL     OW36892   3.252   2.547   6.342 -0.1295  0.4748  0.1267
 8420SOL    HW136893   3.329   2.604   6.342  0.2399 -0.0212  1.5393
 8420SOL    HW236894   3.224   2.547   6.433 -1.1522  1.9106 -0.1953
 8421SOL     OW36895   3.526   3.817   5.710 -0.0537  0.0363 -0.1795
 8421SOL    HW136896   3.539   3.912   5.723 -1.3938  0.0387  1.1296
 8421SOL    HW236897   3.456   3.809   5.646 -1.5870  1.0071  1.3761
 8422SOL     OW36898   2.393   4.648   9.180  0.4015  0.5602 -0.3092
 8422SOL    HW136899   2.441   4.568   9.155  1.3320  0.9756  0.1254
 8422SOL    HW236900   2.435   4.709   9.120  1.7031 -0.2268 -0.2057
 8423SOL     OW36901   4.711   4.425   2.000  0.2770  0.5629 -0.1127
 8423SOL    HW136902   0.012   4.340   1.978 -0.2891  0.4259 -0.5118
 8423SOL    HW236903   4.704   4.473   1.918 -0.1562  1.1581  0.2728
 8424SOL     OW36904   3.568   4.632  17.187  1.3334  0.4633 -0.0454
 8424SOL    HW136905   3.475   4.610  17.183  1.5792 -0.8195  1.0899
 8424SOL    HW236906   3.587   4.614  17.279  0.4060 -0.7791 -0.0914
 8425SOL     OW36907   0.236   1.222   4.202  0.0867 -0.5251 -0.1258
 8425SOL    HW136908   0.216   1.275   4.279  1.4066 -1.1036  0.6076
 8425SOL    HW236909   0.278   1.141   4.232  1.1942 -0.5308 -1.6887
 8426SOL     OW36910   0.376   4.176  16.902  0.3954  0.5211 -0.2042
 8426SOL    HW136911   0.342   4.115  16.968 -0.8739  0.2558 -1.1065
 8426SOL    HW236912   0.460   4.137  16.878  2.6511  3.4894  2.7429
 8427SOL     OW36913   2.083   1.724   9.834  0.9719  0.4232  0.3181
 8427SOL    HW136914   2.048   1.670   9.905 -2.5737 -0.4442 -2.0597
 8427SOL    HW236915   2.176   1.703   9.835  1.0598  0.7408 -1.1412
 8428SOL     OW36916   0.233   3.316   9.542 -0.2330 -0.3649 -0.0864
 8428SOL    HW136917   0.173   3.244   9.557  0.1235 -1.0152 -1.7393
 8428SOL    HW236918   0.316   3.272   9.561 -0.6210 -1.6168 -1.2744
 8429SOL     OW36919   2.786   2.721   7.325 -0.4019 -0.2597  0.3167
 8429SOL    HW136920   2.795   2.642   7.273 -0.0161 -0.3987  0.5953
 8429SOL    HW236921   2.847   2.698   7.395  0.4115  0.8916 -0.0035
 8430SOL     OW36922   2.944   0.630   5.002 -0.3781 -0.3653  0.6165
 8430SOL    HW136923   3.013   0.664   4.945  1.0676  0.5092  2.9118
 8430SOL    HW236924   2.987   0.623   5.087  0.3619  0.2841  0.2977
 8431SOL     OW36925   1.160   0.894   4.200 -0.5119 -0.8347 -0.1900
 8431SOL    HW136926   1.255   0.909   4.202 -0.8105  0.9646  0.8128
 8431SOL    HW236927   1.150   0.800   4.212 -0.5568 -1.1658 -2.9152
 8432SOL     OW36928   1.555   0.696   4.311  0.4239  0.1986 -0.4694
 8432SOL    HW136929   1.527   0.788   4.314 -1.6898 -0.5306  2.3236
 8432SOL    HW236930   1.550   0.673   4.404  0.2498 -3.0501 -1.2910
 8433SOL     OW36931   1.062   0.718   7.137 -0.2394 -0.1071  0.1688
 8433SOL    HW136932   1.044   0.738   7.045 -0.0097 -0.9342 -0.0488
 8433SOL    HW236933   0.974   0.690   7.160 -1.1872  2.2204 -0.5911
 8434SOL     OW36934   1.173   3.016   8.107  0.3629 -0.7188 -0.5387
 8434SOL    HW136935   1.139   3.002   8.019 -0.7611 -2.2692  0.1392
 8434SOL    HW236936   1.244   3.080   8.094  0.1596 -0.2433  0.6633
 8435SOL     OW36937   0.789   1.750   1.211  0.6501 -0.1980  0.5197
 8435SOL    HW136938   0.742   1.726   1.292 -2.4267  2.4650 -0.4482
 8435SOL    HW236939   0.762   1.679   1.152 -2.1854  1.4840 -0.2401
 8436SOL     OW36940   3.907   4.403   8.980  0.2684 -0.2157 -0.1299
 8436SOL    HW136941   3.922   4.481   9.034 -0.5485  0.3194 -0.6716
 8436SOL    HW236942   3.812   4.392   8.984  0.0530  1.8830  0.7103
 8437SOL     OW36943   1.032   0.206   5.091  0.2893  0.3099  0.0646
 8437SOL    HW136944   1.117   0.163   5.088  0.9229  1.4932  1.7188
 8437SOL    HW236945   1.030   0.218   4.996  1.0213  0.6446  0.0957
 8438SOL     OW36946   3.280   1.090  10.657  0.7218  0.0124 -0.0867
 8438SOL    HW136947   3.188   1.111  10.640 -0.2290 -3.7865  0.2199
 8438SOL    HW236948   3.281   1.111  10.750  0.1871 -1.4667  0.2579
 8439SOL     OW36949   4.014   1.235   5.075  0.2083 -0.3785  0.5473
 8439SOL    HW136950   3.968   1.272   5.150 -1.5912  0.1727 -0.8239
 8439SOL    HW236951   4.035   1.151   5.115  0.1728 -1.1990 -1.1694
 8440SOL     OW36952   1.597   2.936  11.056 -0.4988 -0.4209 -0.4688
 8440SOL    HW136953   1.504   2.915  11.042 -0.8875 -0.0263  1.5060
 8440SOL    HW236954   1.595   3.018  11.106  1.4851  0.9900 -2.7246
 8441SOL     OW36955   3.003   4.269   3.316  0.1566 -0.2092 -0.7026
 8441SOL    HW136956   2.951   4.273   3.396  0.7640  0.5096 -0.3405
 8441SOL    HW236957   2.935   4.260   3.249  0.4157 -0.0945 -0.9839
 8442SOL     OW36958   1.811   2.812   5.059  0.4028  0.0793  0.2205
 8442SOL    HW136959   1.763   2.729   5.052  0.1566  0.2121  0.3017
 8442SOL    HW236960   1.742   2.879   5.055  0.3611  0.2080  3.1102
 8443SOL     OW36961   1.742   1.762   0.813 -0.5819  0.2331  0.7115
 8443SOL    HW136962   1.753   1.788   0.722 -1.3419  0.7997  0.7765
 8443SOL    HW236963   1.723   1.847   0.851  1.9338  0.9081  0.4291
 8444SOL     OW36964   3.404   0.083   5.242 -0.6256 -0.2440 -0.6213
 8444SOL    HW136965   3.498   0.083   5.257 -0.9006  0.0801  1.1424
 8444SOL    HW236966   3.385   4.736   5.285  1.0761 -0.5662 -0.5285
 8445SOL     OW36967   1.477   3.401   7.654  0.0405  0.5136  0.5227
 8445SOL    HW136968   1.564   3.382   7.690  0.4467  2.5607  0.5950
 8445SOL    HW236969   1.498   3.484   7.612 -0.4592 -0.0023 -0.7370
 8446SOL     OW36970   1.339   3.396  13.285 -0.1033 -0.2729  0.1989
 8446SOL    HW136971   1.256   3.431  13.251  0.1479  1.6520  1.5418
 8446SOL    HW236972   1.350   3.305  13.260  1.1900 -0.1732  0.3993
 8447SOL     OW36973   3.939   2.917   8.860 -0.1560  0.3617  0.3154
 8447SOL    HW136974   3.850   2.883   8.858  0.8308 -2.1242 -2.1037
 8447SOL    HW236975   3.990   2.845   8.896  1.6155  1.2072 -0.5025
 8448SOL     OW36976   0.398   1.817  14.924  0.0470  0.5203  0.0685
 8448SOL    HW136977   0.325   1.799  14.864 -0.2100  1.1449  0.2010
 8448SOL    HW236978   0.365   1.785  15.007 -1.8890  0.3390 -0.7666
 8449SOL     OW36979   3.050   2.016   4.159  0.2264 -0.5686  0.2581
 8449SOL    HW136980   2.987   1.990   4.226 -0.1073 -0.2039  0.0905
 8449SOL    HW236981   3.034   1.945   4.098  1.1628 -0.2891 -0.3180
 8450SOL     OW36982   0.910   1.337   1.224 -0.0358  0.4593  0.2664
 8450SOL    HW136983   0.902   1.361   1.316 -4.2231 -1.5570  0.4464
 8450SOL    HW236984   1.001   1.305   1.224 -0.2242 -0.1168 -1.1688
 8451SOL     OW36985   3.973   2.435   1.142  0.3176 -0.3415  0.3881
 8451SOL    HW136986   3.978   2.427   1.238  1.1003  2.7446  0.5990
 8451SOL    HW236987   4.057   2.474   1.120  1.3317 -2.8628 -0.1209
 8452SOL     OW36988   4.312   1.952   1.864  0.4599 -0.0311 -0.0315
 8452SOL    HW136989   4.316   1.860   1.887 -2.4125  0.0427  0.8030
 8452SOL    HW236990   4.276   1.951   1.775  0.3713 -1.3863  0.0266
 8453SOL     OW36991   3.223   0.561   5.662  0.2545 -0.0394 -0.2167
 8453SOL    HW136992   3.146   0.518   5.625  0.0838 -1.6686  2.0627
 8453SOL    HW236993   3.183   0.642   5.694 -2.7264 -0.2779 -3.2814
 8454SOL     OW36994   3.659   3.938   9.186  0.2098 -0.5463  0.0216
 8454SOL    HW136995   3.591   3.870   9.185  0.3842 -0.7383  1.8238
 8454SOL    HW236996   3.728   3.875   9.205  0.5849 -0.0583  0.2651
 8455SOL     OW36997   3.647   3.869  11.391 -0.0302  0.3067 -0.1874
 8455SOL    HW136998   3.658   3.924  11.313  0.6103 -0.8548 -0.9144
 8455SOL    HW236999   3.559   3.889  11.421 -0.2375 -2.8781  1.3475
 8456SOL     OW37000   0.824   4.291   5.031  0.3542  0.1049  0.1330
 8456SOL    HW137001   0.776   4.275   4.950 -0.3316  0.4779  0.4713
 8456SOL    HW237002   0.770   4.235   5.087  1.2949 -0.3732  0.5592
 8457SOL     OW37003   2.852   0.591   6.777  0.1603 -1.0645  0.2820
 8457SOL    HW137004   2.847   0.575   6.683 -1.2181  2.5613 -0.2737
 8457SOL    HW237005   2.946   0.607   6.787 -0.2765  1.6826  0.2509
 8458SOL     OW37006   0.227   4.579   7.418  0.1633  0.3276 -0.1525
 8458SOL    HW137007   0.260   4.510   7.360 -2.6255 -0.0175 -1.3367
 8458SOL    HW237008   0.217   4.651   7.355  0.3796  0.4941  0.0056
 8459SOL     OW37009   0.223   2.419   2.262 -0.0878  0.0762 -0.5579
 8459SOL    HW137010   0.164   2.349   2.238  0.3355 -0.3831 -0.2478
 8459SOL    HW237011   0.172   2.475   2.320  2.8858 -1.4907  3.5971
 8460SOL     OW37012   1.497   0.865   4.736  0.7452 -0.6541  0.4282
 8460SOL    HW137013   1.414   0.831   4.770 -0.5937  1.9070 -0.2817
 8460SOL    HW237014   1.478   0.958   4.743 -1.6699 -1.1631  0.8182
 8461SOL     OW37015   4.575   0.664   9.485  0.5309 -0.8218  0.3961
 8461SOL    HW137016   4.618   0.635   9.566  0.5362  1.2138  1.1240
 8461SOL    HW237017   4.499   0.607   9.491 -0.3701  0.5510  1.9761
 8462SOL     OW37018   4.212   3.197   2.915 -0.2422 -0.9403 -0.3523
 8462SOL    HW137019   4.180   3.250   2.987 -0.9899 -2.6256  0.5564
 8462SOL    HW237020   4.267   3.263   2.873  1.4885 -2.1429 -0.0170
 8463SOL     OW37021   2.501   0.019  16.959 -0.0171 -0.5788 -0.1492
 8463SOL    HW137022   2.587   0.049  16.990 -0.3963  0.5276 -0.1778
 8463SOL    HW237023   2.518   4.665  16.929  2.4650 -0.2178  0.1293
 8464SOL     OW37024   0.791   4.005   7.006  0.1958  0.3063 -0.0996
 8464SOL    HW137025   0.835   4.089   7.015 -1.5020  1.2779 -0.7447
 8464SOL    HW237026   0.856   3.956   7.055  1.3251  0.6155 -1.2710
 8465SOL     OW37027   4.092   3.726   7.341 -0.0839 -0.3007  0.1834
 8465SOL    HW137028   4.168   3.775   7.373  0.3314 -0.4673 -0.5425
 8465SOL    HW237029   4.070   3.789   7.272  0.3912 -0.1917  0.1314
 8466SOL     OW37030   2.638   2.251   8.089  0.3206  0.0647  0.2166
 8466SOL    HW137031   2.628   2.156   8.086 -0.4466  0.1603 -0.1104
 8466SOL    HW237032   2.633   2.271   8.182  3.2865 -1.3068  0.6765
 8467SOL     OW37033   3.350   3.196   5.824 -0.2351 -0.5598 -0.3517
 8467SOL    HW137034   3.429   3.248   5.840 -0.5000 -0.4610  0.6141
 8467SOL    HW237035   3.309   3.260   5.766  1.0699  1.3019  0.7990
 8468SOL     OW37036   2.884   3.837  10.387  0.5926 -0.2709  0.6537
 8468SOL    HW137037   2.904   3.930  10.385 -0.0403 -0.0362  4.7034
 8468SOL    HW237038   2.974   3.805  10.375  0.5957  0.1314 -0.3291
 8469SOL     OW37039   4.410   3.218   1.173  0.3682 -0.5988 -0.3388
 8469SOL    HW137040   4.366   3.169   1.104 -1.0601 -0.1351  0.2410
 8469SOL    HW237041   4.388   3.308   1.147  0.7635 -0.4099 -0.0210
 8470SOL     OW37042   1.268   3.711   5.586 -0.2652 -0.1054 -0.2011
 8470SOL    HW137043   1.220   3.629   5.587 -0.8276  0.2241 -0.6185
 8470SOL    HW237044   1.265   3.723   5.681  1.0422  0.8185 -0.2712
 8471SOL     OW37045   3.561   0.555   9.751 -0.4299 -0.2250  0.3348
 8471SOL    HW137046   3.525   0.487   9.808 -0.0727  0.8040  1.7790
 8471SOL    HW237047   3.505   0.627   9.779  0.3636 -0.0084  1.3492
 8472SOL     OW37048   0.279   0.182  13.565 -0.0033 -0.3825  0.6203
 8472SOL    HW137049   0.330   0.262  13.575 -0.7698  0.3668 -1.4367
 8472SOL    HW237050   0.211   0.201  13.500 -0.7149 -2.8015  0.6627
 8473SOL     OW37051   3.256   1.800   9.430 -0.4772  0.1301  0.0493
 8473SOL    HW137052   3.240   1.719   9.383  0.2381  0.1459 -0.2145
 8473SOL    HW237053   3.169   1.841   9.424 -0.5480  0.1919  1.4136
 8474SOL     OW37054   4.338   1.556   5.927  0.2556  0.0064 -0.0088
 8474SOL    HW137055   4.366   1.496   5.859 -0.5284  2.5483 -2.5751
 8474SOL    HW237056   4.383   1.638   5.904 -0.4801  1.0672  2.2980
 8475SOL     OW37057   2.228   2.897   3.988  0.3002  0.0495  0.4504
 8475SOL    HW137058   2.160   2.904   3.921  1.8277 -0.6658 -1.1782
 8475SOL    HW237059   2.231   2.802   3.990  0.1783  0.0559  1.0193
 8476SOL     OW37060   3.760   3.799   8.490 -0.7946 -0.2790  0.1225
 8476SOL    HW137061   3.815   3.776   8.415 -2.0336 -0.0184 -0.8471
 8476SOL    HW237062   3.697   3.858   8.450 -0.2060 -0.1093 -0.5428
 8477SOL     OW37063   0.318   1.970   4.938 -0.1190 -0.3615  0.3265
 8477SOL    HW137064   0.339   1.877   4.947  2.1639  0.0515 -0.7830
 8477SOL    HW237065   0.407   2.004   4.925 -0.6027  0.2863 -1.2183
 8478SOL     OW37066   0.423   0.709  11.619 -0.2572  0.0439 -0.4877
 8478SOL    HW137067   0.478   0.785  11.637  0.7439 -0.4476 -1.4167
 8478SOL    HW237068   0.348   0.720  11.677 -0.2681  0.4853 -0.5830
 8479SOL     OW37069   2.146   0.257   9.439 -0.1412 -0.4828 -0.3384
 8479SOL    HW137070   2.237   0.284   9.432 -0.7573  1.5257 -0.4984
 8479SOL    HW237071   2.110   0.307   9.512  0.8221 -1.9566  1.1472
 8480SOL     OW37072   0.654   2.752  10.228 -0.1625 -0.1536 -0.4643
 8480SOL    HW137073   0.570   2.730  10.270  0.8095 -2.3821  0.3521
 8480SOL    HW237074   0.663   2.841  10.260 -0.3247  0.5240 -2.3165
 8481SOL     OW37075   3.611   1.361   8.233 -0.5059  0.3659 -0.1301
 8481SOL    HW137076   3.663   1.390   8.309  0.5021  1.0885 -1.1005
 8481SOL    HW237077   3.656   1.286   8.196 -2.0431  0.5387 -2.3103
 8482SOL     OW37078   4.511   2.928   5.403  0.0163  0.0140  0.3346
 8482SOL    HW137079   4.524   2.931   5.498  2.0172 -2.8692  0.1335
 8482SOL    HW237080   4.590   2.974   5.375  0.0130  0.5018  1.1237
 8483SOL     OW37081   3.358   1.374   2.980  0.0005 -0.2245  0.4010
 8483SOL    HW137082   3.311   1.396   3.060  0.0543  0.3400  0.2732
 8483SOL    HW237083   3.292   1.321   2.936  0.2570 -1.0328  0.9891
 8484SOL     OW37084   0.170   0.214   7.979  0.2344 -0.2057  0.4894
 8484SOL    HW137085   0.105   0.155   8.016 -0.5562  0.4223  0.0821
 8484SOL    HW237086   0.247   0.164   8.007  1.6026  1.0387 -1.0347
 8485SOL     OW37087   2.112   3.717   7.514  0.7895  0.3667 -0.1366
 8485SOL    HW137088   2.120   3.657   7.588 -0.2372  0.5062  0.0820
 8485SOL    HW237089   2.075   3.665   7.442 -0.8744  2.1780 -0.5631
 8486SOL     OW37090   2.535   0.481  10.420 -0.4008 -0.6763 -0.8899
 8486SOL    HW137091   2.509   0.392  10.443 -4.0107  0.8195  0.8506
 8486SOL    HW237092   2.629   0.466  10.411 -0.2645  0.0318 -0.6479
 8487SOL     OW37093   0.330   2.191  12.362  0.1208  0.1560  0.5627
 8487SOL    HW137094   0.412   2.237  12.378 -0.0176  0.7111 -0.2828
 8487SOL    HW237095   0.277   2.236  12.427  0.9958  1.8646  0.1036
 8488SOL     OW37096   3.617   2.019   2.368  0.2798 -0.3132 -0.4344
 8488SOL    HW137097   3.556   1.988   2.301  1.4265 -1.8814 -0.7473
 8488SOL    HW237098   3.683   2.061   2.312 -0.4125  1.7059  0.2719
 8489SOL     OW37099   3.666   2.389   8.374 -0.0999  0.7755 -0.3946
 8489SOL    HW137100   3.603   2.426   8.312  0.2059  0.7485 -0.7223
 8489SOL    HW237101   3.705   2.470   8.405 -1.3190  0.9855  0.6039
 8490SOL     OW37102   3.598   0.755   5.145  0.7223 -0.0312 -0.2004
 8490SOL    HW137103   3.642   0.715   5.071 -0.4848 -1.3444 -0.2070
 8490SOL    HW237104   3.633   0.844   5.142  0.2487  0.0965 -1.8096
 8491SOL     OW37105   4.164   0.291   3.672  0.5545 -0.0649  0.1409
 8491SOL    HW137106   4.194   0.202   3.651 -0.2170 -0.3550  0.2734
 8491SOL    HW237107   4.232   0.341   3.628  1.2985 -0.8928  0.3451
 8492SOL     OW37108   1.159   4.722   7.777 -0.0067  0.4070 -0.9473
 8492SOL    HW137109   1.066   4.724   7.802  0.0390 -3.4251 -0.3493
 8492SOL    HW237110   1.175   0.054   7.711  0.1875  0.9981 -0.2857
 8493SOL     OW37111   1.764   4.506  14.746  0.5154 -0.1493  0.7662
 8493SOL    HW137112   1.802   4.480  14.662  0.0603  2.9591 -0.3957
 8493SOL    HW237113   1.798   4.592  14.768 -0.0281 -0.1467  1.5907
 8494SOL     OW37114   3.600   1.863  11.080  0.5241 -0.2125  0.6956
 8494SOL    HW137115   3.632   1.953  11.074 -3.0985  0.9274 -1.9796
 8494SOL    HW237116   3.576   1.851  10.988  2.1513 -1.2463  0.4170
 8495SOL     OW37117   0.205   3.596   6.422 -0.2067  0.3203 -0.5022
 8495SOL    HW137118   0.113   3.576   6.408 -0.6983  0.7257  2.0798
 8495SOL    HW237119   0.207   3.691   6.409  1.5237  0.7189  2.6044
 8496SOL     OW37120   0.232   3.643  16.136  0.2269  0.8139 -0.0624
 8496SOL    HW137121   0.283   3.678  16.063  1.3770 -0.3098  0.1990
 8496SOL    HW237122   0.161   3.604  16.085  1.1333 -0.7042 -0.1773
 8497SOL     OW37123   4.062   2.167   6.769 -0.7474 -0.7325  0.4057
 8497SOL    HW137124   4.089   2.077   6.753  0.4696 -0.5608  1.5050
 8497SOL    HW237125   4.067   2.173   6.865 -0.8803 -1.6336  0.4691
 8498SOL     OW37126   1.110   3.122   5.713 -0.0512 -0.1001 -0.3685
 8498SOL    HW137127   1.044   3.181   5.677 -1.0390 -0.9313  0.0621
 8498SOL    HW237128   1.145   3.166   5.792 -0.6317 -1.3694  0.5908
 8499SOL     OW37129   1.725   0.888   8.101 -0.4567 -0.1075  0.3723
 8499SOL    HW137130   1.752   0.884   8.009  0.7499  0.5042  0.7022
 8499SOL    HW237131   1.726   0.982   8.115  3.5765 -0.0755 -0.0614
 8500SOL     OW37132   1.744   3.635   5.979 -0.0381 -0.2984  0.4058
 8500SOL    HW137133   1.737   3.692   6.055  1.6749  1.7447 -0.9983
 8500SOL    HW237134   1.800   3.688   5.922 -1.2524  0.0144 -0.5135
 8501SOL     OW37135   2.736   2.074  16.472 -0.0589 -0.0391  0.0989
 8501SOL    HW137136   2.786   2.116  16.542  0.3667 -0.0607 -0.1919
 8501SOL    HW237137   2.760   2.128  16.396 -1.1915 -0.1702 -0.3531
 8502SOL     OW37138   2.721   1.472   7.553  0.3314  0.0402 -0.2007
 8502SOL    HW137139   2.708   1.402   7.617  1.9404  0.5907  0.7240
 8502SOL    HW237140   2.726   1.549   7.610  0.1614 -0.0963 -0.0019
 8503SOL     OW37141   3.679   3.219  13.714  0.4688  0.1298  0.3407
 8503SOL    HW137142   3.711   3.194  13.801  0.8018 -1.6879 -0.3157
 8503SOL    HW237143   3.738   3.166  13.662  0.3184 -1.7720  2.1205
 8504SOL     OW37144   1.626   0.812  15.330  0.1245  0.1221 -0.2355
 8504SOL    HW137145   1.650   0.793  15.240  0.9568  0.6882 -0.1325
 8504SOL    HW237146   1.532   0.818  15.311  0.0924 -0.7318 -0.3523
 8505SOL     OW37147   3.484   4.140   4.847  0.4276 -1.1599 -0.2143
 8505SOL    HW137148   3.419   4.124   4.779  1.9075 -1.3639 -1.5778
 8505SOL    HW237149   3.444   4.214   4.893  0.8385 -1.5351  0.7506
 8506SOL     OW37150   3.733   1.163   0.789 -0.2945 -0.1100  0.1300
 8506SOL    HW137151   3.760   1.155   0.698 -0.0734 -0.6017  0.2381
 8506SOL    HW237152   3.695   1.250   0.794 -0.8344 -0.3813  0.8773
 8507SOL     OW37153   4.159   4.525   3.222  0.2528  0.4311 -0.1718
 8507SOL    HW137154   4.117   4.576   3.291 -0.7056  0.3582 -0.6971
 8507SOL    HW237155   4.212   4.461   3.269 -0.7440  0.9115  1.6287
 8508SOL     OW37156   3.238   4.262   8.789  0.0258 -0.3570  0.3064
 8508SOL    HW137157   3.310   4.249   8.851  1.9729 -0.5531 -2.0132
 8508SOL    HW237158   3.237   4.356   8.774  0.9385 -0.5948 -1.2432
 8509SOL     OW37159   1.408   1.207  15.095  0.3880  0.7598  0.3111
 8509SOL    HW137160   1.460   1.147  15.148 -0.3396 -0.7293 -0.6477
 8509SOL    HW237161   1.451   1.204  15.010 -1.5062  1.5991 -0.6732
 8510SOL     OW37162   4.097   0.535  16.770  0.0651 -0.4824  0.0027
 8510SOL    HW137163   4.069   0.557  16.681 -0.8788  3.2300  1.1993
 8510SOL    HW237164   4.019   0.500  16.812  0.5703 -0.1806  1.1877
 8511SOL     OW37165   2.069   3.866   4.157  0.0750  0.0955 -0.2340
 8511SOL    HW137166   2.008   3.794   4.141  0.0182  0.1196 -0.1247
 8511SOL    HW237167   2.120   3.838   4.234  0.8265  1.3695 -0.2744
 8512SOL     OW37168   2.083   2.748  15.983  0.9923  0.6395 -0.2636
 8512SOL    HW137169   2.041   2.690  16.047  2.5078 -1.2218 -0.9591
 8512SOL    HW237170   2.164   2.700  15.968  0.2402 -1.0707  1.1927
 8513SOL     OW37171   0.127   1.985   4.180  0.6044  0.5028 -0.0520
 8513SOL    HW137172   0.195   2.048   4.155 -0.1293  0.3624 -2.3749
 8513SOL    HW237173   0.048   2.033   4.154  1.3205  2.1576  0.8132
 8514SOL     OW37174   1.818   3.682   4.318  0.3711  0.0913 -0.2419
 8514SOL    HW137175   1.771   3.730   4.250 -1.6693  0.2032  1.2524
 8514SOL    HW237176   1.814   3.757   4.378 -0.0354  0.1638 -0.3626
 8515SOL     OW37177   1.864   3.300   7.485 -0.3149  0.7538 -0.1623
 8515SOL    HW137178   1.785   3.353   7.484 -1.9900 -1.7029  2.1110
 8515SOL    HW237179   1.852   3.233   7.418 -1.0468  0.0508  0.6657
 8516SOL     OW37180   2.955   1.200  16.732 -0.3537 -0.4707 -0.0122
 8516SOL    HW137181   3.010   1.260  16.681  0.1281 -0.6278  0.3286
 8516SOL    HW237182   2.873   1.182  16.687  0.5951  0.8028 -2.2606
 8517SOL     OW37183   0.243   0.195   5.750  0.3583 -0.0222  0.4173
 8517SOL    HW137184   0.298   0.166   5.678  2.2266 -0.1682  1.9260
 8517SOL    HW237185   0.184   0.120   5.742  0.0218  0.1857  0.9396
 8518SOL     OW37186   1.345   2.565   8.400  0.5507 -0.3646 -0.1881
 8518SOL    HW137187   1.354   2.655   8.369  1.5119  0.2945  1.9703
 8518SOL    HW237188   1.332   2.518   8.318 -1.1688  0.4329 -0.3698
 8519SOL     OW37189   2.061   0.468   3.166  0.1178  0.4540  0.3943
 8519SOL    HW137190   2.047   0.506   3.253  0.5516  1.2606  0.1149
 8519SOL    HW237191   1.975   0.459   3.126 -0.6486 -0.0771  2.1633
 8520SOL     OW37192   0.851   1.264   4.353  0.3774 -0.2126 -0.0673
 8520SOL    HW137193   0.904   1.322   4.298 -0.2225  0.9439  0.5785
 8520SOL    HW237194   0.918   1.196   4.364 -1.1342 -1.6164  0.4107
 8521SOL     OW37195   3.599   1.421  12.533 -0.0267  0.0264 -0.3213
 8521SOL    HW137196   3.626   1.456  12.448  0.4942  0.3434 -0.0251
 8521SOL    HW237197   3.621   1.328  12.527  0.1067 -0.0408  1.2339
 8522SOL     OW37198   0.264   0.971   4.270  0.5903  0.0020  0.0101
 8522SOL    HW137199   0.355   0.952   4.247  0.5078 -2.0565  1.3865
 8522SOL    HW237200   0.262   0.922   4.352  1.2042  1.3403  0.8371
 8523SOL     OW37201   0.891   1.103   6.121 -0.4951 -0.3778  0.4223
 8523SOL    HW137202   0.856   1.179   6.074 -2.1049 -0.5361  1.3629
 8523SOL    HW237203   0.979   1.137   6.132 -0.0070 -0.0523 -4.5778
 8524SOL     OW37204   2.503   3.176   7.529 -0.4541 -0.1076 -0.1071
 8524SOL    HW137205   2.524   3.269   7.543 -0.6469 -0.0422 -0.2494
 8524SOL    HW237206   2.479   3.173   7.437 -1.4949 -0.5612  0.1744
 8525SOL     OW37207   1.969   0.592   3.440 -0.5318 -0.2250  0.0862
 8525SOL    HW137208   2.039   0.548   3.489  1.1534  1.1148 -1.1022
 8525SOL    HW237209   1.893   0.541   3.466 -1.4587 -0.3427 -2.7941
 8526SOL     OW37210   4.645   2.746   4.017  0.4068  0.8915 -0.0251
 8526SOL    HW137211   4.568   2.771   4.067 -0.1810 -2.6572  0.7831
 8526SOL    HW237212   4.720   2.759   4.075 -0.7018  1.4556  1.2815
 8527SOL     OW37213   4.713   4.486   2.887  0.0713  0.4631  0.0947
 8527SOL    HW137214   4.687   4.514   2.974 -2.2404 -2.6421  0.4023
 8527SOL    HW237215   0.053   4.432   2.912  0.0198 -0.7820 -2.3881
 8528SOL     OW37216   1.093   2.966   2.906  0.0840  0.6077 -0.8002
 8528SOL    HW137217   1.166   3.005   2.954 -0.2045 -0.0400  0.1707
 8528SOL    HW237218   1.138   2.916   2.838  0.2895  0.9414 -0.9108
 8529SOL     OW37219   1.413   3.398   5.085 -1.0143  0.6540 -0.2232
 8529SOL    HW137220   1.372   3.440   5.160 -0.8852  0.3068  0.0405
 8529SOL    HW237221   1.363   3.318   5.074 -0.4426  0.6077 -2.5116
 8530SOL     OW37222   2.068   0.938  14.501  0.3512  0.1128 -0.2845
 8530SOL    HW137223   2.114   1.011  14.461  0.7865 -1.4204 -2.5753
 8530SOL    HW237224   2.126   0.866  14.474  0.2448  0.2890 -0.9844
 8531SOL     OW37225   1.105   0.994  11.230  0.2026 -0.0010  0.0161
 8531SOL    HW137226   1.167   1.024  11.296  0.0066 -0.3355  0.3459
 8531SOL    HW237227   1.162   0.924  11.197  1.0543  1.5589 -1.8910
 8532SOL     OW37228   4.721   0.460   2.459  0.3588 -0.1594  0.4996
 8532SOL    HW137229   4.668   0.393   2.502  0.2559 -0.2230  0.2755
 8532SOL    HW237230   4.649   0.499   2.411 -0.2597 -1.5762  0.2720
 8533SOL     OW37231   4.548   1.511   7.703 -0.0279 -0.0375  0.3790
 8533SOL    HW137232   4.594   1.516   7.787  1.0519 -1.3629 -0.1408
 8533SOL    HW237233   4.531   1.417   7.700  1.2912 -0.2354 -0.7703
 8534SOL     OW37234   3.364   0.544   8.907 -0.2224  0.4118 -0.7183
 8534SOL    HW137235   3.329   0.507   8.826  0.9537 -2.5900  0.1412
 8534SOL    HW237236   3.396   0.627   8.871  0.0041  0.6356 -0.0094
 8535SOL     OW37237   2.573   3.438   1.958 -0.5511 -0.3529  0.5249
 8535SOL    HW137238   2.668   3.449   1.963 -0.4251  0.5346 -3.5302
 8535SOL    HW237239   2.559   3.361   2.013  1.9827 -0.7571  0.6244
 8536SOL     OW37240   3.037   0.329  17.065  0.1002 -0.5459  0.0917
 8536SOL    HW137241   2.992   0.413  17.058 -0.2574 -0.7143  0.3651
 8536SOL    HW237242   3.064   0.308  16.975 -0.9836  2.5801 -0.9836
 8537SOL     OW37243   0.510   0.092   6.721 -0.1047  0.2714  0.2890
 8537SOL    HW137244   0.441   0.111   6.784 -1.4418  0.3904 -1.2216
 8537SOL    HW237245   0.548   0.013   6.760 -1.3771 -1.4137 -1.9214
 8538SOL     OW37246   3.227   1.562  12.655 -0.1317  0.1543 -0.1893
 8538SOL    HW137247   3.220   1.559  12.750 -2.3542 -0.3164 -0.3632
 8538SOL    HW237248   3.147   1.512  12.639 -0.6955  0.7303  0.8370
 8539SOL     OW37249   0.209   2.436   0.497 -0.1878 -0.5172  0.2423
 8539SOL    HW137250   0.295   2.471   0.473 -0.2516  1.0257  2.2947
 8539SOL    HW237251   0.163   2.429   0.413  1.5977 -0.0620 -0.7613
 8540SOL     OW37252   4.563   3.396  17.267 -0.6029  0.1827 -0.0459
 8540SOL    HW137253   4.567   3.344  17.187 -1.0164 -0.2659  0.2297
 8540SOL    HW237254   4.510   3.471  17.241  1.5413  0.8679 -2.5041
 8541SOL     OW37255   1.510   2.429   3.458 -0.0574  0.0516 -0.5684
 8541SOL    HW137256   1.572   2.468   3.520  0.0158  0.2097 -0.7411
 8541SOL    HW237257   1.547   2.445   3.371 -1.3771 -2.4501 -1.5964
 8542SOL     OW37258   1.136   3.975   6.364 -0.2795  0.0909 -0.6397
 8542SOL    HW137259   1.066   4.015   6.416 -1.2700 -0.4541 -1.5591
 8542SOL    HW237260   1.105   3.993   6.276  1.7683 -2.3706 -1.8607
 8543SOL     OW37261   0.607   3.730  11.844 -0.3711  0.4840  0.1580
 8543SOL    HW137262   0.514   3.707  11.853  0.0744 -3.0059 -4.2251
 8543SOL    HW237263   0.638   3.734  11.934  1.4618  0.6688 -0.4796
 8544SOL     OW37264   1.629   1.249  13.902  0.1214 -0.1362 -0.5301
 8544SOL    HW137265   1.684   1.248  13.824  2.9875 -0.0933  1.4966
 8544SOL    HW237266   1.584   1.164  13.900 -0.2156  0.0312 -0.1751
 8545SOL     OW37267   1.245   3.460  10.959 -0.6086  0.2211 -0.5561
 8545SOL    HW137268   1.278   3.502  10.879  0.1845 -0.1292 -0.4086
 8545SOL    HW237269   1.224   3.543  11.003 -0.5306  0.9369 -1.8412
 8546SOL     OW37270   2.839   0.716  10.473 -0.1278  0.5636  0.3456
 8546SOL    HW137271   2.770   0.695  10.536 -0.1663 -1.9407 -0.5128
 8546SOL    HW237272   2.844   0.642  10.413  2.0696  0.6444  0.4028
 8547SOL     OW37273   1.695   0.463   7.744  0.2995  0.4434 -0.3374
 8547SOL    HW137274   1.762   0.412   7.699 -0.1243 -0.9541  0.6188
 8547SOL    HW237275   1.638   0.473   7.667 -0.3022 -1.4135 -0.1323
 8548SOL     OW37276   2.412   1.294   4.790 -0.3793 -0.1607  0.7738
 8548SOL    HW137277   2.354   1.333   4.724 -0.1974  0.0164  0.7194
 8548SOL    HW237278   2.438   1.210   4.753  2.8581  0.4084  1.8344
 8549SOL     OW37279   3.956   1.645   0.634  0.2885 -0.1126 -0.0056
 8549SOL    HW137280   3.957   1.738   0.611 -4.8938  0.4493  2.0413
 8549SOL    HW237281   3.942   1.665   0.726 -1.3578 -1.2543 -0.0186
 8550SOL     OW37282   0.006   0.416   8.084 -0.2631 -0.5197 -0.4017
 8550SOL    HW137283   4.667   0.366   8.117 -0.6048  0.1560 -0.1526
 8550SOL    HW237284   0.068   0.350   8.114  1.6656  1.2119 -0.5422
 8551SOL     OW37285   4.683   3.755   7.585 -0.3498  0.7030 -0.7686
 8551SOL    HW137286   4.671   3.710   7.668 -2.8037  1.9811 -0.4114
 8551SOL    HW237287   4.609   3.816   7.588 -0.0802  0.8675  1.8582
 8552SOL     OW37288   0.637   1.046  10.071 -0.1374 -0.0542 -0.0422
 8552SOL    HW137289   0.704   1.033  10.138 -1.2336 -1.7741  0.7176
 8552SOL    HW237290   0.619   0.957  10.041  1.3587 -1.3170  2.7742
 8553SOL     OW37291   3.524   1.661   6.519 -0.1249 -0.1630  0.3405
 8553SOL    HW137292   3.572   1.590   6.563  1.9625 -0.1187 -1.8501
 8553SOL    HW237293   3.490   1.710   6.594  0.7460  1.0817 -0.0805
 8554SOL     OW37294   1.200   1.139   3.043  0.4060  0.1459  0.5325
 8554SOL    HW137295   1.160   1.211   2.994 -1.1129 -1.2563 -0.3141
 8554SOL    HW237296   1.128   1.108   3.099  0.3401 -1.3346 -0.3781
 8555SOL     OW37297   3.101   3.462   1.595 -0.1495  0.4231  0.7702
 8555SOL    HW137298   3.141   3.392   1.646  0.6811 -0.9991 -1.8123
 8555SOL    HW237299   3.015   3.469   1.637 -0.2810 -0.2228  0.6072
 8556SOL     OW37300   1.482   1.527   2.199  0.5585 -0.1984  0.0653
 8556SOL    HW137301   1.539   1.515   2.123 -0.4450 -0.6498 -0.6233
 8556SOL    HW237302   1.547   1.562   2.261  0.6499 -0.1331 -0.0670
 8557SOL     OW37303   1.546   0.063   6.181  0.3412  0.1486 -0.0202
 8557SOL    HW137304   1.628   0.087   6.225  0.2136 -0.4076  0.5205
 8557SOL    HW237305   1.484   0.113   6.234  1.8471  2.1300 -0.1377
 8558SOL     OW37306   4.415   2.007  11.610  0.4523 -0.3253 -0.2116
 8558SOL    HW137307   4.347   2.002  11.676 -0.7224 -0.8092 -1.4664
 8558SOL    HW237308   4.491   2.005  11.668  1.1653 -0.8265 -1.1666
 8559SOL     OW37309   3.325   1.456   5.096 -0.0818  0.3018 -0.7897
 8559SOL    HW137310   3.326   1.369   5.137  1.4314  0.1719 -1.1081
 8559SOL    HW237311   3.305   1.511   5.172  0.8489 -1.5823  0.8314
 8560SOL     OW37312   0.299   1.896  16.591  0.0239 -0.6409 -0.4349
 8560SOL    HW137313   0.299   1.878  16.497 -3.0640 -2.8745 -0.0291
 8560SOL    HW237314   0.304   1.991  16.590 -0.4625 -0.6199 -1.2223
 8561SOL     OW37315   2.757   4.301   9.654 -0.3580 -0.0912 -0.2291
 8561SOL    HW137316   2.704   4.318   9.576  0.4566 -1.0806 -0.9981
 8561SOL    HW237317   2.835   4.258   9.621 -0.5011  1.3817 -2.4941
 8562SOL     OW37318   3.520   1.536   4.734  0.6027  0.3692 -0.3577
 8562SOL    HW137319   3.435   1.495   4.750 -1.0250  3.3002 -1.4505
 8562SOL    HW237320   3.556   1.557   4.820 -0.3352 -0.3946  0.2364
 8563SOL     OW37321   4.356   4.556   5.351 -0.5307  0.5146  0.5483
 8563SOL    HW137322   4.318   4.567   5.439  0.7271  0.4785  1.1017
 8563SOL    HW237323   4.332   4.469   5.319 -0.3216  0.9866 -0.8473
 8564SOL     OW37324   1.756   1.871  14.218 -0.5615  0.1952 -0.4717
 8564SOL    HW137325   1.811   1.937  14.261  0.1486  0.3356 -1.5734
 8564SOL    HW237326   1.774   1.789  14.264  0.3272 -0.7218 -2.4251
 8565SOL     OW37327   0.809   4.115  16.314  0.3199  0.2236 -0.2448
 8565SOL    HW137328   0.805   4.139  16.222 -0.3139  1.5325  0.1229
 8565SOL    HW237329   0.793   4.198  16.360 -0.6498  1.7146 -3.3042
 8566SOL     OW37330   1.605   1.180   9.098 -0.0610 -0.8081  0.4532
 8566SOL    HW137331   1.628   1.108   9.156 -0.7052  0.3290  2.1134
 8566SOL    HW237332   1.676   1.237   9.129 -1.8685  0.3811  2.3594
 8567SOL     OW37333   3.091   0.744   8.436  0.2881  0.0029 -0.4765
 8567SOL    HW137334   3.052   0.719   8.352  0.7339 -0.9366 -0.3957
 8567SOL    HW237335   3.124   0.830   8.409 -1.4781  1.1016  0.8512
 8568SOL     OW37336   3.353   0.974   2.654  0.4715  1.0443  0.1566
 8568SOL    HW137337   3.302   0.976   2.573  1.0624  1.8003 -0.1931
 8568SOL    HW237338   3.320   0.889   2.683  2.0903  0.1968 -0.5004
 8569SOL     OW37339   4.558   3.772  10.734 -0.2274 -0.1264 -0.0695
 8569SOL    HW137340   4.540   3.678  10.732  2.5194 -0.6584 -0.2440
 8569SOL    HW237341   4.632   3.767  10.672 -0.3834 -1.5375 -0.1394
 8570SOL     OW37342   3.076   3.674   9.046  0.1546 -0.2245 -0.4209
 8570SOL    HW137343   3.129   3.595   9.046 -1.8724 -1.5682 -1.3811
 8570SOL    HW237344   3.040   3.665   9.135  1.9912  1.3344  0.4651
 8571SOL     OW37345   2.421   1.671   2.133  0.0150 -0.6095 -0.2394
 8571SOL    HW137346   2.353   1.658   2.199  0.6216 -2.5052  0.0407
 8571SOL    HW237347   2.447   1.759   2.159 -3.4255  0.0564  0.9860
 8572SOL     OW37348   3.231   2.505  17.110  0.1357  0.4251 -0.0601
 8572SOL    HW137349   3.150   2.528  17.065 -0.2767 -1.9603 -0.5858
 8572SOL    HW237350   3.214   2.566  17.181  0.4159  0.3347  0.0857
 8573SOL     OW37351   1.093   2.291   4.084  0.3483  0.6874  0.2405
 8573SOL    HW137352   1.033   2.313   4.156 -0.8886  1.2955 -0.9892
 8573SOL    HW237353   1.030   2.302   4.014  2.3711 -0.3460 -1.7348
 8574SOL     OW37354   1.796   3.668   0.113 -0.3309  0.4267  0.5225
 8574SOL    HW137355   1.754   3.687   0.196 -3.1927 -1.8026 -0.4082
 8574SOL    HW237356   1.882   3.642   0.145  0.6669  1.2567 -1.4749
 8575SOL     OW37357   3.703   2.208   8.928 -0.5132  0.3221 -0.3688
 8575SOL    HW137358   3.690   2.247   8.841 -1.4434 -1.0297 -0.8353
 8575SOL    HW237359   3.664   2.121   8.921  1.2085 -0.5585  1.1965
 8576SOL     OW37360   4.182   4.595  12.301 -0.2665 -0.2327 -0.3419
 8576SOL    HW137361   4.232   4.519  12.331 -0.8037 -0.9565 -1.2915
 8576SOL    HW237362   4.094   4.568  12.325  0.0770  0.3166  1.5490
 8577SOL     OW37363   3.368   1.528   3.736  0.0988 -0.2642  0.3328
 8577SOL    HW137364   3.436   1.554   3.798  0.6774 -2.0914  0.4508
 8577SOL    HW237365   3.356   1.436   3.760  1.2766 -0.6821 -0.6770
 8578SOL     OW37366   1.021   4.236   1.923 -0.0705 -0.0991  0.5721
 8578SOL    HW137367   1.084   4.307   1.911 -0.3763  0.1684  0.5627
 8578SOL    HW237368   0.962   4.253   1.850  0.2816  1.1122  0.5633
 8579SOL     OW37369   4.493   0.061   6.224 -0.8167 -0.1613 -0.4135
 8579SOL    HW137370   4.531   0.143   6.254  0.2620  0.1979 -2.8123
 8579SOL    HW237371   4.557   0.030   6.160 -0.0372 -0.2840  0.4283
 8580SOL     OW37372   2.651   3.991   4.249  0.0961 -0.1773  0.2232
 8580SOL    HW137373   2.698   4.020   4.170  1.0872 -2.2093  0.0643
 8580SOL    HW237374   2.717   4.028   4.307 -0.6918  2.1721 -0.3631
 8581SOL     OW37375   0.082   0.262   4.651 -0.1511 -0.1231  0.3244
 8581SOL    HW137376   0.097   0.190   4.713  1.2744  0.5503  0.7550
 8581SOL    HW237377   0.155   0.246   4.592  0.8259 -1.3872  1.8669
 8582SOL     OW37378   4.188   0.546  10.255  0.1031 -0.0538 -0.3017
 8582SOL    HW137379   4.152   0.576  10.172  0.2502 -0.8977 -0.6728
 8582SOL    HW237380   4.206   0.626  10.304 -0.4707 -0.1037 -0.0094
 8583SOL     OW37381   3.724   2.838   7.649 -0.2701  0.3722 -0.5014
 8583SOL    HW137382   3.678   2.911   7.608 -0.0601 -0.5490 -2.3543
 8583SOL    HW237383   3.814   2.868   7.648  0.2129 -0.9849  1.6271
 8584SOL     OW37384   4.399   2.093   5.560  0.0035  0.2927 -0.3167
 8584SOL    HW137385   4.359   2.120   5.643 -4.4271 -0.6676 -2.1550
 8584SOL    HW237386   4.326   2.114   5.502 -1.4787 -1.4406  0.9507
 8585SOL     OW37387   4.501   2.462   2.350 -0.0369 -0.0298  0.0672
 8585SOL    HW137388   4.500   2.486   2.443  1.0107 -0.1709  0.1091
 8585SOL    HW237389   4.556   2.384   2.355  0.1056  0.1264  0.9177
 8586SOL     OW37390   1.983   3.176   3.089 -0.2622 -0.6676  0.6357
 8586SOL    HW137391   1.958   3.250   3.033  0.8314 -1.1940 -0.5364
 8586SOL    HW237392   2.023   3.218   3.166  0.8005  0.1349 -0.3647
 8587SOL     OW37393   0.128   0.690   2.461 -0.5592  0.0702 -0.1091
 8587SOL    HW137394   0.054   0.746   2.439 -0.2586  1.3599  2.2051
 8587SOL    HW237395   0.083   0.608   2.485  0.9746 -0.7926 -0.1772
 8588SOL     OW37396   2.782   0.382   9.866 -0.0127 -0.3170 -0.1213
 8588SOL    HW137397   2.782   0.452   9.801 -0.7062 -0.1250  0.0909
 8588SOL    HW237398   2.784   0.309   9.803  1.5621 -0.9346  0.6501
 8589SOL     OW37399   3.698   4.662   4.308 -0.3033  0.1553 -0.2016
 8589SOL    HW137400   3.750   4.708   4.374 -2.6505  1.0121  1.0820
 8589SOL    HW237401   3.641   4.733   4.278  2.3484  2.4755  0.2497
 8590SOL     OW37402   1.201   1.758   3.887  0.2527  0.7659 -0.3710
 8590SOL    HW137403   1.265   1.756   3.817 -0.0960 -1.3811 -0.6153
 8590SOL    HW237404   1.127   1.801   3.844  0.3761  1.7300  0.3782
 8591SOL     OW37405   2.264   2.646  14.578 -0.1870 -0.3269 -0.1457
 8591SOL    HW137406   2.173   2.651  14.551 -0.2165  0.3159  0.0781
 8591SOL    HW237407   2.242   2.596  14.657 -1.1722 -1.1762 -0.9560
 8592SOL     OW37408   0.420   2.668   2.702  0.2178  0.3269  0.3351
 8592SOL    HW137409   0.349   2.671   2.767  0.9375  1.5118  1.0836
 8592SOL    HW237410   0.392   2.718   2.625 -1.5527 -1.3420 -0.0940
 8593SOL     OW37411   1.865   1.775  16.153  0.3190  0.2255 -0.2512
 8593SOL    HW137412   1.928   1.812  16.216 -0.4454  0.2114  0.5174
 8593SOL    HW237413   1.779   1.787  16.192 -0.6351  0.8043 -2.5646
 8594SOL     OW37414   3.578   3.145  15.269 -0.5652  0.3961 -0.4061
 8594SOL    HW137415   3.664   3.181  15.246 -0.0187  0.2242  1.3067
 8594SOL    HW237416   3.554   3.203  15.341  1.7115  1.0456 -0.1690
 8595SOL     OW37417   0.723   4.169  14.328  0.2226 -0.0587 -0.1227
 8595SOL    HW137418   0.751   4.237  14.389  0.4418  1.1908 -1.6341
 8595SOL    HW237419   0.661   4.206  14.265  0.4065  0.0226 -0.2574
 8596SOL     OW37420   4.225   2.720   3.171  0.3679  0.5925 -0.0861
 8596SOL    HW137421   4.143   2.766   3.153 -0.1364  0.2517  1.4091
 8596SOL    HW237422   4.206   2.650   3.233  0.9874  1.6546  1.2943
 8597SOL     OW37423   3.107   3.011  17.132  0.2523  0.0089  0.1437
 8597SOL    HW137424   3.031   3.009  17.191 -1.3413  1.0752 -1.8909
 8597SOL    HW237425   3.088   3.078  17.067 -0.3323  2.0520  2.4186
 8598SOL     OW37426   1.278   4.622   4.138  0.0151  0.7046  0.0440
 8598SOL    HW137427   1.306   4.712   4.156  0.4637 -0.1241  3.5252
 8598SOL    HW237428   1.356   4.573   4.162 -0.5447  0.5248  1.4895
 8599SOL     OW37429   3.269   2.336   8.484  0.0001 -0.2291 -0.0577
 8599SOL    HW137430   3.324   2.258   8.473  0.0823  0.4000 -4.1182
 8599SOL    HW237431   3.234   2.356   8.397 -1.1162  1.3759  0.7765
 8600SOL     OW37432   3.220   2.120   5.415 -0.0272  0.3866  0.4248
 8600SOL    HW137433   3.201   2.089   5.504  1.0434 -1.0850  0.1445
 8600SOL    HW237434   3.315   2.116   5.414  0.0524  2.8864 -1.1186
 8601SOL     OW37435   1.847   3.438  13.258 -0.1052 -0.6869  0.1942
 8601SOL    HW137436   1.931   3.435  13.303 -0.4211  0.0287  0.8298
 8601SOL    HW237437   1.787   3.494  13.307  0.6167 -0.8156  1.2118
 8602SOL     OW37438   2.093   0.631   5.637  0.1405  0.0515 -0.2205
 8602SOL    HW137439   2.172   0.639   5.691 -0.0309 -1.6365  0.2792
 8602SOL    HW237440   2.113   0.682   5.559  1.4515  0.0838  0.1467
 8603SOL     OW37441   2.203   3.938   8.376  0.6342 -0.2760 -0.4695
 8603SOL    HW137442   2.221   3.860   8.428  1.8802  0.8132  0.7196
 8603SOL    HW237443   2.107   3.936   8.375  0.6131  1.4181 -4.4002
 8604SOL     OW37444   0.999   1.371   3.191  0.4874 -0.1696 -0.5949
 8604SOL    HW137445   0.927   1.375   3.254 -0.3570 -0.9254 -1.5073
 8604SOL    HW237446   0.986   1.280   3.164  0.1257 -0.0652 -0.7739
 8605SOL     OW37447   3.773   0.651   7.460  0.4441  0.1402 -0.3364
 8605SOL    HW137448   3.820   0.571   7.486  1.3499  0.2324 -1.7005
 8605SOL    HW237449   3.828   0.692   7.394  2.3354  0.1499  1.2185
 8606SOL     OW37450   3.983   4.360   2.187 -0.1264 -0.0112  0.4507
 8606SOL    HW137451   3.888   4.353   2.196 -0.2079  1.0672  0.5025
 8606SOL    HW237452   3.984   4.387   2.095  0.9175  1.5239  0.9018
 8607SOL     OW37453   2.789   2.563   4.846 -0.7279 -0.7170  0.0953
 8607SOL    HW137454   2.717   2.528   4.792 -0.0005 -1.0279 -0.6655
 8607SOL    HW237455   2.749   2.545   4.932 -2.9980  2.2780 -0.3505
 8608SOL     OW37456   1.662   0.349   6.746  0.5443 -0.2152  0.3642
 8608SOL    HW137457   1.710   0.430   6.728 -0.2807  0.5425  1.6297
 8608SOL    HW237458   1.660   0.358   6.842 -0.1057  0.3897  0.2898
 8609SOL     OW37459   1.518   2.410   2.449  0.0568 -0.6773 -0.0796
 8609SOL    HW137460   1.441   2.357   2.470 -1.2042  1.4376  0.5831
 8609SOL    HW237461   1.508   2.483   2.510 -0.2714 -0.4898 -0.3575
 8610SOL     OW37462   4.342   1.084   7.185  0.3808 -0.5965 -0.6624
 8610SOL    HW137463   4.403   1.128   7.127 -1.0780 -0.2121 -1.9254
 8610SOL    HW237464   4.380   1.085   7.272 -2.6431  2.8565  0.6537
 8611SOL     OW37465   3.948   0.875   9.222 -0.5596 -0.5457  0.3443
 8611SOL    HW137466   3.987   0.828   9.295  1.6077 -1.7713 -1.5850
 8611SOL    HW237467   4.017   0.939   9.202 -0.4255 -0.3394  1.5000
 8612SOL     OW37468   0.217   1.838   9.966  0.0747 -0.2117 -0.3941
 8612SOL    HW137469   0.209   1.743   9.981  4.4154 -0.3764  0.8336
 8612SOL    HW237470   0.208   1.870  10.055 -1.6933  0.0968 -0.6697
 8613SOL     OW37471   2.927   2.994   7.222 -0.1184  0.2706  0.3214
 8613SOL    HW137472   2.904   2.901   7.214 -3.0641  0.8309  2.1602
 8613SOL    HW237473   2.952   3.001   7.314 -1.2393 -0.3991  0.6844
 8614SOL     OW37474   4.408   2.666   7.513 -0.1881 -0.0699 -0.2152
 8614SOL    HW137475   4.466   2.743   7.516  3.3343 -2.5879 -2.5426
 8614SOL    HW237476   4.329   2.719   7.516  1.0577  1.8076 -0.0711
 8615SOL     OW37477   3.956   0.438   5.829 -0.0070  0.3530 -0.0471
 8615SOL    HW137478   3.941   0.465   5.739  0.2621 -0.3690 -0.3000
 8615SOL    HW237479   3.879   0.382   5.836  0.0143  0.5598  2.1169
 8616SOL     OW37480   1.256   4.276  11.019  0.6477  0.5353 -0.4799
 8616SOL    HW137481   1.351   4.285  11.007  0.6239 -0.0744 -1.0885
 8616SOL    HW237482   1.240   4.308  11.108  0.5186  0.3084 -0.4209
 8617SOL     OW37483   1.337   3.753   2.516  0.3709  0.4829 -0.1177
 8617SOL    HW137484   1.415   3.768   2.570 -0.0205 -1.1053  0.8964
 8617SOL    HW237485   1.296   3.839   2.517 -0.9030 -0.1322  0.2128
 8618SOL     OW37486   2.522   2.695   9.896  0.2786 -0.4806  0.1787
 8618SOL    HW137487   2.496   2.762   9.832  0.2258 -0.4032  0.2825
 8618SOL    HW237488   2.531   2.617   9.841  1.4782  0.7368 -1.3478
 8619SOL     OW37489   0.889   2.733   0.501  0.7987  0.2398  0.1262
 8619SOL    HW137490   0.806   2.733   0.549  0.6695  1.0754 -0.0887
 8619SOL    HW237491   0.880   2.825   0.475 -0.3214 -0.5435 -2.2676
 8620SOL     OW37492   1.186   1.352   9.107  0.2920 -0.0762 -0.2652
 8620SOL    HW137493   1.175   1.415   9.178 -3.0824 -2.1777  1.0632
 8620SOL    HW237494   1.092   1.336   9.104 -0.2285  2.6040  2.4048
 8621SOL     OW37495   2.747   1.616  10.125 -0.1234  0.0596 -0.1790
 8621SOL    HW137496   2.794   1.551  10.073  0.6330  0.1919  0.3459
 8621SOL    HW237497   2.819   1.643  10.182 -0.4816  0.9504 -0.1480
 8622SOL     OW37498   0.186   2.164  16.977 -0.7651  0.1642 -0.2802
 8622SOL    HW137499   0.119   2.144  17.043 -0.3419  1.2676  0.4932
 8622SOL    HW237500   0.170   2.254  16.950 -1.5802  0.3111  0.7079
 8623SOL     OW37501   4.707   1.110   1.814 -0.1390 -0.2144  0.0586
 8623SOL    HW137502   0.037   1.169   1.849 -0.5112 -1.7994  3.4171
 8623SOL    HW237503   0.029   1.039   1.785  0.1071 -0.4086  1.0283
 8624SOL     OW37504   2.948   2.967   9.378 -0.9255  0.2453 -0.1372
 8624SOL    HW137505   3.036   2.984   9.411 -1.2752  0.2506  0.8021
 8624SOL    HW237506   2.899   3.038   9.420 -1.3189  0.4095 -0.8620
 8625SOL     OW37507   0.481   2.582   7.016  0.4423 -0.2166  0.0067
 8625SOL    HW137508   0.535   2.579   6.937 -0.8939 -3.2420 -0.8114
 8625SOL    HW237509   0.513   2.500   7.054 -0.6970  0.0300  1.4889
 8626SOL     OW37510   1.809   0.594   9.669 -0.9151  0.1575  0.5776
 8626SOL    HW137511   1.822   0.606   9.763  2.2161  0.3960  0.1146
 8626SOL    HW237512   1.786   0.685   9.649 -0.7032  0.4100  1.4360
 8627SOL     OW37513   3.912   3.937   9.377  0.1710  0.1892  0.3968
 8627SOL    HW137514   3.904   3.871   9.308  0.4382  1.7621 -1.1439
 8627SOL    HW237515   4.002   3.964   9.359 -0.3452  2.4204  1.2069
 8628SOL     OW37516   3.686   2.532   5.194 -0.2254 -0.4659 -0.3891
 8628SOL    HW137517   3.711   2.458   5.249  0.9126 -0.3351 -0.7188
 8628SOL    HW237518   3.594   2.507   5.188 -0.7068  1.2451 -0.0669
 8629SOL     OW37519   4.095   3.876  14.948 -0.3695  0.0661  0.2079
 8629SOL    HW137520   4.142   3.929  14.883  1.8884 -0.6718  1.2352
 8629SOL    HW237521   4.161   3.877  15.017  0.3718  2.1035 -0.5512
 8630SOL     OW37522   2.538   0.607   2.712 -0.0210  0.3908  0.7606
 8630SOL    HW137523   2.475   0.660   2.761  0.7168  1.0582  0.9862
 8630SOL    HW237524   2.554   0.537   2.776 -0.9610  0.5209  1.1368
 8631SOL     OW37525   0.098   1.247  15.434  0.1819 -0.5951 -0.8771
 8631SOL    HW137526   0.006   1.239  15.461 -0.2001  3.0979 -1.0638
 8631SOL    HW237527   0.113   1.323  15.491 -1.1129  0.3945 -1.8468
 8632SOL     OW37528   4.592   2.746   2.773  0.5401 -0.2813 -0.2758
 8632SOL    HW137529   4.582   2.725   2.866  0.3548 -0.3972 -0.3213
 8632SOL    HW237530   4.601   2.841   2.768 -1.9321 -0.1172 -1.7316
 8633SOL     OW37531   0.133   3.237   1.860 -0.1621 -0.1216  1.1390
 8633SOL    HW137532   0.211   3.201   1.900  0.1238  0.3944  1.0492
 8633SOL    HW237533   0.157   3.329   1.851 -0.0953 -0.3027 -0.6006
 8634SOL     OW37534   0.339   3.568   7.363  0.3713 -0.2304  0.0135
 8634SOL    HW137535   0.247   3.590   7.347 -0.5313 -2.6280  1.8630
 8634SOL    HW237536   0.337   3.479   7.398 -3.0457 -0.1825 -0.0797
 8635SOL     OW37537   3.699   0.733   9.245 -0.1916 -0.2369  0.4644
 8635SOL    HW137538   3.719   0.756   9.336 -0.7934  0.9882  0.2843
 8635SOL    HW237539   3.771   0.771   9.196  0.2357 -1.5488  0.0776
 8636SOL     OW37540   0.097   1.502  15.610  0.2944 -0.4277 -0.3987
 8636SOL    HW137541   0.159   1.565  15.574  1.4043 -0.7823  0.9365
 8636SOL    HW237542   0.018   1.554  15.592 -0.0877 -0.8662  0.0224
 8637SOL     OW37543   0.198   1.687   0.563 -0.0732 -0.1496 -0.4513
 8637SOL    HW137544   0.110   1.673   0.528 -0.8072  0.0821  1.2981
 8637SOL    HW237545   0.188   1.654   0.653 -0.6887 -1.3039 -0.9358
 8638SOL     OW37546   1.051   1.898   7.026  0.0804 -0.4656 -0.1602
 8638SOL    HW137547   1.060   1.845   6.946 -3.0370  1.7976 -2.0023
 8638SOL    HW237548   1.088   1.833   7.086  1.0108  2.8335  2.8031
 8639SOL     OW37549   2.265   3.320   1.731  0.1960  0.1448 -0.0603
 8639SOL    HW137550   2.250   3.301   1.639 -0.3727  0.7978 -0.1139
 8639SOL    HW237551   2.317   3.401   1.734  1.3671 -0.5491 -2.2759
 8640SOL     OW37552   1.549   0.844   7.165  0.3862  0.5075  0.3111
 8640SOL    HW137553   1.563   0.927   7.211 -0.3239  1.9502 -2.0922
 8640SOL    HW237554   1.455   0.851   7.148  0.3204  1.8615  1.2342
 8641SOL     OW37555   2.440   4.353   3.939  0.3233  0.1946  0.3588
 8641SOL    HW137556   2.357   4.394   3.963 -0.1910  0.0204 -1.1138
 8641SOL    HW237557   2.458   4.316   4.026  0.1744  1.2371  0.8291
 8642SOL     OW37558   1.384   0.778   8.817 -0.0261 -0.3424  0.3877
 8642SOL    HW137559   1.476   0.767   8.791 -0.5584 -0.4735 -1.4029
 8642SOL    HW237560   1.361   0.695   8.775 -0.2382  0.4617 -1.0868
 8643SOL     OW37561   2.670   3.402   5.609  0.1333  0.2652  0.3392
 8643SOL    HW137562   2.756   3.394   5.650 -0.2726  1.9868  1.5481
 8643SOL    HW237563   2.616   3.345   5.664 -1.4386  0.7318 -0.7274
 8644SOL     OW37564   2.041   3.936   7.663  0.1379 -0.5818  0.3884
 8644SOL    HW137565   2.095   3.870   7.618 -0.0165 -0.3891 -0.0779
 8644SOL    HW237566   1.973   3.883   7.704 -0.7370 -1.0666 -1.6793
 8645SOL     OW37567   1.886   0.537   4.806 -0.0608  0.2038 -0.1271
 8645SOL    HW137568   1.940   0.464   4.775 -0.7758 -1.5397  2.6717
 8645SOL    HW237569   1.907   0.603   4.740 -1.7504  0.8285 -0.0479
 8646SOL     OW37570   0.538   2.932   8.477 -0.0403 -0.4241 -0.6063
 8646SOL    HW137571   0.461   2.977   8.441 -1.5844 -3.4410 -1.0674
 8646SOL    HW237572   0.514   2.840   8.467 -1.4723 -0.1475  0.3186
 8647SOL     OW37573   1.223   0.964   5.839 -0.1892  0.0980  0.2730
 8647SOL    HW137574   1.146   1.022   5.833  0.0242  0.2123 -1.3504
 8647SOL    HW237575   1.293   1.029   5.841  0.7338 -0.8816 -0.5948
 8648SOL     OW37576   2.113   0.165   6.511  0.4428 -0.2689  0.4364
 8648SOL    HW137577   2.127   0.248   6.557 -0.2837 -0.5286  1.1211
 8648SOL    HW237578   2.144   0.115   6.587  2.4733 -0.8048 -0.7402
 8649SOL     OW37579   2.672   1.911   0.309  0.2367 -0.6753  0.1163
 8649SOL    HW137580   2.632   1.831   0.341  0.0765 -0.4305  0.5266
 8649SOL    HW237581   2.751   1.915   0.364  1.3469  0.5547 -1.5517
 8650SOL     OW37582   3.876   0.937  16.372 -0.0482  0.0077 -0.1469
 8650SOL    HW137583   3.912   0.915  16.458 -2.0930 -2.0272  0.1752
 8650SOL    HW237584   3.953   0.933  16.315 -0.8635 -0.4309 -1.2093
 8651SOL     OW37585   3.511   2.611  12.065 -0.6715 -0.4117 -0.1778
 8651SOL    HW137586   3.454   2.534  12.062  0.0019 -0.9086 -0.1772
 8651SOL    HW237587   3.483   2.662  11.989 -0.9836 -0.5699 -0.1724
 8652SOL     OW37588   1.796   3.573  10.041  0.5324  0.9723 -0.3364
 8652SOL    HW137589   1.767   3.652  10.085 -0.7977 -0.1902  0.8814
 8652SOL    HW237590   1.831   3.609   9.959  1.7474  2.5833  0.8861
 8653SOL     OW37591   3.252   3.024  10.554  0.5401 -0.1744 -0.0243
 8653SOL    HW137592   3.325   2.962  10.546  1.3789  0.5452  1.9790
 8653SOL    HW237593   3.301   3.106  10.566  1.8403 -0.5667 -2.7192
 8654SOL     OW37594   4.619   2.334   8.025 -0.1165 -0.2293  0.3788
 8654SOL    HW137595   4.668   2.329   7.943 -0.7546  1.3947 -0.1281
 8654SOL    HW237596   4.541   2.388   8.007 -0.3754 -0.2386  1.4601
 8655SOL     OW37597   0.180   3.905   5.843 -0.1578  0.0493  0.2463
 8655SOL    HW137598   0.102   3.931   5.794  1.2862 -2.2066 -3.2040
 8655SOL    HW237599   0.239   3.879   5.772 -0.2964 -0.6590  0.3914
 8656SOL     OW37600   4.702   4.206   8.014 -0.1299 -0.1870  0.2860
 8656SOL    HW137601   4.680   4.219   7.921 -1.6641 -1.2549  0.5026
 8656SOL    HW237602   4.636   4.139   8.031 -1.9350  1.2490 -1.0294
 8657SOL     OW37603   0.662   1.668   5.632 -0.4344  0.4424 -0.2611
 8657SOL    HW137604   0.656   1.649   5.539 -1.8149  1.1285 -0.3022
 8657SOL    HW237605   0.757   1.660   5.645 -0.6887 -0.6201  0.8743
 8658SOL     OW37606   0.499   3.706   1.467  0.4834 -0.3128 -0.0894
 8658SOL    HW137607   0.591   3.725   1.484 -0.1390  2.9280 -0.3917
 8658SOL    HW237608   0.496   3.626   1.519 -0.4182 -0.2343 -0.0092
 8659SOL     OW37609   2.568   0.177   7.589 -0.0540 -0.1910  0.7074
 8659SOL    HW137610   2.496   0.229   7.552  1.2165 -0.6461 -2.4125
 8659SOL    HW237611   2.510   0.136   7.654 -0.3227 -1.5783 -0.4062
 8660SOL     OW37612   1.572   2.603   0.086 -0.0388 -0.3348 -0.2340
 8660SOL    HW137613   1.482   2.569   0.082 -0.2566  0.1872  0.3032
 8660SOL    HW237614   1.567   2.692   0.119  1.4631 -0.3060 -0.0964
 8661SOL     OW37615   2.220   2.175   3.475  0.0981 -0.4486 -0.1487
 8661SOL    HW137616   2.310   2.154   3.452 -0.0254  0.3979 -1.3913
 8661SOL    HW237617   2.227   2.268   3.497 -2.0363 -0.1118 -0.9011
 8662SOL     OW37618   2.961   1.900   2.091 -0.6078  0.5128  0.1166
 8662SOL    HW137619   3.004   1.943   2.018 -2.1358  1.8481  0.0004
 8662SOL    HW237620   2.896   1.961   2.127 -0.1393  0.2321  1.4624
 8663SOL     OW37621   2.896   1.916   7.865  0.3805 -0.0299 -0.2131
 8663SOL    HW137622   2.903   1.979   7.793 -0.5599 -0.8860 -1.0684
 8663SOL    HW237623   2.970   1.934   7.922 -0.5902  1.5767  0.5449
 8664SOL     OW37624   2.620   0.198   0.573  0.5961  0.0474  0.0355
 8664SOL    HW137625   2.553   0.165   0.513 -0.2785  3.1094 -0.7121
 8664SOL    HW237626   2.618   0.289   0.544 -0.6751  0.3515  1.0549
 8665SOL     OW37627   3.518   1.002   5.648  0.1349  0.5437 -0.3011
 8665SOL    HW137628   3.567   1.016   5.566  2.3254  0.9324  1.0845
 8665SOL    HW237629   3.459   1.077   5.649 -0.1791  0.2687  1.4383
 8666SOL     OW37630   1.404   1.845  10.394 -0.0558 -0.3648 -0.3238
 8666SOL    HW137631   1.388   1.809  10.307  1.2411 -1.2301 -0.2040
 8666SOL    HW237632   1.467   1.783  10.432  0.8561  0.8689  0.1885
 8667SOL     OW37633   0.069   0.381   7.803 -0.5983  0.1573  0.0803
 8667SOL    HW137634   0.040   0.430   7.879 -1.9288 -0.1473 -0.2374
 8667SOL    HW237635   0.138   0.329   7.844 -1.6469  0.9582  2.8578
 8668SOL     OW37636   4.263   0.210   9.331  0.1977 -0.2451  0.1277
 8668SOL    HW137637   4.257   0.123   9.292 -2.9801  1.7448 -3.8998
 8668SOL    HW237638   4.209   0.257   9.267 -0.5962 -0.6010  0.5429
 8669SOL     OW37639   1.844   4.078   5.857 -0.4453  0.1809 -0.8351
 8669SOL    HW137640   1.840   4.103   5.765  2.7849 -2.0760 -1.6086
 8669SOL    HW237641   1.760   4.038   5.877 -0.2994  0.3815  0.1822
 8670SOL     OW37642   0.878   2.589   4.368 -0.1040 -0.1294 -0.5972
 8670SOL    HW137643   0.789   2.590   4.401 -0.5383  3.3565 -1.8950
 8670SOL    HW237644   0.884   2.494   4.355 -1.6663 -0.5663  1.9590
 8671SOL     OW37645   1.402   1.277   9.509 -0.0759  0.1168  0.0411
 8671SOL    HW137646   1.483   1.325   9.491 -0.6675  0.4216 -1.8188
 8671SOL    HW237647   1.439   1.222   9.578  1.9334  1.2604 -0.0974
 8672SOL     OW37648   4.265   1.562   9.533 -0.0727 -0.4093  0.2418
 8672SOL    HW137649   4.208   1.638   9.519  2.9567  2.0391  1.1161
 8672SOL    HW237650   4.210   1.485   9.518 -2.2203  1.2322 -0.3274
 8673SOL     OW37651   0.804   0.981  10.308 -0.3504 -0.0411  0.6485
 8673SOL    HW137652   0.825   1.042  10.379 -3.6617  1.1433  0.6047
 8673SOL    HW237653   0.748   0.929  10.366 -1.1252  1.3246  1.1244
 8674SOL     OW37654   0.288   3.567  12.243 -0.4642  0.2230  0.2138
 8674SOL    HW137655   0.278   3.534  12.154 -0.9195 -0.6802  0.6060
 8674SOL    HW237656   0.225   3.639  12.237 -0.8484 -0.0837  0.6013
 8675SOL     OW37657   0.061   3.770   8.210 -0.1442  0.1446 -0.2191
 8675SOL    HW137658   0.095   3.846   8.162 -0.6424  0.6522  0.2332
 8675SOL    HW237659   0.088   3.697   8.154  1.6182  0.6157  0.0226
 8676SOL     OW37660   1.275   3.090  14.994 -0.4559  0.4401 -0.3549
 8676SOL    HW137661   1.223   3.045  14.928  0.1443  1.2979 -1.4139
 8676SOL    HW237662   1.228   3.062  15.073 -0.8731  1.5752 -0.1927
 8677SOL     OW37663   0.634   4.027   7.897  0.3731  0.2374 -0.1559
 8677SOL    HW137664   0.572   4.043   7.969  1.8348  2.5324  0.6019
 8677SOL    HW237665   0.590   4.067   7.822 -2.9407 -0.8366  1.2119
 8678SOL     OW37666   4.091   0.306   9.132  0.3480 -0.8512  0.2530
 8678SOL    HW137667   4.116   0.295   9.040  1.4624  0.7219  0.3627
 8678SOL    HW237668   3.998   0.283   9.140 -0.1906  1.4517  0.6711
 8679SOL     OW37669   3.570   4.432   1.752  0.2379  0.3805  0.9141
 8679SOL    HW137670   3.578   4.337   1.745  0.8634  0.3573  1.9170
 8679SOL    HW237671   3.649   4.464   1.709 -1.2672  1.5443 -0.9794
 8680SOL     OW37672   3.342   4.111   8.332 -0.1382 -0.6947  0.1857
 8680SOL    HW137673   3.301   4.052   8.396 -1.9483 -0.4060 -0.7230
 8680SOL    HW237674   3.288   4.087   8.256  0.4726 -0.0027 -0.4649
 8681SOL     OW37675   0.137   2.839   4.142  0.2586  0.1175  0.2737
 8681SOL    HW137676   0.199   2.853   4.071  0.5110  2.3243  0.9417
 8681SOL    HW237677   0.194   2.852   4.218 -0.3806  0.9306  0.6202
 8682SOL     OW37678   0.967   4.419   2.211 -0.2688 -0.3674  0.0803
 8682SOL    HW137679   0.947   4.512   2.198 -1.6323 -0.7195 -0.3878
 8682SOL    HW237680   0.999   4.404   2.122 -1.0028 -0.9243 -0.0896
 8683SOL     OW37681   1.411   3.409   6.362  0.0884 -0.2054  0.0548
 8683SOL    HW137682   1.506   3.410   6.377 -0.1723  0.2536  1.6461
 8683SOL    HW237683   1.399   3.316   6.382 -0.8963 -0.8657 -3.5957
 8684SOL     OW37684   0.024   4.379   9.299 -0.5607 -0.1209 -0.4904
 8684SOL    HW137685   4.671   4.379   9.333 -0.7798  1.3073 -1.1075
 8684SOL    HW237686   0.074   4.366   9.381 -0.6024 -1.1825 -0.6286
 8685SOL     OW37687   2.057   2.138  17.739 -0.5582  0.0972  0.0573
 8685SOL    HW137688   2.146   2.120   0.025 -0.9171  0.0739  1.1616
 8685SOL    HW237689   2.012   2.059   0.024  0.8948  0.1642  2.6257
 8686SOL     OW37690   1.424   0.936   4.321  0.3870  0.6331  0.0040
 8686SOL    HW137691   1.372   0.930   4.401  2.0413 -0.0647  1.0246
 8686SOL    HW237692   1.411   1.028   4.296 -0.2286 -0.3591 -3.3285
 8687SOL     OW37693   1.825   2.602   8.625  0.6750 -0.4433 -0.8669
 8687SOL    HW137694   1.765   2.532   8.596 -1.2857  0.4909  0.9298
 8687SOL    HW237695   1.761   2.655   8.673 -1.0751 -2.2920 -1.1277
 8688SOL     OW37696   4.034   3.063   5.206 -0.6451 -0.6887 -0.5166
 8688SOL    HW137697   4.118   3.053   5.251 -1.2412 -1.3271  0.4624
 8688SOL    HW237698   4.051   3.112   5.125  2.5710 -0.3297  0.3560
 8689SOL     OW37699   2.310   2.720  17.578 -0.2219 -0.3457  0.5727
 8689SOL    HW137700   2.291   2.711  17.671  0.3595 -1.1556  0.6168
 8689SOL    HW237701   2.304   2.631  17.544 -0.9976 -0.3441  0.7052
 8690SOL     OW37702   3.883   2.221   8.694 -0.3248  0.0106 -0.0642
 8690SOL    HW137703   3.805   2.275   8.681 -0.7508 -0.5509  0.2070
 8690SOL    HW237704   3.845   2.140   8.661 -0.2214 -0.0011 -0.1554
 8691SOL     OW37705   0.679   0.568  14.768  0.6139  0.5593  0.8024
 8691SOL    HW137706   0.711   0.620  14.694 -1.5578 -0.2797 -0.7021
 8691SOL    HW237707   0.758   0.546  14.818 -0.2609 -3.4861  0.3901
 8692SOL     OW37708   0.138   4.089   6.510  0.2230  0.0204  0.3013
 8692SOL    HW137709   0.068   4.042   6.556  0.8669 -0.2345  1.0266
 8692SOL    HW237710   0.211   4.088   6.572 -0.1247  1.1139  0.7197
 8693SOL     OW37711   1.629   0.439   9.227  0.3473  0.1200 -0.1603
 8693SOL    HW137712   1.687   0.454   9.302  2.3743 -3.2822 -1.0327
 8693SOL    HW237713   1.552   0.483   9.262  1.5888  1.5938  0.7349
 8694SOL     OW37714   0.169   1.132   5.064  0.1589  0.2678  0.4144
 8694SOL    HW137715   0.167   1.057   5.005  0.6540  1.0621 -0.6069
 8694SOL    HW237716   0.263   1.125   5.078  0.0929 -2.9243 -0.7019
 8695SOL     OW37717   0.997   0.401   6.059  0.9078  0.0276  0.1577
 8695SOL    HW137718   1.076   0.347   6.070 -1.6129 -3.4187  1.4929
 8695SOL    HW237719   0.942   0.342   6.008 -0.8411  1.5271  0.3237
 8696SOL     OW37720   0.658   1.820   8.271  0.3284  0.0969  0.2357
 8696SOL    HW137721   0.649   1.914   8.283  0.2518  0.0764  0.3397
 8696SOL    HW237722   0.739   1.804   8.222 -0.8425 -1.5251 -1.1621
 8697SOL     OW37723   1.564   0.876   9.501 -0.2863 -0.1599  0.2209
 8697SOL    HW137724   1.499   0.807   9.489 -0.5103 -0.3025  2.3642
 8697SOL    HW237725   1.534   0.919   9.581 -0.0574 -0.2894  0.3740
 8698SOL     OW37726   3.935   2.399   7.012  0.3023  0.4350  0.0866
 8698SOL    HW137727   3.968   2.309   7.016 -0.8773  0.0169  0.5302
 8698SOL    HW237728   3.922   2.407   7.107  1.3367 -1.6704  0.4145
 8699SOL     OW37729   3.401   4.250  16.355  0.2870  0.2576  0.0398
 8699SOL    HW137730   3.485   4.249  16.309 -0.7339 -1.2846 -1.7908
 8699SOL    HW237731   3.413   4.172  16.409  0.4618  0.8164  0.8018
 8700SOL     OW37732   1.451   0.631  15.836 -0.1779  0.1666  0.1091
 8700SOL    HW137733   1.433   0.667  15.749  0.6608  0.7314  0.1689
 8700SOL    HW237734   1.438   0.701  15.899 -2.0706 -0.8967  0.8778
 8701SOL     OW37735   1.959   3.187   8.802  0.1287  0.2118 -0.5984
 8701SOL    HW137736   2.038   3.241   8.801  0.0728  0.2749 -1.2528
 8701SOL    HW237737   1.880   3.228   8.768  0.5307  0.3668 -1.3412
 8702SOL     OW37738   1.603   1.880   9.086  0.3750  0.2486  0.6657
 8702SOL    HW137739   1.666   1.877   9.015 -1.6861 -0.4714 -1.1547
 8702SOL    HW237740   1.646   1.921   9.161  1.7858 -0.2903  0.1329
 8703SOL     OW37741   2.909   1.384   8.109 -0.2487 -0.4005 -0.1443
 8703SOL    HW137742   2.995   1.410   8.141 -0.7440  0.5834  0.3891
 8703SOL    HW237743   2.866   1.469   8.109 -1.0958 -0.8270  0.1839
 8704SOL     OW37744   4.277   4.181  11.699 -0.5137 -0.1423  0.0040
 8704SOL    HW137745   4.348   4.224  11.651 -1.1037 -1.4057 -2.0090
 8704SOL    HW237746   4.325   4.131  11.764  2.5318  0.7190 -1.5727
 8705SOL     OW37747   0.170   1.024  12.080 -0.5029  0.5237 -0.1352
 8705SOL    HW137748   0.234   1.004  12.012 -1.5797  1.3312 -1.3793
 8705SOL    HW237749   0.090   1.030  12.028 -1.5139 -2.6230  1.0245
 8706SOL     OW37750   4.347   3.734   3.928  0.4207  0.2237 -0.7741
 8706SOL    HW137751   4.299   3.731   4.011  2.4444 -1.8508  0.3444
 8706SOL    HW237752   4.432   3.696   3.953 -1.6033 -3.5150  0.3639
 8707SOL     OW37753   1.507   2.200   9.966  0.0521  0.2635  0.1158
 8707SOL    HW137754   1.446   2.266   9.998  2.3029  1.7129  1.3164
 8707SOL    HW237755   1.578   2.208  10.029 -1.0432  0.6170  1.2947
 8708SOL     OW37756   3.356   1.658  10.725  0.5564 -0.0416  0.0184
 8708SOL    HW137757   3.385   1.595  10.790  0.5496  0.0934  0.1518
 8708SOL    HW237758   3.422   1.727  10.721  0.0290  0.4358 -0.6697
 8709SOL     OW37759   3.680   2.026   9.956 -0.1919 -0.1077 -0.6973
 8709SOL    HW137760   3.622   1.964  10.002  0.3534 -0.4078 -0.4173
 8709SOL    HW237761   3.617   2.053   9.889 -1.9027 -0.2651  0.8367
 8710SOL     OW37762   4.644   4.187   0.267 -0.2275  0.1199 -0.2645
 8710SOL    HW137763   4.621   4.229   0.185 -0.4130  1.8954  0.6868
 8710SOL    HW237764   4.669   4.098   0.242 -1.1613  0.2913 -1.7925
 8711SOL     OW37765   3.619   3.712   8.001 -0.0801  0.2054 -0.8932
 8711SOL    HW137766   3.565   3.772   8.054  0.2589  0.6973 -1.1005
 8711SOL    HW237767   3.653   3.666   8.077 -2.9747 -1.4799 -0.5941
 8712SOL     OW37768   3.815   1.307   6.133  0.6608  0.0322  0.6314
 8712SOL    HW137769   3.751   1.236   6.135  1.8956 -1.1033 -0.9391
 8712SOL    HW237770   3.889   1.258   6.098  0.2126  0.9663 -1.6135
 8713SOL     OW37771   1.858   0.051   7.445 -0.3696 -0.2354  0.0012
 8713SOL    HW137772   1.931   0.112   7.441  0.3818 -1.1539 -0.1261
 8713SOL    HW237773   1.868   0.008   7.530 -0.7090 -0.9042 -0.2913
 8714SOL     OW37774   0.088   3.665   7.381  0.5063  0.5023 -0.1239
 8714SOL    HW137775   0.029   3.691   7.452  0.2558 -0.3887 -0.0023
 8714SOL    HW237776   0.021   3.617   7.332 -0.8142  3.2194 -0.9780
 8715SOL     OW37777   0.020   2.609   8.032 -0.6247 -0.3085  0.1211
 8715SOL    HW137778   4.690   2.559   8.081 -1.2775  1.3097  0.9179
 8715SOL    HW237779   0.099   2.571   8.071 -0.3168  0.1767 -0.0274
 8716SOL     OW37780   4.371   3.776   1.764 -0.1521  0.2781 -0.1346
 8716SOL    HW137781   4.394   3.686   1.790 -0.5727 -0.1068 -1.0864
 8716SOL    HW237782   4.396   3.773   1.672  1.5061  4.4262  0.1672
 8717SOL     OW37783   1.549   2.478   3.193 -0.4497  0.2560 -0.3388
 8717SOL    HW137784   1.602   2.401   3.174 -1.0867  0.1994 -1.9110
 8717SOL    HW237785   1.464   2.455   3.157 -0.5190  1.6693 -1.1087
 8718SOL     OW37786   0.295   3.593   6.962  0.1544  0.0062 -0.1559
 8718SOL    HW137787   0.388   3.572   6.969  0.2839 -0.1136 -2.2613
 8718SOL    HW237788   0.301   3.642   6.880  2.0314  2.2253  1.3287
 8719SOL     OW37789   3.047   1.576  17.157  0.3406  0.1132 -0.0640
 8719SOL    HW137790   3.131   1.613  17.128  0.4571 -0.3934 -0.3693
 8719SOL    HW237791   3.021   1.520  17.085  2.9167  0.4730 -1.2632
 8720SOL     OW37792   0.777   3.417   1.680  0.4383 -0.2969 -0.0554
 8720SOL    HW137793   0.835   3.460   1.617  1.4941 -1.5662  0.0519
 8720SOL    HW237794   0.842   3.377   1.737  1.9679  1.7506 -0.3805
 8721SOL     OW37795   3.821   0.475   7.012  0.1318 -0.4248 -0.1390
 8721SOL    HW137796   3.869   0.459   6.931 -1.8525 -0.6193 -1.2744
 8721SOL    HW237797   3.882   0.524   7.068 -0.1463 -1.8243  1.3857
 8722SOL     OW37798   1.179   3.152   3.929  0.0809 -0.0611  0.1937
 8722SOL    HW137799   1.111   3.181   3.868  1.4376 -0.0659 -1.3082
 8722SOL    HW237800   1.148   3.182   4.014 -0.4479  1.0975 -0.4135
 8723SOL     OW37801   0.248   2.825   0.613  0.2730 -0.4179 -0.5782
 8723SOL    HW137802   0.199   2.761   0.663  1.0122 -0.9034 -0.4787
 8723SOL    HW237803   0.245   2.896   0.677 -0.5999 -0.3988 -0.6426
 8724SOL     OW37804   4.576   0.332   8.461  0.2439  0.2501  0.0811
 8724SOL    HW137805   4.571   0.405   8.523 -0.3908  0.7480 -0.5589
 8724SOL    HW237806   4.588   0.259   8.522  3.0867  0.5527 -0.1343
 8725SOL     OW37807   3.386   0.609  16.504 -0.1697 -0.5340  0.2927
 8725SOL    HW137808   3.428   0.540  16.451  0.2253 -0.3950  0.4221
 8725SOL    HW237809   3.364   0.556  16.581 -1.0007  1.8827  1.6908
 8726SOL     OW37810   3.983   0.573   7.832  0.2582 -0.1193  0.1191
 8726SOL    HW137811   4.039   0.645   7.805  2.1283 -1.7607 -0.4089
 8726SOL    HW237812   4.041   0.499   7.848 -0.0567  0.0359  1.9876
 8727SOL     OW37813   2.844   1.048   8.631  0.4310 -0.2468  0.5881
 8727SOL    HW137814   2.906   1.113   8.597 -0.3300 -0.5877 -1.4514
 8727SOL    HW237815   2.780   1.112   8.662 -1.4747 -0.2890 -3.2596
 8728SOL     OW37816   2.798   0.899  11.726 -0.1963 -0.0607  0.0415
 8728SOL    HW137817   2.790   0.971  11.663 -4.7127  0.3357  1.0247
 8728SOL    HW237818   2.729   0.836  11.703  1.7366 -1.1027 -2.8861
 8729SOL     OW37819   2.445   0.475   9.264 -0.3336  0.9042  0.4616
 8729SOL    HW137820   2.402   0.528   9.330 -0.1808  1.1543  0.3594
 8729SOL    HW237821   2.485   0.543   9.209  0.7095 -1.5504 -1.8417
 8730SOL     OW37822   3.361   2.931   8.603 -0.4926 -0.7612 -0.3666
 8730SOL    HW137823   3.397   2.953   8.517  0.2563 -1.7447 -0.3033
 8730SOL    HW237824   3.351   3.023   8.628  0.1021 -0.5896 -0.7596
 8731SOL     OW37825   1.710   0.525   7.441  0.1926  0.1952 -0.7388
 8731SOL    HW137826   1.786   0.472   7.464  0.8986  1.3319 -0.4375
 8731SOL    HW237827   1.735   0.533   7.349  0.7962  0.1719 -0.5778
 8732SOL     OW37828   0.705   1.861  15.978 -0.3677 -0.0518  0.4169
 8732SOL    HW137829   0.711   1.787  15.918 -1.3586 -0.3133  0.6428
 8732SOL    HW237830   0.610   1.874  15.977 -0.1485  1.6795  2.8460
 8733SOL     OW37831   4.297   3.185   6.260  0.3653  0.0634 -0.3203
 8733SOL    HW137832   4.230   3.182   6.328  0.5242  0.0666 -0.1620
 8733SOL    HW237833   4.345   3.264   6.287  1.6615 -0.7682 -0.1991
 8734SOL     OW37834   4.592   0.229   5.927 -0.2879 -0.3124  0.7499
 8734SOL    HW137835   4.631   0.227   6.015  2.7804  1.4322 -0.5649
 8734SOL    HW237836   4.550   0.143   5.927 -1.6609  0.3456 -0.6454
 8735SOL     OW37837   1.682   3.100   4.308  0.4208 -0.0572 -0.6162
 8735SOL    HW137838   1.602   3.140   4.344  0.0859 -0.2655 -1.1369
 8735SOL    HW237839   1.727   3.080   4.390  0.5531 -0.5808 -0.8196
 8736SOL     OW37840   1.295   4.519   8.563  0.4464  0.1256 -0.0743
 8736SOL    HW137841   1.291   4.541   8.656  1.3507 -1.8358  0.4271
 8736SOL    HW237842   1.377   4.469   8.559  0.4861  0.2689 -1.1664
 8737SOL     OW37843   2.168   1.967   9.522  0.0210  0.3070  0.3128
 8737SOL    HW137844   2.256   1.999   9.502 -0.2526  1.9296  1.8106
 8737SOL    HW237845   2.151   2.028   9.593 -0.2482 -0.3897  0.8408
 8738SOL     OW37846   3.949   3.869   1.989  0.0656  0.3097 -0.2588
 8738SOL    HW137847   3.996   3.801   1.941  1.8112  0.8539  0.6763
 8738SOL    HW237848   3.872   3.816   2.011 -0.3944  0.1901 -2.1625
 8739SOL     OW37849   0.785   1.435   7.129 -0.8156  0.1192  0.4007
 8739SOL    HW137850   0.691   1.442   7.144 -1.1117  1.3967 -1.9982
 8739SOL    HW237851   0.822   1.438   7.217  1.3733  0.7999 -0.5402
 8740SOL     OW37852   2.284   0.050   3.928 -0.4679 -0.1201 -0.6456
 8740SOL    HW137853   2.340   0.032   4.003 -0.9721 -0.5624 -0.3725
 8740SOL    HW237854   2.302   4.707   3.876 -1.2590 -0.2373 -0.7399
 8741SOL     OW37855   0.799   1.789   7.607 -0.3610  0.6251 -0.0171
 8741SOL    HW137856   0.782   1.862   7.666  2.4881  0.9729  0.3314
 8741SOL    HW237857   0.878   1.752   7.646 -0.0071  0.7657 -0.5962
 8742SOL     OW37858   0.012   3.930   2.000 -0.4989  0.1011  0.0168
 8742SOL    HW137859   0.036   3.843   2.032 -2.4128  0.7043  3.1391
 8742SOL    HW237860   4.653   3.923   1.996 -0.6463  1.2576  1.3484
 8743SOL     OW37861   4.218   2.879   6.566 -0.0167  0.0728 -0.2584
 8743SOL    HW137862   4.186   2.797   6.604  0.8430 -0.1234  0.0429
 8743SOL    HW237863   4.312   2.869   6.583 -0.4768  1.2286  2.8988
 8744SOL     OW37864   0.041   1.488   7.194 -0.6177 -0.0230  0.4713
 8744SOL    HW137865   4.731   1.552   7.141 -0.5450  0.7804  1.3692
 8744SOL    HW237866   0.029   1.525   7.282 -0.1879 -0.3941  0.6925
 8745SOL     OW37867   0.203   1.482   3.575  0.0489  0.5129 -1.3801
 8745SOL    HW137868   0.119   1.497   3.619  2.3782 -1.7759  3.7426
 8745SOL    HW237869   0.256   1.434   3.638 -1.1923  0.8174 -0.0877
 8746SOL     OW37870   3.714   2.711   9.182  0.0048  0.3386  0.2614
 8746SOL    HW137871   3.628   2.735   9.149  0.9298  1.8270 -1.0234
 8746SOL    HW237872   3.693   2.642   9.245 -0.2292  1.3214  1.2785
 8747SOL     OW37873   0.177   3.416   7.767  0.6033 -0.2025 -0.3313
 8747SOL    HW137874   0.228   3.378   7.839  0.4560 -1.1265 -0.7100
 8747SOL    HW237875   0.152   3.330   7.733  0.8404 -0.6820  0.6802
 8748SOL     OW37876   2.419   4.244   7.627 -0.6649  0.1159 -0.3060
 8748SOL    HW137877   2.431   4.158   7.669  0.2620  0.4927  0.1951
 8748SOL    HW237878   2.435   4.298   7.704 -0.2515  0.2341 -0.4738
 8749SOL     OW37879   0.524   3.079  16.459  0.0582 -0.6876 -0.0474
 8749SOL    HW137880   0.484   3.108  16.541  1.7388 -2.1113  1.2809
 8749SOL    HW237881   0.447   3.085  16.402 -0.1905 -1.4363  0.2145
 8750SOL     OW37882   3.209   2.148   2.696  0.2490 -0.2285 -0.3160
 8750SOL    HW137883   3.271   2.199   2.749 -1.9503 -0.0165  2.0456
 8750SOL    HW237884   3.271   2.077   2.678 -0.0494 -0.3067 -1.0159
 8751SOL     OW37885   2.205   2.926   1.772  0.6957  0.1873 -0.2842
 8751SOL    HW137886   2.151   2.847   1.767  0.2206  0.4797  0.1991
 8751SOL    HW237887   2.292   2.893   1.793  0.0788 -0.5408  1.1360
 8752SOL     OW37888   3.526   2.103   6.475 -0.8442  0.5431  0.5417
 8752SOL    HW137889   3.598   2.166   6.481 -0.7867  0.4887  0.4131
 8752SOL    HW237890   3.568   2.026   6.437  0.8951 -0.2718  4.0799
 8753SOL     OW37891   0.398   3.747   5.397  0.0425  0.2189 -0.4711
 8753SOL    HW137892   0.331   3.679   5.389  0.0010  0.2225 -0.1626
 8753SOL    HW237893   0.471   3.708   5.350 -1.0382 -4.3187  1.6580
 8754SOL     OW37894   4.411   0.214  15.799  0.6461 -0.5631  0.1740
 8754SOL    HW137895   4.389   0.289  15.854  2.2524  0.9263 -1.2054
 8754SOL    HW237896   4.428   0.151  15.869 -3.1664 -0.3014  1.3481
 8755SOL     OW37897   3.898   1.286   3.849 -0.0493  0.0901 -0.1766
 8755SOL    HW137898   3.933   1.303   3.762 -1.5349  1.1832 -0.5542
 8755SOL    HW237899   3.891   1.190   3.844 -2.4034  0.2229  0.4171
 8756SOL     OW37900   2.878   0.509   7.234 -0.4571  0.1588 -0.2999
 8756SOL    HW137901   2.937   0.555   7.294  0.5431 -2.4381  0.7207
 8756SOL    HW237902   2.798   0.539   7.278  0.0825  0.5077  0.4459
 8757SOL     OW37903   2.727   1.055  12.625  0.6136  0.4697  0.0325
 8757SOL    HW137904   2.818   1.056  12.595  1.0859  2.0844  1.5017
 8757SOL    HW237905   2.731   1.047  12.720  3.6395  0.8656 -0.0570
 8758SOL     OW37906   1.739   2.174  16.856 -0.2960  0.0804 -0.1592
 8758SOL    HW137907   1.708   2.202  16.770 -0.1951 -1.5641 -0.7191
 8758SOL    HW237908   1.682   2.099  16.874 -0.7277  0.6391  0.8438
 8759SOL     OW37909   2.654   3.395   1.688  0.3635 -0.3631  0.1998
 8759SOL    HW137910   2.692   3.475   1.652  1.3687 -1.3383 -0.8972
 8759SOL    HW237911   2.643   3.412   1.782 -2.7889  1.8095 -0.5509
 8760SOL     OW37912   3.319   4.640   4.958  0.0090 -0.7753 -0.1034
 8760SOL    HW137913   3.266   4.635   4.879  0.1365  0.6376 -0.2880
 8760SOL    HW237914   3.248   4.663   5.019 -0.3239 -0.7425 -0.5068
 8761SOL     OW37915   1.602   1.968  13.720 -0.5528 -0.3155 -0.3608
 8761SOL    HW137916   1.596   2.021  13.800 -0.3567 -1.8150  0.6499
 8761SOL    HW237917   1.672   2.007  13.669 -0.7771 -0.0696 -0.4811
 8762SOL     OW37918   1.864   2.938   6.545  0.3590 -0.2422 -0.1687
 8762SOL    HW137919   1.938   2.986   6.507  2.1832 -1.6099  1.5840
 8762SOL    HW237920   1.874   2.845   6.525 -0.3442  0.1666 -2.3575
 8763SOL     OW37921   0.871   3.267   5.621 -0.4217 -0.0674 -0.6754
 8763SOL    HW137922   0.829   3.181   5.634  0.5997 -0.6827 -1.4757
 8763SOL    HW237923   0.837   3.313   5.698  1.3974 -0.2209  0.2068
 8764SOL     OW37924   1.711   1.232   6.224 -0.2876  0.6726  0.5287
 8764SOL    HW137925   1.753   1.150   6.248 -0.2668  0.8627  1.1358
 8764SOL    HW237926   1.655   1.245   6.300  0.5881 -1.2465  1.4786
 8765SOL     OW37927   0.746   2.776  17.280 -0.1308  0.0857  0.3158
 8765SOL    HW137928   0.731   2.697  17.333  0.3739 -1.6733 -2.1495
 8765SOL    HW237929   0.751   2.733  17.194  1.1339  2.8322 -0.9557
 8766SOL     OW37930   3.864   2.137   2.911  0.2444 -1.1099 -0.2191
 8766SOL    HW137931   3.903   2.225   2.908  1.3331 -1.5969 -0.4287
 8766SOL    HW237932   3.783   2.153   2.959 -0.0674 -0.7431 -0.8790
 8767SOL     OW37933   1.517   4.297  11.049  0.0798  0.0722 -0.9432
 8767SOL    HW137934   1.574   4.221  11.039  0.5773  0.2889  0.1639
 8767SOL    HW237935   1.578   4.362  11.015 -0.6846  0.4418 -1.6031
 8768SOL     OW37936   1.442   2.070  15.782  0.2615  0.4031  0.2726
 8768SOL    HW137937   1.374   2.003  15.793 -1.8581  2.6348  0.5812
 8768SOL    HW237938   1.476   2.044  15.697 -0.4710 -0.2952  0.1866
 8769SOL     OW37939   4.349   4.324   3.090 -0.0533 -0.5746 -0.1282
 8769SOL    HW137940   4.318   4.332   3.180  0.6746  0.2787  0.0509
 8769SOL    HW237941   4.411   4.397   3.089 -2.9071  1.8490  1.3333
 8770SOL     OW37942   0.567   3.471   4.745  0.2881  0.3676 -0.3815
 8770SOL    HW137943   0.576   3.421   4.664 -0.9162  1.3866 -1.1513
 8770SOL    HW237944   0.656   3.461   4.779  0.8457  0.0676 -1.9154
 8771SOL     OW37945   4.075   0.508   4.719  0.3365  0.2359  0.1020
 8771SOL    HW137946   4.046   0.542   4.803 -0.1223  0.8241 -0.2978
 8771SOL    HW237947   4.152   0.459   4.748 -1.0788 -0.4149  2.8068
 8772SOL     OW37948   3.298   1.930  12.517  0.4364 -0.0619 -0.8403
 8772SOL    HW137949   3.286   2.023  12.499 -2.9330 -0.5845 -1.1941
 8772SOL    HW237950   3.268   1.920  12.608  2.2572 -0.5070 -0.2805
 8773SOL     OW37951   0.885   4.449   4.219 -0.1187 -0.1184 -0.0544
 8773SOL    HW137952   0.950   4.492   4.275 -2.8033  0.8488  2.3406
 8773SOL    HW237953   0.916   4.360   4.235 -1.8300 -0.6824  0.0226
 8774SOL     OW37954   2.865   1.468   6.669  0.7796 -0.3008 -0.4523
 8774SOL    HW137955   2.939   1.447   6.727  3.1979  0.3431 -3.2868
 8774SOL    HW237956   2.913   1.530   6.613 -0.4386  1.5923  0.5860
 8775SOL     OW37957   0.366   4.536   2.425  0.3240 -0.5373  0.4463
 8775SOL    HW137958   0.310   4.613   2.417 -2.7833 -3.0057 -1.5592
 8775SOL    HW237959   0.402   4.518   2.338  0.9752 -1.9571  0.9976
 8776SOL     OW37960   0.736   4.561   8.823 -0.1581  0.6441  0.1903
 8776SOL    HW137961   0.662   4.559   8.884 -1.3273 -1.5661 -1.3240
 8776SOL    HW237962   0.755   4.655   8.833  1.0822  0.5572 -1.5036
 8777SOL     OW37963   1.571   2.317   0.215  0.1479 -0.0695 -0.0256
 8777SOL    HW137964   1.490   2.366   0.207 -0.5250 -0.7499  2.6707
 8777SOL    HW237965   1.589   2.306   0.121 -1.0433  1.7694 -0.4735
 8778SOL     OW37966   2.540   2.675   9.494 -0.7171 -0.3454 -0.0341
 8778SOL    HW137967   2.568   2.765   9.511 -2.2700  0.0530  0.4291
 8778SOL    HW237968   2.623   2.629   9.504 -1.3939 -1.0216  2.3791
 8779SOL     OW37969   3.902   2.693   1.005 -0.0271  0.2442 -0.5367
 8779SOL    HW137970   3.930   2.645   1.082 -1.8868  0.3125  0.1872
 8779SOL    HW237971   3.914   2.785   1.028 -1.5704  0.4337 -0.4527
 8780SOL     OW37972   4.354   1.474   9.226  0.0593  0.4441 -0.5046
 8780SOL    HW137973   4.373   1.538   9.294  1.3669 -0.1800 -0.2928
 8780SOL    HW237974   4.437   1.472   9.179  0.2469 -0.6550 -0.1302
 8781SOL     OW37975   2.942   1.727   2.302  0.5674 -0.1781  0.1615
 8781SOL    HW137976   2.940   1.794   2.234  1.0634  0.1418  0.4602
 8781SOL    HW237977   2.936   1.774   2.385 -1.6653  2.3081 -1.4336
 8782SOL     OW37978   0.251   4.676  13.034  0.2621  0.6089 -0.0202
 8782SOL    HW137979   0.308   0.005  12.993 -1.0365  1.2190 -0.8307
 8782SOL    HW237980   0.241   4.707  13.124  0.2285 -1.2063  0.6196
 8783SOL     OW37981   1.498   4.252   6.383  0.2569  0.6672  0.8472
 8783SOL    HW137982   1.493   4.297   6.298 -1.2746  0.0427  0.6071
 8783SOL    HW237983   1.471   4.161   6.365 -1.3119  1.3706 -0.3738
 8784SOL     OW37984   4.722   4.632   5.156  0.2289  0.1654  0.0925
 8784SOL    HW137985   4.633   4.608   5.128 -0.2713 -0.0727  1.9044
 8784SOL    HW237986   4.714   4.719   5.117 -1.3740  0.0021  0.0752
 8785SOL     OW37987   3.334   0.999  14.918  0.7830  0.0037 -0.2219
 8785SOL    HW137988   3.352   1.034  14.831 -1.6985 -1.4482 -1.3195
 8785SOL    HW237989   3.239   0.998  14.922  0.8124  1.8263  0.7802
 8786SOL     OW37990   2.294   4.216   8.785 -0.2773  0.0232 -0.3563
 8786SOL    HW137991   2.315   4.164   8.707  1.7425  0.4053 -0.0710
 8786SOL    HW237992   2.379   4.235   8.826  0.9121 -1.8079 -1.9689
 8787SOL     OW37993   0.368   1.248  13.473 -0.1209  0.1303  0.6381
 8787SOL    HW137994   0.448   1.195  13.480  0.0762  0.4027  0.4581
 8787SOL    HW237995   0.412   1.333  13.465 -0.1109  0.0829  0.2009
 8788SOL     OW37996   0.572   4.545   3.303 -0.2985 -0.2677  0.0493
 8788SOL    HW137997   0.602   4.593   3.226 -2.5654  3.2943  1.4256
 8788SOL    HW237998   0.651   4.541   3.356  0.7912  1.9960 -1.4252
 8789SOL     OW37999   4.030   2.405   7.855 -0.4513  0.0133 -0.5197
 8789SOL    HW138000   4.103   2.465   7.870  0.2536 -0.5312 -1.7745
 8789SOL    HW238001   4.015   2.368   7.942  3.2798  0.0860  0.1752
 8790SOL     OW38002   2.777   0.269   9.064 -0.2873  0.0359  0.6274
 8790SOL    HW138003   2.744   0.357   9.084 -0.7486  0.4102 -1.7819
 8790SOL    HW238004   2.866   0.278   9.099  1.3163 -1.4052 -3.1521
 8791SOL     OW38005   0.820   0.823   7.703 -0.3255 -0.2506  0.2111
 8791SOL    HW138006   0.867   0.842   7.622  1.1575  1.0625  1.3770
 8791SOL    HW238007   0.877   0.754   7.736  0.8863  0.9349  0.5928
 8792SOL     OW38008   4.563   3.926   2.910  0.0183 -0.7441  0.1286
 8792SOL    HW138009   4.517   3.974   2.841  2.0495  0.7137 -0.2469
 8792SOL    HW238010   4.521   3.841   2.900 -1.4961 -0.0501  0.6093
 8793SOL     OW38011   1.892   3.896   3.813  0.0770 -0.6109  0.1489
 8793SOL    HW138012   1.979   3.864   3.839  0.8198  2.1482  1.0912
 8793SOL    HW238013   1.853   3.809   3.816  1.0009 -1.1057 -1.9459
 8794SOL     OW38014   2.301   0.428   6.374 -0.1022 -0.2312  0.4764
 8794SOL    HW138015   2.298   0.345   6.325  0.6537  0.6923 -1.1179
 8794SOL    HW238016   2.258   0.491   6.316 -0.9514 -0.4703  0.8378
 8795SOL     OW38017   0.041   4.637   0.128  0.1457 -0.1773  0.0671
 8795SOL    HW138018   0.106   4.664   0.064 -0.1378 -0.3340 -0.2839
 8795SOL    HW238019   0.003   4.555   0.096 -1.8365  1.0324 -0.6960
 8796SOL     OW38020   4.015   1.010   6.588 -0.3044 -0.7996 -0.3615
 8796SOL    HW138021   4.109   1.026   6.602 -0.3071 -1.4500  0.4141
 8796SOL    HW238022   4.019   1.013   6.493  1.7528 -0.0909 -0.2542
 8797SOL     OW38023   2.491   3.268  13.356  0.0272  0.9977  0.0640
 8797SOL    HW138024   2.560   3.315  13.402 -0.2659  2.0280 -0.5304
 8797SOL    HW238025   2.544   3.249  13.279 -0.8715  1.3780 -0.6527
 8798SOL     OW38026   3.960   1.648  16.610 -0.2963  0.2247  0.0016
 8798SOL    HW138027   3.991   1.738  16.613 -1.3500  0.5474  1.9521
 8798SOL    HW238028   3.873   1.654  16.651 -1.2119  3.1368 -2.3958
 8799SOL     OW38029   3.753   4.100   6.813  0.5222 -0.2860  0.7929
 8799SOL    HW138030   3.698   4.063   6.745  2.5630  0.4197 -1.2502
 8799SOL    HW238031   3.819   4.148   6.763 -1.0705  0.3227 -0.7103
 8800SOL     OW38032   2.703   2.383   4.059  0.0410 -0.2955 -0.2403
 8800SOL    HW138033   2.707   2.450   4.128  1.8585  1.2587 -1.8831
 8800SOL    HW238034   2.731   2.306   4.107 -1.7221 -1.8820 -1.7771
 8801SOL     OW38035   2.322   2.145   2.511 -0.0709  0.3791 -0.2995
 8801SOL    HW138036   2.300   2.162   2.420  2.0014 -0.0780 -0.8856
 8801SOL    HW238037   2.405   2.191   2.528  0.4546 -1.5675  2.4522
 8802SOL     OW38038   3.152   3.596   6.263 -0.0176 -0.2117 -0.7593
 8802SOL    HW138039   3.064   3.596   6.224 -0.8060  1.8224  1.0174
 8802SOL    HW238040   3.175   3.688   6.267  3.2972 -1.1103  0.7846
 8803SOL     OW38041   1.124   1.531  14.877  0.5648 -0.1420 -0.1962
 8803SOL    HW138042   1.154   1.446  14.910 -1.8611 -0.8235  0.2796
 8803SOL    HW238043   1.180   1.597  14.918  0.3678  1.7902 -3.0935
 8804SOL     OW38044   4.311   4.672   3.038  0.0479 -0.0144 -0.5748
 8804SOL    HW138045   4.377   4.694   3.104  1.9397 -2.4725 -1.6425
 8804SOL    HW238046   4.257   4.613   3.091  0.5469  0.4189  0.4151
 8805SOL     OW38047   4.109   4.593   3.659  0.9458 -0.3047 -0.3056
 8805SOL    HW138048   4.017   4.571   3.641  0.3089  1.3889  0.8768
 8805SOL    HW238049   4.149   4.508   3.642  0.9565 -0.7423  1.9781
 8806SOL     OW38050   3.611   2.994   4.199 -0.4721  0.4180  0.1758
 8806SOL    HW138051   3.574   2.945   4.126 -0.1800 -3.0079  2.2952
 8806SOL    HW238052   3.540   3.058   4.204  0.4517  1.6709 -3.2650
 8807SOL     OW38053   3.999   1.783   6.130  0.4977 -0.2589  0.2222
 8807SOL    HW138054   4.078   1.729   6.122  1.0100  0.1355  2.4766
 8807SOL    HW238055   3.931   1.716   6.133 -1.1987  1.5326  2.4655
 8808SOL     OW38056   1.890   3.495   4.552 -0.5824 -0.7398  0.1740
 8808SOL    HW138057   1.887   3.558   4.480  2.1564 -0.3071  0.4223
 8808SOL    HW238058   1.906   3.416   4.499  0.0740  0.4198 -1.3683
 8809SOL     OW38059   2.921   1.730  16.815 -0.0261  0.0363  0.4291
 8809SOL    HW138060   2.959   1.808  16.777 -0.7590  0.0727 -0.2293
 8809SOL    HW238061   2.996   1.670  16.816  0.9152  1.2319  0.3136
 8810SOL     OW38062   0.936   4.373   3.364 -0.0959 -0.1331 -0.0761
 8810SOL    HW138063   0.929   4.340   3.274  0.8244 -0.3085 -0.0809
 8810SOL    HW238064   0.927   4.291   3.412 -1.0226 -0.2585 -0.4648
 8811SOL     OW38065   2.041   1.746   7.072 -0.5120  0.4561  0.1653
 8811SOL    HW138066   1.996   1.823   7.035 -1.2483  0.8771  1.9186
 8811SOL    HW238067   2.024   1.684   7.002 -0.3222  0.5591  0.0289
 8812SOL     OW38068   1.958   4.370  14.146 -0.5582  0.2577  0.3371
 8812SOL    HW138069   1.882   4.348  14.092 -2.3642  0.6322  2.6977
 8812SOL    HW238070   1.917   4.449  14.180  2.3751  1.5802  0.8072
 8813SOL     OW38071   4.256   3.865  15.158  0.2804  0.3787  0.5855
 8813SOL    HW138072   4.264   3.776  15.192 -2.0438 -0.8506 -2.1518
 8813SOL    HW238073   4.257   3.915  15.240 -2.6874  1.7185 -0.1881
 8814SOL     OW38074   2.272   4.443   0.125 -0.3123  0.1511 -0.5668
 8814SOL    HW138075   2.212   4.441   0.200  0.7588  0.2887  0.2849
 8814SOL    HW238076   2.314   4.357   0.123 -1.5691 -0.4906  1.0577
 8815SOL     OW38077   1.834   0.662   8.791  0.7356 -0.2852 -0.2784
 8815SOL    HW138078   1.823   0.611   8.871 -0.6761 -0.9321 -0.8866
 8815SOL    HW238079   1.777   0.622   8.725 -0.6946 -0.9891  1.3596
 8816SOL     OW38080   2.591   2.472   9.738  0.1328  0.2471  0.2760
 8816SOL    HW138081   2.578   2.386   9.698  1.5963  0.7250 -1.1825
 8816SOL    HW238082   2.649   2.518   9.678  1.1516 -1.1187  0.2073
 8817SOL     OW38083   3.882   1.718   7.830 -0.0174 -0.1381 -0.0360
 8817SOL    HW138084   3.948   1.740   7.895  0.4381 -0.4153 -0.4098
 8817SOL    HW238085   3.869   1.796   7.777 -0.2258 -0.0076  0.2060
 8818SOL     OW38086   3.401   2.337   2.746  0.1728 -0.1330  0.3181
 8818SOL    HW138087   3.367   2.397   2.813  0.1280  0.5607 -0.3232
 8818SOL    HW238088   3.481   2.379   2.717  1.4358 -1.1529  2.3337
 8819SOL     OW38089   3.094   3.112  13.173 -0.3163  0.7556  0.3003
 8819SOL    HW138090   3.167   3.171  13.154 -0.0916 -0.1549 -1.6577
 8819SOL    HW238091   3.114   3.041  13.113  0.0346  0.9599  0.1758
 8820SOL     OW38092   2.865   2.581   8.618 -0.0344  0.9124  0.0215
 8820SOL    HW138093   2.882   2.506   8.675  0.7670 -0.2438 -1.7372
 8820SOL    HW238094   2.802   2.634   8.668 -0.3478  0.6175 -0.0637
 8821SOL     OW38095   3.799   4.132   8.791 -0.4612 -0.2211 -0.5618
 8821SOL    HW138096   3.763   4.191   8.724  1.1451  2.6060  1.0579
 8821SOL    HW238097   3.873   4.089   8.749 -0.1791 -0.1016 -0.1860
 8822SOL     OW38098   1.695   1.453  11.182  0.8563  0.4188 -0.0713
 8822SOL    HW138099   1.763   1.467  11.116  0.5193 -1.7138 -0.8692
 8822SOL    HW238100   1.630   1.404  11.132  1.9307 -0.4308 -0.6444
 8823SOL     OW38101   1.019   0.961  14.247 -0.1577  0.3505 -0.0697
 8823SOL    HW138102   0.944   0.961  14.307  0.2087 -1.3936  0.3782
 8823SOL    HW238103   1.018   1.052  14.217  2.2516  0.0126 -1.1499
 8824SOL     OW38104   1.104   2.384  15.311  0.1558  0.0679  0.1106
 8824SOL    HW138105   1.176   2.375  15.373 -0.8793 -1.4012  1.0983
 8824SOL    HW238106   1.063   2.466  15.339  2.4168  1.1551  0.2357
 8825SOL     OW38107   1.613   3.704  12.777 -0.4267  0.2374  0.2165
 8825SOL    HW138108   1.597   3.751  12.695 -1.5264  0.4830  0.5702
 8825SOL    HW238109   1.701   3.668  12.763 -0.6049  0.5951 -1.8626
 8826SOL     OW38110   1.318   0.361   8.253 -0.2018 -0.4314 -0.1642
 8826SOL    HW138111   1.411   0.350   8.270  0.3370 -0.3105 -2.9237
 8826SOL    HW238112   1.302   0.326   8.165  0.2055 -3.8574  1.1430
 8827SOL     OW38113   3.555   3.011  11.227  0.1571  0.2108  0.2210
 8827SOL    HW138114   3.635   3.031  11.178 -1.9651  1.6759 -2.5870
 8827SOL    HW238115   3.526   3.100  11.248 -0.0808  0.4848 -1.2687
 8828SOL     OW38116   4.190   0.690   4.047  0.5441 -0.3623  0.1305
 8828SOL    HW138117   4.240   0.654   4.120 -0.3178 -0.4625  0.6707
 8828SOL    HW238118   4.252   0.753   4.010 -0.9469  1.2056  0.3237
 8829SOL     OW38119   3.528   0.014   2.290 -0.5014 -0.3863 -0.2639
 8829SOL    HW138120   3.599   0.013   2.354  0.1347 -1.3891 -0.9871
 8829SOL    HW238121   3.570   4.721   2.209  1.2244 -1.8693  1.1548
 8830SOL     OW38122   2.220   3.475   3.584  0.0802  0.0378  0.5694
 8830SOL    HW138123   2.264   3.496   3.666  1.0505 -1.4568  0.4272
 8830SOL    HW238124   2.206   3.567   3.558 -0.4141 -0.3697 -0.6108
 8831SOL     OW38125   2.939   2.409   3.206 -0.2792 -0.1824 -0.6424
 8831SOL    HW138126   2.925   2.364   3.290 -1.1614  2.0010  0.3794
 8831SOL    HW238127   2.898   2.489   3.240  1.0010  0.3606 -0.3481
 8832SOL     OW38128   4.001   1.135  15.813 -0.4399 -0.4731 -0.0085
 8832SOL    HW138129   4.061   1.179  15.872 -0.5416  1.9797 -1.7345
 8832SOL    HW238130   4.034   1.168  15.730 -0.1010  0.7037  0.5928
 8833SOL     OW38131   2.587   3.007   3.584 -0.4706  0.9253  0.0780
 8833SOL    HW138132   2.591   2.970   3.496  0.7740  2.6272 -0.5688
 8833SOL    HW238133   2.599   2.926   3.633 -0.0090  1.2976  0.5727
 8834SOL     OW38134   1.805   0.115   5.599 -0.0687  0.3785  0.7008
 8834SOL    HW138135   1.774   0.171   5.528 -0.7214 -1.2611 -0.2839
 8834SOL    HW238136   1.881   0.072   5.559 -0.6562  0.5585 -0.6018
 8835SOL     OW38137   2.762   0.307   7.044  0.0215 -0.1990 -0.4011
 8835SOL    HW138138   2.820   0.382   7.055 -0.1916  0.3548 -2.9412
 8835SOL    HW238139   2.817   0.250   6.990 -0.3866 -0.8321 -0.1470
 8836SOL     OW38140   1.914   0.034   3.167 -0.7268  0.0188  0.1907
 8836SOL    HW138141   2.006   0.020   3.190 -0.7978  0.2460  0.6179
 8836SOL    HW238142   1.930   0.070   3.080  2.5007 -1.2030  0.2977
 8837SOL     OW38143   3.045   3.503  11.770 -0.1105 -0.3661 -0.6739
 8837SOL    HW138144   3.044   3.410  11.747 -3.1438 -0.3524 -0.6171
 8837SOL    HW238145   3.113   3.540  11.713 -0.1431  2.8874  1.4250
 8838SOL     OW38146   3.550   4.228   2.425  0.4873  0.3723 -0.4750
 8838SOL    HW138147   3.475   4.288   2.423  1.7380  1.9782  1.2841
 8838SOL    HW238148   3.509   4.161   2.371  1.9091 -0.8967  0.0378
 8839SOL     OW38149   2.985   1.859  12.563 -0.4019  0.2101  0.8425
 8839SOL    HW138150   2.999   1.796  12.493  1.2869  0.1900  1.2100
 8839SOL    HW238151   2.988   1.941  12.513  0.7419 -0.0484  0.4986
 8840SOL     OW38152   3.715   1.797  15.198 -0.1610 -0.6169  0.3960
 8840SOL    HW138153   3.753   1.746  15.127  1.1023  1.9025 -0.7262
 8840SOL    HW238154   3.627   1.814  15.164  0.2296  0.6216  0.0049
 8841SOL     OW38155   3.717   0.737  12.838  0.3745 -0.7018  0.6927
 8841SOL    HW138156   3.674   0.760  12.920 -0.5677 -0.0399  0.0138
 8841SOL    HW238157   3.771   0.664  12.869  0.2325 -1.3950 -0.7338
 8842SOL     OW38158   0.735   0.866   9.823 -0.6428 -0.4927  0.1234
 8842SOL    HW138159   0.655   0.840   9.869 -0.9863  2.7626  1.3724
 8842SOL    HW238160   0.780   0.895   9.902 -0.3875  0.5883 -0.4251
 8843SOL     OW38161   2.989   2.040   0.783 -0.5938 -0.1585 -0.1533
 8843SOL    HW138162   3.076   2.001   0.781 -0.6188 -0.2340  0.1604
 8843SOL    HW238163   2.942   1.996   0.712  0.4397 -0.2039 -0.7992
 8844SOL     OW38164   3.307   1.109   9.484 -0.1477 -0.8747  0.7291
 8844SOL    HW138165   3.365   1.039   9.456 -0.3398  1.0310 -4.4495
 8844SOL    HW238166   3.361   1.150   9.552  1.3908 -1.0868 -0.3773
 8845SOL     OW38167   3.822   1.118  11.995  0.0939 -0.5876 -0.1451
 8845SOL    HW138168   3.784   1.193  12.040  1.9495 -0.7053  1.6024
 8845SOL    HW238169   3.808   1.043  12.053  0.6975 -0.0956  0.6321
 8846SOL     OW38170   2.663   0.845   3.927 -0.4654  0.6021  0.1776
 8846SOL    HW138171   2.733   0.908   3.944 -1.0715  1.5673 -0.9513
 8846SOL    HW238172   2.639   0.832   4.019  0.1837 -3.2767 -0.1762
 8847SOL     OW38173   4.153   1.810   9.120  0.6904 -0.0063 -0.6938
 8847SOL    HW138174   4.099   1.775   9.191 -0.9359  0.2109 -1.8392
 8847SOL    HW238175   4.238   1.783   9.157  0.0006  0.9252  1.5614
 8848SOL     OW38176   4.611   3.632   3.282 -0.0661 -0.1404  0.3850
 8848SOL    HW138177   4.613   3.563   3.348  2.3143  0.3695  0.8726
 8848SOL    HW238178   4.700   3.619   3.248 -1.1057  1.2834 -2.9284
 8849SOL     OW38179   0.673   3.312  10.816 -0.7618  0.0849 -0.5592
 8849SOL    HW138180   0.736   3.349  10.878  0.5387 -3.3923  0.1795
 8849SOL    HW238181   0.646   3.390  10.767 -0.1931  1.3466  1.1192
 8850SOL     OW38182   0.843   3.356   4.745  0.4255  0.0931  0.3711
 8850SOL    HW138183   0.885   3.325   4.826  1.5516  0.0610 -0.2318
 8850SOL    HW238184   0.902   3.422   4.710 -1.1637  0.8174 -0.9192
 8851SOL     OW38185   0.425   1.436  15.969 -0.5013 -0.2760 -0.4060
 8851SOL    HW138186   0.520   1.425  15.962 -0.4877  0.2470 -1.0511
 8851SOL    HW238187   0.400   1.493  15.897  1.1724  0.4035 -0.4628
 8852SOL     OW38188   0.725   0.877  14.318 -0.3394 -0.8509  0.0382
 8852SOL    HW138189   0.681   0.796  14.293 -0.5771 -0.0321 -2.1825
 8852SOL    HW238190   0.688   0.934  14.251  1.0156  0.5181  0.4538
 8853SOL     OW38191   3.735   0.857   6.969  0.1307 -0.1151  0.3915
 8853SOL    HW138192   3.644   0.831   6.958  0.9804 -2.3108 -1.5319
 8853SOL    HW238193   3.765   0.848   6.879 -2.8407 -0.6706 -0.5257
 8854SOL     OW38194   1.857   1.311   4.749 -0.6692  0.5772  0.3554
 8854SOL    HW138195   1.794   1.296   4.678  0.5539  4.5377 -1.5387
 8854SOL    HW238196   1.890   1.223   4.769  0.9682  0.6533 -2.0207
 8855SOL     OW38197   0.990   2.290  10.111 -0.3968  0.0400 -0.5182
 8855SOL    HW138198   0.986   2.309  10.204  1.0501  1.1733 -0.6978
 8855SOL    HW238199   0.995   2.377  10.072 -2.0195  1.5546  2.6653
 8856SOL     OW38200   4.257   2.048   5.064 -0.5444  0.1093  0.0112
 8856SOL    HW138201   4.196   2.017   5.131 -1.8167  0.6591 -0.9094
 8856SOL    HW238202   4.330   1.993   5.093  0.3462  0.8123 -0.8879
 8857SOL     OW38203   2.501   2.824   2.234  0.5876  0.0329  0.1437
 8857SOL    HW138204   2.584   2.791   2.201  0.3273 -0.4956  0.0122
 8857SOL    HW238205   2.468   2.868   2.155 -0.4483  1.1860  1.2233
 8858SOL     OW38206   2.228   0.595   4.690  0.2038  0.1329 -0.3365
 8858SOL    HW138207   2.183   0.679   4.696 -1.7971 -0.9545 -0.1471
 8858SOL    HW238208   2.233   0.573   4.783  3.6208 -0.0766 -0.5905
 8859SOL     OW38209   0.765   0.672   3.998 -0.1118  0.0966 -0.1615
 8859SOL    HW138210   0.719   0.588   4.012  2.1945 -1.0676  0.4074
 8859SOL    HW238211   0.720   0.711   3.923 -0.5479 -0.4966 -0.2115
 8860SOL     OW38212   2.473   1.742   3.897  0.4269  0.4327 -0.0432
 8860SOL    HW138213   2.528   1.699   3.831 -2.1243 -1.5215 -0.9255
 8860SOL    HW238214   2.542   1.774   3.955 -0.6823  0.8277  1.0550
 8861SOL     OW38215   4.444   3.031   7.542  0.1536 -0.2361 -0.0870
 8861SOL    HW138216   4.505   2.958   7.529  2.7789  1.6041  1.8702
 8861SOL    HW238217   4.375   2.995   7.598  0.7642 -1.9415 -0.4336
 8862SOL     OW38218   0.330   0.336   3.439 -0.0532 -0.1510  0.4020
 8862SOL    HW138219   0.371   0.370   3.360  2.3879  1.0354  2.1687
 8862SOL    HW238220   0.396   0.285   3.486 -1.5785 -0.3450  2.3066
 8863SOL     OW38221   1.592   2.757   3.721  0.1530  0.0885  0.3450
 8863SOL    HW138222   1.670   2.786   3.768 -0.6227  2.5834  0.0996
 8863SOL    HW238223   1.558   2.841   3.691  1.0733  0.4961  0.4730
 8864SOL     OW38224   3.480   2.191   9.111 -0.4342 -0.0243  0.3964
 8864SOL    HW138225   3.482   2.100   9.082 -0.0670  0.4452 -1.0935
 8864SOL    HW238226   3.566   2.220   9.079 -0.0678 -0.6624  0.8289
 8865SOL     OW38227   3.579   0.689  11.672 -0.4547 -0.0307 -0.1841
 8865SOL    HW138228   3.648   0.754  11.670 -0.4098 -0.0437  1.2047
 8865SOL    HW238229   3.503   0.744  11.689  2.3404  2.9650  2.5249
 8866SOL     OW38230   3.708   2.093  13.662 -0.0406 -0.4189  0.6302
 8866SOL    HW138231   3.782   2.032  13.669 -0.9427 -1.6488 -0.3950
 8866SOL    HW238232   3.747   2.180  13.660 -2.3229  0.5696 -0.5657
 8867SOL     OW38233   0.082   1.841   6.131 -0.2231 -0.2009  0.0725
 8867SOL    HW138234   0.046   1.793   6.057  0.6199  0.0370 -0.5004
 8867SOL    HW238235   0.053   1.794   6.209  3.4953 -1.6961  0.5533
 8868SOL     OW38236   1.099   2.827   5.659  0.2352 -0.0829  0.1300
 8868SOL    HW138237   1.120   2.912   5.697 -1.8804  0.2270  0.6238
 8868SOL    HW238238   1.138   2.823   5.572 -2.1108 -0.9703 -0.8915
 8869SOL     OW38239   0.720   0.929   5.936  0.0660  0.2381  0.6602
 8869SOL    HW138240   0.774   0.890   6.005  0.8596  0.1395 -0.0075
 8869SOL    HW238241   0.657   0.974   5.991  0.7733  1.7694  0.2115
 8870SOL     OW38242   0.731   1.684  17.381  0.3668  0.6354  0.0171
 8870SOL    HW138243   0.750   1.622  17.311 -0.1399  1.5552 -0.9286
 8870SOL    HW238244   0.659   1.733  17.341 -0.4505  0.3052  1.0595
 8871SOL     OW38245   1.446   1.147   0.907  0.0715  0.0994 -0.9518
 8871SOL    HW138246   1.528   1.133   0.861 -0.4088  1.8989 -2.3740
 8871SOL    HW238247   1.419   1.055   0.912  0.0728  0.0702 -1.5781
 8872SOL     OW38248   3.271   1.013   5.974  0.0455  0.4188 -0.1710
 8872SOL    HW138249   3.189   1.020   5.925  0.9065  0.3238 -1.6529
 8872SOL    HW238250   3.280   1.105   5.998  0.6033  0.4378 -0.4438
 8873SOL     OW38251   2.235   2.511   6.341  0.2744  0.2155  0.2939
 8873SOL    HW138252   2.314   2.463   6.364  1.1037 -0.1892 -3.3456
 8873SOL    HW238253   2.176   2.492   6.414 -0.1514 -0.9331 -0.3486
 8874SOL     OW38254   4.111   3.432   3.372 -0.4731 -0.0216 -0.1953
 8874SOL    HW138255   4.015   3.428   3.382 -0.3451  1.2120  1.6540
 8874SOL    HW238256   4.133   3.507   3.427 -1.6878  1.0244 -1.1392
 8875SOL     OW38257   3.553   2.975  10.842 -0.1597 -0.4643  0.5755
 8875SOL    HW138258   3.563   3.044  10.908  1.7842 -0.9969  0.8392
 8875SOL    HW238259   3.594   3.008  10.762  1.4920 -1.2965  1.0683
 8876SOL     OW38260   0.130   3.671   3.214  0.0443  0.1146  0.0159
 8876SOL    HW138261   0.157   3.721   3.291  0.3540  0.5786 -0.3941
 8876SOL    HW238262   0.127   3.742   3.149  0.2995  2.3904  2.5131
 8877SOL     OW38263   2.703   4.044  16.074 -0.8145  0.1388  0.1899
 8877SOL    HW138264   2.782   3.994  16.093  0.5917  2.0263 -0.7504
 8877SOL    HW238265   2.725   4.137  16.078 -0.3489  0.0799 -1.1412
 8878SOL     OW38266   3.790   1.779   4.183  0.4643 -0.5480  0.2462
 8878SOL    HW138267   3.854   1.848   4.165  0.3351 -0.7604 -0.9865
 8878SOL    HW238268   3.808   1.726   4.105  0.5637 -1.7263  1.0693
 8879SOL     OW38269   3.584   3.258   7.567 -0.4371 -0.0865  0.5142
 8879SOL    HW138270   3.495   3.232   7.590 -0.3536 -1.3507 -0.6117
 8879SOL    HW238271   3.567   3.352   7.572 -3.4734 -0.6897  1.3676
 8880SOL     OW38272   4.453   3.405   3.781  0.3195 -0.9223 -0.4136
 8880SOL    HW138273   4.434   3.489   3.822  0.5701 -0.3843 -1.3802
 8880SOL    HW238274   4.366   3.369   3.763  0.3169 -0.5955 -1.0421
 8881SOL     OW38275   0.410   3.131   3.182 -0.3383 -0.1992  0.4152
 8881SOL    HW138276   0.400   3.042   3.215 -0.3171 -0.2883  0.1829
 8881SOL    HW238277   0.504   3.139   3.169 -0.5959  1.1394 -0.6773
 8882SOL     OW38278   2.037   1.875   1.759  0.5033 -0.6986 -0.0613
 8882SOL    HW138279   2.128   1.899   1.743  0.3742 -0.2781 -0.1732
 8882SOL    HW238280   2.042   1.827   1.842 -0.1421  0.8247  0.8497
 8883SOL     OW38281   3.243   1.617   5.328  0.1794  1.0724 -1.2166
 8883SOL    HW138282   3.310   1.654   5.385  0.4147 -0.3320 -0.5694
 8883SOL    HW238283   3.232   1.698   5.279  0.1671  1.8575  0.1045
 8884SOL     OW38284   3.582   2.445  16.431  0.2949  0.4426 -0.6861
 8884SOL    HW138285   3.555   2.476  16.344 -1.0623  0.7744 -0.1501
 8884SOL    HW238286   3.650   2.512  16.442  1.0995 -0.5312  0.2680
 8885SOL     OW38287   1.339   2.754   0.550 -0.3371  0.4293  0.5234
 8885SOL    HW138288   1.433   2.767   0.554  0.2089 -2.3001 -2.8528
 8885SOL    HW238289   1.315   2.713   0.633 -0.1121 -0.1784  0.2934
 8886SOL     OW38290   4.081   1.023   3.899 -0.3037 -0.2506 -0.1436
 8886SOL    HW138291   4.151   1.049   3.958 -0.7310  2.0922 -0.6690
 8886SOL    HW238292   4.022   0.967   3.949 -2.5665  2.3484  0.0794
 8887SOL     OW38293   1.236   0.992  12.159  0.1402 -0.4420 -0.2129
 8887SOL    HW138294   1.286   0.916  12.131  0.8932 -0.3900  0.9949
 8887SOL    HW238295   1.189   0.963  12.238 -0.1393 -3.7325 -1.5819
 8888SOL     OW38296   3.098   0.409   3.339 -0.0234 -0.0987 -0.0654
 8888SOL    HW138297   3.050   0.477   3.291 -0.3495  0.2535  0.7589
 8888SOL    HW238298   3.146   0.364   3.269  0.3877 -2.4949  1.7817
 8889SOL     OW38299   3.624   4.099   0.904  0.0412  0.4659 -0.2012
 8889SOL    HW138300   3.533   4.113   0.876 -0.3011  1.9029  1.6715
 8889SOL    HW238301   3.612   4.005   0.919  1.0133 -0.2066 -3.5064
 8890SOL     OW38302   3.602   3.578   1.790 -0.8134  0.3631 -0.7085
 8890SOL    HW138303   3.544   3.528   1.732  1.0881 -3.1671  0.4145
 8890SOL    HW238304   3.680   3.522   1.792 -0.7545  0.3362 -3.2695
 8891SOL     OW38305   1.601   0.353   8.231  0.3385 -0.2380  0.0510
 8891SOL    HW138306   1.642   0.410   8.166 -0.5803  0.8770  0.4623
 8891SOL    HW238307   1.678   0.330   8.283  1.0535 -0.2147 -0.9970
 8892SOL     OW38308   0.395   2.511   7.354  0.0607 -0.1200 -0.2095
 8892SOL    HW138309   0.398   2.557   7.269 -2.2086  0.3003 -0.0487
 8892SOL    HW238310   0.398   2.423   7.317  0.5162  0.4746 -1.6153
 8893SOL     OW38311   1.104   3.194  11.761  0.0403  0.0719  0.1327
 8893SOL    HW138312   1.013   3.220  11.746 -0.4321 -1.4376  0.4118
 8893SOL    HW238313   1.146   3.268  11.807  1.0873  0.5932 -1.6510
 8894SOL     OW38314   0.477   2.305  13.691  0.6718  0.1303 -0.0875
 8894SOL    HW138315   0.407   2.368  13.671  1.4908  0.3677 -2.1651
 8894SOL    HW238316   0.523   2.346  13.764  3.1242 -0.1726 -1.4839
 8895SOL     OW38317   0.525   0.442   5.918  0.0268  0.1970 -0.1499
 8895SOL    HW138318   0.468   0.387   5.971  0.4939  1.5891  1.7895
 8895SOL    HW238319   0.600   0.464   5.973  0.8874  1.1351 -1.6897
 8896SOL     OW38320   4.345   2.115   0.582 -0.4134  0.3667  0.0756
 8896SOL    HW138321   4.424   2.065   0.560 -0.2889  0.4418  0.3518
 8896SOL    HW238322   4.322   2.082   0.669 -0.7849  2.0243  0.5970
 8897SOL     OW38323   4.661   2.205   5.784  0.4426  0.3426 -0.1641
 8897SOL    HW138324   4.581   2.154   5.765 -0.6217  1.0224  2.5077
 8897SOL    HW238325   4.684   2.236   5.697 -1.7520  2.7207  0.1075
 8898SOL     OW38326   3.072   1.029   1.183 -0.6643 -0.6380 -0.0027
 8898SOL    HW138327   3.145   1.029   1.120 -0.5347 -0.7208  0.1480
 8898SOL    HW238328   2.999   1.031   1.121  1.2645 -0.0207 -2.2999
 8899SOL     OW38329   1.509   1.084   3.005 -0.1015 -0.0507  0.0630
 8899SOL    HW138330   1.534   0.998   2.971 -0.1642  0.2206 -0.6822
 8899SOL    HW238331   1.432   1.105   2.951  0.9891 -0.2248 -1.5746
 8900SOL     OW38332   4.018   1.731   8.065 -0.4320 -0.3795 -0.1367
 8900SOL    HW138333   3.992   1.654   8.115  1.8619 -0.8632  0.3137
 8900SOL    HW238334   4.027   1.800   8.131  0.6194 -0.8704  0.2316
 8901SOL     OW38335   1.157   4.106  11.868 -0.0802 -0.3010 -0.1149
 8901SOL    HW138336   1.244   4.080  11.900  0.5523  2.7611  0.6272
 8901SOL    HW238337   1.165   4.104  11.773  1.9895  2.9484  0.0062
 8902SOL     OW38338   3.178   3.575   4.285  0.4833  0.1976 -0.2988
 8902SOL    HW138339   3.170   3.631   4.362 -0.0180  1.2253 -1.0927
 8902SOL    HW238340   3.089   3.585   4.251 -0.6157  0.5376  2.6754
 8903SOL     OW38341   2.571   2.683   6.537 -0.2811 -0.0104  0.3744
 8903SOL    HW138342   2.590   2.682   6.443  0.6676 -2.2225  0.5819
 8903SOL    HW238343   2.495   2.739   6.546  0.6817  1.5005 -0.8842
 8904SOL     OW38344   1.696   1.499   9.165 -0.1705 -0.6486  0.1652
 8904SOL    HW138345   1.728   1.583   9.197  2.3342 -1.3848 -0.4264
 8904SOL    HW238346   1.637   1.518   9.092 -0.9511 -1.9408  0.4572
 8905SOL     OW38347   2.683   2.412   0.161  0.0888  0.5935  0.4929
 8905SOL    HW138348   2.666   2.445   0.072  1.4927 -0.5116 -0.1861
 8905SOL    HW238349   2.686   2.318   0.143 -0.6322  0.8172 -0.8372
 8906SOL     OW38350   2.810   2.712   3.192 -0.3435  0.5410 -0.6166
 8906SOL    HW138351   2.864   2.781   3.231 -0.3790 -0.1853  0.7271
 8906SOL    HW238352   2.740   2.722   3.257  1.0767  1.8355  0.7294
 8907SOL     OW38353   1.304   4.266   6.612 -0.1764  0.4864  0.4045
 8907SOL    HW138354   1.369   4.260   6.542  0.1832 -0.1116  0.7893
 8907SOL    HW238355   1.255   4.340   6.576 -0.6550 -0.8498 -1.7319
 8908SOL     OW38356   4.339   3.548   5.373  0.0605 -0.3372 -0.3802
 8908SOL    HW138357   4.293   3.604   5.310  1.9309  1.5840 -0.0394
 8908SOL    HW238358   4.428   3.549   5.338  1.2471 -0.3338  2.6320
 8909SOL     OW38359   2.132   1.582   8.532 -0.3050 -0.2838  0.5338
 8909SOL    HW138360   2.085   1.655   8.571 -0.1326  1.2083 -2.0390
 8909SOL    HW238361   2.068   1.511   8.522 -0.0813 -0.3049 -0.7916
 8910SOL     OW38362   1.903   2.253   2.469 -0.1186 -0.0657 -0.2773
 8910SOL    HW138363   1.940   2.202   2.396  0.3304  0.9599 -0.7599
 8910SOL    HW238364   1.869   2.328   2.420 -2.5537  0.2800  1.9047
 8911SOL     OW38365   4.490   3.964   5.390 -0.8907 -0.2483 -0.6808
 8911SOL    HW138366   4.420   3.917   5.435 -0.5383 -1.6958 -1.6333
 8911SOL    HW238367   4.465   3.952   5.298  2.6814  1.3690 -1.8964
 8912SOL     OW38368   1.657   0.581  11.363  0.1614 -0.5847 -0.5549
 8912SOL    HW138369   1.584   0.593  11.303 -0.6422 -1.6318  0.2107
 8912SOL    HW238370   1.697   0.499  11.332  0.8595 -0.3483 -0.2854
 8913SOL     OW38371   0.830   2.854   4.243  0.7014  0.2080  0.0200
 8913SOL    HW138372   0.748   2.879   4.287  0.6971 -1.6190  1.0448
 8913SOL    HW238373   0.835   2.759   4.254 -1.8358  0.1429  0.8525
 8914SOL     OW38374   0.819   0.579   4.616  0.1988 -0.5755  0.1267
 8914SOL    HW138375   0.856   0.514   4.676  1.1471 -0.5539 -0.4286
 8914SOL    HW238376   0.773   0.639   4.675  0.8432  0.3197 -0.2801
 8915SOL     OW38377   4.615   4.100   6.302 -0.7949  0.9017 -0.4707
 8915SOL    HW138378   4.675   4.119   6.230 -1.4643  2.7816 -0.5392
 8915SOL    HW238379   4.580   4.189   6.310  0.0050  0.8877  3.1655
 8916SOL     OW38380   1.518   1.477   3.598  0.1841  0.1091  0.1319
 8916SOL    HW138381   1.572   1.499   3.522 -1.0689  0.7051 -0.5804
 8916SOL    HW238382   1.582   1.481   3.669  0.2541  1.5085 -0.0077
 8917SOL     OW38383   4.632   2.435  12.611  0.8157 -0.3215 -0.0764
 8917SOL    HW138384   4.698   2.491  12.569 -0.6733  2.3634  1.1317
 8917SOL    HW238385   4.551   2.461  12.567  1.0471  0.9911  0.2501
 8918SOL     OW38386   0.835   1.655  11.827 -0.0825  0.2693 -0.1777
 8918SOL    HW138387   0.925   1.682  11.845 -0.0434 -0.3412  0.5592
 8918SOL    HW238388   0.832   1.684  11.736  2.0271  0.1634 -0.2837
 8919SOL     OW38389   4.196   2.873   4.998 -0.0504  0.6017 -0.5324
 8919SOL    HW138390   4.275   2.821   4.985  0.1285  0.9451 -0.8014
 8919SOL    HW238391   4.229   2.963   4.999  1.8190 -0.0814 -1.6401
 8920SOL     OW38392   0.737   3.974   2.924  0.2753  0.0469  0.4783
 8920SOL    HW138393   0.692   4.050   2.886 -1.9645 -1.6151 -0.2388
 8920SOL    HW238394   0.826   3.964   2.890  0.3794  2.2200  0.0874
 8921SOL     OW38395   3.610   3.102   9.544 -0.4649 -0.1111 -0.4652
 8921SOL    HW138396   3.648   3.050   9.615 -0.0093  0.2230 -0.4655
 8921SOL    HW238397   3.603   3.046   9.467 -1.5948  0.5680 -0.8532
 8922SOL     OW38398   0.466   2.383   3.544 -0.6345  0.5426 -0.9279
 8922SOL    HW138399   0.380   2.348   3.568 -2.3940  3.3453 -3.1782
 8922SOL    HW238400   0.518   2.314   3.585  0.6529  1.7575 -0.5364
 8923SOL     OW38401   2.480   0.790   2.172  0.5464 -0.2406  0.2335
 8923SOL    HW138402   2.387   0.765   2.179  0.0851  1.5869  0.7246
 8923SOL    HW238403   2.505   0.748   2.255 -3.3142 -2.3861  0.3429
 8924SOL     OW38404   3.802   1.161  14.456  0.3942 -0.5070  0.4506
 8924SOL    HW138405   3.895   1.138  14.450 -0.8869 -5.1998 -2.0779
 8924SOL    HW238406   3.800   1.202  14.369 -0.1248  0.3564  0.8765
 8925SOL     OW38407   4.415   4.292   8.180  0.2143 -0.2143  0.5600
 8925SOL    HW138408   4.321   4.308   8.167 -0.1576 -3.1778 -0.3559
 8925SOL    HW238409   4.424   4.219   8.119  2.4598  0.3780  0.1830
 8926SOL     OW38410   1.439   2.201   5.015  0.2972 -0.1622  0.8941
 8926SOL    HW138411   1.451   2.185   4.922 -1.5478 -1.4516  0.8737
 8926SOL    HW238412   1.412   2.291   5.000 -1.9903 -0.6412  2.0210
 8927SOL     OW38413   0.905   2.275   9.778  0.3058 -0.2104 -0.4966
 8927SOL    HW138414   0.896   2.181   9.790  0.2391 -0.4528 -2.4582
 8927SOL    HW238415   0.999   2.276   9.792  0.0298 -1.9471  1.4513
 8928SOL     OW38416   4.008   2.136  12.279 -0.0195  0.5029 -0.1777
 8928SOL    HW138417   3.962   2.152  12.362  0.2096 -1.7244  0.3854
 8928SOL    HW238418   4.068   2.066  12.307  1.0808  0.0385 -3.7295
 8929SOL     OW38419   3.714   1.325   3.350 -0.1578  0.3390  0.2300
 8929SOL    HW138420   3.805   1.307   3.329 -0.5831 -1.0153 -0.4480
 8929SOL    HW238421   3.664   1.257   3.304  0.3357  0.1312  0.0060
 8930SOL     OW38422   1.833   4.069   7.498 -0.2446  0.7394 -0.0959
 8930SOL    HW138423   1.866   4.156   7.474 -0.2659  0.5155 -0.9053
 8930SOL    HW238424   1.909   4.022   7.532  0.5061  0.8089 -1.6789
 8931SOL     OW38425   0.927   2.503   8.856  0.0669  0.2618 -0.3038
 8931SOL    HW138426   1.016   2.485   8.888  0.6043 -0.8660 -2.4029
 8931SOL    HW238427   0.943   2.541   8.769  1.7172 -0.9080 -0.5065
 8932SOL     OW38428   1.812   0.203   4.630  0.6805 -0.0692 -0.3968
 8932SOL    HW138429   1.781   0.293   4.621  1.4567  0.1421 -0.9331
 8932SOL    HW238430   1.903   0.233   4.622  0.3097  0.8475 -1.2042
 8933SOL     OW38431   1.111   1.094   4.381  0.6981 -0.1824 -0.4121
 8933SOL    HW138432   1.161   1.072   4.460 -2.8207  0.3893  1.9864
 8933SOL    HW238433   1.122   1.023   4.318  0.3685  1.1771 -2.0088
 8934SOL     OW38434   3.532   2.002   7.223 -0.4022 -0.4278 -0.6569
 8934SOL    HW138435   3.593   1.984   7.295  0.7359  2.6962 -0.8474
 8934SOL    HW238436   3.518   1.912   7.192  1.6394 -1.3749  1.2119
 8935SOL     OW38437   0.592   0.874   2.613 -0.3859 -0.2226 -0.3101
 8935SOL    HW138438   0.505   0.869   2.573 -0.4301  0.9883 -0.3813
 8935SOL    HW238439   0.581   0.942   2.680  2.2291  0.4971 -0.6252
 8936SOL     OW38440   2.492   1.771   1.716 -0.2819  0.0017  0.1560
 8936SOL    HW138441   2.547   1.803   1.787 -0.2742 -0.5371  0.3957
 8936SOL    HW238442   2.429   1.843   1.721  0.3775  0.6497 -0.7258
 8937SOL     OW38443   2.775   3.856  13.941 -0.4107 -0.7749  0.7003
 8937SOL    HW138444   2.721   3.911  13.885 -0.1843 -0.8793  0.3763
 8937SOL    HW238445   2.857   3.862  13.890 -0.7639  1.3498  0.4100
 8938SOL     OW38446   2.584   3.758   0.606 -0.5289  0.4982  0.4210
 8938SOL    HW138447   2.615   3.783   0.518 -1.9848 -0.6113 -0.3908
 8938SOL    HW238448   2.665   3.771   0.655  0.1519 -2.0753 -0.0143
 8939SOL     OW38449   0.987   4.502  14.200  0.4706  0.2036 -0.2356
 8939SOL    HW138450   0.923   4.488  14.270 -1.0262 -2.1720 -2.0608
 8939SOL    HW238451   0.949   4.582  14.164  0.2614  0.6386  0.9793
 8940SOL     OW38452   1.574   2.298  13.805 -0.1217  0.1760  0.8864
 8940SOL    HW138453   1.571   2.348  13.724  0.6578  0.1667  0.8542
 8940SOL    HW238454   1.490   2.253  13.797  0.5555 -0.8760 -0.2363
 8941SOL     OW38455   1.083   2.855  16.932 -0.6736  0.4393 -0.0727
 8941SOL    HW138456   1.014   2.789  16.923 -1.1028  0.7448  0.9386
 8941SOL    HW238457   1.046   2.921  16.873 -2.3161  1.0520  1.6402
 8942SOL     OW38458   0.020   2.686   3.491  0.0496 -0.1186  0.0353
 8942SOL    HW138459   0.064   2.709   3.573 -0.2643  0.2011  0.1162
 8942SOL    HW238460   0.072   2.609   3.468 -0.8395 -1.4386  2.4439
 8943SOL     OW38461   3.905   0.297   2.486  0.3525 -0.6537  0.0703
 8943SOL    HW138462   3.891   0.381   2.444  0.0775  0.0364  1.5648
 8943SOL    HW238463   3.919   0.321   2.577 -2.5259  0.6065  0.1744
 8944SOL     OW38464   2.249   0.769  17.740 -0.3005 -0.2886  0.1037
 8944SOL    HW138465   2.259   0.846   0.053 -1.3831 -0.6057  0.7473
 8944SOL    HW238466   2.153   0.770  17.740 -0.2988 -0.3158 -1.5850
 8945SOL     OW38467   3.649   1.842   3.086 -0.3899 -0.1350 -0.0923
 8945SOL    HW138468   3.664   1.824   2.993 -3.2382 -0.6087 -0.4579
 8945SOL    HW238469   3.554   1.846   3.091 -0.3216 -1.3518  2.3684
 8946SOL     OW38470   1.203   2.283  14.505  0.6202  0.1169  0.4651
 8946SOL    HW138471   1.235   2.219  14.441 -3.0992 -1.1646 -0.1141
 8946SOL    HW238472   1.188   2.227  14.581  1.0243  3.8646  3.2721
 8947SOL     OW38473   1.597   3.721   3.352 -0.5021  0.3905 -0.4172
 8947SOL    HW138474   1.529   3.773   3.309 -0.5407  0.9707  0.3401
 8947SOL    HW238475   1.676   3.768   3.325 -1.4714  2.0210 -0.3881
 8948SOL     OW38476   2.800   4.152   4.415  0.5049 -0.3506 -0.2801
 8948SOL    HW138477   2.788   4.247   4.406  0.6180 -0.2336  0.7500
 8948SOL    HW238478   2.769   4.139   4.505 -2.5421 -0.2810 -1.3281
 8949SOL     OW38479   4.147   0.784   6.829 -0.3287  0.0484 -0.0235
 8949SOL    HW138480   4.163   0.850   6.896  2.7931 -0.3706 -0.3343
 8949SOL    HW238481   4.216   0.793   6.763 -0.5229  1.0546 -0.0894
 8950SOL     OW38482   0.634   1.412   3.214 -0.1106  0.0561  0.0951
 8950SOL    HW138483   0.653   1.487   3.158 -0.7645  0.2228  0.0920
 8950SOL    HW238484   0.682   1.438   3.293 -3.3256  2.7765  1.1944
 8951SOL     OW38485   4.077   0.944   8.916 -0.1401 -0.0773 -0.6708
 8951SOL    HW138486   4.000   1.001   8.927  0.6500  0.1447  3.5409
 8951SOL    HW238487   4.088   0.906   9.002 -0.6372  1.3917  0.0466
 8952SOL     OW38488   2.203   3.079   4.471  0.2151 -0.5477 -0.3587
 8952SOL    HW138489   2.243   3.022   4.536  0.7513 -0.7913 -0.8951
 8952SOL    HW238490   2.244   3.054   4.388  1.5298  2.2894 -0.5430
 8953SOL     OW38491   0.250   1.633   9.184  0.7269 -0.8090  0.2205
 8953SOL    HW138492   0.343   1.648   9.171  0.4075  0.3629 -0.6774
 8953SOL    HW238493   0.239   1.540   9.207  1.1971 -0.7205  0.8001
 8954SOL     OW38494   2.973   0.079  11.778 -0.3533  0.2029  0.2710
 8954SOL    HW138495   2.878   0.080  11.766 -0.4679 -0.1158  1.0900
 8954SOL    HW238496   2.999   4.726  11.754  0.3831  0.2484  0.8588
 8955SOL     OW38497   3.375   0.965   7.571  0.2873  0.1570  0.0816
 8955SOL    HW138498   3.361   1.056   7.543  0.6325  0.1431 -0.1324
 8955SOL    HW238499   3.445   0.940   7.511 -0.1397 -0.5554 -0.1309
 8956SOL     OW38500   1.128   1.693  10.044  0.3985  0.0160 -0.2033
 8956SOL    HW138501   1.163   1.612  10.082 -1.7829 -2.3672 -3.2920
 8956SOL    HW238502   1.120   1.667   9.952  0.0889  0.2522 -0.2442
 8957SOL     OW38503   4.471   0.935   3.695  0.8173  0.5115  0.9801
 8957SOL    HW138504   4.565   0.924   3.714  0.6784  0.2224  1.4814
 8957SOL    HW238505   4.439   0.958   3.782 -0.6855 -2.9290  1.3369
 8958SOL     OW38506   2.708   4.580  13.389 -0.1587 -0.7175  0.6989
 8958SOL    HW138507   2.802   4.571  13.373 -0.3386 -0.4862 -0.5526
 8958SOL    HW238508   2.706   4.625  13.473 -0.9174 -1.0442  0.8544
 8959SOL     OW38509   4.017   1.500   8.248 -0.2806 -0.5257 -0.1098
 8959SOL    HW138510   4.089   1.517   8.309 -0.1984  0.8295 -0.5877
 8959SOL    HW238511   3.991   1.408   8.255 -1.5551 -0.2575 -1.2538
 8960SOL     OW38512   4.298   1.001   5.590  0.4702  0.5444  0.2136
 8960SOL    HW138513   4.255   1.061   5.529 -1.6542 -1.9977 -0.7831
 8960SOL    HW238514   4.386   1.000   5.553  0.7612 -2.4842  1.0466
 8961SOL     OW38515   0.652   0.259   5.767 -0.0555  0.6357 -0.0772
 8961SOL    HW138516   0.589   0.320   5.806  1.3377  1.1600  1.3514
 8961SOL    HW238517   0.652   0.287   5.675  1.0874  0.0578 -0.2541
 8962SOL     OW38518   4.019   2.516   4.837 -0.4113 -0.0878 -0.2870
 8962SOL    HW138519   3.931   2.495   4.869 -0.7065  0.0886 -0.9847
 8962SOL    HW238520   4.002   2.590   4.778 -0.0082  0.5689  0.4173
 8963SOL     OW38521   4.323   0.291   4.026  0.2617 -0.6932 -0.2433
 8963SOL    HW138522   4.305   0.197   4.038  2.0243 -0.6698  2.4492
 8963SOL    HW238523   4.249   0.319   3.972 -0.0883 -1.1723 -0.0155
 8964SOL     OW38524   0.503   2.293   3.289  0.1974 -0.4010  0.0666
 8964SOL    HW138525   0.468   2.358   3.350 -0.7705 -0.3939 -0.4923
 8964SOL    HW238526   0.590   2.323   3.261  0.6794 -0.7932  1.1344
 8965SOL     OW38527   4.150   1.071   3.370  0.0485  0.8271 -0.2400
 8965SOL    HW138528   4.087   1.082   3.441  1.8952  2.0627  1.1823
 8965SOL    HW238529   4.236   1.086   3.407  0.4992  0.9487 -1.3301
 8966SOL     OW38530   2.767   0.361  11.348  0.0487  0.4617 -0.3226
 8966SOL    HW138531   2.820   0.292  11.308  0.0715 -1.2336  2.7089
 8966SOL    HW238532   2.809   0.351  11.433 -2.8422 -0.8847  0.9345
 8967SOL     OW38533   1.015   0.742   6.879 -0.2251 -0.0091  0.0819
 8967SOL    HW138534   0.953   0.698   6.821 -1.3081  2.8544 -0.9166
 8967SOL    HW238535   0.998   0.835   6.863  0.7203 -0.1835 -1.9221
 8968SOL     OW38536   2.637   0.480   3.718  0.3264 -0.5232 -0.1695
 8968SOL    HW138537   2.730   0.501   3.729  0.6514 -1.9960 -0.0300
 8968SOL    HW238538   2.628   0.417   3.789  1.2786  0.1506  0.5512
 8969SOL     OW38539   0.511   1.784   2.170 -0.1995 -0.6478 -0.7285
 8969SOL    HW138540   0.497   1.808   2.078  0.9327 -1.3873 -1.0999
 8969SOL    HW238541   0.581   1.845   2.194 -0.0114  0.0559 -3.0603
 8970SOL     OW38542   3.490   4.063  12.455  0.3140  0.6039 -0.3365
 8970SOL    HW138543   3.452   4.145  12.485 -1.0525  0.2545 -1.1372
 8970SOL    HW238544   3.513   4.027  12.541 -3.5824 -0.9584  0.0549
 8971SOL     OW38545   2.050   2.709   0.376 -0.0992 -0.3490  0.6379
 8971SOL    HW138546   2.038   2.774   0.307  0.3594  0.4014  1.2647
 8971SOL    HW238547   1.963   2.669   0.374  0.5872 -1.7447 -0.7472
 8972SOL     OW38548   1.688   3.142   3.279  0.3047 -0.8541 -0.2672
 8972SOL    HW138549   1.634   3.205   3.326 -0.1929 -1.8040  0.4361
 8972SOL    HW238550   1.771   3.172   3.316 -0.7856  1.5874  0.1992
 8973SOL     OW38551   2.805   0.154   7.320  0.0525  0.0446 -0.3430
 8973SOL    HW138552   2.808   0.208   7.241 -0.6988 -0.6717 -0.8745
 8973SOL    HW238553   2.720   0.180   7.356 -0.6501 -0.7341 -1.4083
 8974SOL     OW38554   3.903   0.196   3.530  0.0038  0.4527 -0.3432
 8974SOL    HW138555   3.923   0.276   3.578  0.8708  1.2274 -1.9859
 8974SOL    HW238556   3.819   0.172   3.568  0.2442  0.3939  0.1416
 8975SOL     OW38557   2.096   0.127   7.798 -0.1650  0.3819 -0.1152
 8975SOL    HW138558   2.128   0.070   7.868  1.9500  0.4111 -1.0618
 8975SOL    HW238559   2.075   0.206   7.848  0.2390 -2.4932  4.5869
 8976SOL     OW38560   2.015   0.981  15.098  0.2929 -0.2345 -0.2747
 8976SOL    HW138561   2.046   0.934  15.020 -0.2307 -2.7023  1.0157
 8976SOL    HW238562   2.045   0.924  15.168  1.3452  0.4891 -0.1303
 8977SOL     OW38563   0.937   2.844   6.288  0.0294 -0.0024 -0.1155
 8977SOL    HW138564   0.981   2.783   6.348  0.2967  0.7016  0.3983
 8977SOL    HW238565   0.923   2.914   6.352  1.6394  0.1103  0.1119
 8978SOL     OW38566   4.651   2.268  15.267 -0.0760 -0.0725  0.3582
 8978SOL    HW138567   4.594   2.239  15.196 -1.4540  1.0624  1.0052
 8978SOL    HW238568   4.719   2.316  15.219 -0.6100 -1.5355 -1.8829
 8979SOL     OW38569   0.289   1.555   8.790 -0.0438  0.3854  0.5297
 8979SOL    HW138570   0.366   1.519   8.833  1.5414  2.0058 -0.9260
 8979SOL    HW238571   0.290   1.649   8.810  2.7299 -0.0599  2.5076
 8980SOL     OW38572   2.178   2.535  10.085  0.3353  0.0063  0.3504
 8980SOL    HW138573   2.158   2.450  10.124 -1.6764  0.9574  1.3731
 8980SOL    HW238574   2.268   2.545  10.117  0.3720 -0.6525  0.4633
 8981SOL     OW38575   0.767   1.227  12.114 -0.3528  0.1352  0.1585
 8981SOL    HW138576   0.819   1.241  12.194  1.4761 -1.2388 -0.7956
 8981SOL    HW238577   0.786   1.316  12.084  1.6219 -0.0154  0.9324
 8982SOL     OW38578   3.636   1.285   3.008  0.7702  0.1385  0.3996
 8982SOL    HW138579   3.554   1.333   3.006  0.7734  0.1552  0.6760
 8982SOL    HW238580   3.640   1.283   2.913 -1.7391 -0.9495  0.3264
 8983SOL     OW38581   4.154   4.045   3.562 -0.2212 -0.4154  0.2807
 8983SOL    HW138582   4.247   4.066   3.552 -0.2546  0.7484  2.5374
 8983SOL    HW238583   4.163   3.981   3.632 -1.3271 -0.0158  0.7742
 8984SOL     OW38584   4.638   3.137  12.922 -0.7073  0.1013  0.4087
 8984SOL    HW138585   4.661   3.148  12.830 -2.4027 -1.3334 -0.1836
 8984SOL    HW238586   4.558   3.188  12.935 -0.9669  0.3845 -2.2482
 8985SOL     OW38587   2.036   1.879   9.232  0.0935  0.0685  0.1412
 8985SOL    HW138588   2.083   1.882   9.315 -1.1419  2.8792  0.7191
 8985SOL    HW238589   1.956   1.922   9.260  0.2633 -0.1454  0.9555
 8986SOL     OW38590   3.019   0.822   8.781 -0.0894 -0.4740  0.2354
 8986SOL    HW138591   3.111   0.850   8.786 -0.0855 -0.2800 -1.0981
 8986SOL    HW238592   2.974   0.892   8.734  0.9357 -1.3205 -1.9803
 8987SOL     OW38593   3.974   3.700   7.867 -0.2017  0.5767 -0.5469
 8987SOL    HW138594   3.928   3.757   7.929  2.2490  2.6950 -0.6505
 8987SOL    HW238595   3.903   3.661   7.815 -1.9901  0.1227  2.2739
 8988SOL     OW38596   3.860   2.977   0.295  0.1914  0.0940 -0.2463
 8988SOL    HW138597   3.842   3.060   0.250 -0.7760 -0.4135 -0.7958
 8988SOL    HW238598   3.928   2.934   0.242  0.0650 -0.6887  0.2449
 8989SOL     OW38599   4.530   1.923   8.528  0.3272  0.2669 -0.3623
 8989SOL    HW138600   4.561   1.955   8.443  0.8165 -2.1898 -1.1119
 8989SOL    HW238601   4.591   1.850   8.537  0.2687  0.3723  0.9111
 8990SOL     OW38602   1.078   3.976  17.159 -0.8955  0.5470 -0.1779
 8990SOL    HW138603   1.097   4.070  17.161  0.6697  0.2524 -1.1770
 8990SOL    HW238604   0.983   3.979  17.150 -0.9891 -0.2788  0.5875
 8991SOL     OW38605   1.635   0.836   6.073  0.4070 -0.0293 -0.1654
 8991SOL    HW138606   1.605   0.927   6.066 -0.3076 -0.3170 -0.8687
 8991SOL    HW238607   1.673   0.829   5.986 -0.0390 -0.3254 -0.3375
 8992SOL     OW38608   3.956   0.131   7.967 -0.3509  0.1756  0.5925
 8992SOL    HW138609   3.897   0.064   7.932 -0.5820  0.6416  0.1086
 8992SOL    HW238610   4.021   0.137   7.897 -0.1665  0.9723  0.8396
 8993SOL     OW38611   3.431   1.190  12.220  0.0987  0.0338 -0.1049
 8993SOL    HW138612   3.513   1.169  12.265  0.6281  1.6471 -0.2868
 8993SOL    HW238613   3.377   1.114  12.239  2.6632 -1.6853  0.1673
 8994SOL     OW38614   0.554   2.633  17.681  0.0677  0.7178  0.0492
 8994SOL    HW138615   0.526   2.709  17.731 -2.8824 -1.6970  2.0442
 8994SOL    HW238616   0.479   2.576  17.697  1.0374 -0.5470  0.1057
 8995SOL     OW38617   0.500   4.095   2.252  0.4869 -0.0240 -0.5031
 8995SOL    HW138618   0.521   4.179   2.211  4.0717 -0.3050  0.7579
 8995SOL    HW238619   0.577   4.080   2.307 -0.1346  0.0591  0.4059
 8996SOL     OW38620   1.400   4.258  14.742  0.3010  0.5288 -0.5271
 8996SOL    HW138621   1.415   4.180  14.689 -2.4500 -0.1160 -0.3773
 8996SOL    HW238622   1.330   4.232  14.802  1.1050 -0.2802  0.0461
 8997SOL     OW38623   4.491   4.620   9.122 -0.2451  0.0495  0.2290
 8997SOL    HW138624   4.580   4.625   9.158 -0.4086 -1.0752  0.7905
 8997SOL    HW238625   4.477   4.525   9.123  0.1918 -0.0121  0.4476
 8998SOL     OW38626   0.432   4.176   1.278 -0.0713 -0.0942  0.2930
 8998SOL    HW138627   0.519   4.184   1.237  0.1331 -0.5159  0.6439
 8998SOL    HW238628   0.416   4.269   1.291 -1.5692 -0.6268  2.1430
 8999SOL     OW38629   0.978   3.464   0.734  0.4763  0.2128 -0.6263
 8999SOL    HW138630   1.047   3.429   0.677  1.2694 -0.7134  0.9379
 8999SOL    HW238631   0.986   3.412   0.813 -0.0972  3.3923  1.5455
 9000SOL     OW38632   1.330   3.451  17.545  0.4158 -0.5929 -0.0677
 9000SOL    HW138633   1.238   3.427  17.540  0.0322  1.0299 -0.7755
 9000SOL    HW238634   1.331   3.533  17.595 -0.7627  0.1941 -1.3270
 9001SOL     OW38635   1.106   3.711   2.104  0.4175 -0.0856 -0.3160
 9001SOL    HW138636   1.037   3.648   2.125  0.7228  0.7724  3.2733
 9001SOL    HW238637   1.109   3.704   2.009 -0.4515 -1.0299 -0.2671
 9002SOL     OW38638   2.384   0.324   8.979  0.2076  0.0929 -0.1827
 9002SOL    HW138639   2.408   0.344   9.070  0.9536 -0.5527 -0.2341
 9002SOL    HW238640   2.375   0.409   8.937 -1.3636 -1.6605 -3.3996
 9003SOL     OW38641   4.508   3.746  10.372 -0.4057  0.2211 -0.4245
 9003SOL    HW138642   4.550   3.686  10.433  1.5315  1.5456 -0.4706
 9003SOL    HW238643   4.443   3.789  10.428  0.2438 -1.0765  1.3082
 9004SOL     OW38644   3.070   3.006   6.649  0.2514 -0.6380  0.2516
 9004SOL    HW138645   3.146   2.991   6.704  0.9088 -1.7252 -0.9768
 9004SOL    HW238646   3.057   2.918   6.615  1.6947 -1.3175  1.4342
 9005SOL     OW38647   3.045   3.640   9.310 -0.0579  0.1592 -0.0766
 9005SOL    HW138648   2.996   3.718   9.337 -0.9893 -0.2785 -0.5210
 9005SOL    HW238649   3.138   3.660   9.319  0.2847 -1.5684  0.1402
 9006SOL     OW38650   4.297   1.027   6.593  0.5175  0.2822  0.5503
 9006SOL    HW138651   4.385   1.003   6.624  1.4550  0.2550 -2.1136
 9006SOL    HW238652   4.319   1.049   6.502  0.6935  2.7707  1.1977
 9007SOL     OW38653   2.742   3.089  12.928  0.3669 -0.1868  0.0064
 9007SOL    HW138654   2.775   3.000  12.916  0.7524  0.1313 -1.2980
 9007SOL    HW238655   2.705   3.092  12.839  0.3587 -1.4181 -0.0316
 9008SOL     OW38656   3.149   4.561   6.981 -0.5562  0.1897 -0.3784
 9008SOL    HW138657   3.224   4.508   6.952 -0.2780  0.4491 -0.1417
 9008SOL    HW238658   3.192   4.613   7.049 -0.2737  0.7463 -0.9807
 9009SOL     OW38659   1.713   4.508   7.458  0.5364  0.2308 -0.3384
 9009SOL    HW138660   1.704   4.603   7.469 -0.4036  0.0583  0.3788
 9009SOL    HW238661   1.663   4.476   7.533  0.4388  1.3651  0.0851
 9010SOL     OW38662   0.117   0.816  13.992  0.8099  0.5358  0.3024
 9010SOL    HW138663   0.196   0.858  13.958 -0.3604  1.1849 -1.6270
 9010SOL    HW238664   0.081   0.895  14.034 -1.3211 -0.4191  0.2692
 9011SOL     OW38665   1.828   2.047   1.922  0.1815 -0.4571 -0.3772
 9011SOL    HW138666   1.843   1.953   1.916  2.1291 -0.1651 -0.0804
 9011SOL    HW238667   1.735   2.067   1.915  0.0455 -0.3163  1.9488
 9012SOL     OW38668   2.592   1.097   3.461 -0.0948 -0.0876 -0.3422
 9012SOL    HW138669   2.615   1.039   3.389 -1.4499 -0.3172 -0.5812
 9012SOL    HW238670   2.499   1.106   3.442 -0.6668 -2.0742  1.5952
 9013SOL     OW38671   4.295   2.233   5.766 -0.0714 -0.1473 -0.7689
 9013SOL    HW138672   4.206   2.221   5.798 -0.0986 -0.7304 -1.0512
 9013SOL    HW238673   4.325   2.311   5.813  0.6373 -0.5588 -0.5322
 9014SOL     OW38674   3.228   4.245  12.483 -0.0178 -0.1936  0.0646
 9014SOL    HW138675   3.206   4.229  12.575 -1.1302 -0.5384 -0.2648
 9014SOL    HW238676   3.146   4.277  12.447 -0.3794  0.3500  1.3754
 9015SOL     OW38677   4.263   2.051   4.299  0.5642  0.2158  0.5738
 9015SOL    HW138678   4.173   2.080   4.280  0.3912  0.6711  2.0874
 9015SOL    HW238679   4.249   1.980   4.361 -1.4484 -1.2709 -1.5895
 9016SOL     OW38680   0.194   2.701   8.865  0.0988  0.2488 -0.4280
 9016SOL    HW138681   0.181   2.771   8.929 -2.6340 -0.1185 -0.5904
 9016SOL    HW238682   0.185   2.748   8.782 -0.8928 -1.3879 -1.2337
 9017SOL     OW38683   2.723   3.515   7.654 -0.6526 -0.6926 -0.1405
 9017SOL    HW138684   2.706   3.592   7.709  0.8734 -0.4734  0.0208
 9017SOL    HW238685   2.641   3.516   7.605 -1.1195  1.6222  0.6414
 9018SOL     OW38686   4.623   4.599  14.090  0.4292  0.0275  0.1074
 9018SOL    HW138687   4.681   4.531  14.055 -0.7463 -0.0643 -1.6344
 9018SOL    HW238688   4.555   4.549  14.136 -0.6191 -1.9128 -3.5849
 9019SOL     OW38689   2.583   1.180   6.059 -0.4655 -0.0196 -0.3609
 9019SOL    HW138690   2.675   1.187   6.086 -0.6698 -2.3518  0.9770
 9019SOL    HW238691   2.562   1.111   6.123  0.0581  1.3539  1.2912
 9020SOL     OW38692   2.059   4.412  10.396  0.7732 -0.4532 -0.3700
 9020SOL    HW138693   2.131   4.368  10.350 -2.3027 -3.1359 -2.6421
 9020SOL    HW238694   1.978   4.373  10.362  0.8495 -1.1820  0.2861
 9021SOL     OW38695   4.530   0.203  17.589  0.1814 -0.2478 -0.4104
 9021SOL    HW138696   4.610   0.183  17.638 -0.1362  1.7654  0.9263
 9021SOL    HW238697   4.566   0.256  17.518 -1.0043  2.4026  0.9594
 9022SOL     OW38698   0.163   4.448   9.535 -0.2639  0.2497  0.0180
 9022SOL    HW138699   0.203   4.441   9.622  1.7131 -1.4209 -1.0125
 9022SOL    HW238700   0.077   4.483   9.558  0.2461  1.9290 -0.5790
 9023SOL     OW38701   1.556   2.195   6.490 -0.2567 -0.4872  0.3161
 9023SOL    HW138702   1.576   2.164   6.402 -3.0084 -0.3156 -0.3778
 9023SOL    HW238703   1.462   2.178   6.497 -0.5337 -0.0321 -2.3835
 9024SOL     OW38704   3.796   1.125  11.726  0.2041  0.5263  0.3939
 9024SOL    HW138705   3.793   1.130  11.822  0.9455 -0.4515  0.4698
 9024SOL    HW238706   3.852   1.199  11.705  2.1187 -0.6650  1.2440
 9025SOL     OW38707   4.387   3.426   8.042  0.0246  0.3164 -0.1748
 9025SOL    HW138708   4.346   3.344   8.070  1.8745 -1.4689 -2.7219
 9025SOL    HW238709   4.469   3.389   8.010 -0.0947 -2.3996  2.6535
 9026SOL     OW38710   0.756   2.483   0.454  0.5858  0.5341  0.4395
 9026SOL    HW138711   0.793   2.442   0.376  0.0657 -0.3319  0.6491
 9026SOL    HW238712   0.808   2.564   0.454  1.5383 -0.0872  1.9254
 9027SOL     OW38713   0.462   0.071  12.644  0.0843 -0.3636  0.1085
 9027SOL    HW138714   0.448   0.103  12.555  0.4404 -0.6175 -0.0404
 9027SOL    HW238715   0.430   4.718  12.629 -1.0099  0.3583 -1.7576
 9028SOL     OW38716   4.550   1.562   8.871 -0.4771 -0.0914 -0.0316
 9028SOL    HW138717   4.626   1.620   8.863  0.6088 -1.6166 -0.8165
 9028SOL    HW238718   4.560   1.514   8.788  0.9223  0.3720 -0.1276
 9029SOL     OW38719   0.746   2.046   6.799  0.3565  0.8336 -0.2635
 9029SOL    HW138720   0.698   1.989   6.859 -0.7862  0.0382 -1.9236
 9029SOL    HW238721   0.736   2.000   6.715  0.6380 -0.3939  0.3638
 9030SOL     OW38722   3.599   0.092   7.717 -0.2972  0.2622  0.3825
 9030SOL    HW138723   3.644   0.168   7.754  1.7823 -1.0950  0.6246
 9030SOL    HW238724   3.514   0.135   7.703 -0.5516  0.0487  1.2643
 9031SOL     OW38725   3.268   2.300  15.709 -0.5448 -0.8670  0.3055
 9031SOL    HW138726   3.276   2.395  15.706  2.3028 -1.1034 -0.0351
 9031SOL    HW238727   3.183   2.282  15.749 -0.6181 -1.2159 -0.0071
 9032SOL     OW38728   0.514   2.728   5.744  0.3146  0.1072  0.0529
 9032SOL    HW138729   0.495   2.741   5.837 -0.5084  1.0920 -0.2626
 9032SOL    HW238730   0.494   2.815   5.709  1.4944 -0.5090 -2.1336
 9033SOL     OW38731   0.727   3.869  12.873  0.3940 -0.1326  0.3712
 9033SOL    HW138732   0.719   3.961  12.898  0.5343  0.2341 -0.9394
 9033SOL    HW238733   0.639   3.850  12.843 -0.2023  0.8347  1.4934
 9034SOL     OW38734   0.610   2.007   0.732 -0.1695 -0.0721  0.2065
 9034SOL    HW138735   0.575   1.918   0.740  0.2737 -0.1453  1.2933
 9034SOL    HW238736   0.536   2.063   0.752 -0.7263 -0.6875 -0.1249
 9035SOL     OW38737   0.195   2.537   1.150  0.5725 -0.3548 -0.2805
 9035SOL    HW138738   0.210   2.490   1.232 -2.1606 -0.6825  0.0206
 9035SOL    HW238739   0.287   2.541   1.125  1.3381 -2.1576  2.2631
 9036SOL     OW38740   4.098   0.104   5.201  0.3648  0.4055  0.5843
 9036SOL    HW138741   4.189   0.133   5.206  0.4426  0.4666 -1.1881
 9036SOL    HW238742   4.088   0.032   5.264 -1.9927  0.0503 -0.2172
 9037SOL     OW38743   0.629   0.201   8.224 -0.1910 -0.6612  0.4268
 9037SOL    HW138744   0.538   0.174   8.222 -0.0111 -1.2626  0.3813
 9037SOL    HW238745   0.619   0.296   8.215 -0.6965 -0.6998  0.6099
 9038SOL     OW38746   3.239   3.601  11.582  0.3372  0.2140 -0.0603
 9038SOL    HW138747   3.208   3.634  11.498  0.0604  0.5879  0.1843
 9038SOL    HW238748   3.265   3.688  11.614 -0.1700 -0.2613  1.6292
 9039SOL     OW38749   0.281   0.177   4.941 -0.2182 -0.2304 -0.5088
 9039SOL    HW138750   0.210   0.114   4.926 -1.7162  1.2689  0.3233
 9039SOL    HW238751   0.240   0.262   4.922  0.1939 -0.1420 -1.0091
 9040SOL     OW38752   3.107   3.401  12.035  0.6236  0.3646  0.7414
 9040SOL    HW138753   3.193   3.436  12.060  0.4983  0.8450  0.5003
 9040SOL    HW238754   3.096   3.442  11.949  0.6894 -2.1004 -0.4328
 9041SOL     OW38755   3.812   1.973   7.721 -0.2691 -0.4619 -0.2585
 9041SOL    HW138756   3.772   1.983   7.808 -0.6507 -0.7405 -0.4014
 9041SOL    HW238757   3.858   2.055   7.701 -1.2037  0.4798  1.4147
 9042SOL     OW38758   3.622   3.815   5.387 -0.1451 -0.1910  0.4423
 9042SOL    HW138759   3.698   3.798   5.443 -0.4095  0.3821  0.9839
 9042SOL    HW238760   3.552   3.831   5.451 -0.5152  0.9685 -0.2540
 9043SOL     OW38761   1.646   4.651  13.059 -0.7126 -0.1567  0.3664
 9043SOL    HW138762   1.584   4.685  13.124 -0.5253 -0.0584  0.4939
 9043SOL    HW238763   1.729   4.664  13.105 -0.3106 -0.9230 -0.1466
 9044SOL     OW38764   4.162   1.788  13.430  0.0201 -0.1948 -0.1643
 9044SOL    HW138765   4.233   1.730  13.401  1.4573  1.0595  0.8040
 9044SOL    HW238766   4.184   1.803  13.522 -0.9954 -1.0187  0.2110
 9045SOL     OW38767   2.728   3.660   1.604 -0.5407 -0.5838  0.2656
 9045SOL    HW138768   2.677   3.653   1.523 -0.0079  0.0201 -0.1165
 9045SOL    HW238769   2.666   3.710   1.657 -0.8510  0.8203 -1.4422
 9046SOL     OW38770   3.991   0.851   4.234 -0.4960  0.2604  0.2789
 9046SOL    HW138771   4.044   0.786   4.189 -0.3839 -0.5135  1.5394
 9046SOL    HW238772   3.987   0.830   4.328  0.7620 -0.9996  0.0512
 9047SOL     OW38773   1.890   0.996   4.880  0.3371 -0.5417 -0.5354
 9047SOL    HW138774   1.832   0.924   4.853 -1.5318  0.9250 -0.4385
 9047SOL    HW238775   1.834   1.025   4.952  2.3278  0.7564  0.4848
 9048SOL     OW38776   1.505   1.126   4.844 -0.7532  0.1873  0.5336
 9048SOL    HW138777   1.504   1.221   4.850 -0.0288  0.3721 -2.0538
 9048SOL    HW238778   1.569   1.103   4.912 -1.9818 -0.4627  1.4573
 9049SOL     OW38779   3.101   2.116  14.816 -0.0470 -0.2811 -0.0303
 9049SOL    HW138780   3.123   2.171  14.891  0.4209 -0.5228  0.0063
 9049SOL    HW238781   3.010   2.139  14.799 -0.1092 -0.9767 -0.6723
 9050SOL     OW38782   0.208   3.956   4.648  0.5679  0.5806  0.6704
 9050SOL    HW138783   0.176   3.869   4.671  1.0809 -0.1479 -1.3349
 9050SOL    HW238784   0.185   4.005   4.727 -3.1266 -3.4684  2.1163
 9051SOL     OW38785   2.456   1.246   8.305  0.0261  0.2240  0.1185
 9051SOL    HW138786   2.424   1.309   8.370 -1.9401 -0.7940  0.1185
 9051SOL    HW238787   2.525   1.196   8.348 -0.3374  0.7446  1.2934
 9052SOL     OW38788   2.115   2.736   9.934 -0.1057  0.4772 -0.1311
 9052SOL    HW138789   2.148   2.662   9.985  0.8358  0.9798 -0.0140
 9052SOL    HW238790   2.169   2.720   9.857  1.1252  1.5854  0.5005
 9053SOL     OW38791   0.638   2.898   0.850 -0.0962 -0.3179  0.8483
 9053SOL    HW138792   0.732   2.916   0.840 -0.1855 -1.0239 -1.3054
 9053SOL    HW238793   0.602   2.972   0.801 -0.6789  0.0199  1.7875
 9054SOL     OW38794   4.440   0.493   6.820  0.6100 -0.8186  0.2963
 9054SOL    HW138795   4.359   0.487   6.770  1.5840  1.2800 -1.5244
 9054SOL    HW238796   4.419   0.515   6.911  1.3533  0.0652  0.2412
 9055SOL     OW38797   4.628   0.799   0.446 -0.1213  0.4014 -0.2433
 9055SOL    HW138798   4.707   0.820   0.497 -2.3408  0.7721  3.0414
 9055SOL    HW238799   4.647   0.707   0.428  1.8036  0.6927  0.2444
 9056SOL     OW38800   3.202   2.692   7.827  0.2226 -0.4845 -0.3974
 9056SOL    HW138801   3.230   2.633   7.757 -1.5838 -1.0186 -0.6662
 9056SOL    HW238802   3.216   2.777   7.785 -1.8353  0.6676  1.1971
 9057SOL     OW38803   3.117   1.842   2.721 -0.0182 -0.3984  0.3806
 9057SOL    HW138804   3.205   1.875   2.703  0.3957 -1.6560  0.1482
 9057SOL    HW238805   3.114   1.835   2.817 -2.1476  1.6465  0.4917
 9058SOL     OW38806   2.575   0.673  12.708  0.4708  0.3251 -0.0919
 9058SOL    HW138807   2.483   0.699  12.701  0.6432  0.7000 -0.9456
 9058SOL    HW238808   2.618   0.733  12.648  2.5927 -2.5157 -1.4451
 9059SOL     OW38809   3.574   1.852  10.803  0.8662 -0.0365  0.3787
 9059SOL    HW138810   3.662   1.829  10.774  0.7479 -1.1621  0.9189
 9059SOL    HW238811   3.581   1.946  10.787 -1.2417  0.5125  2.7045
 9060SOL     OW38812   1.161   3.382   6.244  0.1715  0.2758  0.1936
 9060SOL    HW138813   1.251   3.380   6.277 -0.6705  0.2284  2.4294
 9060SOL    HW238814   1.152   3.477   6.251  1.1918  0.3850  0.0901
 9061SOL     OW38815   3.317   1.200   5.175  0.0666  0.6349  0.0653
 9061SOL    HW138816   3.403   1.165   5.199 -0.2406 -1.4929 -1.8841
 9061SOL    HW238817   3.267   1.119   5.161  0.9053  0.2223 -0.5160
 9062SOL     OW38818   1.232   2.884   7.024 -0.5218 -0.0002  0.0213
 9062SOL    HW138819   1.182   2.961   6.998  0.4244 -0.1274 -2.1352
 9062SOL    HW238820   1.173   2.820   6.985 -1.8771  0.2135  1.7037
 9063SOL     OW38821   0.527   4.251   5.098 -0.7098 -0.5363 -0.4770
 9063SOL    HW138822   0.543   4.346   5.101 -2.8172 -0.1628 -0.7908
 9063SOL    HW238823   0.586   4.225   5.169  1.0574 -1.6010 -2.3542
 9064SOL     OW38824   4.075   0.805   4.753  0.1256  0.1437  0.1074
 9064SOL    HW138825   4.134   0.864   4.707 -0.6670  0.4416 -0.5258
 9064SOL    HW238826   4.133   0.763   4.816  2.1555 -0.1732 -2.0251
 9065SOL     OW38827   4.562   2.491   0.727  0.1710 -0.8969 -0.8423
 9065SOL    HW138828   4.548   2.585   0.724  2.0308 -0.4898  4.1617
 9065SOL    HW238829   4.494   2.460   0.667  1.4569 -1.8385 -1.8272
 9066SOL     OW38830   3.105   0.222   6.885 -0.0105  0.3297 -0.5155
 9066SOL    HW138831   3.091   0.267   6.968 -2.0486  0.9203 -1.1830
 9066SOL    HW238832   3.050   0.143   6.883  0.9500 -0.4204  3.1355
 9067SOL     OW38833   4.054   2.594   6.732  0.2493 -0.4605 -0.1059
 9067SOL    HW138834   3.975   2.543   6.750 -0.5638 -0.0350 -2.4254
 9067SOL    HW238835   4.052   2.588   6.636  0.4050  3.9312 -0.4235
 9068SOL     OW38836   4.590   2.584  11.871  0.8690  0.8007 -0.1808
 9068SOL    HW138837   4.523   2.616  11.811 -1.1945 -1.3769  0.9578
 9068SOL    HW238838   4.652   2.549  11.807  1.1761  0.3074  0.3859
 9069SOL     OW38839   0.788   1.306  15.666 -0.9682  0.2848  0.4444
 9069SOL    HW138840   0.786   1.216  15.633  1.3366  0.6929 -0.8304
 9069SOL    HW238841   0.827   1.355  15.593 -0.2427  0.5074  0.9943
 9070SOL     OW38842   0.144   0.867   0.564 -0.1781  0.2834  0.1946
 9070SOL    HW138843   0.126   0.957   0.593 -0.5733 -0.6292  2.7319
 9070SOL    HW238844   0.239   0.878   0.565 -0.1030 -0.3993  0.2612
 9071SOL     OW38845   3.703   2.855  13.674 -0.7244  0.3726  0.2316
 9071SOL    HW138846   3.779   2.797  13.680 -1.2572 -0.3328  0.1135
 9071SOL    HW238847   3.737   2.931  13.627  1.6054 -2.6699 -2.9773
 9072SOL     OW38848   3.621   4.611   3.317 -0.1450  0.5536 -0.2904
 9072SOL    HW138849   3.554   4.562   3.268 -0.5452 -0.1336  0.9486
 9072SOL    HW238850   3.563   4.647   3.384  1.4941  0.5652  1.1100
 9073SOL     OW38851   0.958   4.032   7.699  0.4848  0.8556  0.9006
 9073SOL    HW138852   1.033   4.075   7.739  1.8875  0.5792 -1.4718
 9073SOL    HW238853   0.893   4.093   7.736 -0.1804  0.3145  0.6335
 9074SOL     OW38854   1.028   3.990  16.205  0.5635 -0.3667 -0.7713
 9074SOL    HW138855   0.959   4.029  16.259 -0.2132 -0.9493 -1.3655
 9074SOL    HW238856   1.014   4.040  16.125  0.4555 -0.9095 -1.0897
 9075SOL     OW38857   3.103   2.371   4.604 -0.2242  0.8203 -0.3354
 9075SOL    HW138858   3.142   2.457   4.622  0.4983  0.5470 -0.5916
 9075SOL    HW238859   3.055   2.350   4.683 -0.4661 -0.3438 -0.7817
 9076SOL     OW38860   0.105   4.518  17.448 -0.1574 -0.2921 -0.0036
 9076SOL    HW138861   0.094   4.501  17.354 -1.7750  1.3083 -0.1113
 9076SOL    HW238862   0.052   4.445  17.480  2.6012 -1.7971  1.1110
 9077SOL     OW38863   3.536   0.506   5.215 -0.1098 -0.2314  0.1815
 9077SOL    HW138864   3.564   0.594   5.189  0.6728 -0.2267  1.0351
 9077SOL    HW238865   3.443   0.522   5.232 -0.7404 -3.1449 -0.4249
 9078SOL     OW38866   4.378   1.651  11.716  0.9132 -0.3903  0.0199
 9078SOL    HW138867   4.386   1.746  11.722 -1.5803 -0.1034 -1.4060
 9078SOL    HW238868   4.455   1.626  11.768  2.0984  1.5244 -0.8243
 9079SOL     OW38869   3.941   0.423   6.746 -0.0132 -0.2968 -0.1845
 9079SOL    HW138870   3.988   0.342   6.724  2.0098  0.9841 -0.6101
 9079SOL    HW238871   3.856   0.401   6.708 -0.0648  1.1797 -0.9060
 9080SOL     OW38872   3.354   0.334  10.907 -0.5416  0.3686 -0.0799
 9080SOL    HW138873   3.433   0.357  10.956 -0.7962  0.3333  0.3487
 9080SOL    HW238874   3.304   0.411  10.935 -2.2495 -0.8728  0.2746
 9081SOL     OW38875   2.956   0.560   4.426  0.4111  0.0033  0.6077
 9081SOL    HW138876   2.950   0.475   4.383  0.0918 -0.0790  0.8185
 9081SOL    HW238877   3.044   0.585   4.398  0.0866  0.1583 -0.2697
 9082SOL     OW38878   3.346   3.749   1.974 -0.0950 -0.0860 -0.6685
 9082SOL    HW138879   3.322   3.841   1.963 -0.6294 -0.2148 -0.5901
 9082SOL    HW238880   3.363   3.760   2.068  1.9657  0.0595 -1.0606
 9083SOL     OW38881   2.660   4.569   6.925  0.0743 -0.3233  0.0568
 9083SOL    HW138882   2.613   4.642   6.966  1.5275  1.4809 -1.4691
 9083SOL    HW238883   2.720   4.543   6.995 -0.8024 -0.4591  0.7555
 9084SOL     OW38884   2.924   4.714   2.567  0.0010 -0.0979 -0.1271
 9084SOL    HW138885   2.875   0.059   2.575  0.0361 -0.1734  0.9241
 9084SOL    HW238886   2.845   4.663   2.551 -1.2126  2.7181 -2.9366
 9085SOL     OW38887   3.024   4.530   5.383  0.6003  0.5141 -0.3204
 9085SOL    HW138888   2.941   4.494   5.351  0.3750  0.6163  0.1586
 9085SOL    HW238889   2.986   4.582   5.454 -1.7560  0.0178 -1.2232
 9086SOL     OW38890   4.078   2.450   6.152  0.7857  0.6265  0.1062
 9086SOL    HW138891   4.077   2.452   6.056  3.1627 -1.9915  0.0112
 9086SOL    HW238892   4.124   2.367   6.165  2.0512  1.0558 -1.4885
 9087SOL     OW38893   3.748   3.583   8.218 -0.1909  0.0646 -0.2340
 9087SOL    HW138894   3.774   3.501   8.178  2.1839  1.0378 -0.7015
 9087SOL    HW238895   3.835   3.621   8.231  0.7570 -1.6612 -1.6943
 9088SOL     OW38896   0.161   2.738   0.166 -0.1411 -0.2665  0.0470
 9088SOL    HW138897   0.191   2.703   0.082 -1.8883 -1.8624  0.0841
 9088SOL    HW238898   0.199   2.825   0.157  0.5489 -0.2986  2.7718
 9089SOL     OW38899   4.567   2.198   2.088  0.4793  0.0742 -0.1020
 9089SOL    HW138900   4.498   2.134   2.107  0.5911  0.1895  0.7021
 9089SOL    HW238901   4.579   2.178   1.996 -1.9664 -1.5088 -0.0745
 9090SOL     OW38902   2.729   0.257   8.315  0.1711 -0.3429 -0.2143
 9090SOL    HW138903   2.764   0.344   8.334 -1.0349  0.0483  0.1835
 9090SOL    HW238904   2.662   0.256   8.383 -0.1402 -0.7405 -0.5302
 9091SOL     OW38905   3.191   2.367   9.145 -0.5472  0.0609 -0.0128
 9091SOL    HW138906   3.271   2.342   9.191  0.7689  1.1514 -1.7496
 9091SOL    HW238907   3.197   2.336   9.055 -0.4221  1.1819 -0.3939
 9092SOL     OW38908   2.640   2.853   8.228 -0.1160  0.0081  0.7748
 9092SOL    HW138909   2.656   2.799   8.305 -1.2463 -0.3065  0.7881
 9092SOL    HW238910   2.644   2.941   8.268 -2.2811 -0.4680  2.0843
 9093SOL     OW38911   2.647   2.007  16.747  0.4471  0.0241 -0.3904
 9093SOL    HW138912   2.585   1.948  16.704  2.6006 -2.4672 -0.0229
 9093SOL    HW238913   2.674   2.057  16.670  0.4535  2.8191  1.4291
 9094SOL     OW38914   2.614   0.982   4.247 -0.3371  0.0010 -0.9607
 9094SOL    HW138915   2.529   0.952   4.216 -0.2420  1.7888 -2.9439
 9094SOL    HW238916   2.636   0.903   4.297 -0.9285  0.5370  0.1520
 9095SOL     OW38917   0.447   3.631   8.103 -0.2382  0.2377  0.1446
 9095SOL    HW138918   0.450   3.701   8.168  0.4325 -1.3978  1.8787
 9095SOL    HW238919   0.513   3.666   8.043  0.1304 -1.4077 -0.4073
 9096SOL     OW38920   2.152   3.574   7.996 -0.2864 -0.2747 -0.0949
 9096SOL    HW138921   2.246   3.563   8.005 -0.3376 -0.4439  0.2177
 9096SOL    HW238922   2.152   3.669   8.009  1.6497 -0.5276  1.7027
 9097SOL     OW38923   2.205   4.722   3.132  0.1971 -0.3579  0.2056
 9097SOL    HW138924   2.235   4.723   3.223  0.1995 -2.0477  0.2283
 9097SOL    HW238925   2.211   0.079   3.111 -0.7876 -0.2222  0.5002
 9098SOL     OW38926   0.177   0.647  15.780  0.1545 -0.0615 -0.2052
 9098SOL    HW138927   0.167   0.597  15.699  0.9229  0.3649 -0.5659
 9098SOL    HW238928   0.223   0.586  15.838 -2.3346 -0.2474  1.5686
 9099SOL     OW38929   4.546   0.914  10.989  0.7544 -0.2199  0.4888
 9099SOL    HW138930   4.607   0.981  11.020 -0.4047  1.1874 -0.2665
 9099SOL    HW238931   4.588   0.837  11.029  1.1776 -0.3642 -0.2135
 9100SOL     OW38932   1.928   0.114   6.002 -0.4006 -0.1523 -0.5570
 9100SOL    HW138933   1.992   0.051   5.970  0.1121 -0.1269  0.4032
 9100SOL    HW238934   1.952   0.100   6.094  0.9359  2.4876 -0.4724
 9101SOL     OW38935   0.269   2.557  17.331  0.1192  0.6238  0.2350
 9101SOL    HW138936   0.312   2.638  17.360  2.9164 -1.7156  2.5495
 9101SOL    HW238937   0.346   2.501  17.330 -0.5972 -0.3949  2.1692
 9102SOL     OW38938   0.168   2.628  16.288  0.8986 -0.6923 -0.1068
 9102SOL    HW138939   0.136   2.575  16.361  1.6476 -0.9119  0.0666
 9102SOL    HW238940   0.257   2.637  16.322  1.0403  1.3543 -1.0128
 9103SOL     OW38941   0.812   0.703  12.529  0.3200 -0.1922 -0.2297
 9103SOL    HW138942   0.795   0.783  12.578 -2.7451 -1.0655  0.0821
 9103SOL    HW238943   0.867   0.729  12.454 -0.4546  4.3043  0.7672
 9104SOL     OW38944   3.409   0.498  12.126  0.1616  0.3219  0.1008
 9104SOL    HW138945   3.400   0.404  12.144  2.4652  0.5792  2.4789
 9104SOL    HW238946   3.333   0.512  12.069  0.0057 -0.6180  0.0686
 9105SOL     OW38947   2.059   3.856  11.174 -0.2854  0.2174 -0.0932
 9105SOL    HW138948   2.083   3.848  11.266 -1.5672  1.0466  0.2950
 9105SOL    HW238949   2.101   3.773  11.148 -0.1358  1.0106 -2.4317
 9106SOL     OW38950   3.444   4.646  12.474  0.6376 -0.4208 -0.0164
 9106SOL    HW138951   3.453   4.566  12.422  3.7293 -0.3447  0.4247
 9106SOL    HW238952   3.478   4.714  12.416  0.1353  0.9788  1.3148
 9107SOL     OW38953   1.358   1.989   6.044  0.0274 -0.4877 -0.0526
 9107SOL    HW138954   1.303   2.063   6.070  0.7871 -0.7313  2.2888
 9107SOL    HW238955   1.345   1.990   5.949 -0.5470 -2.5475 -0.0042
 9108SOL     OW38956   0.979   2.770  13.717 -0.4341 -0.2155 -0.1773
 9108SOL    HW138957   0.897   2.810  13.747 -0.3281 -1.3151  1.5423
 9108SOL    HW238958   1.020   2.740  13.797  2.4372 -0.3097 -1.6698
 9109SOL     OW38959   0.400   3.175   8.227  0.2341 -0.1855  0.3816
 9109SOL    HW138960   0.463   3.232   8.273  0.3096 -0.3279  0.4563
 9109SOL    HW238961   0.382   3.233   8.154  1.5400  1.7673  1.6142
 9110SOL     OW38962   4.430   2.994   3.028  0.2590 -0.1875  0.1339
 9110SOL    HW138963   4.353   3.043   2.998 -1.3502 -2.9301 -0.2465
 9110SOL    HW238964   4.481   2.996   2.947 -0.2181  0.5080 -0.1565
 9111SOL     OW38965   0.031   1.975   3.877 -0.4005 -0.8601 -0.1966
 9111SOL    HW138966   4.722   2.035   3.936 -1.8449  0.5608 -2.7071
 9111SOL    HW238967   0.014   1.884   3.899  0.6310 -1.5034 -2.0593
 9112SOL     OW38968   2.623   0.109   6.283  0.2700  0.5483 -0.5672
 9112SOL    HW138969   2.613   0.015   6.289  2.6444  0.3231 -0.1784
 9112SOL    HW238970   2.673   0.117   6.364 -1.3364  0.1784  0.4574
 9113SOL     OW38971   0.271   3.621  17.248 -0.7606 -0.3715 -0.3577
 9113SOL    HW138972   0.190   3.614  17.199 -0.1413  0.4026 -1.4731
 9113SOL    HW238973   0.294   3.528  17.252 -0.3470 -0.2040  1.2629
 9114SOL     OW38974   1.932   2.353   5.629  0.1428  0.5301  0.4410
 9114SOL    HW138975   1.945   2.307   5.546  0.0540 -0.8109  1.1553
 9114SOL    HW238976   1.967   2.439   5.607  0.3427  0.4364  0.3866
 9115SOL     OW38977   3.124   3.215   4.896 -0.2962  0.4024  0.5133
 9115SOL    HW138978   3.149   3.288   4.839 -3.3610  1.7717  0.8986
 9115SOL    HW238979   3.057   3.172   4.844 -0.3785  0.2606  0.7393
 9116SOL     OW38980   1.566   3.809  16.242 -0.0391 -0.0091  0.1334
 9116SOL    HW138981   1.631   3.819  16.172 -0.0627  1.8251  0.3733
 9116SOL    HW238982   1.494   3.859  16.205 -1.5059  0.2049  3.3229
 9117SOL     OW38983   0.490   1.040   1.352 -0.2693 -0.3628  0.3464
 9117SOL    HW138984   0.432   1.067   1.423  1.8438  0.6929  1.6759
 9117SOL    HW238985   0.531   1.122   1.325 -1.3909  0.1180  0.1249
 9118SOL     OW38986   0.520   4.218   6.818  0.1920 -0.5308 -0.1562
 9118SOL    HW138987   0.467   4.268   6.756 -0.1344 -1.8761 -0.9705
 9118SOL    HW238988   0.475   4.133   6.815  0.0653 -0.5179  1.1939
 9119SOL     OW38989   4.013   4.734   6.750  0.3331 -0.0950 -0.1949
 9119SOL    HW138990   4.006   4.656   6.695 -0.0526 -0.5612  0.5147
 9119SOL    HW238991   4.040   0.063   6.685  0.1561 -0.8971 -1.0684
 9120SOL     OW38992   0.336   1.528   2.667  0.1342 -0.1769 -0.2051
 9120SOL    HW138993   0.406   1.560   2.610  1.3980 -1.0260  0.8809
 9120SOL    HW238994   0.347   1.588   2.741 -0.2494 -1.8483  1.2086
 9121SOL     OW38995   1.961   4.223   5.443 -0.3438  0.2090  0.2403
 9121SOL    HW138996   1.922   4.172   5.514  1.0449 -1.1796  0.0278
 9121SOL    HW238997   1.916   4.178   5.371 -1.5406 -1.5901  2.1175
 9122SOL     OW38998   2.687   3.342   2.636  0.2950 -0.1963  0.1063
 9122SOL    HW138999   2.769   3.377   2.603  0.6274  1.0367  2.2830
 9122SOL    HW239000   2.701   3.368   2.727 -1.6673  0.5529  0.2007
 9123SOL     OW39001   3.678   2.151  17.503  0.1871 -0.4900  0.0422
 9123SOL    HW139002   3.628   2.159  17.422 -0.0537 -0.7261  0.1674
 9123SOL    HW239003   3.739   2.225  17.496 -0.1892 -0.1996 -0.1912
 9124SOL     OW39004   1.779   0.712   4.171  0.2700 -0.5196  0.1894
 9124SOL    HW139005   1.724   0.709   4.249  1.7900  3.4207  1.3994
 9124SOL    HW239006   1.740   0.644   4.116  0.8607  0.1273 -1.0263
 9125SOL     OW39007   2.147   4.409   8.585 -0.4972  0.8647 -0.2185
 9125SOL    HW139008   2.194   4.477   8.634 -2.5435  0.7713  1.8561
 9125SOL    HW239009   2.152   4.336   8.646 -1.4355  0.7115 -0.3355
 9126SOL     OW39010   0.012   3.640   5.599  0.2273 -0.8141  0.4026
 9126SOL    HW139011   4.714   3.640   5.689 -1.2536 -0.6433 -0.1524
 9126SOL    HW239012   4.725   3.729   5.572 -0.3458 -1.4575 -1.2221
 9127SOL     OW39013   0.692   0.156  17.553  0.7888  0.1364 -0.5483
 9127SOL    HW139014   0.621   0.219  17.562 -0.8144 -1.6990 -0.3405
 9127SOL    HW239015   0.650   0.084  17.600 -0.3859  1.5359  0.5208
 9128SOL     OW39016   1.560   1.428  13.539 -0.2317 -0.0323 -0.1743
 9128SOL    HW139017   1.649   1.422  13.505  0.4977  1.1145  1.5712
 9128SOL    HW239018   1.521   1.494  13.482  0.1632  1.7829  1.6643
 9129SOL     OW39019   2.800   2.485  16.509  0.1310 -0.0734 -0.1733
 9129SOL    HW139020   2.785   2.515  16.599 -1.3564 -0.6875 -0.2183
 9129SOL    HW239021   2.822   2.571  16.474  2.5150 -0.3257  0.6441
 9130SOL     OW39022   2.359   2.222   6.400 -0.4298  0.0361  0.2057
 9130SOL    HW139023   2.361   2.141   6.452 -0.6831 -1.4462 -2.0755
 9130SOL    HW239024   2.301   2.275   6.453 -1.1795  0.2746 -0.8649
 9131SOL     OW39025   4.671   3.537   1.998 -0.3252  0.5571  0.0726
 9131SOL    HW139026   0.027   3.564   2.000 -0.2744  0.6633 -2.9342
 9131SOL    HW239027   4.639   3.603   2.060 -0.6638 -1.4222  1.9720
 9132SOL     OW39028   4.480   3.136   7.291 -0.4304  0.3231 -0.1219
 9132SOL    HW139029   4.563   3.166   7.327 -1.4940  0.9905  1.7729
 9132SOL    HW239030   4.457   3.067   7.353 -1.0619  1.1321  0.5462
 9133SOL     OW39031   2.616   0.440   4.152  0.0480 -0.4141 -0.0681
 9133SOL    HW139032   2.604   0.406   4.241  0.6925  2.2605  1.0595
 9133SOL    HW239033   2.677   0.381   4.108  2.5856  2.8269 -0.9108
 9134SOL     OW39034   1.519   0.214   2.551  0.0867 -0.1644 -0.5472
 9134SOL    HW139035   1.606   0.192   2.584 -1.0955 -0.1691  2.5586
 9134SOL    HW239036   1.531   0.239   2.459 -1.4901  1.8445 -0.2288
 9135SOL     OW39037   0.758   3.444  12.474  0.2900 -0.0532 -0.2129
 9135SOL    HW139038   0.679   3.449  12.528 -1.2104 -2.0470 -2.2435
 9135SOL    HW239039   0.796   3.358  12.491  0.5585  0.2986  0.9781
 9136SOL     OW39040   3.239   3.484   7.354 -0.0318  0.1637 -0.6278
 9136SOL    HW139041   3.266   3.539   7.280  0.4826  0.3571 -0.3035
 9136SOL    HW239042   3.261   3.397   7.321  2.0015  0.2056  0.5666
 9137SOL     OW39043   3.133   3.849  11.022 -1.2778 -0.7842  0.3471
 9137SOL    HW139044   3.165   3.807  10.942 -0.2719  0.0273  0.3093
 9137SOL    HW239045   3.218   3.864  11.066 -1.4441 -0.6694  0.6322
 9138SOL     OW39046   2.770   3.707   6.788  0.3356  0.2084  0.6058
 9138SOL    HW139047   2.843   3.654   6.821  0.9353 -0.4621 -1.7995
 9138SOL    HW239048   2.694   3.663   6.826 -0.4067  2.2264  1.4286
 9139SOL     OW39049   0.159   0.498   9.419  0.3256  0.1060  0.5927
 9139SOL    HW139050   0.082   0.449   9.389  0.5728 -0.2585  0.5606
 9139SOL    HW239051   0.158   0.448   9.500 -2.8223 -1.4094 -0.3880
 9140SOL     OW39052   3.655   1.511   6.028  0.3651 -0.0397 -0.0713
 9140SOL    HW139053   3.597   1.537   6.100  1.3629 -0.4587  0.8916
 9140SOL    HW239054   3.723   1.453   6.064 -0.7176 -1.6101 -0.5908
 9141SOL     OW39055   2.912   4.042   2.637  0.6932  0.1271  0.0314
 9141SOL    HW139056   2.928   3.953   2.604 -1.0498  0.1412 -0.8674
 9141SOL    HW239057   2.869   4.023   2.720 -0.0292 -0.8605 -0.5532
 9142SOL     OW39058   2.111   3.572   7.733 -0.2849  0.5237  1.0481
 9142SOL    HW139059   2.103   3.481   7.702  1.1356  0.3079  1.3227
 9142SOL    HW239060   2.079   3.551   7.821 -1.6101  0.2010  0.4947
 9143SOL     OW39061   1.945   0.290   6.811 -0.1543 -0.0039  0.1871
 9143SOL    HW139062   1.862   0.322   6.776  0.1467  2.8187  2.0387
 9143SOL    HW239063   1.918   0.240   6.887  1.3734 -0.3895  0.4787
 9144SOL     OW39064   0.872   0.806  10.101  0.0531 -0.6827 -0.6938
 9144SOL    HW139065   0.867   0.849  10.186 -0.8280 -1.2619 -0.4561
 9144SOL    HW239066   0.901   0.719  10.128 -2.3291 -1.7427 -1.5616
 9145SOL     OW39067   2.018   2.343   6.104  0.0520  0.4602 -0.3274
 9145SOL    HW139068   2.103   2.305   6.124  0.5171  0.6665 -1.9365
 9145SOL    HW239069   2.008   2.316   6.012 -1.5335  1.5690 -0.4891
 9146SOL     OW39070   2.447   3.193  11.216 -0.3046 -0.2526 -0.5080
 9146SOL    HW139071   2.541   3.188  11.232 -0.2656 -2.2156 -1.3773
 9146SOL    HW239072   2.424   3.121  11.274  0.9135  0.7907  1.2663
 9147SOL     OW39073   1.349   0.479   3.608 -0.5341  0.7836 -0.3716
 9147SOL    HW139074   1.261   0.456   3.637  0.8373 -3.4417  0.4963
 9147SOL    HW239075   1.330   0.513   3.520 -0.7803 -0.1574 -0.6815
 9148SOL     OW39076   3.707   4.078   8.030 -0.1639 -0.2950 -0.1681
 9148SOL    HW139077   3.630   4.129   8.054  0.7757  2.3902 -2.8337
 9148SOL    HW239078   3.681   3.994   8.066 -1.7758 -0.5766 -1.9794
 9149SOL     OW39079   2.758   2.678  14.181  0.5387  0.5287  0.1430
 9149SOL    HW139080   2.814   2.688  14.105  0.9267 -0.7762  0.2444
 9149SOL    HW239081   2.803   2.610  14.233 -1.4092  0.6229  1.9795
 9150SOL     OW39082   4.367   4.621   8.870  0.2504 -0.1704  0.0616
 9150SOL    HW139083   4.446   4.627   8.818  1.2347 -1.4070  1.4133
 9150SOL    HW239084   4.398   4.659   8.953  1.9817 -0.0964 -0.6346
 9151SOL     OW39085   0.733   2.765   9.844 -0.3276 -0.0513 -0.4997
 9151SOL    HW139086   0.756   2.672   9.852  0.6013  0.3066  1.1502
 9151SOL    HW239087   0.792   2.796   9.776  1.8929 -1.0738  0.9737
 9152SOL     OW39088   0.286   4.427  16.806 -0.2686  0.0531  0.4738
 9152SOL    HW139089   0.301   4.340  16.843 -0.4694  0.3967  1.3570
 9152SOL    HW239090   0.299   4.401  16.715  1.3288 -2.4965  1.4269
 9153SOL     OW39091   1.469   1.694   6.896 -0.0999 -0.1323  0.4317
 9153SOL    HW139092   1.552   1.649   6.914  0.0755  0.3975  0.9556
 9153SOL    HW239093   1.486   1.696   6.802 -1.2200  0.7127  0.2561
 9154SOL     OW39094   1.449   1.276   7.568  0.4289 -0.2236  0.0003
 9154SOL    HW139095   1.379   1.330   7.531 -0.6072 -1.1666  0.5458
 9154SOL    HW239096   1.518   1.341   7.581  0.7182 -0.7237  0.9503
 9155SOL     OW39097   2.599   3.377  10.923  0.5105  0.3061  0.1108
 9155SOL    HW139098   2.632   3.367  10.833 -3.0407  2.1406 -1.4249
 9155SOL    HW239099   2.625   3.294  10.961 -2.2115 -1.1554 -1.1568
 9156SOL     OW39100   4.641   1.631  16.384 -0.3863  0.1001 -0.2110
 9156SOL    HW139101   4.576   1.614  16.453  0.1119  1.1243  0.5168
 9156SOL    HW239102   4.690   1.707  16.416 -0.8828  1.2504 -2.1983
 9157SOL     OW39103   0.356   4.029   6.669  0.0809  0.1687 -0.0448
 9157SOL    HW139104   0.438   4.027   6.620  0.7662 -1.3154  1.1631
 9157SOL    HW239105   0.336   3.938   6.691  0.0236 -0.5322 -3.0140
 9158SOL     OW39106   0.274   4.290  14.050 -0.5910  0.4250  0.1966
 9158SOL    HW139107   0.263   4.384  14.066 -3.4274 -0.2475  2.1923
 9158SOL    HW239108   0.185   4.255  14.055  0.3356 -1.4963  3.0178
 9159SOL     OW39109   3.417   1.432   5.618  0.2452 -0.0964  0.1244
 9159SOL    HW139110   3.477   1.412   5.690 -1.8118  1.2677  2.2435
 9159SOL    HW239111   3.450   1.368   5.556  1.4983 -0.4826  1.1992
 9160SOL     OW39112   4.456   4.119   8.893  0.3999  0.0056  0.5341
 9160SOL    HW139113   4.411   4.041   8.927 -0.5617 -0.0447 -0.8168
 9160SOL    HW239114   4.433   4.108   8.800 -1.6876 -1.1867  1.1816
 9161SOL     OW39115   4.522   0.052   9.450  0.2597  0.5504  0.2618
 9161SOL    HW139116   4.464   0.065   9.375  1.4017  2.8398 -0.2008
 9161SOL    HW239117   4.577   4.718   9.415  0.8982  1.2782 -0.1713
 9162SOL     OW39118   3.961   0.831  16.603 -0.2150  0.1115 -0.0150
 9162SOL    HW139119   3.898   0.782  16.655 -0.1493 -1.2070 -1.1549
 9162SOL    HW239120   4.032   0.766  16.601  1.0764  1.5138  0.1537
 9163SOL     OW39121   2.263   3.657   4.575 -0.1107  0.5142  0.3004
 9163SOL    HW139122   2.297   3.587   4.631  0.0735 -0.2338 -0.7346
 9163SOL    HW239123   2.178   3.670   4.618 -0.7504  0.7358 -1.0353
 9164SOL     OW39124   0.905   2.909   9.685  0.1360  0.3983 -0.7596
 9164SOL    HW139125   0.978   2.967   9.667  0.6315 -0.7093 -2.3666
 9164SOL    HW239126   0.865   2.915   9.597 -1.6859 -0.2544  0.0077
 9165SOL     OW39127   2.210   2.281   9.365 -0.1864  0.8628 -0.2276
 9165SOL    HW139128   2.195   2.283   9.270 -0.0744 -1.5130 -0.2858
 9165SOL    HW239129   2.130   2.235   9.393  1.4351 -1.6533  0.1834
 9166SOL     OW39130   4.209   4.278   5.606  0.0629  0.0889  0.2860
 9166SOL    HW139131   4.116   4.264   5.624 -0.4081 -1.1023 -2.9618
 9166SOL    HW239132   4.199   4.343   5.536  1.1485 -1.7343 -1.5414
 9167SOL     OW39133   1.830   4.325   6.214  0.2622 -0.8449  0.4123
 9167SOL    HW139134   1.854   4.397   6.273 -2.0757 -0.5290  0.9992
 9167SOL    HW239135   1.749   4.363   6.179  0.2799 -0.5143  0.7341
 9168SOL     OW39136   3.725   2.376   3.011  0.0633 -0.2989  0.4305
 9168SOL    HW139137   3.704   2.423   3.092  2.2450 -0.2681  0.9727
 9168SOL    HW239138   3.758   2.448   2.956  1.6142 -1.7309 -0.5197
 9169SOL     OW39139   0.237   2.369   6.521  0.2362  0.1543 -0.7315
 9169SOL    HW139140   0.301   2.368   6.450  2.2207  1.2542  1.0634
 9169SOL    HW239141   0.165   2.327   6.474 -0.2326 -1.9848  1.9040
 9170SOL     OW39142   0.287   1.603  11.415 -0.5833  0.0449 -0.4779
 9170SOL    HW139143   0.226   1.565  11.350 -1.3178  0.6743 -0.1542
 9170SOL    HW239144   0.346   1.653  11.359 -1.5116 -0.9962 -2.3966
 9171SOL     OW39145   1.358   1.727   9.136 -0.1445 -0.5581  0.0984
 9171SOL    HW139146   1.370   1.633   9.151  0.3828 -0.6926 -1.1580
 9171SOL    HW239147   1.449   1.754   9.132 -1.4390  3.9354  0.4418
 9172SOL     OW39148   0.597   0.910   7.427 -0.2377 -0.4112 -0.3079
 9172SOL    HW139149   0.670   0.906   7.366 -1.8623  1.2739 -2.3980
 9172SOL    HW239150   0.578   0.820   7.452  1.6009 -0.5973  0.4009
 9173SOL     OW39151   2.677   1.586   6.004 -0.4018  0.1487  0.5888
 9173SOL    HW139152   2.701   1.561   5.915  1.9610 -1.8480  1.7913
 9173SOL    HW239153   2.651   1.677   5.993  0.2091  0.2671  0.1352
 9174SOL     OW39154   4.530   3.269  10.678 -0.1727  0.0850 -0.3775
 9174SOL    HW139155   4.550   3.193  10.734  0.5518  0.4962 -0.0710
 9174SOL    HW239156   4.489   3.233  10.599 -0.6583 -1.4921  0.5769
 9175SOL     OW39157   2.300   3.786   0.617  0.0282  0.4585  0.2261
 9175SOL    HW139158   2.394   3.777   0.607 -0.0305 -0.2584  0.3832
 9175SOL    HW239159   2.295   3.863   0.674 -0.0195  1.1716 -0.7368
 9176SOL     OW39160   0.941   0.009   7.514 -0.2830 -0.2152 -0.2827
 9176SOL    HW139161   0.989   0.091   7.524  1.8400 -0.9728 -4.0076
 9176SOL    HW239162   0.856   0.041   7.541  0.2624 -1.1337  2.5383
 9177SOL     OW39163   4.704   1.620   4.710  0.1390  0.0681  0.1022
 9177SOL    HW139164   4.647   1.673   4.766  2.5249  1.5003  1.1771
 9177SOL    HW239165   0.058   1.642   4.735 -0.1506  0.9286  0.3879
 9178SOL     OW39166   2.908   3.856   8.895 -0.4650  0.2511 -0.4066
 9178SOL    HW139167   2.982   3.796   8.905  0.7268  1.3988 -2.2589
 9178SOL    HW239168   2.943   3.935   8.854 -0.7917  0.0660 -1.0373
 9179SOL     OW39169   3.917   3.923  15.442 -0.3932 -0.1739 -0.0068
 9179SOL    HW139170   3.954   3.834  15.438 -2.1907 -0.8877 -0.6415
 9179SOL    HW239171   3.883   3.916  15.531 -0.8991 -0.0201 -0.1888
 9180SOL     OW39172   1.676   2.166   7.149  0.0817  0.0161 -0.0502
 9180SOL    HW139173   1.743   2.154   7.217 -0.1196  0.2059  0.1834
 9180SOL    HW239174   1.604   2.145   7.209  0.6551 -0.3833  0.4971
 9181SOL     OW39175   3.975   1.307   3.257  0.2501  0.3501  0.8355
 9181SOL    HW139176   4.053   1.252   3.268 -0.4167 -0.2120  2.8365
 9181SOL    HW239177   3.979   1.342   3.168 -1.0137 -1.4848  0.0650
 9182SOL     OW39178   4.514   3.973   7.617  0.0183 -0.4582  0.2232
 9182SOL    HW139179   4.535   4.059   7.580  1.0408 -0.0211  1.7983
 9182SOL    HW239180   4.496   3.985   7.710 -0.0891  2.4651 -0.1708
 9183SOL     OW39181   1.034   2.779   0.774 -0.1578  0.0658  0.3206
 9183SOL    HW139182   1.119   2.737   0.782  0.2788  0.6168 -1.6811
 9183SOL    HW239183   1.029   2.791   0.680  2.7955  2.3977  0.4935
 9184SOL     OW39184   2.131   3.264   5.601  0.4739 -0.0169  0.0474
 9184SOL    HW139185   2.123   3.219   5.517 -1.0288  3.5684 -1.7316
 9184SOL    HW239186   2.045   3.243   5.636  0.4193 -0.0376 -0.1030
 9185SOL     OW39187   2.689   1.907  10.184  0.5100 -0.6204 -0.0490
 9185SOL    HW139188   2.721   1.995  10.164  0.6885 -1.2102 -2.3769
 9185SOL    HW239189   2.729   1.866  10.108 -0.4119 -1.1317 -0.2584
 9186SOL     OW39190   0.871   0.236  12.757 -0.2400 -0.2350  0.2872
 9186SOL    HW139191   0.779   0.247  12.780 -0.7045 -1.0839 -1.1332
 9186SOL    HW239192   0.876   0.295  12.681  1.7033  0.2243  0.7654
 9187SOL     OW39193   1.286   0.321   6.687  0.2176  0.1577 -0.5680
 9187SOL    HW139194   1.379   0.302   6.678 -0.0671 -0.7466 -1.6775
 9187SOL    HW239195   1.281   0.415   6.667  1.0477  0.7644  2.0404
 9188SOL     OW39196   1.991   0.088  16.709 -0.3986 -0.2562 -0.2566
 9188SOL    HW139197   1.909   0.090  16.659  0.0983 -0.4125 -1.0852
 9188SOL    HW239198   1.982   0.176  16.745  0.2485  0.5854 -2.1565
 9189SOL     OW39199   2.847   1.645   9.169 -0.1587  0.2077 -0.0040
 9189SOL    HW139200   2.787   1.570   9.173 -0.3817  0.3850 -0.0375
 9189SOL    HW239201   2.810   1.690   9.245 -1.4041 -0.2108 -0.3742
 9190SOL     OW39202   3.820   2.612   6.232 -0.2886  0.3804  0.1007
 9190SOL    HW139203   3.850   2.565   6.310  0.0517 -0.6399 -0.6485
 9190SOL    HW239204   3.903   2.646   6.200 -0.1533  1.3537  1.4803
 9191SOL     OW39205   4.655   1.814   6.807  0.4326 -0.3821 -0.2314
 9191SOL    HW139206   4.736   1.865   6.808  0.4511 -0.4301  5.3373
 9191SOL    HW239207   4.656   1.766   6.725  0.5504  0.6395 -0.8182
 9192SOL     OW39208   1.133   4.546   2.972 -0.6079  0.0124 -0.0253
 9192SOL    HW139209   1.172   4.606   2.907 -1.3295  2.8756  2.1789
 9192SOL    HW239210   1.198   4.549   3.042  2.3029 -0.8821 -2.6946
 9193SOL     OW39211   3.004   3.241  14.610 -0.0610  0.2938 -0.6176
 9193SOL    HW139212   2.991   3.194  14.692  1.1656  0.6840 -0.2091
 9193SOL    HW239213   3.097   3.223  14.598  0.6623  4.2806 -1.2520
 9194SOL     OW39214   4.534   1.344  11.831  0.3018  0.3081  0.0449
 9194SOL    HW139215   4.618   1.309  11.860  0.9561  2.5858  0.9050
 9194SOL    HW239216   4.547   1.437  11.847 -1.0602  0.8596 -2.1104
 9195SOL     OW39217   2.792   1.854   8.218  0.4085  0.4601  1.2212
 9195SOL    HW139218   2.756   1.882   8.302 -0.1286 -1.5352  1.6438
 9195SOL    HW239219   2.876   1.818   8.244  0.7298  0.9438  0.8470
 9196SOL     OW39220   0.758   4.129   6.134  0.2978 -0.2763 -0.2309
 9196SOL    HW139221   0.703   4.071   6.082 -0.0570 -1.0881  1.0420
 9196SOL    HW239222   0.744   4.216   6.097 -1.8228 -1.2042 -1.5969
 9197SOL     OW39223   0.649   0.213  13.712 -0.7417  0.3803  0.2393
 9197SOL    HW139224   0.715   0.275  13.682 -0.8716 -0.7458 -2.3099
 9197SOL    HW239225   0.653   0.161  13.632  0.6849  0.8846 -0.0035
 9198SOL     OW39226   1.070   3.008   1.813  0.5225 -0.0157  0.1015
 9198SOL    HW139227   1.066   3.102   1.830  0.5607  0.2555 -1.3780
 9198SOL    HW239228   1.009   3.021   1.740 -1.0377  0.6528  1.5248
 9199SOL     OW39229   3.040   1.171   7.452 -0.1421 -0.3893 -0.5423
 9199SOL    HW139230   2.981   1.149   7.524  0.8546 -1.6749 -0.1026
 9199SOL    HW239231   3.020   1.264   7.442 -1.0207 -0.4051  1.1005
 9200SOL     OW39232   2.763   2.006   2.788 -0.2242  0.2005 -0.5159
 9200SOL    HW139233   2.844   2.058   2.789 -0.9827  1.2330  3.5825
 9200SOL    HW239234   2.699   2.072   2.814  1.1039  0.9034  0.9604
 9201SOL     OW39235   2.440   4.293   0.404 -0.6562 -0.0903  0.1360
 9201SOL    HW139236   2.429   4.246   0.487 -0.9248 -1.2879 -0.5759
 9201SOL    HW239237   2.483   4.373   0.434 -2.0483  0.1103  1.6189
 9202SOL     OW39238   1.293   1.564   5.346  0.2466 -0.0051 -0.5881
 9202SOL    HW139239   1.328   1.587   5.433  0.0846  0.7778 -0.7349
 9202SOL    HW239240   1.255   1.649   5.326  1.3633  0.3984 -0.9935
 9203SOL     OW39241   2.374   2.139   8.220 -0.3083  0.1197 -0.5749
 9203SOL    HW139242   2.438   2.204   8.248  1.7408 -1.0405 -2.6011
 9203SOL    HW239243   2.312   2.194   8.172 -2.1991  0.3312  2.0994
 9204SOL     OW39244   0.224   2.619   8.280  0.2028 -0.3102 -0.2284
 9204SOL    HW139245   0.189   2.554   8.342  0.1297  1.6996  1.8477
 9204SOL    HW239246   0.306   2.634   8.327 -0.0887  1.5019 -0.2998
 9205SOL     OW39247   2.953   1.709  17.369  0.3067 -0.6120  0.0379
 9205SOL    HW139248   2.947   1.792  17.322 -0.7109 -0.6433  0.1279
 9205SOL    HW239249   3.005   1.656  17.309 -3.6549 -1.9193 -2.1514
 9206SOL     OW39250   0.438   1.221   8.485 -0.4733 -0.2392  0.4934
 9206SOL    HW139251   0.506   1.288   8.479 -0.3637 -0.2447  1.6731
 9206SOL    HW239252   0.492   1.167   8.543  0.6563  0.5159  0.1477
 9207SOL     OW39253   0.462   1.296  14.878 -0.3867 -0.0776  0.1361
 9207SOL    HW139254   0.539   1.258  14.835  0.4650  0.7109  0.9908
 9207SOL    HW239255   0.487   1.388  14.886  1.1321 -0.4986  0.2907
 9208SOL     OW39256   3.717   4.051   3.552  0.6602  0.0595 -0.4104
 9208SOL    HW139257   3.725   4.139   3.515 -1.7915  0.1557 -0.7032
 9208SOL    HW239258   3.783   4.050   3.621 -1.0065  0.2406  1.1829
 9209SOL     OW39259   0.616   4.001   9.986 -0.0521  0.1695 -0.1385
 9209SOL    HW139260   0.707   3.975   9.998 -0.2398 -0.4199  0.0384
 9209SOL    HW239261   0.617   4.038   9.898  0.8063  1.6297  0.4998
 9210SOL     OW39262   1.094   0.012   8.777  0.3965  0.1714 -0.4405
 9210SOL    HW139263   1.159   0.066   8.823 -0.6277  1.6443 -0.7307
 9210SOL    HW239264   1.014   0.030   8.826  1.2039  0.2213  0.8562
 9211SOL     OW39265   4.332   3.277   5.499  0.1551 -0.0393 -0.3534
 9211SOL    HW139266   4.313   3.364   5.463 -0.8291 -1.6801 -3.8229
 9211SOL    HW239267   4.274   3.277   5.575  1.7323  0.4517  0.8667
 9212SOL     OW39268   1.800   3.854   3.239  0.1348  0.4425 -0.3845
 9212SOL    HW139269   1.857   3.778   3.224  0.9541  0.9485  0.1678
 9212SOL    HW239270   1.874   3.910   3.264  0.0250  0.3535  0.1282
 9213SOL     OW39271   1.581   2.786  12.222  0.2558  0.4879 -0.3357
 9213SOL    HW139272   1.560   2.694  12.238  2.9527  0.1273  1.1835
 9213SOL    HW239273   1.512   2.835  12.267 -1.1280 -0.7696 -1.1114
 9214SOL     OW39274   2.906   0.820  10.982 -0.1177 -0.0925 -0.4096
 9214SOL    HW139275   2.946   0.735  10.964 -0.3658 -0.6748  1.8352
 9214SOL    HW239276   2.860   0.836  10.900 -0.5959 -0.5887 -0.2358
 9215SOL     OW39277   3.121   0.163   6.485 -0.5984  0.1850  0.0115
 9215SOL    HW139278   3.039   0.147   6.439 -0.2024  0.1638 -0.6768
 9215SOL    HW239279   3.173   0.213   6.423 -1.3766 -0.8547 -1.4626
 9216SOL     OW39280   4.410   4.190   2.189  0.2341 -0.0212  0.1177
 9216SOL    HW139281   4.374   4.278   2.195  1.0872  0.3854 -0.7241
 9216SOL    HW239282   4.329   4.147   2.161  0.7546 -0.2085 -1.1382
 9217SOL     OW39283   0.528   1.021   4.175 -0.1166 -0.8325 -0.4707
 9217SOL    HW139284   0.554   1.086   4.240  1.9618 -0.8079 -1.3264
 9217SOL    HW239285   0.609   0.969   4.179  1.4871  1.6708 -0.5620
 9218SOL     OW39286   2.216   0.759   8.507  0.0092 -0.2234 -0.0936
 9218SOL    HW139287   2.235   0.848   8.477  2.1455 -0.1958  1.3051
 9218SOL    HW239288   2.167   0.718   8.436 -0.5806  0.2558  0.0359
 9219SOL     OW39289   2.029   2.351   4.408  0.0977 -0.5499  0.0969
 9219SOL    HW139290   1.947   2.308   4.382 -0.0562 -0.7646  0.9550
 9219SOL    HW239291   2.049   2.409   4.334 -1.0530  1.7919  1.6104
 9220SOL     OW39292   0.345   0.184   3.822  0.1676  0.2111  0.1223
 9220SOL    HW139293   0.395   0.216   3.747 -1.5361 -0.0020 -1.1266
 9220SOL    HW239294   0.412   0.125   3.856 -0.4660 -1.1453 -0.9370
 9221SOL     OW39295   1.165   0.401   0.261  0.5292 -0.4378 -0.1383
 9221SOL    HW139296   1.158   0.369   0.351  0.2069  1.2222  0.4179
 9221SOL    HW239297   1.097   0.467   0.253  0.8886 -0.1412 -0.7530
 9222SOL     OW39298   4.207   1.954  11.801  0.1530  0.1947 -0.5675
 9222SOL    HW139299   4.155   2.029  11.828 -0.3454  0.5075 -2.3991
 9222SOL    HW239300   4.210   1.905  11.883  2.3498 -0.2826 -0.9179
 9223SOL     OW39301   2.770   3.523   5.326 -0.7587 -0.3545 -0.2448
 9223SOL    HW139302   2.720   3.458   5.277 -0.0066 -1.5585  0.5840
 9223SOL    HW239303   2.784   3.583   5.253 -1.3150  1.5528  1.2314
 9224SOL     OW39304   0.361   4.394   7.281 -0.2825 -0.2930 -0.5810
 9224SOL    HW139305   0.359   4.355   7.194 -2.3705 -3.0141  0.6839
 9224SOL    HW239306   0.335   4.313   7.326 -1.5607 -1.0431 -2.6642
 9225SOL     OW39307   0.699   2.165   2.864 -0.2774 -0.3247  0.2563
 9225SOL    HW139308   0.760   2.143   2.794 -0.5625  1.0052 -0.4051
 9225SOL    HW239309   0.736   2.137   2.949 -0.4083  0.6162  0.6204
 9226SOL     OW39310   2.973   1.716  12.818  0.8232  0.3023  0.3784
 9226SOL    HW139311   2.881   1.695  12.835  1.4528 -3.2595 -0.5124
 9226SOL    HW239312   2.973   1.754  12.730  1.3659  1.3905  0.8457
 9227SOL     OW39313   3.716   2.285  12.867 -0.5986  0.3603  0.1251
 9227SOL    HW139314   3.667   2.249  12.793  0.0968 -1.3617  0.4922
 9227SOL    HW239315   3.772   2.351  12.827  0.2352 -0.0689  0.5649
 9228SOL     OW39316   0.474   3.336   6.796  0.0284  0.0819  0.3977
 9228SOL    HW139317   0.381   3.339   6.774  0.5752 -1.7435 -2.1132
 9228SOL    HW239318   0.488   3.405   6.861  0.8828 -0.9423  1.3038
 9229SOL     OW39319   2.961   4.673   7.307 -0.4498  0.3704  0.1214
 9229SOL    HW139320   2.911   0.017   7.323  0.7603  1.3634 -1.0168
 9229SOL    HW239321   2.943   4.641   7.395 -0.8503 -0.1515 -0.1461
 9230SOL     OW39322   3.985   3.561   3.046 -0.0472  0.6758 -0.2867
 9230SOL    HW139323   3.965   3.621   3.118  2.3285  0.6657  0.3997
 9230SOL    HW239324   3.962   3.627   2.981  0.1132  1.9312  0.9189
 9231SOL     OW39325   0.124   1.091   4.584  0.4601 -0.2178 -0.1191
 9231SOL    HW139326   0.047   1.072   4.530  0.2197  2.8736 -0.8676
 9231SOL    HW239327   0.153   1.172   4.543 -2.7890  0.5429 -0.8984
 9232SOL     OW39328   2.853   2.919   3.938  0.5419  0.0894  0.1603
 9232SOL    HW139329   2.884   2.917   4.029  0.9306  1.6526  0.0534
 9232SOL    HW239330   2.856   2.824   3.925  1.5548  0.0008  0.9405
 9233SOL     OW39331   1.673   3.838   6.145 -1.0092 -0.0733  0.0176
 9233SOL    HW139332   1.626   3.824   6.227  0.8797 -0.5156  1.0400
 9233SOL    HW239333   1.733   3.910   6.168  1.8526 -2.2437 -0.6193
 9234SOL     OW39334   2.874   0.490   8.374  0.5829 -0.3969 -0.1581
 9234SOL    HW139335   2.847   0.554   8.439  1.0217  0.5072 -0.8612
 9234SOL    HW239336   2.888   0.542   8.294 -3.0260 -0.3182 -0.7332
 9235SOL     OW39337   2.761   2.387  14.412  0.6113  0.1169 -0.1743
 9235SOL    HW139338   2.757   2.373  14.317 -2.0092  2.0539 -0.3446
 9235SOL    HW239339   2.856   2.384  14.426  0.5239  1.3485  0.6805
 9236SOL     OW39340   2.874   0.242   2.612 -0.3378  0.4836  0.5841
 9236SOL    HW139341   2.875   0.302   2.537  2.3291 -1.1864 -0.7264
 9236SOL    HW239342   2.929   0.300   2.664  0.5735  0.3351 -0.2082
 9237SOL     OW39343   1.871   0.380  15.986 -0.4109  0.0016 -0.3630
 9237SOL    HW139344   1.903   0.470  15.983 -0.9397  0.1884 -0.3460
 9237SOL    HW239345   1.841   0.370  15.896 -1.2570  0.7111 -0.1567
 9238SOL     OW39346   0.256   1.796   8.292  0.3534 -0.0091 -0.0366
 9238SOL    HW139347   0.207   1.868   8.251  0.1437  0.1396  0.4775
 9238SOL    HW239348   0.290   1.756   8.212  0.9425  0.7328 -0.1600
 9239SOL     OW39349   3.118   2.657   7.163 -0.0119  0.8233  0.5301
 9239SOL    HW139350   3.171   2.719   7.213  0.6043  0.1907  0.6690
 9239SOL    HW239351   3.183   2.590   7.141  1.5801  2.4620  0.2549
 9240SOL     OW39352   1.373   4.089   6.010 -0.0053  0.0678 -0.8058
 9240SOL    HW139353   1.396   4.066   5.920  0.8455  3.6841 -1.4972
 9240SOL    HW239354   1.372   4.001   6.048 -0.7779  1.2631  1.9427
 9241SOL     OW39355   1.610   2.596   7.429  0.2224 -0.3953  0.1384
 9241SOL    HW139356   1.565   2.650   7.493  1.5210  2.5479 -1.4639
 9241SOL    HW239357   1.555   2.524   7.460 -1.1383  0.2276 -0.8257
 9242SOL     OW39358   0.855   0.913   5.445 -0.0949 -0.8117 -0.4669
 9242SOL    HW139359   0.888   0.833   5.403  1.3885 -1.7681  2.5243
 9242SOL    HW239360   0.938   0.959   5.435  0.6328 -2.5904 -2.6058
 9243SOL     OW39361   2.701   2.224   8.802 -0.5008  0.6310  0.0907
 9243SOL    HW139362   2.709   2.261   8.714 -1.2022  0.8013  0.1016
 9243SOL    HW239363   2.633   2.283   8.834 -0.9071  0.1584  0.0982
 9244SOL     OW39364   0.073   3.690  12.146 -0.1385  0.3702 -0.0188
 9244SOL    HW139365   4.735   3.751  12.146  0.0260  0.5694  0.2147
 9244SOL    HW239366   0.046   3.632  12.074  1.8141  0.9420 -1.2115
 9245SOL     OW39367   2.930   1.924   1.485  0.0835 -0.0183 -0.7625
 9245SOL    HW139368   2.836   1.931   1.468  0.4726 -0.2604 -3.0934
 9245SOL    HW239369   2.936   1.832   1.511 -1.5260  0.2874  0.6597
 9246SOL     OW39370   0.954   0.784   9.316  0.2049  0.2703 -0.1331
 9246SOL    HW139371   0.954   0.859   9.375  2.3593  1.3635 -1.4962
 9246SOL    HW239372   0.867   0.747   9.327  0.8298 -0.7228  1.5300
 9247SOL     OW39373   4.650   4.621   6.523  0.8613 -0.0348  0.0068
 9247SOL    HW139374   4.732   4.633   6.476  0.3181  1.2235 -0.6149
 9247SOL    HW239375   4.662   4.526   6.521  0.7226 -0.1040  2.1063
 9248SOL     OW39376   4.031   3.680  15.457 -0.0788  0.4083 -0.0944
 9248SOL    HW139377   3.995   3.598  15.489  1.3650 -0.2677 -0.1961
 9248SOL    HW239378   4.123   3.657  15.442 -0.3873 -0.5721 -0.4448
 9249SOL     OW39379   2.187   2.017   6.666 -0.4577 -0.0557  0.0573
 9249SOL    HW139380   2.240   1.950   6.622  1.7895  1.6486  0.2234
 9249SOL    HW239381   2.131   2.047   6.594 -0.0605 -2.7031 -1.3629
 9250SOL     OW39382   3.241   2.340   3.143  0.2505 -0.0181  0.6113
 9250SOL    HW139383   3.282   2.401   3.082  0.1133 -0.3911  0.1436
 9250SOL    HW239384   3.154   2.374   3.162 -0.1571 -1.2368  0.9499
 9251SOL     OW39385   4.638   1.028   6.000 -0.1747  0.1687  0.4127
 9251SOL    HW139386   4.583   0.973   6.055 -0.5172 -0.6869 -0.7903
 9251SOL    HW239387   4.714   1.040   6.057 -1.8634  2.0061  2.2943
 9252SOL     OW39388   4.123   1.567  11.556  0.8733 -0.2203 -0.2540
 9252SOL    HW139389   4.058   1.546  11.622 -0.7873 -1.5870 -2.3485
 9252SOL    HW239390   4.196   1.595  11.612  0.6146  0.5334 -0.2896
 9253SOL     OW39391   1.286   4.339   7.767  0.4080  0.2736 -0.5485
 9253SOL    HW139392   1.222   4.296   7.825  0.0560  1.5739  0.0353
 9253SOL    HW239393   1.228   4.378   7.701  1.1006  0.1608 -1.2133
 9254SOL     OW39394   3.577   2.926  17.256  0.1790 -0.3405 -0.0748
 9254SOL    HW139395   3.588   2.918  17.351  1.0141  0.5028 -0.1048
 9254SOL    HW239396   3.512   2.997  17.260 -0.4264 -0.8705 -0.5301
 9255SOL     OW39397   3.812   0.953  12.188 -0.1452 -0.0271  0.7061
 9255SOL    HW139398   3.895   0.906  12.195 -0.0158 -0.3119 -2.6625
 9255SOL    HW239399   3.757   0.876  12.177 -0.4533  0.3714 -0.5497
 9256SOL     OW39400   2.522   2.235   9.626 -0.1157 -0.3855 -0.1665
 9256SOL    HW139401   2.538   2.244   9.533  0.0871 -0.3344 -0.1272
 9256SOL    HW239402   2.433   2.271   9.635  0.6181  1.5118 -0.4255
 9257SOL     OW39403   0.244   2.265   3.651 -0.4194 -0.5391 -0.6353
 9257SOL    HW139404   0.230   2.329   3.721 -1.5399 -2.3770  0.7992
 9257SOL    HW239405   0.167   2.292   3.601  0.5655 -1.3088 -2.5745
 9258SOL     OW39406   1.675   0.903   3.266  0.1474 -0.0929 -0.2698
 9258SOL    HW139407   1.654   0.847   3.190 -2.1852 -0.0513  0.3385
 9258SOL    HW239408   1.720   0.974   3.221 -0.5843  0.6346  0.1558
 9259SOL     OW39409   1.562   1.401  15.208  0.2094 -0.5498 -0.0797
 9259SOL    HW139410   1.520   1.315  15.210  0.7760 -0.8388 -0.6560
 9259SOL    HW239411   1.647   1.367  15.180 -0.5807 -1.0943 -1.8136
 9260SOL     OW39412   4.612   2.490  12.268  0.2295  0.3519  0.3380
 9260SOL    HW139413   4.568   2.424  12.323 -3.1041  1.0572 -1.4913
 9260SOL    HW239414   4.613   2.446  12.183  0.3902  0.5057  0.2609
 9261SOL     OW39415   2.542   1.880   9.629 -0.1398 -0.4823  0.0752
 9261SOL    HW139416   2.576   1.933   9.700  1.7102 -1.9453  0.2576
 9261SOL    HW239417   2.501   1.952   9.581 -0.7524 -1.1467 -0.4178
 9262SOL     OW39418   1.007   1.423   5.509  0.0972  0.5408 -0.1913
 9262SOL    HW139419   1.010   1.374   5.426  1.8800 -0.6501  0.5644
 9262SOL    HW239420   0.944   1.363   5.549 -0.3360 -0.6429 -2.5805
 9263SOL     OW39421   3.766   3.580   8.667 -0.0302 -0.2366  0.2457
 9263SOL    HW139422   3.783   3.660   8.619 -1.9696  2.2484  3.6630
 9263SOL    HW239423   3.707   3.541   8.602 -0.5965  1.8989 -0.5030
 9264SOL     OW39424   4.663   3.559   6.246  0.2674 -0.3676  0.0857
 9264SOL    HW139425   4.621   3.536   6.329 -0.3735 -0.2728 -0.2091
 9264SOL    HW239426   4.663   3.654   6.256  0.3314 -0.1786 -1.5849
 9265SOL     OW39427   1.088   4.400  12.277  0.5362  0.6307  0.2220
 9265SOL    HW139428   1.164   4.347  12.253 -0.5790 -0.9914  0.2986
 9265SOL    HW239429   1.068   4.371  12.366  1.6674  1.2922  0.6842
 9266SOL     OW39430   1.999   2.612   7.620 -0.7083 -0.2121 -0.3988
 9266SOL    HW139431   1.943   2.688   7.632  0.5987  0.1592  3.3238
 9266SOL    HW239432   2.052   2.611   7.700  0.8137  1.4184 -1.3743
 9267SOL     OW39433   0.275   3.513   8.386 -0.4036 -0.0014  0.2623
 9267SOL    HW139434   0.252   3.421   8.399 -0.8480  0.1952  0.8218
 9267SOL    HW239435   0.364   3.496   8.354 -0.3261  2.3456 -0.7754
 9268SOL     OW39436   0.440   1.700   3.308  0.0248  0.2185 -0.1179
 9268SOL    HW139437   0.518   1.752   3.294 -0.0674  0.3297 -0.2085
 9268SOL    HW239438   0.425   1.704   3.403 -1.1205 -0.6133 -0.2517
 9269SOL     OW39439   4.169   1.480   7.992 -0.2438 -0.3110  0.5047
 9269SOL    HW139440   4.198   1.551   8.050 -0.4468  0.7282 -0.6624
 9269SOL    HW239441   4.074   1.481   7.996 -0.3699 -0.8782 -2.1222
 9270SOL     OW39442   3.862   1.102  13.140 -0.1780  0.3971  0.1237
 9270SOL    HW139443   3.769   1.085  13.155  0.2519 -0.9694  1.3456
 9270SOL    HW239444   3.881   1.161  13.213 -1.4632  1.2801 -0.2656
 9271SOL     OW39445   2.105   4.446   3.066 -0.2069  0.0919 -0.4440
 9271SOL    HW139446   2.142   4.532   3.084  1.4517 -0.9997  1.4513
 9271SOL    HW239447   2.015   4.461   3.095  0.8050  1.5498  1.9295
 9272SOL     OW39448   3.164   3.453   5.886  0.1065 -0.2590 -0.8523
 9272SOL    HW139449   3.152   3.436   5.792 -1.0141  0.4958 -0.8426
 9272SOL    HW239450   3.118   3.378   5.923 -0.9790  1.5787  1.5214
 9273SOL     OW39451   1.158   2.144  14.729 -0.3904  0.2578  0.1267
 9273SOL    HW139452   1.158   2.187  14.815  2.7410  2.6893 -1.0842
 9273SOL    HW239453   1.181   2.055  14.754 -0.6898 -0.4806 -2.2612
 9274SOL     OW39454   4.234   3.400   1.690 -0.0785  0.2287 -0.2521
 9274SOL    HW139455   4.221   3.316   1.646  0.6810 -1.4567  2.7294
 9274SOL    HW239456   4.323   3.385   1.724 -0.4927  0.5912  0.9654
 9275SOL     OW39457   3.949   2.071   6.167  0.1339 -0.7923  0.5225
 9275SOL    HW139458   3.901   1.988   6.165 -2.1132  0.5372 -0.4867
 9275SOL    HW239459   3.895   2.118   6.104 -0.1782  0.0571  1.4187
 9276SOL     OW39460   2.692   1.914  13.859  0.2760 -0.1552 -0.0621
 9276SOL    HW139461   2.770   1.884  13.812  0.6440 -0.4129  0.6910
 9276SOL    HW239462   2.675   1.848  13.927  1.3037 -2.1593 -1.7421
 9277SOL     OW39463   0.506   0.952  11.692  0.7134  0.2998 -0.8605
 9277SOL    HW139464   0.554   0.942  11.610  3.0693  0.0323  0.5328
 9277SOL    HW239465   0.535   1.037  11.724 -1.5498  1.1270 -1.0422
 9278SOL     OW39466   1.711   4.512   6.907 -0.4371  1.0383  0.2531
 9278SOL    HW139467   1.739   4.426   6.940  3.0068  0.9115 -3.0873
 9278SOL    HW239468   1.625   4.500   6.867 -0.6865  2.2588  0.4208
 9279SOL     OW39469   3.891   3.159   2.273 -0.9747  0.4579 -0.9307
 9279SOL    HW139470   3.801   3.138   2.247 -0.3329 -1.8498 -1.3521
 9279SOL    HW239471   3.938   3.079   2.295 -0.6346  0.9106 -0.0287
 9280SOL     OW39472   3.718   3.756  12.764  0.2914  0.3046 -0.2500
 9280SOL    HW139473   3.698   3.689  12.698  0.5055 -0.9975  1.0122
 9280SOL    HW239474   3.779   3.817  12.722  0.5131 -0.7778 -1.5241
 9281SOL     OW39475   0.709   2.098   8.270 -0.0156 -0.2725  0.2994
 9281SOL    HW139476   0.688   2.122   8.360 -1.7011  1.2978 -0.4997
 9281SOL    HW239477   0.778   2.156   8.239 -0.4624  0.4037  0.5583
 9282SOL     OW39478   2.139   2.337  12.850 -0.4100 -0.0037  0.0006
 9282SOL    HW139479   2.051   2.326  12.815 -1.5724  1.5122  2.4468
 9282SOL    HW239480   2.128   2.345  12.945 -1.6082  0.7917 -0.2058
 9283SOL     OW39481   0.896   4.525  17.194  0.3421 -0.6988  0.7984
 9283SOL    HW139482   0.860   4.508  17.107 -1.1786 -2.8940  1.8664
 9283SOL    HW239483   0.814   4.528  17.245  1.1016  1.1675  1.9142
 9284SOL     OW39484   4.330   4.034   6.291  0.1865  0.2679 -0.2991
 9284SOL    HW139485   4.254   4.060   6.342 -0.0573 -1.3797  0.1882
 9284SOL    HW239486   4.404   4.074   6.336 -1.0943 -0.3514  2.3573
 9285SOL     OW39487   3.399   2.725  16.323 -0.3244 -0.1164 -0.2698
 9285SOL    HW139488   3.337   2.750  16.255  0.0164 -1.9561 -1.2447
 9285SOL    HW239489   3.454   2.659  16.280 -0.0360  1.7173 -2.6952
 9286SOL     OW39490   4.596   1.636  15.401  0.5605 -0.8518  0.6926
 9286SOL    HW139491   4.570   1.676  15.484 -0.1792 -0.7742  0.4242
 9286SOL    HW239492   4.604   1.708  15.338  2.0860 -1.6739 -0.0351
 9287SOL     OW39493   0.743   0.009   4.306 -0.4159 -0.7391  0.0210
 9287SOL    HW139494   0.666   4.730   4.361  0.4077  2.3968  2.0162
 9287SOL    HW239495   0.791   4.670   4.341 -1.0512 -1.4714 -0.6879
 9288SOL     OW39496   3.582   4.255   7.021  0.0894  0.0902  0.0652
 9288SOL    HW139497   3.588   4.350   7.014 -4.0798  0.3985  0.5110
 9288SOL    HW239498   3.629   4.229   6.941  0.5492  0.5826  0.1730
 9289SOL     OW39499   0.267   3.970   1.220  0.5285 -0.0920  0.4730
 9289SOL    HW139500   0.192   4.013   1.260 -0.6519 -1.1665 -0.6078
 9289SOL    HW239501   0.333   4.040   1.225  2.3634 -1.8996  1.8365
 9290SOL     OW39502   1.991   2.416   8.806  0.3178 -1.1354 -1.0210
 9290SOL    HW139503   2.061   2.425   8.741  1.7297  1.9932  0.9517
 9290SOL    HW239504   1.958   2.506   8.803  0.6837 -0.9492  0.6205
 9291SOL     OW39505   4.366   4.624   1.250  0.3697  0.3269 -0.1715
 9291SOL    HW139506   4.382   4.550   1.308  2.4221 -0.1122 -1.3044
 9291SOL    HW239507   4.446   4.624   1.198  1.1070  2.7411  0.9466
 9292SOL     OW39508   3.363   2.805  10.725  0.2057 -0.2693  0.2546
 9292SOL    HW139509   3.317   2.795  10.809 -1.6737  2.0754 -0.5143
 9292SOL    HW239510   3.439   2.859  10.746  1.0238 -1.8393  1.3607
 9293SOL     OW39511   0.590   4.127   7.439  0.0996 -0.0313 -0.9477
 9293SOL    HW139512   0.682   4.145   7.458 -0.8106  0.7534  2.7618
 9293SOL    HW239513   0.590   4.093   7.349 -1.9823 -0.5610 -0.7474
 9294SOL     OW39514   3.752   0.233   4.681  0.6166 -0.6844 -0.2284
 9294SOL    HW139515   3.664   0.217   4.648  0.0322  3.0419 -0.4975
 9294SOL    HW239516   3.734   0.312   4.732 -0.6969 -1.7865  1.0081
 9295SOL     OW39517   3.338   0.635  15.747  0.6605 -0.5659  0.0386
 9295SOL    HW139518   3.347   0.662  15.838 -3.2127  0.4231  0.1284
 9295SOL    HW239519   3.358   0.703  15.682 -1.7617  0.3784  0.2781
 9296SOL     OW39520   2.537   1.633   4.819 -0.6370  0.5480 -0.1855
 9296SOL    HW139521   2.546   1.728   4.815  1.4932  0.3730  0.3629
 9296SOL    HW239522   2.519   1.611   4.727 -1.0395 -0.5940  0.1658
 9297SOL     OW39523   1.988   4.460   7.767 -0.5284  0.0345  0.4943
 9297SOL    HW139524   1.921   4.409   7.813  0.9893 -3.3059 -1.0043
 9297SOL    HW239525   2.032   4.392   7.716 -0.0815  1.6671 -1.3248
 9298SOL     OW39526   1.750   4.417  10.965  0.2716  0.2066 -0.0113
 9298SOL    HW139527   1.783   4.439  10.878 -0.4194 -1.5439 -0.7179
 9298SOL    HW239528   1.804   4.468  11.026  0.2114 -0.8187  0.9136
 9299SOL     OW39529   3.590   0.962   5.374  0.3285 -0.2726  0.2916
 9299SOL    HW139530   3.657   0.989   5.312  0.8798 -0.0025  0.9969
 9299SOL    HW239531   3.574   0.872   5.344  2.1317 -0.0378 -1.4012
 9300SOL     OW39532   1.972   1.262   6.991  0.7690  0.1695 -0.4339
 9300SOL    HW139533   1.981   1.267   7.086  0.1580  1.0283 -0.4165
 9300SOL    HW239534   2.036   1.326   6.961 -0.7847  0.0891 -3.9201
 9301SOL     OW39535   1.278   0.397  10.709  0.3024 -0.1804  0.0204
 9301SOL    HW139536   1.210   0.331  10.694  0.7482 -0.5362 -0.4294
 9301SOL    HW239537   1.255   0.446  10.630 -1.1271  0.9116  1.1070
 9302SOL     OW39538   2.804   4.630   5.609 -0.1120 -0.5398 -0.3577
 9302SOL    HW139539   2.788   4.592   5.695  0.1903 -0.4705 -0.2695
 9302SOL    HW239540   2.742   4.581   5.555  0.8314 -0.4642 -1.5181
 9303SOL     OW39541   3.019   3.110  16.025  0.0014  0.6332  0.9470
 9303SOL    HW139542   3.076   3.187  16.031 -1.4466  1.7524  0.2998
 9303SOL    HW239543   3.083   3.043  16.050 -1.4303 -0.8497  0.6275
 9304SOL     OW39544   3.486   3.952   3.483 -0.6975 -0.2772  0.1853
 9304SOL    HW139545   3.433   4.030   3.471  0.9951  0.9055  0.2852
 9304SOL    HW239546   3.570   3.978   3.522  0.0194  1.2806 -2.3642
 9305SOL     OW39547   1.678   3.974   2.455 -0.0525 -0.0170  0.0838
 9305SOL    HW139548   1.699   3.958   2.363  2.1978  0.1596  0.5816
 9305SOL    HW239549   1.665   4.068   2.442  0.6518 -0.1345 -1.5085
 9306SOL     OW39550   4.685   1.030  17.655  0.0509 -0.7198  0.1410
 9306SOL    HW139551   4.719   1.032  17.566 -0.5196  2.0556 -0.0017
 9306SOL    HW239552   4.732   1.107  17.689  0.8503 -2.1122  2.2366
 9307SOL     OW39553   1.277   0.845   2.681  0.2912  0.2059 -0.6698
 9307SOL    HW139554   1.343   0.776   2.686  2.1435  1.8417 -2.4717
 9307SOL    HW239555   1.331   0.923   2.668  0.2659  0.1374 -1.1884
 9308SOL     OW39556   2.686   2.830   5.902 -0.5586  0.2203  0.0284
 9308SOL    HW139557   2.714   2.752   5.950 -0.6947 -0.0312 -0.2969
 9308SOL    HW239558   2.736   2.815   5.822 -2.8697  0.8611 -1.5371
 9309SOL     OW39559   1.196   2.028   3.598  0.0307 -0.1964 -0.5647
 9309SOL    HW139560   1.230   2.091   3.534 -0.2663 -0.7237 -1.2302
 9309SOL    HW239561   1.279   1.987   3.621 -0.3721 -0.1723  0.9387
 9310SOL     OW39562   2.924   2.631  15.209  0.1060 -0.2553  0.2156
 9310SOL    HW139563   2.918   2.721  15.177 -0.1601  0.8346  3.3199
 9310SOL    HW239564   2.829   2.627  15.221  0.0922  1.0336  0.4666
 9311SOL     OW39565   0.885   4.671   7.803 -0.3803  0.2488  0.9867
 9311SOL    HW139566   0.834   4.709   7.875 -2.3199  1.5384 -1.0760
 9311SOL    HW239567   0.880   4.577   7.817  1.3485 -0.1814 -1.3050
 9312SOL     OW39568   0.509   0.561   1.976  0.2988  0.1232  0.2699
 9312SOL    HW139569   0.420   0.587   2.001  0.9693  1.5101  1.2098
 9312SOL    HW239570   0.545   0.536   2.062 -1.4359  0.2947  1.0488
 9313SOL     OW39571   1.722   3.220   3.839 -0.4096  0.0427  0.5479
 9313SOL    HW139572   1.751   3.219   3.930  0.2478 -0.7602  0.3341
 9313SOL    HW239573   1.775   3.151   3.799 -0.1103  0.0624  0.9178
 9314SOL     OW39574   1.189   1.069   6.628 -0.4141  0.1626 -0.1416
 9314SOL    HW139575   1.166   0.984   6.589  1.0788 -0.2038 -0.2071
 9314SOL    HW239576   1.105   1.111   6.607 -0.2342  0.4678 -0.2424
 9315SOL     OW39577   3.194   0.659   9.857 -0.0419  0.4169  0.4835
 9315SOL    HW139578   3.242   0.722   9.802 -1.7543  0.7242 -0.6405
 9315SOL    HW239579   3.102   0.675   9.836 -0.1309  1.8678  2.0244
 9316SOL     OW39580   0.815   0.524   8.381  0.1050 -0.0313  0.0559
 9316SOL    HW139581   0.909   0.534   8.393  0.0917 -0.4338  0.4650
 9316SOL    HW239582   0.780   0.597   8.432  0.2452 -0.9198  1.4307
 9317SOL     OW39583   3.640   3.425   3.137  0.5555 -0.3991  0.1232
 9317SOL    HW139584   3.703   3.356   3.118 -0.8373 -1.4628 -0.6376
 9317SOL    HW239585   3.638   3.479   3.058 -1.0261  0.9975  1.1108
 9318SOL     OW39586   1.904   2.622   6.616 -0.2462  0.0390 -0.4565
 9318SOL    HW139587   1.894   2.527   6.624 -0.2121  0.2010  1.6890
 9318SOL    HW239588   1.876   2.660   6.700 -0.7185  3.1779 -2.0320
 9319SOL     OW39589   1.421   1.406  14.196  0.3315 -0.8044 -0.0568
 9319SOL    HW139590   1.408   1.311  14.189  0.3547 -0.8400  0.3747
 9319SOL    HW239591   1.332   1.423  14.166  0.4634  1.4231  0.8389
 9320SOL     OW39592   2.385   1.097   3.827  0.0244  0.4678  0.1980
 9320SOL    HW139593   2.337   1.073   3.906  0.0332 -0.7216 -0.1460
 9320SOL    HW239594   2.372   1.021   3.769 -0.4669  1.3253 -0.8124
 9321SOL     OW39595   4.257   0.160   1.166 -0.0395  0.0768  0.2283
 9321SOL    HW139596   4.255   0.076   1.212  1.2918  1.5285  2.9884
 9321SOL    HW239597   4.351   0.177   1.160  0.0562 -1.0665 -1.3447
 9322SOL     OW39598   2.956   3.526   5.553  0.2411  0.4342 -0.1159
 9322SOL    HW139599   2.935   3.573   5.635 -0.0555  2.2965 -1.2526
 9322SOL    HW239600   2.876   3.522   5.501 -0.6225 -2.8626  1.4378
 9323SOL     OW39601   3.251   2.758  11.493  0.1353  0.0608 -0.1353
 9323SOL    HW139602   3.233   2.698  11.421 -0.5279 -1.4668  1.2839
 9323SOL    HW239603   3.333   2.801  11.469  2.0015 -3.6043 -0.3496
 9324SOL     OW39604   3.093   0.339   4.154  0.0215  0.3648 -0.5169
 9324SOL    HW139605   3.008   0.366   4.118  0.0504  3.4351  1.7416
 9324SOL    HW239606   3.126   0.311   4.069 -1.0506  2.6384 -1.6793
 9325SOL     OW39607   1.010   4.480   8.768  0.0763 -0.6281 -0.3025
 9325SOL    HW139608   1.069   4.548   8.799 -0.1487  0.0519 -1.3638
 9325SOL    HW239609   0.930   4.532   8.763  0.1393 -0.5590 -0.6466
 9326SOL     OW39610   4.621   2.886   8.622 -0.9868  0.3922  0.1027
 9326SOL    HW139611   4.710   2.857   8.603 -1.4141  0.9166 -2.6755
 9326SOL    HW239612   4.627   2.910   8.715 -0.7307  2.8077 -0.5208
 9327SOL     OW39613   0.178   4.621   5.895  0.0350  0.2785 -0.8474
 9327SOL    HW139614   0.124   4.670   5.833  0.2867 -1.8141 -2.7350
 9327SOL    HW239615   0.215   4.553   5.839  1.0780 -0.2468  0.4578
 9328SOL     OW39616   2.628   3.587  10.301 -0.1141  0.4501  0.4078
 9328SOL    HW139617   2.607   3.542  10.383  4.2069 -0.6329  0.9161
 9328SOL    HW239618   2.699   3.532  10.267  0.1949 -0.4163  2.4880
 9329SOL     OW39619   3.613   2.320   4.443 -0.7227 -0.3091 -0.7408
 9329SOL    HW139620   3.677   2.390   4.453 -0.2485 -0.5818 -1.9717
 9329SOL    HW239621   3.529   2.359   4.467  0.3631  0.5690  1.6606
 9330SOL     OW39622   3.064   2.371  11.279 -0.7108  0.1014  0.5343
 9330SOL    HW139623   2.975   2.370  11.244 -0.0950 -2.3118 -0.9449
 9330SOL    HW239624   3.047   2.414  11.363 -0.3347 -1.0627  1.2136
 9331SOL     OW39625   1.789   1.166   5.911  0.0365 -0.8756  0.4246
 9331SOL    HW139626   1.836   1.173   5.995  0.6462  0.9016 -0.0587
 9331SOL    HW239627   1.857   1.122   5.859 -0.2878  0.8074 -1.4183
 9332SOL     OW39628   0.950   0.613   7.810  0.0888 -0.1255  0.5924
 9332SOL    HW139629   1.034   0.566   7.809  0.4872  0.6626 -2.7154
 9332SOL    HW239630   0.911   0.569   7.735  1.0607  2.4738 -1.4184
 9333SOL     OW39631   0.482   0.110  10.503 -0.3955 -0.0623 -0.6320
 9333SOL    HW139632   0.433   0.049  10.449  0.0110 -0.7951 -0.1696
 9333SOL    HW239633   0.419   0.146  10.566  2.2411  0.3410  1.7840
 9334SOL     OW39634   3.737   2.103   3.178 -0.1171  0.1285 -0.0937
 9334SOL    HW139635   3.652   2.143   3.196 -0.1517  1.0921 -2.2788
 9334SOL    HW239636   3.724   2.025   3.123  0.8644 -1.0796  1.4077
 9335SOL     OW39637   2.273   0.279   3.762 -0.0011  0.4555  0.7901
 9335SOL    HW139638   2.249   0.187   3.773 -0.9348  0.9401  2.7758
 9335SOL    HW239639   2.351   0.284   3.818  1.0854 -2.9296 -0.4224
 9336SOL     OW39640   3.189   3.048   9.710 -0.3715  0.4371  0.3687
 9336SOL    HW139641   3.168   3.135   9.678 -2.0517  0.2493  0.9366
 9336SOL    HW239642   3.242   3.077   9.784  1.1487 -1.5423  0.0749
 9337SOL     OW39643   0.948   3.513  10.742  0.1899  0.4911 -0.5698
 9337SOL    HW139644   0.937   3.420  10.765 -1.4233  0.9292  0.4276
 9337SOL    HW239645   0.878   3.550  10.795  0.9170  1.6304 -0.3955
 9338SOL     OW39646   4.208   3.123   4.185 -0.3822  0.6239  0.1331
 9338SOL    HW139647   4.163   3.156   4.107  1.3195  1.6051 -0.4310
 9338SOL    HW239648   4.159   3.159   4.259  1.8694 -0.2347  2.0641
 9339SOL     OW39649   2.796   0.688   2.428 -0.3822 -0.4623 -0.0181
 9339SOL    HW139650   2.703   0.696   2.449 -0.6785  0.7574 -1.7760
 9339SOL    HW239651   2.808   0.690   2.333  1.2781 -1.2358  0.1699
 9340SOL     OW39652   0.413   4.725   4.629  0.6535 -0.2175  0.3055
 9340SOL    HW139653   0.492   0.032   4.663  1.0102  0.8784 -1.8984
 9340SOL    HW239654   0.406   4.650   4.687 -2.1139  1.1102  1.6872
 9341SOL     OW39655   0.712   2.986  12.037  0.2382 -0.6416 -0.4043
 9341SOL    HW139656   0.746   3.063  11.992 -0.5883 -0.0241  0.0282
 9341SOL    HW239657   0.628   2.984  11.991  1.3850  1.8599 -2.5842
 9342SOL     OW39658   0.210   0.790   5.500 -0.0460 -0.3002  0.1007
 9342SOL    HW139659   0.189   0.721   5.563  0.9754  0.2500  1.0326
 9342SOL    HW239660   0.126   0.794   5.454 -1.4301  0.1523  2.6243
 9343SOL     OW39661   1.764   3.976   7.236 -0.0085 -0.0482 -0.2558
 9343SOL    HW139662   1.806   3.995   7.320  0.1551  0.6867 -0.4976
 9343SOL    HW239663   1.822   4.018   7.173 -1.7596  3.2582  0.3172
 9344SOL     OW39664   3.986   1.771  13.076 -0.2514  0.0828 -0.4725
 9344SOL    HW139665   4.078   1.761  13.100  0.3506  2.1048 -1.9351
 9344SOL    HW239666   3.953   1.840  13.133 -0.2791 -0.1419 -0.2146
 9345SOL     OW39667   0.648   0.398   6.175 -0.0151 -0.3219  0.0617
 9345SOL    HW139668   0.633   0.425   6.265 -1.0338  0.5727 -0.3783
 9345SOL    HW239669   0.709   0.464   6.143 -0.8467  0.5826  0.3339
 9346SOL     OW39670   0.081   2.157   5.500 -0.1809 -0.3035  0.3521
 9346SOL    HW139671   0.120   2.239   5.529 -0.4416 -0.1963  0.4021
 9346SOL    HW239672   0.127   2.144   5.417 -0.1861 -1.8022  0.5843
 9347SOL     OW39673   3.766   1.573   2.950  0.1152 -0.5119 -0.7664
 9347SOL    HW139674   3.736   1.544   3.037  0.7244 -3.1133 -1.4104
 9347SOL    HW239675   3.695   1.628   2.920  1.9675  2.4585  0.2626
 9348SOL     OW39676   4.617   0.152   9.866  0.4038 -0.1079 -0.2633
 9348SOL    HW139677   4.583   0.066   9.891 -3.7116  2.3600  2.6056
 9348SOL    HW239678   4.549   0.218   9.877 -0.1558 -1.1367  2.4953
 9349SOL     OW39679   2.618   1.301   2.640 -0.0435  0.3518  0.1634
 9349SOL    HW139680   2.538   1.334   2.681  1.1276 -0.5245  3.1371
 9349SOL    HW239681   2.659   1.385   2.617 -1.2819  1.0719  0.5856
 9350SOL     OW39682   3.293   4.184   4.007 -0.7185 -0.1283 -0.0746
 9350SOL    HW139683   3.210   4.215   3.971 -0.8920  0.3234  0.7220
 9350SOL    HW239684   3.348   4.210   3.933 -0.9245  1.4435  0.3280
 9351SOL     OW39685   1.306   4.010   2.495  0.3459  0.4966  0.2010
 9351SOL    HW139686   1.359   4.051   2.564  3.6499  0.2471 -2.2108
 9351SOL    HW239687   1.221   4.051   2.513  0.8179  0.8242  1.7118
 9352SOL     OW39688   0.901   1.561   9.719  0.7180 -0.5846  0.4926
 9352SOL    HW139689   0.853   1.638   9.751  1.3242 -0.0889  0.2219
 9352SOL    HW239690   0.986   1.604   9.733 -0.1601  0.7692  1.6785
 9353SOL     OW39691   3.463   2.222   5.936  0.1811 -0.1960  0.1603
 9353SOL    HW139692   3.385   2.221   5.882 -0.6503 -0.9019  1.3581
 9353SOL    HW239693   3.491   2.312   5.922  2.7580 -1.0563 -0.2711
 9354SOL     OW39694   0.396   2.081   4.109 -0.7771  0.0465  0.3603
 9354SOL    HW139695   0.446   2.158   4.084  0.5413 -1.1521 -0.6875
 9354SOL    HW239696   0.348   2.070   4.027  0.5330 -3.9780  0.1292
 9355SOL     OW39697   4.118   3.307   0.938 -0.0828  0.4095  1.0722
 9355SOL    HW139698   4.028   3.283   0.960  0.1130 -1.6962 -0.4103
 9355SOL    HW239699   4.106   3.387   0.887  1.9582 -0.7108 -1.1893
 9356SOL     OW39700   1.938   3.806   7.081 -0.4446 -0.5003 -0.5776
 9356SOL    HW139701   1.930   3.816   6.987  0.4069 -1.6374 -0.7649
 9356SOL    HW239702   2.009   3.866   7.104 -1.1415  0.5250 -1.1206
 9357SOL     OW39703   3.292   0.516   8.222 -0.4894 -0.3648 -0.0741
 9357SOL    HW139704   3.238   0.477   8.291  1.0364 -1.7113  0.3713
 9357SOL    HW239705   3.236   0.587   8.191 -1.4135 -0.6450  0.9883
 9358SOL     OW39706   1.225   0.824   8.386 -0.3120 -0.0790 -0.0619
 9358SOL    HW139707   1.208   0.888   8.455  0.8402 -1.6178  1.6349
 9358SOL    HW239708   1.307   0.859   8.351 -0.0651  0.0521  0.6500
 9359SOL     OW39709   4.335   1.695  16.195 -0.1788 -0.5393  0.3123
 9359SOL    HW139710   4.263   1.755  16.179 -0.9554 -1.0921  1.6796
 9359SOL    HW239711   4.297   1.609  16.212 -0.8077  0.5141  4.2593
 9360SOL     OW39712   4.701   2.707  15.408 -0.1227 -0.1385  0.0827
 9360SOL    HW139713   0.034   2.640  15.412  1.3016  1.2486 -1.8138
 9360SOL    HW239714   4.713   2.741  15.497 -0.7234 -0.4517  0.2872
 9361SOL     OW39715   4.513   2.665   5.255 -0.2534  0.0952 -0.0829
 9361SOL    HW139716   4.470   2.630   5.334  2.1552  1.3340  1.7766
 9361SOL    HW239717   4.503   2.760   5.268 -0.5551  0.4781 -3.1451
 9362SOL     OW39718   3.170   3.269   1.800 -0.0654  0.2692 -0.6599
 9362SOL    HW139719   3.227   3.193   1.805 -1.7272 -0.9313 -0.1681
 9362SOL    HW239720   3.205   3.329   1.866  1.8399 -2.9640  1.2824
 9363SOL     OW39721   3.350   1.936  11.169  0.5727 -0.0141  0.4270
 9363SOL    HW139722   3.320   1.956  11.081 -0.1304 -2.7775  0.0423
 9363SOL    HW239723   3.444   1.943  11.154  0.7691 -2.5907  0.5380
 9364SOL     OW39724   0.097   0.950   3.375  0.0866  0.4416 -0.3110
 9364SOL    HW139725   0.154   0.927   3.302  0.3311 -1.7593  0.5826
 9364SOL    HW239726   0.093   0.872   3.430 -0.8291  0.6872 -0.0242
 9365SOL     OW39727   0.190   3.039   0.795  0.5225 -0.0079 -0.2626
 9365SOL    HW139728   0.145   3.117   0.830 -1.8714 -1.6374  0.2992
 9365SOL    HW239729   0.156   2.966   0.846 -0.4861 -0.2484 -1.2782
 9366SOL     OW39730   2.701   0.764  16.544 -0.0382  0.3253  0.3397
 9366SOL    HW139731   2.638   0.837  16.549  1.7420  2.1678 -4.1452
 9366SOL    HW239732   2.649   0.699  16.497 -0.7622  0.6239  0.7211
 9367SOL     OW39733   3.943   1.870   5.840 -0.1450  0.1868  0.0055
 9367SOL    HW139734   3.973   1.897   5.927 -1.0895  1.5521 -0.0756
 9367SOL    HW239735   3.853   1.846   5.863 -1.1890  1.2674 -2.9542
 9368SOL     OW39736   3.682   3.324   8.173 -0.5517  0.1863 -0.7789
 9368SOL    HW139737   3.690   3.298   8.081 -1.0405 -0.9408 -0.5030
 9368SOL    HW239738   3.713   3.243   8.212 -2.8782 -0.1011  0.4820
 9369SOL     OW39739   3.162   2.242   3.996 -0.1697  0.0078 -0.3817
 9369SOL    HW139740   3.196   2.308   4.057  2.3582 -2.7943  1.2090
 9369SOL    HW239741   3.119   2.181   4.055  0.0691  0.2533  0.0476
 9370SOL     OW39742   1.525   3.743   7.735 -0.3216  0.0170 -0.0111
 9370SOL    HW139743   1.536   3.776   7.646  2.0204  0.0514  0.2879
 9370SOL    HW239744   1.558   3.811   7.794  0.5699  0.6374 -1.2349
 9371SOL     OW39745   4.615   2.523   8.265  0.5705 -0.6061  0.2951
 9371SOL    HW139746   4.668   2.443   8.272 -0.3123 -1.0350  2.1208
 9371SOL    HW239747   4.570   2.527   8.350  1.3670 -0.3958  0.7026
 9372SOL     OW39748   1.294   2.417   3.632  0.2732  0.4847 -0.0135
 9372SOL    HW139749   1.331   2.479   3.695  0.3579  1.7259 -1.2695
 9372SOL    HW239750   1.362   2.422   3.564  0.3836 -2.0371 -0.0653
 9373SOL     OW39751   3.285   0.550   7.142 -0.0564 -0.0809 -0.3147
 9373SOL    HW139752   3.312   0.628   7.094  2.1677  0.0752  1.1712
 9373SOL    HW239753   3.326   0.563   7.228  1.9820 -4.7419 -0.6092
 9374SOL     OW39754   3.312   4.520   8.881  0.5688  0.1155 -0.4539
 9374SOL    HW139755   3.378   4.559   8.823 -2.5382  2.2269 -2.5495
 9374SOL    HW239756   3.318   4.572   8.961 -0.6278  2.1396 -1.6681
 9375SOL     OW39757   4.191   3.791   6.891 -0.1311 -0.3191  0.0951
 9375SOL    HW139758   4.096   3.785   6.881 -0.0426 -1.2370 -0.2207
 9375SOL    HW239759   4.195   3.883   6.864  1.6473 -0.1233  1.0613
 9376SOL     OW39760   0.229   2.973  17.492 -0.7578  0.5527  0.0657
 9376SOL    HW139761   0.140   2.958  17.460 -0.6085 -1.4127  0.5714
 9376SOL    HW239762   0.215   3.056  17.537 -1.3462 -0.3719  1.5535
 9377SOL     OW39763   2.191   3.258   3.402  0.2695 -0.3606 -0.0771
 9377SOL    HW139764   2.259   3.247   3.335  0.0276 -0.1504 -0.3567
 9377SOL    HW239765   2.234   3.314   3.467 -0.7824  0.0429  0.2687
 9378SOL     OW39766   0.954   2.525  12.935 -0.3074 -0.7449  0.1543
 9378SOL    HW139767   0.904   2.592  12.980 -0.1944  0.6558 -1.8138
 9378SOL    HW239768   0.935   2.549  12.844  2.5376 -0.6049 -0.4039
 9379SOL     OW39769   3.030   2.140   9.472 -0.3846  0.3569 -0.0690
 9379SOL    HW139770   3.017   2.046   9.460 -0.2496  0.0346  2.2848
 9379SOL    HW239771   3.122   2.139   9.499 -0.5562 -1.0241  0.4807
 9380SOL     OW39772   1.242   1.881  14.858 -0.0352  0.4073 -0.1047
 9380SOL    HW139773   1.296   1.947  14.901  0.2857 -0.7169  1.2239
 9380SOL    HW239774   1.316   1.826  14.831 -0.6672 -1.0151  1.0564
 9381SOL     OW39775   2.743   2.141  11.267  0.6169  0.2199 -0.0899
 9381SOL    HW139776   2.763   2.105  11.180 -1.7071 -1.7883  0.2043
 9381SOL    HW239777   2.756   2.235  11.261  1.2940 -0.0191 -2.5513
 9382SOL     OW39778   1.005   0.614   2.349  0.1794 -0.2756 -0.2990
 9382SOL    HW139779   1.083   0.654   2.389 -0.8506  0.3567  1.0746
 9382SOL    HW239780   1.015   0.661   2.266 -2.1775 -2.2623 -1.6900
 9383SOL     OW39781   1.930   0.943   8.518  0.3309  0.2912 -1.0294
 9383SOL    HW139782   1.960   0.965   8.429  0.5868 -0.1824 -1.0566
 9383SOL    HW239783   1.910   0.850   8.509 -4.5000  1.1766  0.7948
 9384SOL     OW39784   1.411   0.480   5.301  0.1048  0.7918 -0.2802
 9384SOL    HW139785   1.389   0.496   5.393 -0.3090  0.4072 -0.3116
 9384SOL    HW239786   1.322   0.478   5.268  0.4571  1.2464 -1.2504
 9385SOL     OW39787   2.930   1.032  10.062  0.0109  0.1996  0.4845
 9385SOL    HW139788   2.880   1.029  10.144  0.0231 -2.4436  0.3991
 9385SOL    HW239789   2.871   1.067   9.995  0.8762 -0.8683 -0.8224
 9386SOL     OW39790   2.186   2.286  16.713  0.0255 -0.2402 -0.0256
 9386SOL    HW139791   2.188   2.365  16.660  0.0314 -0.4882 -0.3965
 9386SOL    HW239792   2.108   2.302  16.767  0.0556  0.9096 -0.3322
 9387SOL     OW39793   3.360   0.481  17.251  0.5166  0.3126 -0.4414
 9387SOL    HW139794   3.300   0.406  17.256  0.0533  0.6058 -1.6045
 9387SOL    HW239795   3.337   0.525  17.334  1.1505 -0.6315  0.2334
 9388SOL     OW39796   3.129   1.866   7.090  0.2376 -0.6164 -0.0644
 9388SOL    HW139797   3.060   1.813   7.130 -1.0921 -0.0936 -1.6631
 9388SOL    HW239798   3.081   1.902   7.016  0.3434 -0.2540  0.0440
 9389SOL     OW39799   0.080   3.164  17.650 -0.0431  0.0451 -0.3686
 9389SOL    HW139800   4.732   3.172  17.695  1.0353  1.7286  1.3817
 9389SOL    HW239801   0.094   3.252  17.614 -1.4473  0.4662  0.1299
 9390SOL     OW39802   1.670   4.426   9.572 -0.3020 -0.4752 -0.4529
 9390SOL    HW139803   1.718   4.364   9.516  1.0195  1.3271 -1.2859
 9390SOL    HW239804   1.596   4.377   9.610 -0.6107  0.5804  0.2785
 9391SOL     OW39805   3.025   0.466  11.736  0.0536  0.6450 -0.2890
 9391SOL    HW139806   2.937   0.499  11.752 -0.2615 -0.1407 -0.3792
 9391SOL    HW239807   3.044   0.529  11.667  0.1034 -1.0286 -1.7929
 9392SOL     OW39808   0.781   2.180   7.968  0.6743  0.3278  0.3709
 9392SOL    HW139809   0.819   2.152   8.051  1.4873  3.9571  1.2188
 9392SOL    HW239810   0.777   2.274   7.984 -2.3708 -0.0567  1.9556
 9393SOL     OW39811   0.184   3.516   2.665 -0.5554 -0.3041  0.4031
 9393SOL    HW139812   0.159   3.602   2.697  0.3010 -0.0928  0.5145
 9393SOL    HW239813   0.166   3.524   2.571  0.5080 -1.0282  0.1286
 9394SOL     OW39814   0.518   3.001  11.626 -0.0071 -0.1211  0.3146
 9394SOL    HW139815   0.440   2.999  11.572 -0.0214 -0.3515  0.3419
 9394SOL    HW239816   0.554   2.912  11.628 -0.1165 -0.1210  3.1093
 9395SOL     OW39817   0.586   2.377  14.009 -0.2683  0.6577 -0.3118
 9395SOL    HW139818   0.613   2.285  14.020  0.5739  0.7824 -1.3239
 9395SOL    HW239819   0.654   2.408  13.949  1.2839 -1.5599  0.3024
 9396SOL     OW39820   0.889   2.857   4.927 -0.4588  0.1613  0.2645
 9396SOL    HW139821   0.931   2.857   5.013  2.4010  2.3907 -1.1423
 9396SOL    HW239822   0.868   2.763   4.933 -2.2976  0.6726  1.9900
 9397SOL     OW39823   4.494   1.849   2.607 -0.3809  0.0572 -0.7865
 9397SOL    HW139824   4.449   1.906   2.670  2.2588  1.3564 -0.0432
 9397SOL    HW239825   4.420   1.821   2.554 -1.2121 -1.4008  1.1573
 9398SOL     OW39826   0.208   0.927   7.715  0.0259  0.1362  0.5485
 9398SOL    HW139827   0.270   0.862   7.747  0.4715 -0.1551 -0.9094
 9398SOL    HW239828   0.215   0.988   7.788  0.4921 -0.1398  0.7305
 9399SOL     OW39829   2.094   1.013  12.738 -0.0275  0.3315  0.2621
 9399SOL    HW139830   2.183   1.002  12.705 -0.4030 -0.3290 -0.5603
 9399SOL    HW239831   2.048   1.064  12.671  0.4727  1.4769  0.7918
 9400SOL     OW39832   1.254   2.557   8.648  0.3857  1.1986  0.3550
 9400SOL    HW139833   1.328   2.596   8.696  0.3822  1.5715  0.0581
 9400SOL    HW239834   1.309   2.544   8.571  1.1740  0.7318  1.0013
 9401SOL     OW39835   2.204   2.529   4.264 -0.3299  0.4452 -0.2470
 9401SOL    HW139836   2.277   2.475   4.294  0.4942  1.9440  0.4132
 9401SOL    HW239837   2.190   2.515   4.171  0.6848  1.2002 -0.5105
 9402SOL     OW39838   3.415   4.017  16.526 -0.0192 -0.5474 -0.0415
 9402SOL    HW139839   3.502   3.996  16.492 -0.8792 -1.7003 -1.5588
 9402SOL    HW239840   3.369   3.934  16.537 -0.5267 -0.1744  0.6906
 9403SOL     OW39841   2.408   3.862   4.204 -0.0640  0.2986 -0.1859
 9403SOL    HW139842   2.480   3.923   4.223 -1.0737  1.5245 -0.2553
 9403SOL    HW239843   2.341   3.874   4.271 -0.3449 -1.4630 -0.1634
 9404SOL     OW39844   0.434   3.831   6.410 -0.3819 -0.0609  0.3951
 9404SOL    HW139845   0.348   3.860   6.380 -0.9760 -1.5181  0.7103
 9404SOL    HW239846   0.471   3.917   6.429  1.4590 -0.8175  0.2389
 9405SOL     OW39847   2.474   0.530   6.032  0.1399 -0.2245 -0.4183
 9405SOL    HW139848   2.531   0.596   6.073 -0.7088 -0.6146  1.3930
 9405SOL    HW239849   2.542   0.490   5.978  2.1314  2.8049 -0.1887
 9406SOL     OW39850   2.271   1.334   3.712 -0.0249 -0.0865 -0.0710
 9406SOL    HW139851   2.279   1.317   3.618 -0.5346  0.0826 -0.1466
 9406SOL    HW239852   2.331   1.266   3.743  2.3931  2.0861  0.0271
 9407SOL     OW39853   0.688   0.075  10.815 -0.8447  0.5537  0.0976
 9407SOL    HW139854   0.670   4.718  10.827 -0.9841  0.6851  0.8791
 9407SOL    HW239855   0.735   0.105  10.893  0.1268 -0.4059 -0.1085
 9408SOL     OW39856   3.416   3.955   5.143  0.3467  0.2663 -0.3246
 9408SOL    HW139857   3.408   3.861   5.158  1.9679  0.1254 -0.2686
 9408SOL    HW239858   3.455   3.987   5.224  1.2939 -0.3176 -0.5383
 9409SOL     OW39859   3.333   0.641   7.430 -0.1639  0.2219 -0.4084
 9409SOL    HW139860   3.309   0.726   7.465  0.0966  1.1791 -2.5755
 9409SOL    HW239861   3.428   0.646   7.427 -0.0989  0.3895  2.1734
 9410SOL     OW39862   0.703   1.614   1.458 -0.1460  0.0576 -0.5523
 9410SOL    HW139863   0.766   1.542   1.449 -0.8866 -0.5825 -0.5693
 9410SOL    HW239864   0.726   1.648   1.545 -0.2340 -2.3585  0.4079
 9411SOL     OW39865   1.374   0.366   1.640  0.5891  0.0650 -0.0816
 9411SOL    HW139866   1.336   0.444   1.679 -0.8183 -1.0031  0.6603
 9411SOL    HW239867   1.344   0.370   1.549  1.8350  0.0067 -0.4933
 9412SOL     OW39868   3.205   2.319   4.982  0.0528  0.0654 -0.1804
 9412SOL    HW139869   3.133   2.353   4.930 -1.3046 -0.3937  1.4233
 9412SOL    HW239870   3.245   2.269   4.910 -2.2095 -0.1198 -1.2996
 9413SOL     OW39871   3.420   2.114   2.931 -0.1902 -0.3178 -0.1910
 9413SOL    HW139872   3.483   2.176   2.968 -1.9989 -0.4588  3.0614
 9413SOL    HW239873   3.461   2.075   2.853  0.6917  0.4922 -0.1318
 9414SOL     OW39874   2.456   4.449   8.870 -0.2189 -0.5411  0.0929
 9414SOL    HW139875   2.504   4.405   8.800 -2.1772 -0.9313 -1.0214
 9414SOL    HW239876   2.421   4.526   8.825  1.4589  0.0146 -0.2211
 9415SOL     OW39877   3.759   0.772  13.155 -0.3806  0.0019 -0.0009
 9415SOL    HW139878   3.853   0.788  13.143 -0.4434  0.3907  0.0178
 9415SOL    HW239879   3.716   0.857  13.164  0.0427  0.0737  1.3874
 9416SOL     OW39880   2.491   3.189   2.090  0.5918 -0.4320 -0.9502
 9416SOL    HW139881   2.471   3.227   2.176 -3.1335  0.5917 -2.2325
 9416SOL    HW239882   2.429   3.116   2.086  0.5777 -0.5463  1.3169
 9417SOL     OW39883   3.159   0.675  17.734  0.1742 -0.2387 -0.2058
 9417SOL    HW139884   3.144   0.594   0.041  1.2108  0.6526  1.5600
 9417SOL    HW239885   3.174   0.737   0.063  2.6709  1.7181 -2.4240
 9418SOL     OW39886   2.993   4.734   4.366  0.4736  0.0105 -0.0908
 9418SOL    HW139887   2.991   4.644   4.400 -1.0471  0.4400  0.9683
 9418SOL    HW239888   3.020   4.723   4.275 -0.3503  0.5676 -0.4059
 9419SOL     OW39889   0.992   0.284   5.628  0.5908 -0.0010  0.1540
 9419SOL    HW139890   1.015   0.209   5.574 -0.8555 -0.9967  0.9403
 9419SOL    HW239891   0.995   0.351   5.559 -0.8376  0.2277  0.3076
 9420SOL     OW39892   4.015   1.411   3.005 -0.5868 -0.1174  0.1524
 9420SOL    HW139893   4.087   1.348   2.999 -0.0053  0.6204 -0.7373
 9420SOL    HW239894   4.008   1.449   2.917  4.6425  1.6759  0.4701
 9421SOL     OW39895   4.481   1.501   5.060 -0.5236 -0.0236 -0.1160
 9421SOL    HW139896   4.520   1.573   5.010 -0.6661  0.1817  0.0679
 9421SOL    HW239897   4.414   1.552   5.106 -2.9465 -0.8296 -2.7026
 9422SOL     OW39898   2.187   1.301   2.892 -0.3936 -0.1177  0.3003
 9422SOL    HW139899   2.125   1.369   2.867 -0.6792 -0.5326 -0.1385
 9422SOL    HW239900   2.272   1.342   2.906  0.5145 -1.5013 -1.0803
 9423SOL     OW39901   2.970   4.478   6.182 -0.3142  0.4998 -0.5142
 9423SOL    HW139902   2.966   4.407   6.245  1.1165  0.3855 -0.5446
 9423SOL    HW239903   3.054   4.467   6.138  1.0499  1.0937  1.9356
 9424SOL     OW39904   4.573   1.033   5.476  0.1286 -0.1527  0.2851
 9424SOL    HW139905   4.515   1.035   5.400  0.0076 -2.0728  0.3116
 9424SOL    HW239906   4.640   0.969   5.450  0.2243  0.5960 -1.2854
 9425SOL     OW39907   2.703   0.782  17.057 -0.0385  0.1794 -0.3451
 9425SOL    HW139908   2.707   0.870  17.020 -0.0351  0.4037  0.2008
 9425SOL    HW239909   2.617   0.751  17.026 -0.2224 -0.0824  0.4381
 9426SOL     OW39910   0.565   2.099   1.991  0.0128 -0.0351  0.2401
 9426SOL    HW139911   0.495   2.162   1.980  0.1852  0.2728  0.8920
 9426SOL    HW239912   0.511   2.020   1.995  2.7449 -1.8721  1.0831
 9427SOL     OW39913   4.257   4.419   8.688 -0.0346 -0.0984 -0.7691
 9427SOL    HW139914   4.207   4.355   8.738  0.0511 -0.9719 -1.7849
 9427SOL    HW239915   4.253   4.491   8.751  0.0941 -0.2263 -0.6147
 9428SOL     OW39916   2.032   2.627   1.308 -0.1679 -0.2897 -0.2485
 9428SOL    HW139917   2.038   2.534   1.333 -1.1320 -0.3798 -0.3778
 9428SOL    HW239918   2.112   2.637   1.256  1.0573 -0.5446  1.5887
 9429SOL     OW39919   4.310   2.693   8.872 -0.2409 -0.5014 -0.1421
 9429SOL    HW139920   4.312   2.763   8.938 -1.0317 -0.4548 -0.1625
 9429SOL    HW239921   4.239   2.728   8.818 -1.9272 -1.8859  1.1504
 9430SOL     OW39922   1.540   1.093   6.055  0.3282  0.4291  0.3502
 9430SOL    HW139923   1.619   1.146   6.053  1.8702 -1.8567  0.7666
 9430SOL    HW239924   1.490   1.125   5.980 -0.4433 -0.3423  0.5319
 9431SOL     OW39925   4.303   2.301   4.180  0.1780  0.2732 -0.2030
 9431SOL    HW139926   4.216   2.290   4.141  1.1600  0.7031 -2.4883
 9431SOL    HW239927   4.288   2.226   4.238  0.1759 -0.1066 -0.6928
 9432SOL     OW39928   2.102   1.999   4.261 -0.2239 -0.1616  0.3941
 9432SOL    HW139929   2.082   2.091   4.244 -0.6829 -0.5620 -1.2339
 9432SOL    HW239930   2.016   1.956   4.261 -0.1693 -0.2663 -0.4002
 9433SOL     OW39931   3.828   4.447   3.235  0.4398 -0.0697  0.0293
 9433SOL    HW139932   3.797   4.533   3.264 -0.2586  0.0373 -1.0260
 9433SOL    HW239933   3.744   4.403   3.230 -0.7156  2.3419 -1.8097
 9434SOL     OW39934   2.614   1.457   4.138 -0.7340 -0.1744 -0.6576
 9434SOL    HW139935   2.679   1.523   4.161  0.0451 -1.2941  0.3791
 9434SOL    HW239936   2.664   1.392   4.088 -0.3324 -0.2992 -0.0997
 9435SOL     OW39937   3.562   1.044   9.163 -0.8292  0.2992 -1.0481
 9435SOL    HW139938   3.608   1.084   9.237  1.1318 -0.7466 -1.7087
 9435SOL    HW239939   3.629   1.019   9.100  0.0715 -1.5759  0.6725
 9436SOL     OW39940   1.911   1.017   5.247  0.2913  0.4981 -0.1907
 9436SOL    HW139941   1.985   0.994   5.191  0.8237  1.2474  0.2077
 9436SOL    HW239942   1.970   1.054   5.312  0.9692  1.6519 -1.4503
 9437SOL     OW39943   4.044   2.932   1.007  0.2650 -0.0667 -0.0331
 9437SOL    HW139944   4.119   2.936   1.066 -0.6076 -2.2685  1.2135
 9437SOL    HW239945   4.084   2.887   0.932  0.9473  2.7530 -1.3460
 9438SOL     OW39946   3.902   3.791   3.557 -0.6383 -0.2917  0.1160
 9438SOL    HW139947   3.888   3.872   3.507  2.1048  0.5133  0.6516
 9438SOL    HW239948   3.812   3.775   3.583 -1.1086 -0.2169 -1.4434
 9439SOL     OW39949   4.639   2.696  16.383 -0.5947 -0.4737  0.1641
 9439SOL    HW139950   4.721   2.658  16.353 -1.1546  0.3096 -2.3493
 9439SOL    HW239951   4.600   2.625  16.435  1.0534  0.1022  2.1709
 9440SOL     OW39952   1.482   3.503  13.002  0.0835 -0.3007  0.4327
 9440SOL    HW139953   1.512   3.414  12.987  2.0237  0.4643 -0.2490
 9440SOL    HW239954   1.540   3.555  12.946  0.7103  1.0689  2.3223
 9441SOL     OW39955   0.250   4.275   3.186  0.3668  0.6980 -0.9208
 9441SOL    HW139956   0.265   4.328   3.264  0.8824 -1.1602  0.2401
 9441SOL    HW239957   0.322   4.211   3.184  0.0510  0.2941  0.5324
 9442SOL     OW39958   2.272   3.209  13.173  0.2108 -0.2877 -0.1845
 9442SOL    HW139959   2.218   3.160  13.234  0.8008 -0.3331  0.3017
 9442SOL    HW239960   2.339   3.237  13.235 -0.9596  0.6252  0.6627
 9443SOL     OW39961   1.286   0.677   7.997 -0.7380  0.2317 -0.1633
 9443SOL    HW139962   1.363   0.652   7.946  0.5852  0.8831  1.5302
 9443SOL    HW239963   1.331   0.731   8.061 -1.5111  1.6593 -0.8134
 9444SOL     OW39964   1.516   0.724   2.675  0.4206  0.3022  0.2394
 9444SOL    HW139965   1.570   0.774   2.614 -0.1201  0.4663 -0.1105
 9444SOL    HW239966   1.541   0.633   2.664  0.8408  0.3593  0.7605
 9445SOL     OW39967   0.552   3.972   6.075  0.4002 -0.7165  0.3949
 9445SOL    HW139968   0.556   3.993   5.982 -2.2338  1.6341  0.7890
 9445SOL    HW239969   0.552   3.876   6.075  0.9302 -0.7141  0.0040
 9446SOL     OW39970   2.735   2.824   9.625  0.3407 -0.5769 -0.1942
 9446SOL    HW139971   2.821   2.851   9.591 -1.0470  1.9056 -1.7583
 9446SOL    HW239972   2.713   2.895   9.686  1.0549  1.2117 -1.9989
 9447SOL     OW39973   2.139   0.750   5.384 -0.3586  0.3948  0.8704
 9447SOL    HW139974   2.178   0.836   5.365 -2.1415  0.3894 -2.8774
 9447SOL    HW239975   2.076   0.732   5.314  0.9861 -1.8000  0.2530
 9448SOL     OW39976   1.449   2.283   5.397 -0.0845 -0.0100  0.1470
 9448SOL    HW139977   1.537   2.254   5.420 -0.5907 -2.2498 -0.7265
 9448SOL    HW239978   1.412   2.196   5.382  1.5832 -0.7587  0.4180
 9449SOL     OW39979   4.406   2.184  12.261  0.0156  0.3020 -0.5136
 9449SOL    HW139980   4.354   2.117  12.306  2.4241 -0.9025  0.4196
 9449SOL    HW239981   4.478   2.207  12.319  1.4695 -0.5116 -1.9925
 9450SOL     OW39982   1.669   3.881   5.262  0.1693 -0.4095 -0.1112
 9450SOL    HW139983   1.639   3.794   5.234 -2.7069  0.5653 -0.0036
 9450SOL    HW239984   1.730   3.863   5.334 -0.6388  0.6053  0.8158
 9451SOL     OW39985   0.228   1.881   0.913  0.1538  0.5958 -0.1515
 9451SOL    HW139986   0.175   1.961   0.906 -0.1126  0.3110 -1.4663
 9451SOL    HW239987   0.269   1.890   0.827 -0.5784 -0.8825 -0.6479
 9452SOL     OW39988   0.443   2.030  11.165 -0.2021 -0.5282 -0.4242
 9452SOL    HW139989   0.368   2.078  11.132 -1.5050 -0.4525  2.7184
 9452SOL    HW239990   0.502   2.104  11.177 -0.9826 -0.0587  0.4564
 9453SOL     OW39991   0.704   3.657   3.446  0.5386 -0.4670 -0.0890
 9453SOL    HW139992   0.689   3.590   3.379  1.8042 -1.2297  0.3832
 9453SOL    HW239993   0.681   3.726   3.384 -2.3443 -2.0161 -0.7370
 9454SOL     OW39994   2.708   4.615   9.160  0.3585 -0.4734 -0.1034
 9454SOL    HW139995   2.774   4.665   9.111  0.6009  1.2626  2.0197
 9454SOL    HW239996   2.625   4.652   9.130 -0.7250 -0.6274  2.7033
 9455SOL     OW39997   1.794   3.890  11.115 -0.1613  0.0481  0.5844
 9455SOL    HW139998   1.881   3.896  11.156 -1.2277  1.0013  2.7494
 9455SOL    HW239999   1.828   3.868  11.029 -2.5963  0.0383 -0.3731
 9456SOL     OW40000   2.897   1.266   6.959 -0.1467 -0.6498  0.5854
 9456SOL    HW140001   2.814   1.252   6.914  0.6075  1.4116 -1.4559
 9456SOL    HW240002   2.925   1.175   6.969  2.6116  0.2600  1.1317
 9457SOL     OW40003   4.515   2.141   1.812 -0.2506  0.4723 -0.5559
 9457SOL    HW140004   4.458   2.065   1.802  0.8231 -0.0639 -2.4996
 9457SOL    HW240005   4.589   2.119   1.756  0.0955 -0.5578  0.3125
 9458SOL     OW40006   1.071   2.377  13.867 -0.3119 -0.2431 -0.0691
 9458SOL    HW140007   1.133   2.447  13.846  0.7871 -0.7510  1.4803
 9458SOL    HW240008   1.051   2.407  13.956  0.3579  2.2122 -0.7356
 9459SOL     OW40009   0.818   2.474   3.813  0.2807 -0.2637 -0.2229
 9459SOL    HW140010   0.844   2.564   3.836  1.5852 -0.2092 -1.9426
 9459SOL    HW240011   0.727   2.479   3.787 -0.0248  2.2138  1.3016
 9460SOL     OW40012   2.459   2.658   5.564 -0.4957 -0.2953  0.3953
 9460SOL    HW140013   2.388   2.597   5.579 -0.4208 -0.2260  1.0277
 9460SOL    HW240014   2.493   2.629   5.480  1.8964 -1.4192  1.7544
 9461SOL     OW40015   2.845   3.634   6.276  0.0578 -0.1208 -0.1744
 9461SOL    HW140016   2.842   3.658   6.369  1.1774 -0.8917  0.0671
 9461SOL    HW240017   2.810   3.544   6.279 -0.1290  0.0017  1.2445
 9462SOL     OW40018   0.800   2.184   4.564 -0.7385  0.1681  0.2304
 9462SOL    HW140019   0.856   2.207   4.638 -0.6939  2.5385 -0.5356
 9462SOL    HW240020   0.720   2.233   4.583 -1.0844 -0.0016 -0.7823
 9463SOL     OW40021   3.502   2.562   6.760 -0.4058  0.6951 -0.1311
 9463SOL    HW140022   3.564   2.506   6.807 -1.1929  1.1817  1.4869
 9463SOL    HW240023   3.473   2.622   6.829 -0.2476  1.5063 -0.7749
 9464SOL     OW40024   3.850   2.580   2.499 -0.0873 -0.3770  0.0960
 9464SOL    HW140025   3.780   2.644   2.485  0.1693 -0.0329  0.4134
 9464SOL    HW240026   3.832   2.510   2.436 -0.0420  0.6922 -1.1143
 9465SOL     OW40027   3.999   2.871  15.321 -0.4129  0.2660 -0.1476
 9465SOL    HW140028   3.982   2.953  15.366  0.3723 -0.1733  0.9689
 9465SOL    HW240029   4.079   2.886  15.270 -0.8736 -1.6247 -1.4362
 9466SOL     OW40030   1.055   2.621  15.621 -0.1763  0.2512 -0.2287
 9466SOL    HW140031   1.103   2.551  15.664  0.8521  0.3869 -1.1519
 9466SOL    HW240032   1.086   2.695  15.673  1.5886 -0.2754 -0.5331
 9467SOL     OW40033   3.226   4.019  14.655 -0.5543  0.0463  0.2127
 9467SOL    HW140034   3.221   4.084  14.725  2.7857 -0.2076  0.7287
 9467SOL    HW240035   3.188   4.069  14.583  1.0191  1.8138  0.5957
 9468SOL     OW40036   1.241   2.526   1.154 -0.0926  0.4138  0.1074
 9468SOL    HW140037   1.148   2.503   1.148 -0.1272  0.6155 -0.1327
 9468SOL    HW240038   1.237   2.622   1.153 -1.4212  0.3457 -2.2561
 9469SOL     OW40039   4.618   3.175   4.959 -0.1435  0.4745 -0.4794
 9469SOL    HW140040   4.663   3.202   5.039  2.2566 -2.4287 -0.8819
 9469SOL    HW240041   4.541   3.130   4.993 -0.9137  0.6871 -1.9303
 9470SOL     OW40042   1.218   1.140   2.501  0.6147 -0.3152  0.0581
 9470SOL    HW140043   1.250   1.174   2.418  2.6558  2.8129  2.1370
 9470SOL    HW240044   1.303   1.122   2.542  0.3483 -1.4590  0.0991
 9471SOL     OW40045   0.172   2.921  16.973  0.0083  0.2864  0.0747
 9471SOL    HW140046   0.155   2.904  16.881 -1.9077  0.3635  0.4182
 9471SOL    HW240047   0.258   2.879  16.978  0.0720  0.3776 -0.2477
 9472SOL     OW40048   0.425   2.724   6.451 -0.0127 -0.0262 -0.1386
 9472SOL    HW140049   0.486   2.679   6.393 -1.4105 -1.0104 -0.8605
 9472SOL    HW240050   0.478   2.797   6.484  1.5494 -1.1616 -0.1369
 9473SOL     OW40051   3.512   3.581  10.135 -0.3540 -0.1290  0.1229
 9473SOL    HW140052   3.598   3.556  10.101 -0.0225 -0.0780  0.9245
 9473SOL    HW240053   3.455   3.576  10.058  0.9958  2.3819 -1.0305
 9474SOL     OW40054   0.000   4.633  11.412 -0.5502  0.5938 -0.3931
 9474SOL    HW140055   4.683   4.559  11.441 -0.5992 -0.2745 -2.7231
 9474SOL    HW240056   0.009   4.683  11.493  1.3654  0.1891 -0.3396
 9475SOL     OW40057   2.603   4.613   3.317  0.2228 -0.1355 -0.2523
 9475SOL    HW140058   2.550   4.624   3.396 -0.8900 -1.2665 -0.8403
 9475SOL    HW240059   2.596   4.702   3.284 -0.2402  0.3254  1.0718
 9476SOL     OW40060   2.072   1.806   7.700  0.0113  0.1197  0.0552
 9476SOL    HW140061   2.109   1.803   7.788  0.6672 -0.3096 -0.2354
 9476SOL    HW240062   2.115   1.732   7.656  0.8372  1.2633 -1.0653
 9477SOL     OW40063   3.288   2.727   9.331 -0.1306  0.4692 -0.0913
 9477SOL    HW140064   3.353   2.693   9.270  2.2499  2.6695  1.2475
 9477SOL    HW240065   3.276   2.650   9.387 -0.9690 -0.6283 -1.7668
 9478SOL     OW40066   2.320   4.532  17.628  0.3032  0.0034 -0.2940
 9478SOL    HW140067   2.408   4.494  17.625  0.6268  0.9779 -2.7556
 9478SOL    HW240068   2.288   4.504  17.714 -0.3135  0.1141 -0.4858
 9479SOL     OW40069   3.715   4.352   0.970 -0.5047  0.1154 -0.2516
 9479SOL    HW140070   3.711   4.265   0.932 -1.8282  1.8512 -4.0435
 9479SOL    HW240071   3.797   4.352   1.020  0.9611 -1.7330 -2.6458
 9480SOL     OW40072   0.587   0.459   2.206  0.2488 -0.1135 -0.4447
 9480SOL    HW140073   0.642   0.532   2.235  0.1471 -0.9849  1.8685
 9480SOL    HW240074   0.613   0.394   2.271  1.3337  1.1484  0.3747
 9481SOL     OW40075   0.710   1.809   3.197  0.2266  0.4589 -0.1683
 9481SOL    HW140076   0.773   1.737   3.193  0.4872  0.6833 -0.0816
 9481SOL    HW240077   0.739   1.840   3.283  0.5781 -1.6303  0.4568
 9482SOL     OW40078   2.603   1.910   2.142 -0.9414 -0.9425  0.2969
 9482SOL    HW140079   2.647   1.990   2.114 -3.9754  0.8176  0.5494
 9482SOL    HW240080   2.640   1.904   2.230 -1.9286  1.5966  0.8807
 9483SOL     OW40081   1.206   3.010  17.487 -0.0436  0.1060  0.2662
 9483SOL    HW140082   1.205   2.927  17.440 -1.6985  0.1336  0.2348
 9483SOL    HW240083   1.190   3.064  17.410  1.9496 -0.1990 -0.3508
 9484SOL     OW40084   3.611   3.240   3.622  0.3403 -0.7127  0.1941
 9484SOL    HW140085   3.623   3.266   3.531  0.2092  0.2214  0.4449
 9484SOL    HW240086   3.633   3.147   3.624  2.0336 -0.3570 -2.7294
 9485SOL     OW40087   2.483   3.269   8.082  0.0150 -0.1760 -0.3054
 9485SOL    HW140088   2.457   3.203   8.017  0.4011 -0.3094 -0.3226
 9485SOL    HW240089   2.397   3.307   8.100 -0.6592 -0.3234 -3.1285
 9486SOL     OW40090   3.420   2.937   7.695 -0.0481 -0.4565  0.0119
 9486SOL    HW140091   3.376   3.022   7.689 -2.4471 -1.6925 -0.1622
 9486SOL    HW240092   3.468   2.932   7.612 -2.0195 -1.0314 -1.0928
 9487SOL     OW40093   1.188   3.574   4.802  0.1740 -0.4771  0.1508
 9487SOL    HW140094   1.278   3.541   4.799 -0.2030 -1.5481  0.9778
 9487SOL    HW240095   1.217   3.665   4.810 -0.0801 -0.2350 -1.5934
 9488SOL     OW40096   1.286   1.879   7.955 -0.2433  0.2680 -0.2715
 9488SOL    HW140097   1.320   1.945   7.894 -3.4663  0.6007 -1.7323
 9488SOL    HW240098   1.359   1.855   8.011  0.7749  2.7772 -0.5516
 9489SOL     OW40099   0.780   2.754   7.140  0.1001 -0.2291 -0.3985
 9489SOL    HW140100   0.741   2.841   7.142 -0.0007 -0.2752 -0.3286
 9489SOL    HW240101   0.818   2.761   7.227  2.5260  0.4460 -1.5104
 9490SOL     OW40102   2.088   3.822  11.422  0.3311 -0.5959  0.0020
 9490SOL    HW140103   2.036   3.871  11.486  1.2405 -2.0703  1.8684
 9490SOL    HW240104   2.116   3.744  11.470 -0.1613 -0.7630  0.0182
 9491SOL     OW40105   3.951   3.388  14.473 -0.1137  0.1035 -0.0645
 9491SOL    HW140106   4.046   3.375  14.473 -0.1920 -0.4453  0.3584
 9491SOL    HW240107   3.931   3.406  14.565 -1.0537  2.6548 -0.7560
 9492SOL     OW40108   4.187   4.068   2.075  0.7750 -0.3081 -0.0312
 9492SOL    HW140109   4.125   4.123   2.027  1.5568 -0.4998 -1.2525
 9492SOL    HW240110   4.128   4.043   2.147 -0.1986 -4.2260 -2.1924
 9493SOL     OW40111   3.070   4.665  16.088  0.2236  0.4822  0.4851
 9493SOL    HW140112   3.043   0.008  16.135 -1.8235  1.1936 -1.8890
 9493SOL    HW240113   3.145   4.636  16.141  0.7954 -0.8900 -1.0773
 9494SOL     OW40114   1.186   2.845   3.184 -0.6741 -0.4564  0.0044
 9494SOL    HW140115   1.178   2.894   3.102  0.8460 -0.4950 -0.1709
 9494SOL    HW240116   1.241   2.912   3.225 -1.1148  0.0538 -0.2345
 9495SOL     OW40117   1.715   1.585   8.687 -0.4977  0.3641  0.5611
 9495SOL    HW140118   1.743   1.532   8.762  2.2308  1.3451  0.2407
 9495SOL    HW240119   1.797   1.600   8.640 -0.3822 -2.0369  0.0112
 9496SOL     OW40120   2.723   0.889   7.858  0.3229  0.0878  0.6128
 9496SOL    HW140121   2.710   0.941   7.778  0.6228  1.1483  1.2415
 9496SOL    HW240122   2.800   0.835   7.839 -1.0728 -1.6604  0.0229
 9497SOL     OW40123   1.630   3.935   0.269 -0.3754 -0.0118 -0.2907
 9497SOL    HW140124   1.627   3.884   0.350 -1.2639  2.3054  1.1141
 9497SOL    HW240125   1.722   3.959   0.276 -0.3918 -0.3271  0.9978
 9498SOL     OW40126   3.419   3.378   8.126 -0.0275 -0.2024 -0.5376
 9498SOL    HW140127   3.384   3.375   8.215  0.5956  3.5917 -0.1450
 9498SOL    HW240128   3.513   3.366   8.142 -0.6077 -3.2186  0.5509
 9499SOL     OW40129   1.715   3.329   7.778  0.3965  0.5459 -0.5602
 9499SOL    HW140130   1.724   3.237   7.753 -0.1681  0.6185 -1.0282
 9499SOL    HW240131   1.798   3.340   7.824 -0.1411  0.4380  0.4402
 9500SOL     OW40132   4.154   3.373  13.208 -0.1809 -0.2841 -0.1257
 9500SOL    HW140133   4.169   3.279  13.207  0.7045 -0.1586  1.2150
 9500SOL    HW240134   4.237   3.420  13.217 -0.5204  0.2771  0.1197
 9501SOL     OW40135   2.766   1.445   5.191  0.6243  0.1010  0.7895
 9501SOL    HW140136   2.688   1.477   5.146  0.4885  1.2158  1.8298
 9501SOL    HW240137   2.832   1.479   5.130  0.3933 -0.6472  0.1072
 9502SOL     OW40138   2.367   1.281   4.176  0.1057 -0.5145 -0.4552
 9502SOL    HW140139   2.444   1.333   4.152  0.9315 -0.5629  2.1030
 9502SOL    HW240140   2.365   1.278   4.271  3.5502 -1.4497 -0.4012
 9503SOL     OW40141   2.599   3.790   3.134  0.2547 -0.2139  0.5253
 9503SOL    HW140142   2.516   3.747   3.114  1.7185 -2.2062 -1.1571
 9503SOL    HW240143   2.561   3.860   3.188 -0.2823 -0.3813  0.3655
 9504SOL     OW40144   1.792   3.649   3.813  0.0775  0.2247 -0.2388
 9504SOL    HW140145   1.880   3.620   3.837 -0.0048  0.1808  0.0174
 9504SOL    HW240146   1.742   3.608   3.883  3.1143  1.5291  2.7063
 9505SOL     OW40147   0.890   1.072   8.641  0.2409 -0.6463  0.2276
 9505SOL    HW140148   0.904   1.057   8.734 -1.6346 -0.3621  0.5549
 9505SOL    HW240149   0.922   0.985   8.617  2.1016  0.3247 -0.8401
 9506SOL     OW40150   2.328   3.055   7.936  0.0353  0.1573 -0.8100
 9506SOL    HW140151   2.398   3.039   7.873  0.7924 -0.0717  0.0873
 9506SOL    HW240152   2.288   3.126   7.885  2.7641  1.0097 -1.7390
 9507SOL     OW40153   4.387   0.708   3.517  0.0572 -0.1039  0.3177
 9507SOL    HW140154   4.423   0.761   3.445  1.3832 -1.8220 -0.2674
 9507SOL    HW240155   4.402   0.769   3.589 -1.3620 -0.0048  0.5223
 9508SOL     OW40156   1.098   4.102   7.284  0.3935 -0.0070  0.3389
 9508SOL    HW140157   1.120   4.009   7.295  0.6478  0.2019  1.6673
 9508SOL    HW240158   1.184   4.145   7.284  1.7372 -2.6791  0.4334
 9509SOL     OW40159   1.135   3.642   1.195  0.1330 -0.7041  0.3291
 9509SOL    HW140160   1.179   3.621   1.277  0.0252 -1.2864  0.2321
 9509SOL    HW240161   1.094   3.726   1.216  1.0857 -0.9223  3.0887
 9510SOL     OW40162   4.443   1.810   4.106  0.4482 -0.3896 -0.3229
 9510SOL    HW140163   4.413   1.817   4.197  0.1705 -0.2041 -0.4317
 9510SOL    HW240164   4.381   1.744   4.075  1.1321 -1.3203  0.2857
 9511SOL     OW40165   4.139   1.002   8.378  0.0549  0.0837  0.0768
 9511SOL    HW140166   4.078   0.947   8.329 -0.3384  1.9218 -1.4696
 9511SOL    HW240167   4.088   1.079   8.403 -0.6637 -0.1643 -0.6039
 9512SOL     OW40168   4.021   3.646   3.908  0.1511 -0.3267 -0.0192
 9512SOL    HW140169   4.081   3.596   3.963 -0.2014  1.7249  2.2474
 9512SOL    HW240170   3.936   3.621   3.943  0.0761  2.0069  1.5079
 9513SOL     OW40171   3.916   1.902  13.659  0.6620 -0.0411 -0.4057
 9513SOL    HW140172   3.956   1.858  13.735  0.1983 -1.4602 -0.9751
 9513SOL    HW240173   3.933   1.839  13.589 -0.6343 -0.4113 -0.4039
 9514SOL     OW40174   0.655   0.421   4.000 -0.3888  0.2758  0.0650
 9514SOL    HW140175   0.572   0.454   4.033  0.2874  1.9898  0.0293
 9514SOL    HW240176   0.626   0.342   3.955 -0.7884 -1.0861  2.7292
 9515SOL     OW40177   1.359   2.847   7.275  0.1090 -0.2899 -0.0648
 9515SOL    HW140178   1.293   2.836   7.206  0.4892  0.3410 -0.5342
 9515SOL    HW240179   1.419   2.912   7.238  0.8571 -0.4324  0.9056
 9516SOL     OW40180   1.789   0.836   5.858  0.0458 -0.8207 -0.1417
 9516SOL    HW140181   1.760   0.802   5.773  1.0374 -0.4742 -0.6254
 9516SOL    HW240182   1.874   0.875   5.839 -0.6215  1.4949  1.6029
 9517SOL     OW40183   1.110   3.623   1.852  0.2260  0.2072  0.3402
 9517SOL    HW140184   1.033   3.606   1.798 -0.7557  1.0476  1.4892
 9517SOL    HW240185   1.165   3.687   1.807 -0.1006  1.0044  1.0705
 9518SOL     OW40186   1.079   1.302  10.353 -0.3230 -0.1404 -0.1755
 9518SOL    HW140187   1.103   1.247  10.278 -1.4716 -0.7296 -0.1100
 9518SOL    HW240188   0.990   1.270  10.371 -0.3574  1.5887  2.7187
 9519SOL     OW40189   2.524   3.682   6.304 -0.3115  0.4189  0.1824
 9519SOL    HW140190   2.464   3.685   6.378  0.0636 -2.0187  0.5958
 9519SOL    HW240191   2.593   3.740   6.336  0.7319 -0.4898 -0.4250
 9520SOL     OW40192   2.379   0.048   2.080 -0.9330  0.0489  0.9752
 9520SOL    HW140193   2.315   0.045   2.009  2.2023  1.1929 -1.8735
 9520SOL    HW240194   2.461   0.035   2.032 -1.1979 -0.3367  0.6242
 9521SOL     OW40195   1.345   3.292   3.416 -0.3801 -0.1358  0.1298
 9521SOL    HW140196   1.312   3.381   3.402  1.5336  0.4759 -0.4346
 9521SOL    HW240197   1.392   3.295   3.499 -0.3037 -3.2107  0.1753
 9522SOL     OW40198   0.523   1.520   2.143 -0.2474 -0.5897  0.0069
 9522SOL    HW140199   0.567   1.495   2.062 -1.9378  1.0019 -1.3908
 9522SOL    HW240200   0.543   1.613   2.140  0.8323 -0.8090  0.2811
 9523SOL     OW40201   1.097   0.300   6.883  0.0607 -0.1857 -0.2533
 9523SOL    HW140202   1.163   0.300   6.814  0.3883  1.3360  0.0486
 9523SOL    HW240203   1.144   0.320   6.964 -1.1686 -1.2104  0.7185
 9524SOL     OW40204   1.462   2.924   5.779 -0.3833  0.3082  0.3735
 9524SOL    HW140205   1.458   3.019   5.766  1.8848  0.2428 -0.9634
 9524SOL    HW240206   1.435   2.927   5.870 -3.5951 -0.4616 -0.5645
 9525SOL     OW40207   0.694   3.370   1.171  0.0804 -0.3392 -0.1242
 9525SOL    HW140208   0.735   3.311   1.107 -1.5704 -0.5362 -1.0083
 9525SOL    HW240209   0.749   3.448   1.172  0.7699 -0.8430  0.8119
 9526SOL     OW40210   2.109   0.292   5.101 -0.0978 -0.2106 -0.2417
 9526SOL    HW140211   2.054   0.339   5.164  2.5160  0.6452  1.3999
 9526SOL    HW240212   2.141   0.369   5.054 -1.2867  1.1720  1.1960
 9527SOL     OW40213   0.688   2.988   8.678  0.6515  0.0702  0.0798
 9527SOL    HW140214   0.618   2.999   8.614  1.9465  3.5880 -0.7292
 9527SOL    HW240215   0.633   2.990   8.756 -0.1623  3.0687 -0.5765
 9528SOL     OW40216   2.623   1.924   7.462  0.2505 -0.4425 -0.0444
 9528SOL    HW140217   2.528   1.934   7.459 -0.0515 -3.3895 -0.4096
 9528SOL    HW240218   2.636   1.981   7.538  0.9265 -0.9702  0.2378
 9529SOL     OW40219   2.334   2.489   4.876 -1.0651 -0.5056  0.3536
 9529SOL    HW140220   2.393   2.444   4.937 -0.3593  0.2831  0.2592
 9529SOL    HW240221   2.262   2.426   4.879 -1.0242 -0.6346 -1.0865
 9530SOL     OW40222   2.068   0.268   2.090  0.2204  0.2454 -0.5242
 9530SOL    HW140223   1.992   0.234   2.138  0.6342  2.0758  1.4119
 9530SOL    HW240224   2.020   0.346   2.059  0.0213  1.1445  2.0541
 9531SOL     OW40225   3.559   2.470   9.045 -0.0749  0.7409  0.1092
 9531SOL    HW140226   3.501   2.545   9.026  0.8556  0.5102 -3.6261
 9531SOL    HW240227   3.616   2.454   8.970 -0.4141  0.9823 -0.2007
 9532SOL     OW40228   3.326   3.761  16.595  0.1745 -0.3270  0.2042
 9532SOL    HW140229   3.241   3.750  16.552  1.1762 -1.9113 -1.3773
 9532SOL    HW240230   3.364   3.680  16.562  0.3683  1.3100 -3.6034
 9533SOL     OW40231   4.101   2.375  10.068  0.1436  0.3447 -0.4839
 9533SOL    HW140232   4.016   2.332  10.079  0.1947  0.3415 -0.0730
 9533SOL    HW240233   4.152   2.304  10.106  1.9539  1.4998 -0.7733
 9534SOL     OW40234   2.304   3.755   5.312  0.6757  0.4495  0.0967
 9534SOL    HW140235   2.269   3.755   5.401  2.2278  0.2916  0.6911
 9534SOL    HW240236   2.380   3.810   5.330 -0.5795  2.1457  0.3038
 9535SOL     OW40237   0.125   3.871   0.649 -0.2445 -0.4539 -0.0633
 9535SOL    HW140238   0.093   3.787   0.681 -1.9104  0.4050  0.4759
 9535SOL    HW240239   0.123   3.927   0.726 -0.0113  1.3490 -1.3537
 9536SOL     OW40240   2.869   0.418   1.120 -0.3482 -0.5191 -1.1159
 9536SOL    HW140241   2.891   0.492   1.177 -1.5409 -1.0235 -0.0148
 9536SOL    HW240242   2.791   0.455   1.079  0.9322  2.3177 -1.0568
 9537SOL     OW40243   4.622   4.224   3.005 -0.1634 -0.2749 -0.1212
 9537SOL    HW140244   4.608   4.318   3.014  0.4743 -0.0979 -0.9520
 9537SOL    HW240245   4.535   4.194   3.032  0.2512 -0.7116  0.7217
 9538SOL     OW40246   2.232   2.957  13.578 -0.9454 -0.0339 -0.1581
 9538SOL    HW140247   2.262   3.048  13.573 -2.7976  0.5266 -0.9498
 9538SOL    HW240248   2.221   2.931  13.670 -0.2941 -2.5079 -0.7573
 9539SOL     OW40249   4.307   3.107   5.275 -0.2399  0.2627 -0.4524
 9539SOL    HW140250   4.374   3.039   5.265  1.3388  1.8163 -0.4671
 9539SOL    HW240251   4.327   3.149   5.358  0.5269 -0.5665 -0.2220
 9540SOL     OW40252   0.999   0.678  14.215 -0.4459  0.1504 -0.4813
 9540SOL    HW140253   0.925   0.630  14.178 -0.8703  1.4007 -1.2723
 9540SOL    HW240254   0.957   0.762  14.232 -2.7803 -0.9095 -0.9786
 9541SOL     OW40255   3.016   1.559   3.353  0.1421 -0.0287 -0.1058
 9541SOL    HW140256   3.042   1.467   3.360  0.1045 -0.0166  0.1918
 9541SOL    HW240257   2.936   1.556   3.301 -0.6646 -3.3631  1.3237
 9542SOL     OW40258   0.035   1.420  15.126 -0.4904  0.3919  0.0686
 9542SOL    HW140259   0.114   1.465  15.098 -0.6169  1.4886  1.4641
 9542SOL    HW240260   4.715   1.482  15.172 -1.1429  0.5946 -1.0167
 9543SOL     OW40261   1.197   0.459  10.449  0.0545 -0.7416 -0.0919
 9543SOL    HW140262   1.116   0.431  10.406 -0.2743 -0.2029  0.1765
 9543SOL    HW240263   1.254   0.483  10.376 -0.3735  0.4548 -0.0423
 9544SOL     OW40264   2.097   2.651   5.909 -0.1900 -0.1495  0.1173
 9544SOL    HW140265   2.012   2.608   5.922  1.2731 -2.0277  3.4944
 9544SOL    HW240266   2.120   2.632   5.818 -1.8751  0.8802 -0.5370
 9545SOL     OW40267   2.347   2.112   6.145 -0.1053  0.0164  0.3015
 9545SOL    HW140268   2.362   2.166   6.067 -3.0332  1.8570  1.0144
 9545SOL    HW240269   2.357   2.167   6.223  0.1744  0.7983 -0.2876
 9546SOL     OW40270   1.959   0.530   2.037 -0.3480  0.1014  0.3913
 9546SOL    HW140271   1.912   0.575   2.108 -0.2869 -0.3935  0.7419
 9546SOL    HW240272   1.999   0.610   2.003  0.1483 -0.2572  0.1336
 9547SOL     OW40273   3.220   1.155   2.871 -0.3890 -0.2676 -0.5002
 9547SOL    HW140274   3.274   1.107   2.808  1.2336  1.5804 -0.5161
 9547SOL    HW240275   3.152   1.089   2.884  0.0615 -0.9108 -1.3990
 9548SOL     OW40276   4.223   1.479  16.298 -0.6946 -0.2748  0.4933
 9548SOL    HW140277   4.187   1.471  16.386  0.9182 -2.1892  0.9819
 9548SOL    HW240278   4.193   1.392  16.270  0.7961 -0.0287 -1.8316
 9549SOL     OW40279   0.902   3.030   3.170 -0.2715  0.2671 -0.3325
 9549SOL    HW140280   0.961   2.966   3.211 -1.2434 -1.5811 -1.7704
 9549SOL    HW240281   0.941   3.053   3.086  1.5594 -0.1054  0.4243
 9550SOL     OW40282   3.094   3.122   4.104  0.2261 -0.4273  0.2643
 9550SOL    HW140283   3.132   3.174   4.034  1.2966 -0.5240  0.7735
 9550SOL    HW240284   3.127   3.036   4.078  0.0511  0.1309 -1.7914
 9551SOL     OW40285   0.504   3.337   0.277  0.0046  0.1684 -0.2668
 9551SOL    HW140286   0.430   3.376   0.231 -0.9039  1.9301  2.7118
 9551SOL    HW240287   0.578   3.353   0.218  1.8466  0.2322  2.0551
 9552SOL     OW40288   0.598   1.321   5.820 -0.0478 -0.0356 -0.1536
 9552SOL    HW140289   0.517   1.271   5.828  0.8384 -1.4623 -0.0764
 9552SOL    HW240290   0.660   1.252   5.797  0.6788  1.1109 -1.6827
 9553SOL     OW40291   3.749   1.426   8.481  0.4796  0.8608 -0.0239
 9553SOL    HW140292   3.825   1.469   8.521  1.0297  1.9271 -2.2329
 9553SOL    HW240293   3.766   1.333   8.497 -1.1147  0.7202  0.8420
 9554SOL     OW40294   3.479   1.002  15.874 -0.3042  0.2556  0.1104
 9554SOL    HW140295   3.523   0.927  15.834  0.1736  0.8367 -0.4476
 9554SOL    HW240296   3.508   1.078  15.824  0.8494 -0.1219  0.2145
 9555SOL     OW40297   2.847   1.114   9.476 -0.4027  0.4978 -0.0308
 9555SOL    HW140298   2.921   1.053   9.473 -0.4573  0.3826  0.8589
 9555SOL    HW240299   2.783   1.063   9.526 -1.1374  1.4184 -0.0433
 9556SOL     OW40300   4.148   2.606   8.654  0.1481 -0.3796 -0.1722
 9556SOL    HW140301   4.235   2.573   8.676 -0.1703  0.4859  2.3789
 9556SOL    HW240302   4.093   2.560   8.718 -2.5538  1.9149 -0.8654
 9557SOL     OW40303   3.729   4.255  15.962  0.6766  0.0235  0.1525
 9557SOL    HW140304   3.817   4.266  16.000  1.9176 -2.3773 -2.0063
 9557SOL    HW240305   3.744   4.242  15.869 -1.2883  0.8938 -0.2837
 9558SOL     OW40306   1.059   2.553  16.648 -0.0493  0.6302 -0.3122
 9558SOL    HW140307   1.029   2.635  16.608 -2.0823  0.5409  1.0334
 9558SOL    HW240308   1.141   2.531  16.605  1.8774  2.0379  2.6156
 9559SOL     OW40309   1.084   0.500   3.800 -0.3739 -0.1570 -0.5023
 9559SOL    HW140310   1.060   0.419   3.755  0.9514 -1.7976  1.7181
 9559SOL    HW240311   1.072   0.479   3.893  1.3790  0.1856 -0.2023
 9560SOL     OW40312   0.761   3.005   5.619 -0.0562  0.2937  0.3157
 9560SOL    HW140313   0.674   2.981   5.649 -0.4921  1.6728  0.1708
 9560SOL    HW240314   0.794   2.915   5.625 -2.5382 -0.5221  1.4306
 9561SOL     OW40315   3.728   0.226   6.835  0.0955 -0.0047  0.4034
 9561SOL    HW140316   3.675   0.255   6.761 -1.3440  1.0387  1.8501
 9561SOL    HW240317   3.707   0.288   6.905  0.5109 -0.1361  0.6473
 9562SOL     OW40318   1.525   4.466   4.202 -0.7711  0.3260  0.2490
 9562SOL    HW140319   1.557   4.398   4.142  1.7901  0.6997  1.1786
 9562SOL    HW240320   1.605   4.512   4.228 -0.9266  0.5077  0.4052
 9563SOL     OW40321   1.504   1.388   4.834  0.6260  0.3661 -0.4589
 9563SOL    HW140322   1.567   1.430   4.892  0.8564  1.0971 -1.2587
 9563SOL    HW240323   1.507   1.448   4.760 -0.3650  1.0296  0.0343
 9564SOL     OW40324   0.385   3.930   3.561  0.0297  0.3129 -0.6078
 9564SOL    HW140325   0.331   3.862   3.520 -0.1181  0.1149 -0.0830
 9564SOL    HW240326   0.324   4.004   3.553 -1.0170 -0.4380  0.4387
 9565SOL     OW40327   1.021   3.186   3.639  0.0607  0.3464 -0.1997
 9565SOL    HW140328   0.952   3.160   3.700  0.4007 -0.4573 -0.1588
 9565SOL    HW240329   0.970   3.210   3.562 -1.8651 -0.4063  0.8250
 9566SOL     OW40330   1.285   2.512   7.680 -0.7417 -0.3122 -0.4446
 9566SOL    HW140331   1.243   2.426   7.677  1.6530 -1.5065  0.6564
 9566SOL    HW240332   1.338   2.500   7.601 -0.5927  1.8293 -0.6542
 9567SOL     OW40333   1.726   4.577   2.991 -0.1634  0.3588  0.0270
 9567SOL    HW140334   1.668   4.599   3.064  0.6851 -0.8331  1.0670
 9567SOL    HW240335   1.684   4.607   2.911  0.5421 -0.0310 -0.4890
 9568SOL     OW40336   2.451   0.531  10.005  0.2930 -0.0114 -0.2408
 9568SOL    HW140337   2.517   0.585   9.961  1.8423 -0.8598  1.0675
 9568SOL    HW240338   2.479   0.543  10.096 -1.4871  1.5110  0.1103
 9569SOL     OW40339   0.695   0.267  10.628  0.2576 -0.1568  0.4644
 9569SOL    HW140340   0.708   0.186  10.677  2.0371  0.1706  0.5355
 9569SOL    HW240341   0.610   0.249  10.589  0.1465 -0.3772  0.8123
 9570SOL     OW40342   0.810   4.416  14.410 -0.1445 -0.7117 -0.4177
 9570SOL    HW140343   0.887   4.449  14.456  0.4647 -1.5293 -0.8655
 9570SOL    HW240344   0.745   4.487  14.406  0.8933  0.3071  0.7161
 9571SOL     OW40345   4.576   2.511   6.089  0.3365  0.3386 -0.5032
 9571SOL    HW140346   4.508   2.455   6.126  2.3953 -1.1171  1.0557
 9571SOL    HW240347   4.582   2.585   6.150  1.5256 -1.1837  1.2033
   4.73601   4.73601  17.74265
